 Entering Gaussian System, Link 0=g09
 Initial command:
 /cm/shared/apps/gaussian/g09revD.01/g09/l1.exe "//home/sweav003/CHB/validation/natProd2/G09-Diketopiperazine7_Gong.com.o9824511.tmp/Gau-10598.inp" -scrdir="//home/sweav003/CHB/validation/natProd2/G09-Diketopiperazine7_Gong.com.o9824511.tmp/"
 Entering Link 1 = /cm/shared/apps/gaussian/g09revD.01/g09/l1.exe PID=     10599.
  
 Copyright (c) 1988,1990,1992,1993,1995,1998,2003,2009,2013,
            Gaussian, Inc.  All Rights Reserved.
  
 This is part of the Gaussian(R) 09 program.  It is based on
 the Gaussian(R) 03 system (copyright 2003, Gaussian, Inc.),
 the Gaussian(R) 98 system (copyright 1998, Gaussian, Inc.),
 the Gaussian(R) 94 system (copyright 1995, Gaussian, Inc.),
 the Gaussian 92(TM) system (copyright 1992, Gaussian, Inc.),
 the Gaussian 90(TM) system (copyright 1990, Gaussian, Inc.),
 the Gaussian 88(TM) system (copyright 1988, Gaussian, Inc.),
 the Gaussian 86(TM) system (copyright 1986, Carnegie Mellon
 University), and the Gaussian 82(TM) system (copyright 1983,
 Carnegie Mellon University). Gaussian is a federally registered
 trademark of Gaussian, Inc.
  
 This software contains proprietary and confidential information,
 including trade secrets, belonging to Gaussian, Inc.
  
 This software is provided under written license and may be
 used, copied, transmitted, or stored only in accord with that
 written license.
  
 The following legend is applicable only to US Government
 contracts under FAR:
  
                    RESTRICTED RIGHTS LEGEND
  
 Use, reproduction and disclosure by the US Government is
 subject to restrictions as set forth in subparagraphs (a)
 and (c) of the Commercial Computer Software - Restricted
 Rights clause in FAR 52.227-19.
  
 Gaussian, Inc.
 340 Quinnipiac St., Bldg. 40, Wallingford CT 06492
  
  
 ---------------------------------------------------------------
 Warning -- This program may not be used in any manner that
 competes with the business of Gaussian, Inc. or will provide
 assistance to any competitor of Gaussian, Inc.  The licensee
 of this program is prohibited from giving any competitor of
 Gaussian, Inc. access to this program.  By using this program,
 the user acknowledges that Gaussian, Inc. is engaged in the
 business of creating and licensing software in the field of
 computational chemistry and represents and warrants to the
 licensee that it is not a competitor of Gaussian, Inc. and that
 it will not use this program in any manner prohibited above.
 ---------------------------------------------------------------
  

 Cite this work as:
 Gaussian 09, Revision D.01,
 M. J. Frisch, G. W. Trucks, H. B. Schlegel, G. E. Scuseria, 
 M. A. Robb, J. R. Cheeseman, G. Scalmani, V. Barone, B. Mennucci, 
 G. A. Petersson, H. Nakatsuji, M. Caricato, X. Li, H. P. Hratchian, 
 A. F. Izmaylov, J. Bloino, G. Zheng, J. L. Sonnenberg, M. Hada, 
 M. Ehara, K. Toyota, R. Fukuda, J. Hasegawa, M. Ishida, T. Nakajima, 
 Y. Honda, O. Kitao, H. Nakai, T. Vreven, J. A. Montgomery, Jr., 
 J. E. Peralta, F. Ogliaro, M. Bearpark, J. J. Heyd, E. Brothers, 
 K. N. Kudin, V. N. Staroverov, T. Keith, R. Kobayashi, J. Normand, 
 K. Raghavachari, A. Rendell, J. C. Burant, S. S. Iyengar, J. Tomasi, 
 M. Cossi, N. Rega, J. M. Millam, M. Klene, J. E. Knox, J. B. Cross, 
 V. Bakken, C. Adamo, J. Jaramillo, R. Gomperts, R. E. Stratmann, 
 O. Yazyev, A. J. Austin, R. Cammi, C. Pomelli, J. W. Ochterski, 
 R. L. Martin, K. Morokuma, V. G. Zakrzewski, G. A. Voth, 
 P. Salvador, J. J. Dannenberg, S. Dapprich, A. D. Daniels, 
 O. Farkas, J. B. Foresman, J. V. Ortiz, J. Cioslowski, 
 and D. J. Fox, Gaussian, Inc., Wallingford CT, 2013.
 
 ******************************************
 Gaussian 09:  ES64L-G09RevD.01 24-Apr-2013
                25-Jan-2023 
 ******************************************
 %nprocshared=20
 Will use up to   20 processors via shared memory.
 %mem=4GB
 %chk=Diketopiperazine7_Gong.chk
 ----------------------------------------------------------------------
 # opt=rcfc freq=noraman b3lyp/6-311+g(d,p) geom=allcheck pop=(hirshfel
 d,chelpg,npa,mbs) guess=read
 ----------------------------------------------------------------------
 1/10=5,14=-1,18=20,19=15,26=3,29=7,38=1/1,3;
 2/9=110,12=2,40=1/2;
 3/5=4,6=6,7=111,11=2,14=-4,16=1,25=1,30=1,71=1,74=-5,116=-2/1,2,3;
 4/5=1/1;
 5/5=2,38=6/2;
 6/7=2,8=2,9=2,10=2,15=8,20=3,27=100,28=1,40=-1,79=1/1,2,7;
 7//1,2,3,16;
 1/14=-1,18=20,19=15,26=3/3(2);
 2/9=110/2;
 99//99;
 2/9=110/2;
 3/5=4,6=6,7=111,11=2,14=-2,16=1,25=1,30=1,71=1,74=-5/1,2,3;
 4/5=5,16=3,69=1/1;
 5/5=2,38=5/2;
 7//1,2,3,16;
 1/14=-1,18=20,19=15,26=3/3(-5);
 2/9=110/2;
 6/7=2,8=2,9=2,10=2,15=8,19=2,20=3,27=100,28=1,40=-1,79=1/1,2,7;
 99/9=1/99;
 Structure from the checkpoint file:  "Diketopiperazine7_Gong.chk"
 -------------------
 Title Card Required
 -------------------
 Charge =  0 Multiplicity = 1
 Redundant internal coordinates found in file.
 C,0,-3.8977466333,1.5960468882,-0.4644747099
 C,0,-3.0539477526,0.9191149292,0.4568213833
 C,0,-3.6092351202,0.4504648463,1.6597785763
 C,0,-4.9590828824,0.6545905444,1.9062732423
 C,0,-5.7769596254,1.3215245802,0.9730519666
 C,0,-5.2579116964,1.8014230675,-0.2213494506
 C,0,-1.8153420029,1.5461473652,-1.3184836257
 C,0,-1.727043199,0.8974949459,-0.1121246161
 H,0,-2.991273706,-0.063084969,2.3879760483
 H,0,-5.3955207535,0.2993024188,2.8330078374
 H,0,-6.8286286215,1.4652636256,1.1929853954
 H,0,-5.8877346,2.3185632847,-0.9370522366
 H,0,-3.4333372503,2.4559783708,-2.3541348679
 H,0,-1.047400212,1.743282577,-2.0501016288
 N,0,-3.1135562184,1.9656428255,-1.536017199
 C,0,-0.5005262313,0.2729425954,0.4864852125
 H,0,0.3660096006,0.9285468831,0.3757180502
 H,0,-0.6434529875,0.1222930338,1.5589617065
 C,0,-0.0879377782,-1.0960094032,-0.1364782694
 H,0,0.7529455193,-1.4785991805,0.4472684977
 C,0,-1.2161095729,-2.1176189598,-0.0472301397
 O,0,-1.7890024898,-2.5954146843,-0.9959383982
 O,0,-1.4968038103,-2.4145448731,1.2307168296
 C,0,-2.5904707373,-3.3332630221,1.4414245036
 H,0,-3.5187922873,-2.9007503445,1.0674227289
 H,0,-2.3946729548,-4.2772378007,0.9324247712
 H,0,-2.6404819729,-3.4791202517,2.5179008969
 N,0,0.29841969,-0.9953196011,-1.5324672896
 H,0,-0.3519495075,-1.3549412094,-2.2173722831
 C,0,1.5169819918,-0.621277575,-2.006713451
 O,0,1.8247657035,-0.588578425,-3.1808828193
 O,0,2.3555116635,-0.2732839915,-0.9912007334
 C,0,3.6893652959,0.1340704774,-1.3982763196
 H,0,3.6045215526,1.0096177129,-2.0444753351
 H,0,4.1385327676,-0.6732608554,-1.9789072301
 C,0,4.4787998288,0.4332831179,-0.1544100265
 C,0,5.1922509293,-0.579485394,0.4938310977
 C,0,4.4993437052,1.7238805437,0.3823031444
 C,0,5.9088633591,-0.3098742608,1.6575826833
 H,0,5.1874060904,-1.5836141976,0.0823234281
 C,0,5.214987663,1.9978619125,1.5460252678
 H,0,3.9534568227,2.5185870913,-0.1159183379
 C,0,5.9204236772,0.9801993226,2.1864034668
 H,0,6.460805653,-1.1035228187,2.1485930888
 H,0,5.2254396494,3.0039418954,1.9500586916
 H,0,6.4809944409,1.1923829622,3.0898954519
 Recover connectivity data from disk.

 GradGradGradGradGradGradGradGradGradGradGradGradGradGradGradGradGradGrad
 Berny optimization.
 Initialization pass.
 Cartesian force constants read from checkpoint file:
 "Diketopiperazine7_Gong.chk"
 FormGI is forming the generalized inverse of G from B-inverse, IUseBI=4.
 GSVD:  received Info=                   1 from GESDD.
                           ----------------------------
                           !    Initial Parameters    !
                           ! (Angstroms and Degrees)  !
 --------------------------                            --------------------------
 ! Name  Definition              Value          Derivative Info.                !
 --------------------------------------------------------------------------------
 ! R1    R(1,2)                  1.4209         D2E/DX2 =    0.2738             !
 ! R2    R(1,6)                  1.3969         D2E/DX2 =    0.3834             !
 ! R3    R(1,15)                 1.3783         D2E/DX2 =    0.3472             !
 ! R4    R(2,3)                  1.4054         D2E/DX2 =    0.3704             !
 ! R5    R(2,8)                  1.4439         D2E/DX2 =    0.2922             !
 ! R6    R(3,4)                  1.3873         D2E/DX2 =    0.4048             !
 ! R7    R(3,9)                  1.0844         D2E/DX2 =    0.3552             !
 ! R8    R(4,5)                  1.4088         D2E/DX2 =    0.3586             !
 ! R9    R(4,10)                 1.0842         D2E/DX2 =    0.355              !
 ! R10   R(5,6)                  1.3879         D2E/DX2 =    0.405              !
 ! R11   R(5,11)                 1.084          D2E/DX2 =    0.356              !
 ! R12   R(6,12)                 1.0846         D2E/DX2 =    0.3545             !
 ! R13   R(7,8)                  1.3725         D2E/DX2 =    0.4043             !
 ! R14   R(7,14)                 1.0788         D2E/DX2 =    0.3704             !
 ! R15   R(7,15)                 1.3815         D2E/DX2 =    0.3378             !
 ! R16   R(8,16)                 1.5009         D2E/DX2 =    0.3063             !
 ! R17   R(13,15)                1.006          D2E/DX2 =    0.4797             !
 ! R18   R(16,17)                1.0922         D2E/DX2 =    0.3352             !
 ! R19   R(16,18)                1.0924         D2E/DX2 =    0.336              !
 ! R20   R(16,19)                1.5596         D2E/DX2 =    0.2383             !
 ! R21   R(19,20)                1.0928         D2E/DX2 =    0.3335             !
 ! R22   R(19,21)                1.5246         D2E/DX2 =    0.2714             !
 ! R23   R(19,28)                1.452          D2E/DX2 =    0.3373             !
 ! R24   R(21,22)                1.2069         D2E/DX2 =    0.8331             !
 ! R25   R(21,23)                1.3417         D2E/DX2 =    0.4027             !
 ! R26   R(23,24)                1.4438         D2E/DX2 =    0.3063             !
 ! R27   R(24,25)                1.0903         D2E/DX2 =    0.3415             !
 ! R28   R(24,26)                1.0902         D2E/DX2 =    0.3416             !
 ! R29   R(24,27)                1.0875         D2E/DX2 =    0.349              !
 ! R30   R(28,29)                1.0106         D2E/DX2 =    0.4642             !
 ! R31   R(28,30)                1.36           D2E/DX2 =    0.4641             !
 ! R32   R(30,31)                1.2143         D2E/DX2 =    0.7909             !
 ! R33   R(30,32)                1.3622         D2E/DX2 =    0.3674             !
 ! R34   R(32,33)                1.4529         D2E/DX2 =    0.282              !
 ! R35   R(33,34)                1.0915         D2E/DX2 =    0.3366             !
 ! R36   R(33,35)                1.0912         D2E/DX2 =    0.3375             !
 ! R37   R(33,36)                1.5033         D2E/DX2 =    0.3074             !
 ! R38   R(36,37)                1.3982         D2E/DX2 =    0.3842             !
 ! R39   R(36,38)                1.3979         D2E/DX2 =    0.3849             !
 ! R40   R(37,39)                1.393          D2E/DX2 =    0.3934             !
 ! R41   R(37,40)                1.0852         D2E/DX2 =    0.3536             !
 ! R42   R(38,41)                1.3934         D2E/DX2 =    0.3928             !
 ! R43   R(38,42)                1.0853         D2E/DX2 =    0.3531             !
 ! R44   R(39,43)                1.3943         D2E/DX2 =    0.3919             !
 ! R45   R(39,44)                1.0843         D2E/DX2 =    0.3554             !
 ! R46   R(41,43)                1.394          D2E/DX2 =    0.3925             !
 ! R47   R(41,45)                1.0842         D2E/DX2 =    0.3557             !
 ! R48   R(43,46)                1.0842         D2E/DX2 =    0.3556             !
 ! A1    A(2,1,6)              122.3721         D2E/DX2 =    0.0776             !
 ! A2    A(2,1,15)             107.0947         D2E/DX2 =    0.0885             !
 ! A3    A(6,1,15)             130.5317         D2E/DX2 =    0.0955             !
 ! A4    A(1,2,3)              118.6346         D2E/DX2 =    0.0759             !
 ! A5    A(1,2,8)              107.2998         D2E/DX2 =    0.0858             !
 ! A6    A(3,2,8)              134.0583         D2E/DX2 =    0.09               !
 ! A7    A(2,3,4)              119.1752         D2E/DX2 =    0.0811             !
 ! A8    A(2,3,9)              120.5022         D2E/DX2 =    0.0798             !
 ! A9    A(4,3,9)              120.3225         D2E/DX2 =    0.08               !
 ! A10   A(3,4,5)              121.1216         D2E/DX2 =    0.0819             !
 ! A11   A(3,4,10)             119.6917         D2E/DX2 =    0.0818             !
 ! A12   A(5,4,10)             119.1864         D2E/DX2 =    0.0818             !
 ! A13   A(4,5,6)              121.108          D2E/DX2 =    0.0814             !
 ! A14   A(4,5,11)             119.4473         D2E/DX2 =    0.0815             !
 ! A15   A(6,5,11)             119.4444         D2E/DX2 =    0.0817             !
 ! A16   A(1,6,5)              117.5863         D2E/DX2 =    0.0799             !
 ! A17   A(1,6,12)             121.3778         D2E/DX2 =    0.0781             !
 ! A18   A(5,6,12)             121.0357         D2E/DX2 =    0.0788             !
 ! A19   A(8,7,14)             129.5403         D2E/DX2 =    0.0746             !
 ! A20   A(8,7,15)             110.0199         D2E/DX2 =    0.0919             !
 ! A21   A(14,7,15)            120.4397         D2E/DX2 =    0.0827             !
 ! A22   A(2,8,7)              106.2681         D2E/DX2 =    0.0903             !
 ! A23   A(2,8,16)             126.8731         D2E/DX2 =    0.1049             !
 ! A24   A(7,8,16)             126.8533         D2E/DX2 =    0.1041             !
 ! A25   A(1,15,7)             109.3172         D2E/DX2 =    0.0922             !
 ! A26   A(1,15,13)            125.5976         D2E/DX2 =    0.0775             !
 ! A27   A(7,15,13)            125.0828         D2E/DX2 =    0.0776             !
 ! A28   A(8,16,17)            110.9838         D2E/DX2 =    0.0492             !
 ! A29   A(8,16,18)            110.0003         D2E/DX2 =    0.0517             !
 ! A30   A(8,16,19)            114.9688         D2E/DX2 =    0.1437             !
 ! A31   A(17,16,18)           106.6273         D2E/DX2 =    0.0195             !
 ! A32   A(17,16,19)           106.0501         D2E/DX2 =    0.0604             !
 ! A33   A(18,16,19)           107.8014         D2E/DX2 =    0.0606             !
 ! A34   A(16,19,20)           107.3073         D2E/DX2 =    0.0316             !
 ! A35   A(16,19,21)           111.6557         D2E/DX2 =    0.0857             !
 ! A36   A(16,19,28)           113.1765         D2E/DX2 =    0.0885             !
 ! A37   A(20,19,21)           107.6696         D2E/DX2 =    0.0243             !
 ! A38   A(20,19,28)           109.4575         D2E/DX2 =    0.0301             !
 ! A39   A(21,19,28)           107.4368         D2E/DX2 =    0.0896             !
 ! A40   A(19,21,22)           124.7869         D2E/DX2 =    0.173              !
 ! A41   A(19,21,23)           111.0305         D2E/DX2 =    0.173              !
 ! A42   A(22,21,23)           124.1818         D2E/DX2 =    0.2109             !
 ! A43   A(21,23,24)           115.9959         D2E/DX2 =    0.2883             !
 ! A44   A(23,24,25)           110.0279         D2E/DX2 =    0.1435             !
 ! A45   A(23,24,26)           110.2915         D2E/DX2 =    0.1424             !
 ! A46   A(23,24,27)           105.3461         D2E/DX2 =    0.143              !
 ! A47   A(25,24,26)           109.6489         D2E/DX2 =    0.0701             !
 ! A48   A(25,24,27)           110.7086         D2E/DX2 =    0.0688             !
 ! A49   A(26,24,27)           110.7504         D2E/DX2 =    0.0685             !
 ! A50   A(19,28,29)           117.107          D2E/DX2 =    0.0963             !
 ! A51   A(19,28,30)           126.3519         D2E/DX2 =    0.137              !
 ! A52   A(29,28,30)           115.9845         D2E/DX2 =    0.0947             !
 ! A53   A(28,30,31)           124.8682         D2E/DX2 =    0.1861             !
 ! A54   A(28,30,32)           111.2138         D2E/DX2 =    0.2222             !
 ! A55   A(31,30,32)           123.9159         D2E/DX2 =    0.2126             !
 ! A56   A(30,32,33)           115.3347         D2E/DX2 =    0.2953             !
 ! A57   A(32,33,34)           108.6282         D2E/DX2 =    0.0702             !
 ! A58   A(32,33,35)           108.6365         D2E/DX2 =    0.0702             !
 ! A59   A(32,33,36)           107.8236         D2E/DX2 =    0.1577             !
 ! A60   A(34,33,35)           108.087          D2E/DX2 =    0.0323             !
 ! A61   A(34,33,36)           111.7786         D2E/DX2 =    0.0695             !
 ! A62   A(35,33,36)           111.8007         D2E/DX2 =    0.0694             !
 ! A63   A(33,36,37)           120.491          D2E/DX2 =    0.1169             !
 ! A64   A(33,36,38)           120.6077         D2E/DX2 =    0.1169             !
 ! A65   A(37,36,38)           118.897          D2E/DX2 =    0.086              !
 ! A66   A(36,37,39)           120.6388         D2E/DX2 =    0.0833             !
 ! A67   A(36,37,40)           119.4819         D2E/DX2 =    0.0827             !
 ! A68   A(39,37,40)           119.8791         D2E/DX2 =    0.0827             !
 ! A69   A(36,38,41)           120.6473         D2E/DX2 =    0.0833             !
 ! A70   A(36,38,42)           119.4994         D2E/DX2 =    0.0827             !
 ! A71   A(41,38,42)           119.8531         D2E/DX2 =    0.0827             !
 ! A72   A(37,39,43)           120.0124         D2E/DX2 =    0.0822             !
 ! A73   A(37,39,44)           119.9021         D2E/DX2 =    0.0817             !
 ! A74   A(43,39,44)           120.0849         D2E/DX2 =    0.0817             !
 ! A75   A(38,41,43)           120.0013         D2E/DX2 =    0.0822             !
 ! A76   A(38,41,45)           119.9102         D2E/DX2 =    0.0818             !
 ! A77   A(43,41,45)           120.0881         D2E/DX2 =    0.0817             !
 ! A78   A(39,43,41)           119.8028         D2E/DX2 =    0.0823             !
 ! A79   A(39,43,46)           120.0931         D2E/DX2 =    0.0815             !
 ! A80   A(41,43,46)           120.1033         D2E/DX2 =    0.0815             !
 ! D1    D(6,1,2,3)             -0.534          D2E/DX2 =    0.004              !
 ! D2    D(6,1,2,8)           -179.686          D2E/DX2 =    0.0036             !
 ! D3    D(15,1,2,3)           179.0642         D2E/DX2 =    0.004              !
 ! D4    D(15,1,2,8)            -0.0879         D2E/DX2 =    0.0062             !
 ! D5    D(2,1,6,5)              0.2582         D2E/DX2 =    0.0064             !
 ! D6    D(2,1,6,12)          -179.8654         D2E/DX2 =    0.0062             !
 ! D7    D(15,1,6,5)          -179.2364         D2E/DX2 =    0.0076             !
 ! D8    D(15,1,6,12)            0.64           D2E/DX2 =    0.0071             !
 ! D9    D(2,1,15,7)            -0.0135         D2E/DX2 =    0.0079             !
 ! D10   D(2,1,15,13)          179.4423         D2E/DX2 =    0.0031             !
 ! D11   D(6,1,15,7)           179.54           D2E/DX2 =    0.0049             !
 ! D12   D(6,1,15,13)           -1.0043         D2E/DX2 =    0.0024             !
 ! D13   D(1,2,3,4)              0.3949         D2E/DX2 =    0.0066             !
 ! D14   D(1,2,3,9)           -179.5072         D2E/DX2 =    0.0067             !
 ! D15   D(8,2,3,4)            179.2683         D2E/DX2 =    0.0074             !
 ! D16   D(8,2,3,9)             -0.6338         D2E/DX2 =    0.0072             !
 ! D17   D(1,2,8,7)              0.1559         D2E/DX2 =    0.0072             !
 ! D18   D(1,2,8,16)          -179.0314         D2E/DX2 =    0.0053             !
 ! D19   D(3,2,8,7)           -178.8084         D2E/DX2 =    0.0048             !
 ! D20   D(3,2,8,16)             2.0042         D2E/DX2 =    0.0038             !
 ! D21   D(2,3,4,5)             -0.0065         D2E/DX2 =    0.0091             !
 ! D22   D(2,3,4,10)          -179.8061         D2E/DX2 =    0.0086             !
 ! D23   D(9,3,4,5)            179.8958         D2E/DX2 =    0.0077             !
 ! D24   D(9,3,4,10)             0.0962         D2E/DX2 =    0.0086             !
 ! D25   D(3,4,5,6)             -0.2772         D2E/DX2 =    0.0092             !
 ! D26   D(3,4,5,11)           179.9311         D2E/DX2 =    0.0078             !
 ! D27   D(10,4,5,6)           179.5234         D2E/DX2 =    0.008              !
 ! D28   D(10,4,5,11)           -0.2683         D2E/DX2 =    0.0083             !
 ! D29   D(4,5,6,1)              0.1481         D2E/DX2 =    0.009              !
 ! D30   D(4,5,6,12)          -179.7287         D2E/DX2 =    0.0074             !
 ! D31   D(11,5,6,1)           179.9399         D2E/DX2 =    0.0083             !
 ! D32   D(11,5,6,12)            0.0631         D2E/DX2 =    0.0083             !
 ! D33   D(14,7,8,2)           179.9786         D2E/DX2 =    0.0055             !
 ! D34   D(14,7,8,16)           -0.8339         D2E/DX2 =    0.0049             !
 ! D35   D(15,7,8,2)            -0.1672         D2E/DX2 =    0.0096             !
 ! D36   D(15,7,8,16)          179.0203         D2E/DX2 =    0.007              !
 ! D37   D(8,7,15,1)             0.1166         D2E/DX2 =    0.0106             !
 ! D38   D(8,7,15,13)         -179.3426         D2E/DX2 =    0.0043             !
 ! D39   D(14,7,15,1)          179.9862         D2E/DX2 =    0.0054             !
 ! D40   D(14,7,15,13)           0.527          D2E/DX2 =    0.0029             !
 ! D41   D(2,8,16,17)         -136.8781         D2E/DX2 =    0.0129             !
 ! D42   D(2,8,16,18)          -19.1203         D2E/DX2 =    0.0124             !
 ! D43   D(2,8,16,19)          102.7747         D2E/DX2 =    0.0133             !
 ! D44   D(7,8,16,17)           44.0968         D2E/DX2 =    0.0128             !
 ! D45   D(7,8,16,18)          161.8547         D2E/DX2 =    0.0126             !
 ! D46   D(7,8,16,19)          -76.2503         D2E/DX2 =    0.0131             !
 ! D47   D(8,16,19,20)        -174.8096         D2E/DX2 =    0.0144             !
 ! D48   D(8,16,19,21)         -57.0482         D2E/DX2 =    0.0179             !
 ! D49   D(8,16,19,28)          64.3308         D2E/DX2 =    0.019              !
 ! D50   D(17,16,19,20)         62.1653         D2E/DX2 =    0.0133             !
 ! D51   D(17,16,19,21)        179.9266         D2E/DX2 =    0.0183             !
 ! D52   D(17,16,19,28)        -58.6944         D2E/DX2 =    0.0184             !
 ! D53   D(18,16,19,20)        -51.732          D2E/DX2 =    0.0132             !
 ! D54   D(18,16,19,21)         66.0293         D2E/DX2 =    0.0177             !
 ! D55   D(18,16,19,28)       -172.5917         D2E/DX2 =    0.0187             !
 ! D56   D(16,19,21,22)        115.231          D2E/DX2 =    0.0196             !
 ! D57   D(16,19,21,23)        -64.4624         D2E/DX2 =    0.0216             !
 ! D58   D(20,19,21,22)       -127.2256         D2E/DX2 =    0.0149             !
 ! D59   D(20,19,21,23)         53.081          D2E/DX2 =    0.016              !
 ! D60   D(28,19,21,22)         -9.4187         D2E/DX2 =    0.0216             !
 ! D61   D(28,19,21,23)        170.8879         D2E/DX2 =    0.0233             !
 ! D62   D(16,19,28,29)       -106.5765         D2E/DX2 =    0.013              !
 ! D63   D(16,19,28,30)         82.3647         D2E/DX2 =    0.0135             !
 ! D64   D(20,19,28,29)        133.7894         D2E/DX2 =    0.009              !
 ! D65   D(20,19,28,30)        -37.2694         D2E/DX2 =    0.0081             !
 ! D66   D(21,19,28,29)         17.1497         D2E/DX2 =    0.0139             !
 ! D67   D(21,19,28,30)       -153.9091         D2E/DX2 =    0.0136             !
 ! D68   D(19,21,23,24)        177.5136         D2E/DX2 =    0.0183             !
 ! D69   D(22,21,23,24)         -2.182          D2E/DX2 =    0.0172             !
 ! D70   D(21,23,24,25)        -62.7617         D2E/DX2 =    0.0236             !
 ! D71   D(21,23,24,26)         58.3265         D2E/DX2 =    0.0234             !
 ! D72   D(21,23,24,27)        177.8761         D2E/DX2 =    0.0238             !
 ! D73   D(19,28,30,31)        177.4403         D2E/DX2 =    0.018              !
 ! D74   D(19,28,30,32)         -3.0725         D2E/DX2 =    0.0168             !
 ! D75   D(29,28,30,31)          6.2937         D2E/DX2 =    0.0168             !
 ! D76   D(29,28,30,32)       -174.219          D2E/DX2 =    0.0198             !
 ! D77   D(28,30,32,33)        179.6017         D2E/DX2 =    0.0228             !
 ! D78   D(31,30,32,33)         -0.9053         D2E/DX2 =    0.0194             !
 ! D79   D(30,32,33,34)         60.5594         D2E/DX2 =    0.0224             !
 ! D80   D(30,32,33,35)        -56.7913         D2E/DX2 =    0.022              !
 ! D81   D(30,32,33,36)       -178.1317         D2E/DX2 =    0.0188             !
 ! D82   D(32,33,36,37)         88.6145         D2E/DX2 =    0.0152             !
 ! D83   D(32,33,36,38)        -90.6243         D2E/DX2 =    0.0152             !
 ! D84   D(34,33,36,37)       -152.0595         D2E/DX2 =    0.0153             !
 ! D85   D(34,33,36,38)         28.7017         D2E/DX2 =    0.0158             !
 ! D86   D(35,33,36,37)        -30.7349         D2E/DX2 =    0.0158             !
 ! D87   D(35,33,36,38)        150.0263         D2E/DX2 =    0.0153             !
 ! D88   D(33,36,37,39)       -179.0543         D2E/DX2 =    0.0068             !
 ! D89   D(33,36,37,40)          1.0905         D2E/DX2 =    0.007              !
 ! D90   D(38,36,37,39)          0.1974         D2E/DX2 =    0.0073             !
 ! D91   D(38,36,37,40)       -179.6578         D2E/DX2 =    0.007              !
 ! D92   D(33,36,38,41)        179.062          D2E/DX2 =    0.0068             !
 ! D93   D(33,36,38,42)         -1.083          D2E/DX2 =    0.007              !
 ! D94   D(37,36,38,41)         -0.1888         D2E/DX2 =    0.0073             !
 ! D95   D(37,36,38,42)        179.6662         D2E/DX2 =    0.007              !
 ! D96   D(36,37,39,43)         -0.0555         D2E/DX2 =    0.009              !
 ! D97   D(36,37,39,44)       -179.7849         D2E/DX2 =    0.0083             !
 ! D98   D(40,37,39,43)        179.799          D2E/DX2 =    0.0083             !
 ! D99   D(40,37,39,44)          0.0697         D2E/DX2 =    0.0089             !
 ! D100  D(36,38,41,43)          0.0383         D2E/DX2 =    0.009              !
 ! D101  D(36,38,41,45)        179.7946         D2E/DX2 =    0.0083             !
 ! D102  D(42,38,41,43)       -179.8161         D2E/DX2 =    0.0083             !
 ! D103  D(42,38,41,45)         -0.0598         D2E/DX2 =    0.0089             !
 ! D104  D(37,39,43,41)         -0.0978         D2E/DX2 =    0.0092             !
 ! D105  D(37,39,43,46)       -179.7537         D2E/DX2 =    0.0084             !
 ! D106  D(44,39,43,41)        179.631          D2E/DX2 =    0.0082             !
 ! D107  D(44,39,43,46)         -0.0248         D2E/DX2 =    0.0089             !
 ! D108  D(38,41,43,39)          0.1064         D2E/DX2 =    0.0092             !
 ! D109  D(38,41,43,46)        179.7622         D2E/DX2 =    0.0084             !
 ! D110  D(45,41,43,39)       -179.6495         D2E/DX2 =    0.0082             !
 ! D111  D(45,41,43,46)          0.0063         D2E/DX2 =    0.0089             !
 --------------------------------------------------------------------------------
 Trust Radius=3.00D-01 FncErr=1.00D-07 GrdErr=1.00D-06
 Number of steps in this run=    249 maximum allowed number of steps=    276.
 GradGradGradGradGradGradGradGradGradGradGradGradGradGradGradGradGradGrad

                          Input orientation:                          
 ---------------------------------------------------------------------
 Center     Atomic      Atomic             Coordinates (Angstroms)
 Number     Number       Type             X           Y           Z
 ---------------------------------------------------------------------
      1          6           0       -3.897747    1.596047   -0.464475
      2          6           0       -3.053948    0.919115    0.456821
      3          6           0       -3.609235    0.450465    1.659779
      4          6           0       -4.959083    0.654591    1.906273
      5          6           0       -5.776960    1.321525    0.973052
      6          6           0       -5.257912    1.801423   -0.221349
      7          6           0       -1.815342    1.546147   -1.318484
      8          6           0       -1.727043    0.897495   -0.112125
      9          1           0       -2.991274   -0.063085    2.387976
     10          1           0       -5.395521    0.299302    2.833008
     11          1           0       -6.828629    1.465264    1.192985
     12          1           0       -5.887735    2.318563   -0.937052
     13          1           0       -3.433337    2.455978   -2.354135
     14          1           0       -1.047400    1.743283   -2.050102
     15          7           0       -3.113556    1.965643   -1.536017
     16          6           0       -0.500526    0.272943    0.486485
     17          1           0        0.366010    0.928547    0.375718
     18          1           0       -0.643453    0.122293    1.558962
     19          6           0       -0.087938   -1.096009   -0.136478
     20          1           0        0.752946   -1.478599    0.447268
     21          6           0       -1.216110   -2.117619   -0.047230
     22          8           0       -1.789002   -2.595415   -0.995938
     23          8           0       -1.496804   -2.414545    1.230717
     24          6           0       -2.590471   -3.333263    1.441425
     25          1           0       -3.518792   -2.900750    1.067423
     26          1           0       -2.394673   -4.277238    0.932425
     27          1           0       -2.640482   -3.479120    2.517901
     28          7           0        0.298420   -0.995320   -1.532467
     29          1           0       -0.351950   -1.354941   -2.217372
     30          6           0        1.516982   -0.621278   -2.006713
     31          8           0        1.824766   -0.588578   -3.180883
     32          8           0        2.355512   -0.273284   -0.991201
     33          6           0        3.689365    0.134070   -1.398276
     34          1           0        3.604522    1.009618   -2.044475
     35          1           0        4.138533   -0.673261   -1.978907
     36          6           0        4.478800    0.433283   -0.154410
     37          6           0        5.192251   -0.579485    0.493831
     38          6           0        4.499344    1.723881    0.382303
     39          6           0        5.908863   -0.309874    1.657583
     40          1           0        5.187406   -1.583614    0.082323
     41          6           0        5.214988    1.997862    1.546025
     42          1           0        3.953457    2.518587   -0.115918
     43          6           0        5.920424    0.980199    2.186403
     44          1           0        6.460806   -1.103523    2.148593
     45          1           0        5.225440    3.003942    1.950059
     46          1           0        6.480994    1.192383    3.089895
 ---------------------------------------------------------------------
                    Distance matrix (angstroms):
                    1          2          3          4          5
     1  C    0.000000
     2  C    1.420922   0.000000
     3  C    2.430648   1.405376   0.000000
     4  C    2.762828   2.408407   1.387269   0.000000
     5  C    2.381866   2.800575   2.435029   1.408767   0.000000
     6  C    1.396903   2.468976   2.842862   2.435426   1.387915
     7  C    2.251273   2.253669   3.645356   4.590973   4.582140
     8  C    2.307397   1.443898   2.623380   3.818247   4.214170
     9  H    3.422117   2.167488   1.084381   2.149272   3.417484
    10  H    3.846851   3.393139   2.142460   1.084225   2.156356
    11  H    3.369621   3.884383   3.407669   2.158975   1.083992
    12  H    2.169196   3.454227   3.927452   3.422820   2.157511
    13  H    2.127434   3.226044   4.490493   4.870726   4.224893
    14  H    3.265022   3.315139   4.690159   5.669163   5.629038
    15  N    1.378317   2.251706   3.571354   4.119975   3.715378
    16  C    3.767763   2.634081   3.327492   4.694697   5.401576
    17  H    4.396714   3.420932   4.204753   5.547455   6.184441
    18  H    4.105688   2.767693   2.985586   4.362181   5.304181
    19  C    4.676472   3.634549   4.244721   5.564664   6.280167
    20  H    5.649218   4.499062   4.921391   6.269487   7.124381
    21  C    4.599629   3.585174   3.903330   5.050858   5.802589
    22  O    4.722034   4.007807   4.432094   5.388393   5.926478
    23  O    4.972228   3.759907   3.585351   4.675826   5.687208
    24  C    5.444219   4.389416   3.924558   4.661479   5.660400
    25  H    4.765659   3.896189   3.404366   3.926647   4.789137
    26  H    6.221417   5.259555   4.935117   5.643360   6.541227
    27  H    6.019352   4.874780   4.137209   4.778866   5.938875
    28  N    5.046147   4.342890   5.248856   6.495265   6.968187
    29  H    4.934943   4.429835   5.376030   6.501411   6.839080
    30  C    6.050976   5.416199   6.392957   7.673247   8.115113
    31  O    6.700642   6.269599   7.351189   8.570019   8.870733
    32  O    6.547906   5.725455   6.567321   7.922096   8.516971
    33  C    7.782906   7.037752   7.919683   9.272898   9.830796
    34  H    7.689235   7.113360   8.128495   9.437679   9.859764
    35  H    8.486757   7.758879   8.633117   9.981204  10.536139
    36  C    8.462546   7.573105   8.289022   9.662765  10.355711
    37  C    9.395709   8.381346   8.937919  10.323154  11.143028
    38  C    8.440646   7.596408   8.306779   9.639901  10.301130
    39  C   10.212995   9.126019   9.548420  10.913491  11.818989
    40  H    9.641018   8.621126   9.165519  10.549293  11.377634
    41  C    9.340530   8.409837   8.959592  10.268684  11.027631
    42  H    7.912899   7.210413   8.038939   9.327224   9.864067
    43  C   10.188370   9.139723   9.558888  10.887982  11.765097
    44  H   11.018866   9.873383  10.200958  11.556969  12.530988
    45  H    9.541733   8.667440   9.200869  10.452075  11.173086
    46  H   10.977921   9.895599  10.218043  11.513711  12.440062
                    6          7          8          9         10
     6  C    0.000000
     7  C    3.622175   0.000000
     8  C    3.646375   1.372534   0.000000
     9  H    3.927164   4.208359   2.961671   0.000000
    10  H    3.406523   5.622027   4.742296   2.471797   0.000000
    11  H    2.140210   5.607768   5.296399   4.299901   2.470412
    12  H    1.084593   4.162511   4.473398   5.011741   4.305002
    13  H    2.882063   2.125623   3.219770   5.387830   5.950451
    14  H    4.590874   1.078824   2.221042   5.170894   6.695968
    15  N    2.520631   1.381542   2.256286   4.419096   5.203118
    16  C    5.046781   2.570545   1.500914   3.151572   5.428428
    17  H    5.722490   2.830202   2.149378   4.037805   6.295193
    18  H    5.223238   3.417657   2.137203   2.496776   4.923076
    19  C    5.927137   3.370765   2.580953   3.983612   6.239806
    20  H    6.880116   4.343164   3.479811   4.448506   6.830543
    21  C    5.632528   3.924073   3.058787   3.647266   5.621811
    22  O    5.653804   4.154186   3.603524   4.394204   6.003931
    23  O    5.833422   4.720908   3.581318   3.016961   5.013212
    24  C    6.020387   5.659202   4.588936   3.427925   4.795867
    25  H    5.176476   5.326274   4.362151   3.174032   4.108496
    26  H    6.817584   6.270090   5.321153   4.498183   5.793274
    27  H    6.499121   6.375893   5.187115   3.436456   4.686791
    28  N    6.357171   3.312527   3.114903   5.202021   7.290705
    29  H    6.165647   3.371325   3.375858   5.462981   7.326696
    30  C    7.413244   4.034325   4.052140   6.320541   8.488408
    31  O    8.039606   4.612588   4.923519   7.381231   9.438631
    32  O    7.928512   4.562178   4.337136   6.328596   8.662040
    33  C    9.177090   5.683496   5.619118   7.681505  10.023284
    34  H    9.082591   5.494529   5.672048   8.018842  10.261343
    35  H    9.874525   6.388314   6.352726   8.383086  10.723739
    36  C    9.832591   6.496904   6.223325   7.906460  10.317210
    37  C   10.741793   7.543816   7.101076   8.415731  10.878645
    38  C    9.776218   6.542134   6.300418   7.957721  10.292897
    39  C   11.518890   8.483227   7.930742   8.933466  11.381644
    40  H   10.984323   7.797189   7.348695   8.632430  11.095494
    41  C   10.622797   7.604932   7.221638   8.502888  10.822399
    42  H    9.239846   5.972507   5.907287   7.820729  10.051108
    43  C   11.464156   8.511557   7.985851   8.974822  11.354837
    44  H   12.303807   9.356067   8.726728   9.512183  11.958629
    45  H   10.773195   7.898173   7.551605   8.781390  10.995430
    46  H   12.212174   9.401497   8.815428   9.580854  11.912817
                   11         12         13         14         15
    11  H    0.000000
    12  H    2.480013   0.000000
    13  H    5.009150   2.837441   0.000000
    14  H    6.634569   4.999866   2.508599   0.000000
    15  N    4.636766   2.859961   1.005985   2.140731   0.000000
    16  C    6.478090   5.935742   4.629919   2.982489   3.712637
    17  H    7.260772   6.539482   4.921400   2.923375   4.103374
    18  H    6.339866   6.209362   5.342459   3.976948   4.367865
    19  C    7.332428   6.777748   5.359694   3.555855   4.526234
    20  H    8.167171   7.773893   6.391692   4.456302   5.544913
    21  C    6.773149   6.503505   5.581729   4.352760   4.742343
    22  O    6.832154   6.399238   5.483166   4.526094   4.780102
    23  O    6.594141   6.810419   6.350065   5.315380   5.427223
    24  C    6.406993   6.962201   6.973666   6.351625   6.100589
    25  H    5.480224   6.072153   6.356800   6.115045   5.533886
    26  H    7.259764   7.694220   7.564159   6.852538   6.751560
    27  H    6.613842   7.489625   7.719504   7.118852   6.804667
    28  N    8.017317   7.043071   5.149039   3.095015   4.517620
    29  H    7.844200   6.766001   4.902730   3.179720   4.372299
    30  C    9.178287   8.038449   5.839167   3.488421   5.324997
    31  O    9.911116   8.542184   6.131923   3.868537   5.797987
    32  O    9.599044   8.641280   6.543488   4.094829   5.934671
    33  C   10.913978   9.833899   7.552338   5.044937   7.046515
    34  H   10.933407   9.645862   7.191613   4.709424   6.804784
    35  H   11.615198  10.514871   8.201594   5.721770   7.729991
    36  C   11.434089  10.565597   8.457659   5.987373   7.867708
    37  C   12.213573  11.541759   9.577355   7.127418   8.921009
    38  C   11.359888  10.487409   8.423271   6.056677   7.854594
    39  C   12.868981  12.361251  10.536628   8.145672   9.837739
    40  H   12.446458  11.786639   9.827098   7.381618   9.171817
    41  C   12.060555  11.381519   9.498139   7.225956   8.880578
    42  H   10.912199   9.877415   7.718695   5.417632   7.229461
    43  C   12.796894  12.287384  10.501774   8.190289   9.820403
    44  H   13.569116  13.180225  11.438473   9.061263  10.708153
    45  H   12.175436  11.502513   9.685079   7.545798   9.097782
    46  H   13.446888  13.056418  11.381042   9.132348  10.679532
                   16         17         18         19         20
    16  C    0.000000
    17  H    1.092232   0.000000
    18  H    1.092396   1.751892   0.000000
    19  C    1.559597   2.137111   2.160411   0.000000
    20  H    2.154212   2.439096   2.397634   1.092804   0.000000
    21  C    2.551803   3.458484   2.815137   1.524606   2.128392
    22  O    3.476381   4.352450   3.902017   2.424976   3.129157
    23  O    2.961256   3.921398   2.696572   2.364881   2.559523
    24  C    4.276037   5.295237   3.968068   3.709144   3.950513
    25  H    4.418116   5.498514   4.200950   4.059215   4.544761
    26  H    4.948818   5.918740   4.776525   4.072321   4.239724
    27  H    4.773263   5.749389   4.228223   4.386391   4.450276
    28  N    2.514552   2.710535   3.419520   1.451963   2.087943
    29  H    3.159577   3.529008   4.065451   2.113497   2.887282
    30  C    3.329566   3.066378   4.234904   2.509764   2.709387
    31  O    4.427052   4.132681   5.391064   3.631022   3.886440
    32  O    3.261728   2.696476   3.956463   2.716224   2.467832
    33  C    4.596390   3.850057   5.245828   4.168123   3.824827
    34  H    4.878511   4.043744   5.640691   4.659225   4.531169
    35  H    5.338008   4.726730   6.001401   4.629937   4.242299
    36  C    5.022962   4.176286   5.410160   4.816030   4.230757
    37  C    5.756249   5.057738   5.973478   5.342703   4.529681
    38  C    5.207185   4.209163   5.513435   5.409627   4.929056
    39  C    6.541515   5.822379   6.567294   6.308588   5.423492
    40  H    5.996893   5.444529   6.252159   5.302347   4.450691
    41  C    6.063421   5.101533   6.151362   6.365837   5.762193
    42  H    5.024318   3.954708   5.447846   5.422048   5.151500
    43  C    6.679710   5.842325   6.649373   6.768074   5.981063
    44  H    7.288169   6.664753   7.233310   6.935968   5.967818
    45  H    6.510537   5.513608   6.549867   7.028173   6.508053
    46  H    7.507646   6.695477   7.365229   7.667927   6.850414
                   21         22         23         24         25
    21  C    0.000000
    22  O    1.206873   0.000000
    23  O    1.341679   2.253017   0.000000
    24  C    2.362785   2.669740   1.443796   0.000000
    25  H    2.675461   2.709772   2.086024   1.090287   0.000000
    26  H    2.648148   2.629439   2.089204   1.090186   1.782298
    27  H    3.234566   3.721964   2.024392   1.087464   1.791599
    28  N    2.399851   2.684306   3.587787   4.759800   4.996119
    29  H    2.457227   2.257387   3.784544   4.723508   4.817499
    30  C    3.680815   3.981007   4.772805   6.009633   6.324977
    31  O    4.626518   4.675542   5.816287   6.956532   7.207486
    32  O    4.129059   4.750717   4.935813   6.304275   6.756401
    33  C    5.564092   6.133880   6.348496   7.715092   8.200448
    34  H    6.083345   6.571590   6.962420   8.330068   8.701522
    35  H    5.872797   6.308453   6.714966   8.003360   8.536771
    36  C    6.241040   7.011885   6.762880   8.167505   8.750436
    37  C    6.612540   7.417633   6.975235   8.309752   9.033247
    38  C    6.899857   7.752365   7.334859   8.772794   9.281546
    39  C    7.545831   8.457069   7.710756   9.023651   9.794979
    40  H    6.427049   7.131386   6.832856   8.087261   8.860201
    41  C    7.799658   8.753036   8.038464   9.452884  10.025187
    42  H    6.944317   7.739721   7.473591   8.915854   9.306128
    43  C    8.094177   9.074556   8.212971   9.570594  10.267068
    44  H    8.048917   8.953946   8.116947   9.348659  10.197614
    45  H    8.468359   9.446380   8.664064  10.075085  10.588013
    46  H    8.946680   9.971675   8.950516  10.270852  10.992719
                   26         27         28         29         30
    26  H    0.000000
    27  H    1.791968   0.000000
    28  N    4.909117   5.586760   0.000000
    29  H    4.757495   5.672066   1.010645   0.000000
    30  C    6.107833   6.776718   1.360041   2.018798   0.000000
    31  O    6.951918   7.795499   2.283078   2.500751   1.214279
    32  O    6.503556   6.895733   2.246315   3.162882   1.362167
    33  C    7.868121   8.273969   3.576596   4.384096   2.379075
    34  H    8.532474   8.942266   3.900287   4.612450   2.649352
    35  H    8.009200   8.605183   3.879368   4.548185   2.622214
    36  C    8.403264   8.551744   4.627691   5.548847   3.649040
    37  C    8.451459   8.593977   5.313039   6.220138   4.445455
    38  C    9.156611   9.088955   5.357999   6.306544   4.483486
    39  C    9.231172   9.158361   6.490249   7.436748   5.728234
    40  H    8.091119   8.414322   5.182261   6.002112   4.331533
    41  C    9.882323   9.625501   6.527549   7.509676   5.758219
    42  H    9.358473   9.294597   5.264356   6.160913   4.401166
    43  C    9.917355   9.658392   7.024216   8.011791   6.287866
    44  H    9.485306   9.413463   7.178922   8.095585   6.476151
    45  H   10.588544  10.209077   7.238619   8.214293   6.523107
    46  H   10.646544  10.264086   8.023497   9.019150   7.342085
                   31         32         33         34         35
    31  O    0.000000
    32  O    2.275041   0.000000
    33  C    2.678925   1.452864   0.000000
    34  H    2.648242   2.077318   1.091492   0.000000
    35  H    2.608723   2.077188   1.091177   1.766790   0.000000
    36  C    4.153027   2.389102   1.503309   2.160757   2.160790
    37  C    4.984332   3.216546   2.519503   3.389562   2.689526
    38  C    5.019674   3.235923   2.520719   2.683306   3.384049
    39  C    6.337845   4.432121   3.802832   4.555906   4.060810
    40  H    4.790194   3.299855   2.717856   3.708591   2.485468
    41  C    6.366077   4.446597   3.803966   4.057329   4.551791
    42  H    4.855905   3.333780   2.720314   2.473475   3.700388
    43  C    6.931323   4.937306   4.306215   4.823339   4.822746
    44  H    7.082468   5.234600   4.668276   5.495957   4.755453
    45  H    7.127226   5.256206   4.669800   4.749843   5.489987
    46  H    8.010927   5.985243   5.390446   5.888061   5.887318
                   36         37         38         39         40
    36  C    0.000000
    37  C    1.398188   0.000000
    38  C    1.397900   2.407915   0.000000
    39  C    2.425012   1.393033   2.783746   0.000000
    40  H    2.150823   1.085190   3.391598   2.150432   0.000000
    41  C    2.425151   2.783945   1.393363   2.412375   3.869128
    42  H    2.150804   3.391822   1.085254   3.868994   4.288355
    43  C    2.802999   2.414053   2.413982   1.394301   3.396705
    44  H    3.404988   2.149903   3.867987   1.084255   2.474167
    45  H    3.405077   3.868159   2.150263   3.396173   4.953338
    46  H    3.887227   3.397047   3.397129   2.153051   4.292438
                   41         42         43         44         45
    41  C    0.000000
    42  H    2.150505   0.000000
    43  C    1.394045   3.396510   0.000000
    44  H    3.396136   4.953230   2.152984   0.000000
    45  H    1.084227   2.474221   2.152765   4.293811   0.000000
    46  H    2.152929   4.292378   1.084232   2.481459   2.481409
                   46
    46  H    0.000000
 Stoichiometry    C20H20N2O4
 Framework group  C1[X(C20H20N2O4)]
 Deg. of freedom   132
 Full point group                 C1      NOp   1
 Largest Abelian subgroup         C1      NOp   1
 Largest concise Abelian subgroup C1      NOp   1
                         Standard orientation:                         
 ---------------------------------------------------------------------
 Center     Atomic      Atomic             Coordinates (Angstroms)
 Number     Number       Type             X           Y           Z
 ---------------------------------------------------------------------
      1          6           0       -3.898608   -1.593387    0.468606
      2          6           0       -3.055185   -0.917789   -0.454012
      3          6           0       -3.611205   -0.449906   -1.656929
      4          6           0       -4.961379   -0.653463   -1.902107
      5          6           0       -5.778864   -1.319069   -0.967596
      6          6           0       -5.259097   -1.798186    0.226807
      7          6           0       -1.815460   -1.543934    1.320825
      8          6           0       -1.727792   -0.896431    0.113803
      9          1           0       -2.993553    0.062619   -2.386110
     10          1           0       -5.398384   -0.298762   -2.828799
     11          1           0       -6.830801   -1.462390   -1.186517
     12          1           0       -5.888623   -2.314306    0.943507
     13          1           0       -3.433120   -2.451874    2.358658
     14          1           0       -1.047021   -1.740855    2.051979
     15          7           0       -3.113737   -1.962470    1.539827
     16          6           0       -0.501411   -0.273143   -0.486401
     17          1           0        0.364833   -0.929155   -0.375763
     18          1           0       -0.645148   -0.123384   -1.558894
     19          6           0       -0.087498    1.096133    0.134971
     20          1           0        0.753120    1.477698   -0.449827
     21          6           0       -1.215145    2.118323    0.045739
     22          8           0       -1.786963    2.597317    0.994492
     23          8           0       -1.496736    2.414252   -1.232242
     24          6           0       -2.590040    3.333420   -1.442869
     25          1           0       -3.518301    2.901792   -1.067697
     26          1           0       -2.393262    4.277742   -0.934892
     27          1           0       -2.640868    3.478328   -2.519435
     28          7           0        0.299970    0.996485    1.530727
     29          1           0       -0.349614    1.357111    2.215849
     30          6           0        1.518710    0.622159    2.004293
     31          8           0        1.827458    0.590346    3.178233
     32          8           0        2.356184    0.272750    0.988395
     33          6           0        3.690139   -0.135017    1.394724
     34          1           0        3.605324   -1.009927    2.041790
     35          1           0        4.140266    0.672578    1.974244
     36          6           0        4.478356   -0.435824    0.150470
     37          6           0        5.191857    0.575936   -0.499289
     38          6           0        4.497693   -1.726920   -0.385087
     39          6           0        5.907336    0.304847   -1.663395
     40          1           0        5.187946    1.580441   -0.088691
     41          6           0        5.212201   -2.002379   -1.549158
     42          1           0        3.951758   -2.520853    0.114314
     43          6           0        5.917697   -0.985713   -2.191052
     44          1           0        6.459332    1.097725   -2.155589
     45          1           0        5.221725   -3.008832   -1.952285
     46          1           0        6.477386   -1.199047   -3.094819
 ---------------------------------------------------------------------
 Rotational constants (GHZ):      0.3357337      0.0968539      0.0945208
 Standard basis: 6-311+G(d,p) (5D, 7F)
 There are   718 symmetry adapted cartesian basis functions of A   symmetry.
 There are   692 symmetry adapted basis functions of A   symmetry.
   692 basis functions,  1096 primitive gaussians,   718 cartesian basis functions
    93 alpha electrons       93 beta electrons
       nuclear repulsion energy      2229.8579882516 Hartrees.
 NAtoms=   46 NActive=   46 NUniq=   46 SFac= 1.00D+00 NAtFMM=   60 NAOKFM=F Big=F
 Integral buffers will be    131072 words long.
 Raffenetti 2 integral format.
 Two-electron integral symmetry is turned on.
 One-electron integrals computed using PRISM.
 NBasis=   692 RedAO= T EigKep=  1.07D-06  NBF=   692
 NBsUse=   690 1.00D-06 EigRej=  6.42D-07 NBFU=   690
 Initial guess from the checkpoint file:  "Diketopiperazine7_Gong.chk"
 B after Tr=     0.000000    0.000000    0.000000
         Rot=    1.000000    0.000000    0.000000    0.000000 Ang=   0.00 deg.
 Requested convergence on RMS density matrix=1.00D-08 within 128 cycles.
 Requested convergence on MAX density matrix=1.00D-06.
 Requested convergence on             energy=1.00D-06.
 No special actions if energy rises.
 SCF Done:  E(RB3LYP) =  -1184.93852383     A.U. after    1 cycles
            NFock=  1  Conv=0.28D-08     -V/T= 2.0041

 **********************************************************************

            Population analysis using the SCF density.

 **********************************************************************

 Orbital symmetries:
       Occupied  (A) (A) (A) (A) (A) (A) (A) (A) (A) (A) (A) (A)
                 (A) (A) (A) (A) (A) (A) (A) (A) (A) (A) (A) (A)
                 (A) (A) (A) (A) (A) (A) (A) (A) (A) (A) (A) (A)
                 (A) (A) (A) (A) (A) (A) (A) (A) (A) (A) (A) (A)
                 (A) (A) (A) (A) (A) (A) (A) (A) (A) (A) (A) (A)
                 (A) (A) (A) (A) (A) (A) (A) (A) (A) (A) (A) (A)
                 (A) (A) (A) (A) (A) (A) (A) (A) (A) (A) (A) (A)
                 (A) (A) (A) (A) (A) (A) (A) (A) (A)
       Virtual   (A) (A) (A) (A) (A) (A) (A) (A) (A) (A) (A) (A)
                 (A) (A) (A) (A) (A) (A) (A) (A) (A) (A) (A) (A)
                 (A) (A) (A) (A) (A) (A) (A) (A) (A) (A) (A) (A)
                 (A) (A) (A) (A) (A) (A) (A) (A) (A) (A) (A) (A)
                 (A) (A) (A) (A) (A) (A) (A) (A) (A) (A) (A) (A)
                 (A) (A) (A) (A) (A) (A) (A) (A) (A) (A) (A) (A)
                 (A) (A) (A) (A) (A) (A) (A) (A) (A) (A) (A) (A)
                 (A) (A) (A) (A) (A) (A) (A) (A) (A) (A) (A) (A)
                 (A) (A) (A) (A) (A) (A) (A) (A) (A) (A) (A) (A)
                 (A) (A) (A) (A) (A) (A) (A) (A) (A) (A) (A) (A)
                 (A) (A) (A) (A) (A) (A) (A) (A) (A) (A) (A) (A)
                 (A) (A) (A) (A) (A) (A) (A) (A) (A) (A) (A) (A)
                 (A) (A) (A) (A) (A) (A) (A) (A) (A) (A) (A) (A)
                 (A) (A) (A) (A) (A) (A) (A) (A) (A) (A) (A) (A)
                 (A) (A) (A) (A) (A) (A) (A) (A) (A) (A) (A) (A)
                 (A) (A) (A) (A) (A) (A) (A) (A) (A) (A) (A) (A)
                 (A) (A) (A) (A) (A) (A) (A) (A) (A) (A) (A) (A)
                 (A) (A) (A) (A) (A) (A) (A) (A) (A) (A) (A) (A)
                 (A) (A) (A) (A) (A) (A) (A) (A) (A) (A) (A) (A)
                 (A) (A) (A) (A) (A) (A) (A) (A) (A) (A) (A) (A)
                 (A) (A) (A) (A) (A) (A) (A) (A) (A) (A) (A) (A)
                 (A) (A) (A) (A) (A) (A) (A) (A) (A) (A) (A) (A)
                 (A) (A) (A) (A) (A) (A) (A) (A) (A) (A) (A) (A)
                 (A) (A) (A) (A) (A) (A) (A) (A) (A) (A) (A) (A)
                 (A) (A) (A) (A) (A) (A) (A) (A) (A) (A) (A) (A)
                 (A) (A) (A) (A) (A) (A) (A) (A) (A) (A) (A) (A)
                 (A) (A) (A) (A) (A) (A) (A) (A) (A) (A) (A) (A)
                 (A) (A) (A) (A) (A) (A) (A) (A) (A) (A) (A) (A)
                 (A) (A) (A) (A) (A) (A) (A) (A) (A) (A) (A) (A)
                 (A) (A) (A) (A) (A) (A) (A) (A) (A) (A) (A) (A)
                 (A) (A) (A) (A) (A) (A) (A) (A) (A) (A) (A) (A)
                 (A) (A) (A) (A) (A) (A) (A) (A) (A) (A) (A) (A)
                 (A) (A) (A) (A) (A) (A) (A) (A) (A) (A) (A) (A)
                 (A) (A) (A) (A) (A) (A) (A) (A) (A) (A) (A) (A)
                 (A) (A) (A) (A) (A) (A) (A) (A) (A) (A) (A) (A)
                 (A) (A) (A) (A) (A) (A) (A) (A) (A) (A) (A) (A)
                 (A) (A) (A) (A) (A) (A) (A) (A) (A) (A) (A) (A)
                 (A) (A) (A) (A) (A) (A) (A) (A) (A) (A) (A) (A)
                 (A) (A) (A) (A) (A) (A) (A) (A) (A) (A) (A) (A)
                 (A) (A) (A) (A) (A) (A) (A) (A) (A) (A) (A) (A)
                 (A) (A) (A) (A) (A) (A) (A) (A) (A) (A) (A) (A)
                 (A) (A) (A) (A) (A) (A) (A) (A) (A) (A) (A) (A)
                 (A) (A) (A) (A) (A) (A) (A) (A) (A) (A) (A) (A)
                 (A) (A) (A) (A) (A) (A) (A) (A) (A) (A) (A) (A)
                 (A) (A) (A) (A) (A) (A) (A) (A) (A) (A) (A) (A)
                 (A) (A) (A) (A) (A) (A) (A) (A) (A) (A) (A) (A)
                 (A) (A) (A) (A) (A) (A) (A) (A) (A) (A) (A) (A)
                 (A) (A) (A) (A) (A) (A) (A) (A) (A) (A) (A) (A)
                 (A) (A) (A) (A) (A) (A) (A) (A) (A) (A) (A) (A)
                 (A) (A) (A) (A) (A) (A) (A) (A) (A)
 The electronic state is 1-A.
 Alpha  occ. eigenvalues --  -19.18406 -19.16590 -19.12797 -19.09433 -14.36301
 Alpha  occ. eigenvalues --  -14.34002 -10.31980 -10.31540 -10.23735 -10.23609
 Alpha  occ. eigenvalues --  -10.23441 -10.20965 -10.20730 -10.19346 -10.18712
 Alpha  occ. eigenvalues --  -10.18631 -10.18614 -10.18594 -10.18540 -10.18518
 Alpha  occ. eigenvalues --  -10.17835 -10.17540 -10.17436 -10.17348 -10.17289
 Alpha  occ. eigenvalues --  -10.16906  -1.12616  -1.10968  -1.03984  -1.01658
 Alpha  occ. eigenvalues --   -0.98783  -0.93996  -0.87166  -0.84734  -0.81641
 Alpha  occ. eigenvalues --   -0.78909  -0.77832  -0.75955  -0.74380  -0.73930
 Alpha  occ. eigenvalues --   -0.72156  -0.70902  -0.67343  -0.63021  -0.62068
 Alpha  occ. eigenvalues --   -0.61641  -0.60068  -0.58970  -0.58689  -0.56829
 Alpha  occ. eigenvalues --   -0.54890  -0.54048  -0.53286  -0.52471  -0.50614
 Alpha  occ. eigenvalues --   -0.49855  -0.49278  -0.49103  -0.47978  -0.47282
 Alpha  occ. eigenvalues --   -0.46776  -0.46411  -0.45383  -0.44846  -0.44707
 Alpha  occ. eigenvalues --   -0.43760  -0.43453  -0.43187  -0.42757  -0.42389
 Alpha  occ. eigenvalues --   -0.41587  -0.40566  -0.39823  -0.38993  -0.38229
 Alpha  occ. eigenvalues --   -0.38011  -0.37567  -0.37164  -0.36010  -0.35597
 Alpha  occ. eigenvalues --   -0.35177  -0.34287  -0.34227  -0.32475  -0.30897
 Alpha  occ. eigenvalues --   -0.29937  -0.28566  -0.28481  -0.26726  -0.26439
 Alpha  occ. eigenvalues --   -0.26373  -0.23220  -0.21242
 Alpha virt. eigenvalues --   -0.03097  -0.02737  -0.02502  -0.01348  -0.00674
 Alpha virt. eigenvalues --   -0.00196   0.00174   0.00820   0.01151   0.01421
 Alpha virt. eigenvalues --    0.01809   0.01946   0.02688   0.03119   0.03162
 Alpha virt. eigenvalues --    0.03616   0.04036   0.04145   0.04329   0.04692
 Alpha virt. eigenvalues --    0.04912   0.05083   0.05613   0.06125   0.06813
 Alpha virt. eigenvalues --    0.06876   0.07169   0.07322   0.07611   0.08070
 Alpha virt. eigenvalues --    0.08648   0.08790   0.09495   0.09682   0.09727
 Alpha virt. eigenvalues --    0.10248   0.10389   0.10516   0.11081   0.11587
 Alpha virt. eigenvalues --    0.11742   0.12313   0.12368   0.12881   0.13119
 Alpha virt. eigenvalues --    0.13222   0.13359   0.13556   0.13945   0.14119
 Alpha virt. eigenvalues --    0.14474   0.14509   0.14768   0.15026   0.15276
 Alpha virt. eigenvalues --    0.15537   0.15985   0.16112   0.16403   0.16527
 Alpha virt. eigenvalues --    0.17008   0.17377   0.17526   0.17645   0.17846
 Alpha virt. eigenvalues --    0.18111   0.18207   0.18763   0.18986   0.19136
 Alpha virt. eigenvalues --    0.19373   0.19501   0.19575   0.19928   0.20123
 Alpha virt. eigenvalues --    0.20292   0.20496   0.20664   0.20932   0.21042
 Alpha virt. eigenvalues --    0.21266   0.21833   0.22112   0.22208   0.22532
 Alpha virt. eigenvalues --    0.22661   0.22995   0.23065   0.23409   0.23637
 Alpha virt. eigenvalues --    0.23817   0.24123   0.24211   0.24630   0.24804
 Alpha virt. eigenvalues --    0.25007   0.25075   0.25275   0.25723   0.25846
 Alpha virt. eigenvalues --    0.26162   0.26545   0.26682   0.26833   0.27017
 Alpha virt. eigenvalues --    0.27491   0.27948   0.28283   0.28416   0.28686
 Alpha virt. eigenvalues --    0.29282   0.29417   0.29737   0.30115   0.30435
 Alpha virt. eigenvalues --    0.30477   0.30804   0.31039   0.31254   0.31572
 Alpha virt. eigenvalues --    0.31994   0.32246   0.32364   0.33112   0.33629
 Alpha virt. eigenvalues --    0.34140   0.34168   0.34497   0.34849   0.35067
 Alpha virt. eigenvalues --    0.35816   0.36142   0.36272   0.36412   0.36685
 Alpha virt. eigenvalues --    0.37346   0.37434   0.37941   0.38338   0.39253
 Alpha virt. eigenvalues --    0.40084   0.40523   0.40553   0.42403   0.43203
 Alpha virt. eigenvalues --    0.43329   0.43936   0.44427   0.45815   0.45865
 Alpha virt. eigenvalues --    0.47030   0.47110   0.48411   0.48882   0.49607
 Alpha virt. eigenvalues --    0.50224   0.50730   0.51465   0.51829   0.52040
 Alpha virt. eigenvalues --    0.52944   0.53377   0.53564   0.53694   0.54448
 Alpha virt. eigenvalues --    0.54715   0.55304   0.55410   0.55868   0.56177
 Alpha virt. eigenvalues --    0.56408   0.56789   0.57042   0.57885   0.59139
 Alpha virt. eigenvalues --    0.59614   0.60602   0.60904   0.61285   0.61703
 Alpha virt. eigenvalues --    0.61958   0.62599   0.63439   0.63997   0.64637
 Alpha virt. eigenvalues --    0.65436   0.65489   0.66268   0.66471   0.66828
 Alpha virt. eigenvalues --    0.67375   0.67620   0.67886   0.68123   0.68333
 Alpha virt. eigenvalues --    0.69237   0.69470   0.69800   0.70152   0.70645
 Alpha virt. eigenvalues --    0.70964   0.71344   0.71719   0.71794   0.72477
 Alpha virt. eigenvalues --    0.73007   0.73881   0.74185   0.74376   0.74582
 Alpha virt. eigenvalues --    0.75014   0.75243   0.75519   0.76211   0.76645
 Alpha virt. eigenvalues --    0.76799   0.77710   0.78272   0.78536   0.78840
 Alpha virt. eigenvalues --    0.79371   0.79986   0.80979   0.81991   0.82724
 Alpha virt. eigenvalues --    0.83207   0.83668   0.84209   0.84862   0.85283
 Alpha virt. eigenvalues --    0.85387   0.85964   0.86423   0.87453   0.87794
 Alpha virt. eigenvalues --    0.88109   0.88907   0.89921   0.90697   0.91321
 Alpha virt. eigenvalues --    0.92273   0.92747   0.93489   0.94450   0.94912
 Alpha virt. eigenvalues --    0.95302   0.95475   0.96871   0.97509   0.97863
 Alpha virt. eigenvalues --    1.00121   1.01032   1.01410   1.02059   1.02530
 Alpha virt. eigenvalues --    1.03122   1.04137   1.04545   1.04732   1.05228
 Alpha virt. eigenvalues --    1.06694   1.07008   1.07283   1.08092   1.08731
 Alpha virt. eigenvalues --    1.09128   1.10203   1.10677   1.11739   1.12891
 Alpha virt. eigenvalues --    1.13236   1.13711   1.14486   1.15009   1.16562
 Alpha virt. eigenvalues --    1.17275   1.18277   1.19615   1.20428   1.21272
 Alpha virt. eigenvalues --    1.22482   1.22973   1.24868   1.25832   1.26742
 Alpha virt. eigenvalues --    1.27288   1.28122   1.29073   1.29930   1.30534
 Alpha virt. eigenvalues --    1.30741   1.33120   1.33924   1.34835   1.36124
 Alpha virt. eigenvalues --    1.36949   1.39267   1.41119   1.43457   1.44990
 Alpha virt. eigenvalues --    1.45499   1.46637   1.47335   1.48656   1.48915
 Alpha virt. eigenvalues --    1.50057   1.50370   1.50548   1.50879   1.51409
 Alpha virt. eigenvalues --    1.51932   1.52368   1.53545   1.54333   1.55288
 Alpha virt. eigenvalues --    1.55725   1.55897   1.56283   1.56466   1.57532
 Alpha virt. eigenvalues --    1.58322   1.59041   1.59787   1.60127   1.61345
 Alpha virt. eigenvalues --    1.61813   1.62687   1.62794   1.64808   1.65036
 Alpha virt. eigenvalues --    1.65158   1.66281   1.66347   1.67278   1.68454
 Alpha virt. eigenvalues --    1.68809   1.69221   1.69939   1.71082   1.71532
 Alpha virt. eigenvalues --    1.72887   1.73133   1.73451   1.74037   1.74264
 Alpha virt. eigenvalues --    1.74875   1.75214   1.75578   1.76212   1.76843
 Alpha virt. eigenvalues --    1.77604   1.78081   1.79463   1.80080   1.81399
 Alpha virt. eigenvalues --    1.82263   1.82753   1.83298   1.83973   1.84299
 Alpha virt. eigenvalues --    1.86747   1.87189   1.88161   1.88803   1.89397
 Alpha virt. eigenvalues --    1.89607   1.90235   1.90649   1.91896   1.92367
 Alpha virt. eigenvalues --    1.92907   1.93177   1.93813   1.94339   1.95085
 Alpha virt. eigenvalues --    1.95595   1.95814   1.96504   1.97736   1.98657
 Alpha virt. eigenvalues --    1.98910   2.00790   2.01453   2.02519   2.02934
 Alpha virt. eigenvalues --    2.03650   2.05296   2.07184   2.07479   2.08302
 Alpha virt. eigenvalues --    2.09899   2.10299   2.11805   2.11941   2.12951
 Alpha virt. eigenvalues --    2.13581   2.15035   2.18064   2.18645   2.20642
 Alpha virt. eigenvalues --    2.21596   2.23847   2.24644   2.25347   2.28437
 Alpha virt. eigenvalues --    2.28832   2.30286   2.32320   2.33109   2.34785
 Alpha virt. eigenvalues --    2.35672   2.36239   2.36813   2.39156   2.39383
 Alpha virt. eigenvalues --    2.40120   2.40596   2.41604   2.42339   2.43432
 Alpha virt. eigenvalues --    2.44045   2.46095   2.47093   2.47990   2.49546
 Alpha virt. eigenvalues --    2.52016   2.52363   2.52839   2.53899   2.55540
 Alpha virt. eigenvalues --    2.56880   2.57142   2.60242   2.61789   2.62630
 Alpha virt. eigenvalues --    2.63365   2.64047   2.65422   2.66038   2.66547
 Alpha virt. eigenvalues --    2.67853   2.68970   2.69253   2.70217   2.71046
 Alpha virt. eigenvalues --    2.71268   2.72823   2.72972   2.73949   2.74709
 Alpha virt. eigenvalues --    2.75362   2.75748   2.76259   2.76706   2.77280
 Alpha virt. eigenvalues --    2.77478   2.78246   2.79637   2.79828   2.81269
 Alpha virt. eigenvalues --    2.81905   2.82202   2.82457   2.83818   2.84316
 Alpha virt. eigenvalues --    2.84833   2.85383   2.86399   2.86623   2.87794
 Alpha virt. eigenvalues --    2.88176   2.88413   2.88985   2.91166   2.91729
 Alpha virt. eigenvalues --    2.92543   2.92888   2.93347   2.93811   2.94289
 Alpha virt. eigenvalues --    2.94646   2.95524   2.97241   2.97891   2.99616
 Alpha virt. eigenvalues --    3.02869   3.03851   3.04099   3.06306   3.07398
 Alpha virt. eigenvalues --    3.08431   3.08875   3.10484   3.10871   3.11640
 Alpha virt. eigenvalues --    3.13087   3.15213   3.17183   3.20358   3.21505
 Alpha virt. eigenvalues --    3.22117   3.22931   3.24337   3.25314   3.30428
 Alpha virt. eigenvalues --    3.34271   3.34576   3.36074   3.37051   3.37760
 Alpha virt. eigenvalues --    3.38449   3.39566   3.44529   3.46000   3.48165
 Alpha virt. eigenvalues --    3.49288   3.51402   3.53528   3.54238   3.58003
 Alpha virt. eigenvalues --    3.59091   3.61819   3.62674   3.64888   3.66988
 Alpha virt. eigenvalues --    3.68759   3.70476   3.73386   3.77790   3.78726
 Alpha virt. eigenvalues --    3.81585   3.84119   3.84892   3.90194   3.91617
 Alpha virt. eigenvalues --    3.94972   3.96572   3.98060   4.02772   4.03417
 Alpha virt. eigenvalues --    4.03915   4.07007   4.09101   4.10502   4.13096
 Alpha virt. eigenvalues --    4.14635   4.15629   4.18189   4.20456   4.24121
 Alpha virt. eigenvalues --    4.33426   4.36655   4.46395   4.82659   4.82970
 Alpha virt. eigenvalues --    4.83895   4.93639   4.93830   5.04828   5.05854
 Alpha virt. eigenvalues --    5.10722   5.11798   5.16542   5.24643   5.24795
 Alpha virt. eigenvalues --    5.40032   5.45293   5.63333   5.74288   5.87370
 Alpha virt. eigenvalues --    5.88445  23.60949  23.61288  23.79998  23.83166
 Alpha virt. eigenvalues --   23.86338  23.88589  23.88929  23.91480  23.93781
 Alpha virt. eigenvalues --   23.95346  23.96192  23.97332  23.99332  24.05131
 Alpha virt. eigenvalues --   24.07643  24.08856  24.10687  24.16326  24.18714
 Alpha virt. eigenvalues --   24.19295  35.63527  35.65358  49.90788  49.93416
 Alpha virt. eigenvalues --   50.01119  50.04582
          Condensed to atoms (all electrons):
               1          2          3          4          5          6
     1  C   13.631541  -3.373578   2.489990  -1.931327   1.412771  -4.074165
     2  C   -3.373578  15.468454  -7.099406   1.780202  -2.307241   2.612263
     3  C    2.489990  -7.099406  13.813647  -3.024378   1.666924  -2.109279
     4  C   -1.931327   1.780202  -3.024378   8.259180  -0.344070   1.133190
     5  C    1.412771  -2.307241   1.666924  -0.344070   6.099786  -0.555391
     6  C   -4.074165   2.612263  -2.109279   1.133190  -0.555391  11.897028
     7  C    0.503900  -1.518280  -0.502535  -0.006901   0.062568  -1.063825
     8  C   -0.552264  -1.737395   1.886322  -0.396817   0.093269  -1.978160
     9  H   -0.026778   0.026873   0.326145  -0.015514  -0.008065   0.002032
    10  H    0.007510   0.014140  -0.077756   0.384641   0.020857  -0.023101
    11  H    0.004850   0.057912  -0.060188   0.012375   0.336622  -0.013809
    12  H   -0.051523  -0.015428   0.018023  -0.019346   0.056166   0.346493
    13  H   -0.036656   0.023625  -0.010101   0.001811  -0.000208  -0.032138
    14  H   -0.008234   0.009379   0.010768   0.001901  -0.000160  -0.001150
    15  N    0.159571   0.187305  -0.113463   0.024385  -0.026479  -0.338121
    16  C   -2.096174  -0.330686   0.212750   0.314131  -0.193081   0.452635
    17  H   -0.004517  -0.002788  -0.003400  -0.003246  -0.000020  -0.001832
    18  H   -0.005590  -0.039152   0.052433   0.018047   0.000675   0.001223
    19  C    0.459947   1.154179  -1.056592   0.290517  -0.008802  -0.080576
    20  H   -0.007792  -0.015846   0.013940   0.001642   0.000004  -0.000609
    21  C    0.013691  -0.184937   0.488869  -0.258531   0.022514   0.141628
    22  O   -0.042945   0.005683  -0.021205   0.017187  -0.002988  -0.002473
    23  O   -0.039404  -0.067020   0.088802   0.000794  -0.003289   0.007443
    24  C   -0.055478  -0.041438   0.013595   0.022360  -0.009094   0.011939
    25  H   -0.006883   0.029013  -0.043861   0.024364  -0.005859   0.005452
    26  H    0.001289  -0.003848   0.009056  -0.003381   0.000456  -0.000600
    27  H   -0.000644   0.003550  -0.004023   0.001003  -0.000244   0.000382
    28  N   -0.051964  -0.096860   0.052604  -0.001267  -0.001541   0.011410
    29  H   -0.002523  -0.002365   0.002151   0.000447  -0.000051  -0.000374
    30  C   -0.093428  -0.165758   0.039272   0.005542   0.000657  -0.023929
    31  O    0.001859   0.005428   0.000068  -0.000049   0.000012   0.000238
    32  O    0.006056   0.009715   0.001581   0.000314   0.000056   0.000350
    33  C    0.001940   0.000150   0.000724  -0.000469  -0.000087   0.001181
    34  H   -0.000071   0.000041   0.000015   0.000000   0.000000  -0.000012
    35  H    0.000032   0.000066  -0.000008   0.000000   0.000000   0.000002
    36  C   -0.007060  -0.010007   0.001969   0.000585   0.000055  -0.001373
    37  C    0.000075   0.001440  -0.001263  -0.000097   0.000007  -0.000154
    38  C    0.004256   0.004288  -0.003499  -0.000731   0.000045   0.000285
    39  C   -0.000212  -0.001057   0.000968   0.000012   0.000012  -0.000056
    40  H   -0.000001  -0.000012   0.000004   0.000000   0.000000   0.000000
    41  C   -0.000128  -0.000380   0.001501   0.000238   0.000004   0.000012
    42  H    0.000015  -0.000008   0.000018   0.000003   0.000000   0.000005
    43  C    0.000265   0.000851  -0.000508  -0.000004  -0.000006   0.000041
    44  H    0.000000   0.000001   0.000000   0.000000   0.000000   0.000000
    45  H    0.000000  -0.000002   0.000000   0.000000   0.000000   0.000000
    46  H    0.000000   0.000000   0.000000   0.000000   0.000000   0.000000
               7          8          9         10         11         12
     1  C    0.503900  -0.552264  -0.026778   0.007510   0.004850  -0.051523
     2  C   -1.518280  -1.737395   0.026873   0.014140   0.057912  -0.015428
     3  C   -0.502535   1.886322   0.326145  -0.077756  -0.060188   0.018023
     4  C   -0.006901  -0.396817  -0.015514   0.384641   0.012375  -0.019346
     5  C    0.062568   0.093269  -0.008065   0.020857   0.336622   0.056166
     6  C   -1.063825  -1.978160   0.002032  -0.023101  -0.013809   0.346493
     7  C    8.274992   0.330440   0.009636   0.001715   0.003176   0.013159
     8  C    0.330440  10.019997  -0.002577   0.017352   0.006730   0.002509
     9  H    0.009636  -0.002577   0.546039  -0.007812  -0.000250   0.000061
    10  H    0.001715   0.017352  -0.007812   0.550274  -0.007847  -0.000253
    11  H    0.003176   0.006730  -0.000250  -0.007847   0.547115  -0.007919
    12  H    0.013159   0.002509   0.000061  -0.000253  -0.007919   0.554776
    13  H   -0.021210   0.011026   0.000019  -0.000001   0.000005   0.002176
    14  H    0.422171  -0.039771  -0.000010   0.000000   0.000000   0.000006
    15  N    0.211178  -0.009391  -0.000545   0.000714  -0.001235  -0.006683
    16  C   -0.155380  -0.963533   0.029398   0.001343   0.001003   0.000334
    17  H    0.012928  -0.016383   0.000020  -0.000001   0.000000  -0.000001
    18  H   -0.017966  -0.084454   0.001302   0.000009  -0.000001   0.000000
    19  C   -0.295851  -2.176027   0.008199   0.000145   0.000040  -0.000139
    20  H   -0.001791   0.019723  -0.000010   0.000000   0.000000   0.000000
    21  C   -0.467583   1.127489  -0.002969  -0.000656  -0.000312  -0.000033
    22  O    0.013247  -0.008899   0.000487   0.000008   0.000002   0.000002
    23  O   -0.021019   0.028909  -0.002573   0.000030   0.000005  -0.000001
    24  C    0.004870   0.013248   0.002314   0.000253   0.000091   0.000016
    25  H    0.000951  -0.010159   0.000662  -0.000026   0.000001  -0.000001
    26  H   -0.000451   0.001965  -0.000072   0.000001   0.000000   0.000000
    27  H   -0.000123   0.000024   0.000150  -0.000004   0.000000   0.000000
    28  N    0.082818   0.130709  -0.000450  -0.000002   0.000000   0.000004
    29  H    0.002673   0.003295  -0.000004   0.000000   0.000000   0.000000
    30  C    0.203170  -0.040723  -0.000049   0.000005   0.000001   0.000000
    31  O   -0.016974   0.025787   0.000000   0.000000   0.000000   0.000000
    32  O   -0.013330  -0.019038  -0.000002   0.000000   0.000000   0.000000
    33  C   -0.015816  -0.126362  -0.000013   0.000000   0.000000   0.000000
    34  H    0.000344   0.000607   0.000000   0.000000   0.000000   0.000000
    35  H   -0.000058   0.000709   0.000000   0.000000   0.000000   0.000000
    36  C    0.024118   0.107739   0.000002   0.000000   0.000000   0.000000
    37  C    0.005896  -0.020562  -0.000002   0.000000   0.000000   0.000000
    38  C   -0.006359   0.034431   0.000014   0.000000   0.000000   0.000000
    39  C    0.000596   0.010132  -0.000001   0.000000   0.000000   0.000000
    40  H   -0.000010  -0.000118   0.000000   0.000000   0.000000   0.000000
    41  C   -0.000575   0.004079  -0.000001   0.000000   0.000000   0.000000
    42  H   -0.000068  -0.001153   0.000000   0.000000   0.000000   0.000000
    43  C   -0.000406  -0.004500   0.000001   0.000000   0.000000   0.000000
    44  H    0.000000  -0.000011   0.000000   0.000000   0.000000   0.000000
    45  H    0.000002  -0.000101   0.000000   0.000000   0.000000   0.000000
    46  H   -0.000001  -0.000005   0.000000   0.000000   0.000000   0.000000
              13         14         15         16         17         18
     1  C   -0.036656  -0.008234   0.159571  -2.096174  -0.004517  -0.005590
     2  C    0.023625   0.009379   0.187305  -0.330686  -0.002788  -0.039152
     3  C   -0.010101   0.010768  -0.113463   0.212750  -0.003400   0.052433
     4  C    0.001811   0.001901   0.024385   0.314131  -0.003246   0.018047
     5  C   -0.000208  -0.000160  -0.026479  -0.193081  -0.000020   0.000675
     6  C   -0.032138  -0.001150  -0.338121   0.452635  -0.001832   0.001223
     7  C   -0.021210   0.422171   0.211178  -0.155380   0.012928  -0.017966
     8  C    0.011026  -0.039771  -0.009391  -0.963533  -0.016383  -0.084454
     9  H    0.000019  -0.000010  -0.000545   0.029398   0.000020   0.001302
    10  H   -0.000001   0.000000   0.000714   0.001343  -0.000001   0.000009
    11  H    0.000005   0.000000  -0.001235   0.001003   0.000000  -0.000001
    12  H    0.002176   0.000006  -0.006683   0.000334  -0.000001   0.000000
    13  H    0.390333  -0.003359   0.370382  -0.005726  -0.000018   0.000008
    14  H   -0.003359   0.514593  -0.066142   0.033196   0.000650  -0.000199
    15  N    0.370382  -0.066142   6.770342  -0.030864  -0.002503  -0.001050
    16  C   -0.005726   0.033196  -0.030864  10.145106   0.391494   0.403623
    17  H   -0.000018   0.000650  -0.002503   0.391494   0.516054  -0.018860
    18  H    0.000008  -0.000199  -0.001050   0.403623  -0.018860   0.524339
    19  C   -0.000079  -0.016156   0.059206  -0.601706  -0.069877  -0.099002
    20  H   -0.000001  -0.000102  -0.000120   0.029033  -0.004942  -0.002105
    21  C   -0.000362   0.005441  -0.007512  -1.423474   0.028462   0.084397
    22  O   -0.000003  -0.000025  -0.002097   0.089270   0.000594  -0.001121
    23  O   -0.000014   0.000159  -0.003514   0.078327   0.001623  -0.001085
    24  C   -0.000025   0.000210  -0.006496   0.036337   0.000920   0.002700
    25  H   -0.000001   0.000001  -0.000391   0.010282  -0.000015   0.000032
    26  H    0.000000   0.000000   0.000036  -0.005177   0.000007  -0.000008
    27  H    0.000000   0.000000   0.000037   0.001972  -0.000003   0.000001
    28  N   -0.000166  -0.001793  -0.008802   0.117745  -0.006928   0.023546
    29  H   -0.000001   0.000876  -0.001413  -0.002803   0.000468   0.000171
    30  C    0.000156   0.005019  -0.013657   0.067238   0.014081   0.004220
    31  O   -0.000004   0.000294   0.000072  -0.048749   0.000434   0.000053
    32  O   -0.000005   0.000001   0.000282  -0.043398  -0.009595  -0.000830
    33  C    0.000007   0.000735   0.000395   0.286077  -0.009548  -0.002922
    34  H    0.000000   0.000001   0.000014  -0.000112   0.000270   0.000004
    35  H    0.000000  -0.000001  -0.000001  -0.000474  -0.000060   0.000004
    36  C    0.000013   0.000339  -0.000805  -0.271283   0.007965   0.003492
    37  C    0.000000  -0.000028   0.000015  -0.021166  -0.000136  -0.000528
    38  C    0.000002  -0.000338   0.000216  -0.026189   0.006922   0.000113
    39  C    0.000000   0.000007  -0.000018   0.014173  -0.000293   0.000170
    40  H    0.000000   0.000000   0.000000   0.000116   0.000003   0.000000
    41  C   -0.000001   0.000010   0.000007   0.008846  -0.002488   0.000598
    42  H    0.000000   0.000003  -0.000003   0.002760  -0.000135  -0.000002
    43  C    0.000000  -0.000006   0.000007  -0.003435   0.000248  -0.000082
    44  H    0.000000   0.000000   0.000000  -0.000026   0.000000   0.000000
    45  H    0.000000   0.000000   0.000000   0.000280   0.000001   0.000000
    46  H    0.000000   0.000000   0.000000  -0.000004   0.000000   0.000000
              19         20         21         22         23         24
     1  C    0.459947  -0.007792   0.013691  -0.042945  -0.039404  -0.055478
     2  C    1.154179  -0.015846  -0.184937   0.005683  -0.067020  -0.041438
     3  C   -1.056592   0.013940   0.488869  -0.021205   0.088802   0.013595
     4  C    0.290517   0.001642  -0.258531   0.017187   0.000794   0.022360
     5  C   -0.008802   0.000004   0.022514  -0.002988  -0.003289  -0.009094
     6  C   -0.080576  -0.000609   0.141628  -0.002473   0.007443   0.011939
     7  C   -0.295851  -0.001791  -0.467583   0.013247  -0.021019   0.004870
     8  C   -2.176027   0.019723   1.127489  -0.008899   0.028909   0.013248
     9  H    0.008199  -0.000010  -0.002969   0.000487  -0.002573   0.002314
    10  H    0.000145   0.000000  -0.000656   0.000008   0.000030   0.000253
    11  H    0.000040   0.000000  -0.000312   0.000002   0.000005   0.000091
    12  H   -0.000139   0.000000  -0.000033   0.000002  -0.000001   0.000016
    13  H   -0.000079  -0.000001  -0.000362  -0.000003  -0.000014  -0.000025
    14  H   -0.016156  -0.000102   0.005441  -0.000025   0.000159   0.000210
    15  N    0.059206  -0.000120  -0.007512  -0.002097  -0.003514  -0.006496
    16  C   -0.601706   0.029033  -1.423474   0.089270   0.078327   0.036337
    17  H   -0.069877  -0.004942   0.028462   0.000594   0.001623   0.000920
    18  H   -0.099002  -0.002105   0.084397  -0.001121  -0.001085   0.002700
    19  C   25.009058   0.208074 -12.022443  -0.090616  -0.764614  -0.674103
    20  H    0.208074   0.495726   0.036555   0.000956   0.010223   0.001120
    21  C  -12.022443   0.036555  16.561470   0.523708   0.246625   0.094962
    22  O   -0.090616   0.000956   0.523708   7.904190  -0.187936  -0.057964
    23  O   -0.764614   0.010223   0.246625  -0.187936   8.311544   0.332536
    24  C   -0.674103   0.001120   0.094962  -0.057964   0.332536   5.210511
    25  H    0.023331  -0.000044  -0.057671   0.000172  -0.018465   0.427940
    26  H    0.024273   0.000067  -0.022815   0.001592  -0.028443   0.403879
    27  H   -0.009540   0.000029   0.047373   0.002397  -0.071174   0.391626
    28  N   -1.959731   0.002463   0.869638   0.043879   0.097310   0.040923
    29  H   -0.036263   0.002010   0.008942   0.016815   0.003823   0.003674
    30  C   -1.441716   0.019642   0.421203   0.025144   0.021177   0.017887
[...]
 .00000014,-0.00000157,-0.00000087,-0.00000142,-0.00022487,-0.00003666,
 -0.00003202,-0.00000561,0.00001303,0.00002602,0.00033040,-0.00002259,0
 .00040602,-0.00008158,-0.00001405,-0.00014889,-0.00055135,-0.00057482,
 -0.00050953,-0.00024116,0.00091313,0.00093925,-0.00001869,-0.00012319,
 0.00021604,0.00008937,-0.00006071,0.00004430,-0.01003394,0.01817849,0.
 00151927,0.01629509,-0.02140045,0.00509457,-0.01545495,-0.00042248,-0.
 03409963,-0.08619676,-0.00692577,-0.03675432,0.00313361,0.00044660,-0.
 00597894,-0.13858299,0.10443126,-0.06938916,0.00374195,0.00000021,-0.0
 0526286,0.33900687,0.00001561,0.00000945,0.00000388,0.00001267,0.00000
 534,0.00000271,0.00000940,-0.00000208,-0.00000897,-0.00000093,0.000000
 68,0.00000986,-0.00000281,-0.00000017,-0.00000485,-0.00000881,0.000000
 25,-0.00001159,0.00000058,-0.00000300,-0.00000232,-0.00000153,-0.00000
 385,-0.00000535,-0.00000096,-0.00000099,-0.00000140,-0.00000249,-0.000
 00277,0.00000334,-0.00000766,-0.00000031,0.00000194,0.00000093,-0.0000
 0106,0.00000053,0.00000521,-0.00000573,0.00000722,-0.00000575,-0.00000
 271,0.00000779,-0.00000462,0.00000298,-0.00000400,-0.00000601,-0.00001
 484,0.00000292,-0.00001617,0.00000838,0.00000069,0.00000260,0.00000860
 ,0.00000157,0.00001082,-0.00001464,-0.00003628,0.00000278,0.00000474,-
 0.00000832,0.00000506,0.00001736,-0.00002404,-0.00000881,-0.00000789,0
 .00001573,-0.00001021,-0.00001456,0.00001984,0.00000397,0.00000555,0.0
 0000172,-0.00000033,-0.00000018,0.00000012,-0.00000038,-0.00000082,-0.
 00000059,-0.00000161,-0.00000041,0.00000099,-0.00006959,-0.00009417,0.
 00000629,0.00001421,-0.00004081,0.00001311,0.00001602,0.00052734,0.000
 13943,-0.00001803,-0.00007110,-0.00006506,-0.00061851,0.00095327,-0.00
 027439,0.00086230,-0.00270271,0.00041989,0.00009855,0.00036174,-0.0002
 6285,-0.00033454,0.00027711,0.00030116,0.01828786,-0.06348992,0.003585
 57,-0.04632404,0.01051599,-0.06833550,0.02450592,0.05010371,0.05475349
 ,0.02868845,-0.29799692,-0.05322168,0.00091378,0.00221306,-0.00078345,
 0.06888099,-0.23298787,0.03351150,-0.00046734,0.00146318,-0.00298617,-
 0.08413896,0.63218187,-0.00001224,0.00000591,-0.00001224,0.00001058,-0
 .00000471,0.00000342,-0.00000337,0.00000979,-0.00000552,-0.00000410,0.
 00000349,0.00000323,-0.00000633,-0.00000169,0.00000627,0.00000555,-0.0
 0000047,0.00000212,0.00001521,0.00000781,-0.00000965,0.00000318,0.0000
 1737,0.00002400,0.,-0.00000656,-0.00000043,-0.00000224,-0.00000082,-0.
 00000048,0.00000135,-0.00000101,-0.00000010,-0.00000055,-0.00000082,-0
 .00000074,0.00000020,-0.00000444,-0.00000545,0.00000686,-0.00001418,0.
 00000098,-0.00000288,-0.00000326,0.00001852,-0.00000537,-0.00000117,0.
 00001276,0.00001704,-0.00001432,-0.00005046,-0.00004133,-0.00000412,0.
 00002838,0.00004115,-0.00000339,-0.00019395,0.00001578,-0.00000419,-0.
 00001028,0.00003065,0.00005326,-0.00012732,-0.00001961,-0.00001663,0.0
 0007326,-0.00003621,-0.00004735,0.00009868,0.00001054,0.00001018,-0.00
 000593,-0.00000097,-0.00000376,-0.00000019,-0.00000393,-0.00000051,-0.
 00000237,-0.00000670,-0.00000305,0.00000431,-0.00038100,-0.00010439,0.
 00005282,0.00000926,0.00000190,0.00003332,0.00073980,0.00027042,0.0005
 4228,-0.00021270,-0.00008264,-0.00022985,-0.00071182,-0.00030410,-0.00
 055511,0.00098327,0.00041923,0.00023243,-0.00012203,-0.00015500,0.0000
 3708,-0.00018330,0.00003788,-0.00000088,0.00260312,0.00393795,-0.00221
 171,-0.00576059,-0.03011447,-0.01319024,-0.02382543,0.01630041,-0.0211
 2537,-0.02237097,-0.10473596,-0.13812644,-0.00570777,-0.00151578,-0.00
 176216,-0.08327321,0.08517220,-0.15119976,-0.00542124,-0.00220072,-0.0
 0163548,0.26588898,0.07638604,0.55513407,0.00000096,0.00000792,-0.0000
 0565,0.00001116,-0.00000206,0.00000205,0.00000079,0.00000200,-0.000008
 24,-0.00000307,0.00000003,0.00000395,-0.00000420,-0.00000100,0.0000011
 2,0.00000064,-0.00000121,-0.00000292,0.00000052,0.00000192,-0.00000645
 ,-0.00000570,-0.00000603,0.00000476,0.00000097,-0.00000094,0.00000064,
 -0.00000262,-0.00000064,0.00000203,-0.00000217,0.,0.00000075,0.0000006
 5,-0.00000027,0.00000064,0.00000316,-0.00000038,0.00000081,0.00000035,
 -0.00000169,0.00000489,0.00000104,-0.00000647,0.00000909,0.00000730,0.
 00001169,0.00000334,0.00000197,-0.00000866,-0.00000854,-0.00001118,0.0
 0000463,0.00000975,-0.00000323,0.00001167,-0.00008068,0.00000648,0.000
 00701,-0.00000356,0.00001793,0.00003438,-0.00007734,-0.00000725,-0.000
 01135,0.00003931,-0.00001138,-0.00003497,0.00005858,0.00000094,0.00000
 916,-0.00000524,0.00000062,-0.00000248,0.00000187,-0.00000314,-0.00000
 188,-0.00000314,-0.00000594,0.00000001,0.00000320,-0.00014438,-0.00006
 034,0.00003365,0.00000650,0.00000262,0.00001263,0.00027805,0.00016044,
 0.00009570,-0.00009366,-0.00004987,-0.00001400,-0.00028947,-0.00009904
 ,-0.00010249,0.00009517,0.00076952,-0.00032669,-0.00023314,-0.00008146
 ,-0.00019758,-0.00000579,-0.00000280,0.00003982,0.00392909,-0.00052281
 ,-0.00517389,-0.00452140,0.01299361,-0.00610673,-0.00051206,-0.0006796
 1,0.00035401,-0.11720563,0.10752011,-0.07361858,-0.00232135,-0.0010624
 0,0.00216230,0.00523327,0.00070394,-0.00250530,-0.00072279,-0.00012998
 ,0.00047547,0.00352271,-0.00150070,-0.00033304,0.11518944,-0.00001228,
 -0.00001325,-0.00000280,-0.00000856,-0.00000288,-0.00000315,-0.0000034
 8,-0.00000130,0.00001557,-0.00000356,-0.00000481,-0.00001059,0.0000028
 4,0.00000751,0.00000490,0.00001606,0.00000291,0.00001085,-0.00000429,0
 .00000386,0.00000003,0.00000040,0.00001080,-0.00000610,0.00000028,0.00
 000174,0.00000181,0.00000103,0.00000010,-0.00000089,0.00000224,-0.0000
 0075,-0.00000183,-0.00000040,-0.00000110,0.00000034,-0.00000382,0.0000
 0095,-0.00000238,0.00000002,-0.00000021,-0.00000423,0.00001419,-0.0000
 0121,-0.00000135,-0.00000238,-0.00000416,-0.00000331,0.00000241,0.0000
 0361,-0.00000108,0.00000124,-0.00000108,-0.00000253,-0.00001500,0.0000
 1093,0.00001654,-0.00000374,-0.00000365,0.00000126,-0.00001743,-0.0000
 1319,0.00002677,0.00001172,0.00000998,-0.00000960,0.00002336,0.0000168
 8,-0.00001763,-0.00001208,-0.00001210,-0.00000021,0.00000031,0.0000003
 2,0.00000003,-0.00000016,-0.00000023,-0.00000025,0.00000128,0.00000078
 ,0.00000040,0.00005679,0.00000930,0.00000101,-0.00000399,-0.00000263,-
 0.00000624,-0.00011913,-0.00004260,-0.00010383,0.00002419,0.00001065,0
 .00005174,0.00014420,0.00004572,0.00009463,-0.00030250,0.00018348,-0.0
 0033340,-0.00004455,-0.00001905,-0.00008112,0.00003455,0.00001078,0.00
 001011,0.00006313,0.00151114,-0.00226094,-0.00429904,0.00803783,-0.004
 28773,-0.00067122,-0.00017893,-0.00069513,0.10745488,-0.20514779,0.088
 13989,-0.00064889,0.00052100,0.00094737,0.00023251,-0.00381300,-0.0040
 9857,-0.00014827,-0.00003791,0.00021349,0.01580701,-0.01608161,0.01517
 389,-0.11727371,0.21514921,0.00000873,0.00001233,0.00000242,0.00000824
 ,0.00000308,0.00000108,0.00000425,0.00000024,-0.00001321,0.00000203,0.
 00000401,0.00000965,-0.00000322,-0.00000661,-0.00000380,-0.00001329,-0
 .00000245,-0.00001080,0.00000905,-0.00000391,0.00000110,0.00000280,-0.
 00000844,0.00000578,-0.00000016,-0.00000098,-0.00000173,-0.00000071,-0
 .00000014,0.00000115,-0.00000283,0.00000073,0.00000195,-0.00000008,0.0
 0000114,-0.00000066,0.00000350,-0.00000247,0.00000323,0.00000089,-0.00
 000320,0.00000415,-0.00001798,0.00000460,-0.00000034,0.00000191,0.0000
 0087,0.00001512,-0.00000040,-0.00001079,-0.00000516,-0.00000224,0.0000
 0209,0.00000424,0.00001849,-0.00000775,-0.00004707,0.00000352,0.000011
 69,0.00000382,0.00002674,0.00003358,-0.00002197,-0.00002021,-0.0000242
 3,0.00000592,-0.00002950,-0.00002660,0.00002026,0.00001421,0.00001677,
 0.00000312,-0.00000071,-0.00000117,-0.00000034,-0.00000115,-0.00000106
 ,-0.00000079,-0.00000135,-0.00000051,-0.00000006,-0.00013499,-0.000041
 24,-0.00000533,0.00000207,0.00000841,0.00001555,0.00024612,0.00007497,
 0.00017708,-0.00008474,-0.00005377,-0.00008494,-0.00025567,-0.00014761
 ,-0.00019287,-0.00022007,0.00131080,-0.00004318,-0.00014671,-0.0000251
 4,-0.00027571,0.00002020,-0.00005079,0.00000565,-0.00533583,-0.0030053
 6,-0.00143863,-0.01316048,0.02084868,-0.00740442,0.00030623,-0.0007430
 4,-0.00082939,-0.07354141,0.08802283,-0.10851012,0.00235035,0.00033384
 ,-0.00054123,-0.00265514,-0.00343809,0.00188276,0.00048003,0.00021598,
 -0.00030243,0.00669200,-0.00989814,0.00906821,0.08319561,-0.09385333,0
 .10884373,-0.00000914,-0.00000657,-0.00000444,-0.00000516,-0.00000231,
 0.00000174,-0.00000475,0.00000498,0.00000882,-0.00000180,-0.00000008,-
 0.00000332,0.00000136,0.00000487,0.00000407,0.00000726,0.00000071,0.00
 000762,0.00000014,0.00001201,-0.00000658,0.00000253,0.00002164,0.00001
 177,-0.00000060,-0.00000453,0.00000018,0.00000003,-0.00000059,-0.00000
 219,0.00000357,-0.00000133,-0.00000183,-0.00000028,-0.00000184,-0.0000
 0003,-0.00000362,-0.00000153,-0.00000787,0.00000199,-0.00000790,-0.000
 00798,0.00001143,-0.00000144,0.00000850,-0.00001619,-0.00001570,0.0000
 0144,0.00001310,-0.00000632,-0.00002437,-0.00001337,-0.00000636,0.0000
 0881,0.00002543,-0.00000797,-0.00005267,0.00000234,-0.00000273,-0.0000
 0262,-0.00000987,0.00000161,-0.00002624,0.00000551,0.00000762,0.000022
 24,0.00000154,0.00000208,0.00001998,-0.00000372,-0.00000753,-0.0000023
 7,-0.00000045,-0.00000117,-0.00000075,-0.00000108,0.00000100,0.0000004
 0,-0.00000062,-0.00000157,0.00000105,-0.00010329,-0.00001333,0.0000323
 2,0.00000403,-0.00000230,0.00000700,0.00019287,0.00001808,0.00001636,-
 0.00007543,-0.00000711,0.00002312,-0.00014705,-0.00005425,-0.00003431,
 0.00034236,-0.00069061,-0.00039535,0.00000950,0.00000616,0.00003834,-0
 .00020941,-0.00006459,-0.00019916,0.00322920,0.00106349,-0.00551749,-0
 .00103086,0.00006809,-0.00010816,0.00358298,-0.01600970,-0.00585785,0.
 00308144,0.00337266,-0.00463713,-0.00066309,-0.00023222,0.00052353,-0.
 04447099,0.00233026,-0.01049750,-0.00233500,-0.00060356,0.00233658,0.0
 0383237,0.01533310,0.00679563,0.00011920,0.00077703,0.00025103,0.03691
 446,0.00000174,0.00000942,-0.00000477,0.00000846,0.00000101,0.00000077
 ,0.00000237,0.00000543,-0.00000618,-0.00000052,0.00000446,0.00000692,-
 0.00000353,-0.00000159,0.00000091,-0.00000493,-0.00000114,-0.00000464,
 0.00000802,0.00000151,-0.00000153,0.00000212,0.00000723,0.00001249,-0.
 00000016,-0.00000565,-0.00000264,-0.00000192,-0.00000205,0.00000033,-0
 .00000171,-0.00000072,0.00000043,-0.00000030,-0.00000070,-0.00000083,0
 .00000152,-0.00000409,-0.00000131,0.00000140,-0.00000655,0.00000148,-0
 .00001071,0.00000224,0.00000666,-0.00000576,-0.00000470,0.00000372,0.0
 0000780,-0.00001029,-0.00002015,-0.00001184,-0.00000479,0.00000957,0.0
 0003450,-0.00001596,-0.00006007,0.00000571,0.00000462,-0.00000193,0.00
 001922,0.00002156,-0.00004124,-0.00001403,-0.00000844,0.00002232,-0.00
 002698,-0.00001727,0.00003352,0.00001251,0.00000789,-0.00000321,-0.000
 00169,-0.00000113,-0.00000119,-0.00000072,0.00000016,0.00000066,-0.000
 00088,-0.00000242,0.00000126,-0.00015179,-0.00002661,0.00002063,0.0000
 0753,0.00000130,0.00001352,0.00029518,0.00007676,0.00015057,-0.0000884
 6,-0.00002313,-0.00005243,-0.00029743,-0.00011218,-0.00014971,0.000433
 09,-0.00010912,0.00011177,-0.00003126,-0.00000104,0.00001538,-0.000106
 43,-0.00003528,-0.00006620,0.00043979,0.00229104,-0.00133301,0.0000620
 3,0.00047294,0.00067327,0.00126599,-0.00203704,-0.00028263,0.00383872,
 -0.00110925,0.00235265,-0.00021344,-0.00011075,0.00006739,0.00239521,-
 0.29547962,-0.09852395,-0.00102973,0.00054165,0.00030767,-0.00194310,-
 0.01646753,-0.01063789,-0.00008001,-0.00089669,-0.00056116,-0.00410459
 ,0.31239151,0.00000572,0.00000730,0.00000448,0.00000373,0.00000488,-0.
 00000408,0.00000353,0.,-0.00000617,0.00000244,0.00000213,0.00000664,-0
 .00000147,-0.00000295,-0.00000321,-0.00001048,-0.00000046,-0.00000805,
 0.00001311,-0.00000348,0.00000774,0.00000677,-0.00000337,0.00000552,-0
 .00000043,-0.00000044,-0.00000264,-0.00000022,-0.00000059,0.00000057,-
 0.00000278,0.00000013,0.00000125,-0.00000090,0.00000010,-0.00000106,-0
 .00000011,-0.00000707,0.00000283,-0.00000050,-0.00000986,0.00000043,-0
 .00002149,0.00001460,-0.00000696,-0.00000387,-0.00000670,0.00001396,0.
 00000311,-0.00001451,-0.00000200,0.00000013,0.00000462,0.00000258,0.00
 002469,-0.00001047,-0.00004659,0.00000289,0.00000994,0.00000102,0.0000
 2160,0.00002410,-0.00001768,-0.00001878,-0.00001485,0.00000701,-0.0000
 2575,-0.00001840,0.00001756,0.00001337,0.00001079,0.00000139,-0.000001
 37,-0.00000086,-0.00000081,-0.00000066,-0.00000048,-0.00000015,-0.0000
 0057,-0.00000078,0.00000037,-0.00013203,-0.00003251,-0.00000134,0.0000
 0485,-0.00000072,0.00001492,0.00021915,0.00010596,0.00015858,-0.000093
 22,-0.00001995,-0.00007868,-0.00027967,-0.00005303,-0.00019229,0.00051
 430,-0.00116888,0.00005775,-0.00000850,0.00005744,0.00000170,-0.000127
 28,-0.00007916,-0.00026674,-0.00602277,-0.00081704,-0.00159942,-0.0001
 6673,0.00069083,-0.00095459,0.00091416,-0.02549979,-0.00542272,-0.0044
 3920,0.00169085,0.00134450,0.00052854,0.00006472,-0.00028707,-0.010502
 11,-0.09839384,-0.09114150,0.00217648,0.00092827,-0.00053773,0.0000513
 9,0.01453583,0.00912767,-0.00010142,0.00072992,0.00032392,0.01519878,0
 .10714637,0.09013538,-0.00001059,0.00000126,-0.00001320,0.00000954,-0.
 00000357,-0.00000211,-0.00000121,0.00000463,0.00000263,-0.00000579,-0.
 00000022,-0.00000259,-0.00000388,0.00000375,0.00000670,0.00001288,0.00
 000118,0.00000456,0.00000249,0.00000030,-0.00000004,-0.00000105,0.0000
 0667,0.00000383,0.00000150,-0.00000287,-0.00000084,-0.00000252,-0.0000
 0192,0.00000112,-0.00000094,-0.00000094,-0.00000077,-0.00000034,-0.000
 00097,-0.00000011,0.00000032,-0.00000080,-0.00000124,0.00000170,-0.000
 00205,0.00000239,-0.00000069,-0.00000437,0.00000895,0.00000743,0.00000
 543,-0.00000646,0.00000563,-0.00000490,-0.00001035,-0.00001031,-0.0000
 0087,0.00000661,0.00000428,-0.00000072,-0.00004643,0.00000462,0.000002
 30,-0.00000299,0.00001951,0.00002297,-0.00004679,-0.00000861,-0.000005
 18,0.00002371,-0.00001149,-0.00001656,0.00004040,0.00000403,0.00000280
 ,-0.00000950,-0.00000144,-0.00000139,0.00000017,-0.00000168,-0.0000012
 1,-0.00000063,-0.00000216,-0.00000152,0.00000323,-0.00009778,-0.000031
 41,0.00000912,0.00000181,0.00000004,0.00000771,0.00014125,0.00005593,0
 .00009931,-0.00003998,-0.00001472,-0.00001421,-0.00029528,-0.00012634,
 -0.00016921,-0.00059802,-0.00020024,0.00032631,0.00005518,-0.00005902,
 0.00005546,0.00000156,0.00005564,0.00000645,-0.00043776,0.00033068,0.0
 0077587,0.00527235,0.00121766,-0.00236189,0.00367690,0.00395603,-0.003
 66630,0.00338422,0.00133045,0.00059248,0.00011713,0.00013580,0.0000213
 0,-0.00425454,-0.00496642,-0.01307143,-0.00023107,-0.00021483,-0.00065
 962,-0.11857291,-0.02412001,-0.12872922,-0.00231934,-0.00107315,0.0019
 8087,-0.00227881,-0.00071100,0.00225355,0.11646389,-0.00000313,-0.0000
 0083,-0.00000297,0.00000080,-0.00000128,-0.00000061,-0.00000190,0.0000
 0094,0.00000142,-0.00000086,-0.00000102,-0.00000241,-0.00000006,0.0000
 0096,0.00000160,0.00000352,-0.00000054,0.00000223,-0.00000030,0.000000
 19,0.00000190,0.00000144,0.00000464,0.00000176,0.00000051,0.00000029,0
 .00000003,-0.00000021,0.00000031,0.00000009,0.00000072,0.00000012,-0.0
 0000032,-0.00000006,0.00000005,0.00000007,-0.00000075,0.00000059,-0.00
 000088,0.,-0.00000177,-0.00000175,0.00000012,-0.00000061,0.00000175,-0
 .00000549,-0.00000545,-0.00000150,0.00000041,-0.00000131,-0.00000039,-
 0.00000144,0.00000262,0.00000146,0.00000658,-0.00000445,-0.00001514,0.
 00000448,-0.00000002,-0.00000398,0.00000859,0.00001118,-0.00002041,-0.
 00000365,-0.00000236,0.00001007,-0.00000548,-0.00000804,0.00001722,0.0
 0000279,0.00000255,-0.00000449,-0.00000063,-0.00000075,0.00000036,-0.0
 0000066,-0.00000051,-0.00000070,-0.00000121,-0.00000009,0.00000142,-0.
 00003550,-0.00000786,0.00000387,0.00000284,-0.00000185,0.00000303,0.00
 005737,0.00001292,0.00003459,-0.00001779,0.00000258,-0.00000627,-0.000
 11156,0.00003108,-0.00005723,-0.00018301,0.00002072,0.00008580,-0.0000
 3745,0.00001626,-0.00006929,0.00002147,0.00007439,0.00008345,0.0003158
 0,-0.00126208,0.00031230,0.00163591,-0.00470754,-0.00244269,0.00354745
 ,-0.00268605,0.00125763,-0.01603001,-0.00086095,-0.02505061,-0.0007254
 4,-0.00020556,-0.00124291,0.01237294,0.00866638,0.02017873,0.00064289,
 0.00023221,0.00100501,-0.02411021,-0.06865197,-0.04782036,-0.00061790,
 0.00073066,0.00101133,-0.00116565,0.00065498,0.00013143,0.02443369,0.0
 6794628,-0.00001003,0.00000612,-0.00001055,0.00000864,-0.00000009,-0.0
 0000599,0.00000087,0.00000100,0.00000031,-0.00000414,0.00000077,-0.000
 00215,-0.00000438,-0.00000012,0.00000577,0.00000810,0.00000001,0.00000
 010,0.00001301,-0.00000941,0.00001049,0.00000520,-0.00000195,-0.000000
 82,0.00000203,0.00000067,-0.00000222,-0.00000103,-0.00000099,0.0000016
 2,-0.00000215,0.00000004,0.00000025,-0.00000145,0.00000076,-0.00000153
 ,0.00000057,-0.00000200,0.00000250,0.00000342,-0.00000217,0.00000404,-
 0.00002158,0.00000521,0.00000015,0.00001124,0.00000588,0.00000475,0.00
 000047,-0.00000836,-0.00000086,-0.00000064,0.00000212,0.00000105,0.000
 00351,-0.00000675,-0.00002337,0.00000452,0.00000822,-0.00000070,0.0000
 4340,0.00003694,-0.00001936,-0.00002577,-0.00002017,0.00000093,-0.0000
 2833,-0.00002406,0.00002607,0.00001658,0.00001390,-0.00000714,-0.00000
 275,-0.00000104,-0.00000053,-0.00000112,-0.00000221,-0.00000087,-0.000
 00041,-0.00000064,0.00000255,-0.00007732,-0.00002047,0.00001171,0.0000
 1153,0.00000344,0.00000873,0.00021459,0.00007481,0.00009228,-0.0000589
 8,-0.00002125,-0.00005279,-0.00003287,-0.00001150,-0.00001306,0.000559
 85,0.00014717,-0.00024961,-0.00005791,0.00005663,0.00000852,-0.0000171
 2,-0.00008739,0.00000864,0.00061112,0.00026276,0.00014848,-0.00212653,
 -0.00307034,0.00288072,-0.00377403,0.00192463,0.00248940,-0.00639361,-
 0.00002036,-0.00597510,-0.00036654,0.00003284,-0.00039983,-0.00634448,
 -0.00492424,-0.00785660,-0.00034090,-0.00029063,-0.00048805,-0.1286442
 5,-0.04779820,-0.24404166,0.00216553,0.00034767,-0.00066573,0.00207091
 ,0.00079640,-0.00065629,0.14258323,0.05259635,0.25476577\\0.00000094,0
 .00000298,0.00000325,0.00000107,0.00000234,0.00000239,0.00000132,-0.00
 000178,0.00000169,0.00000122,-0.00000057,0.00000284,0.00000103,0.00000
 035,0.00000380,-0.00000033,0.00000224,0.00000497,0.00000093,0.00000268
 ,0.00000379,-0.00000071,0.00000016,0.00000102,0.00000065,0.00000001,0.
 00000076,0.00000154,-0.00000064,0.00000302,0.00000070,0.00000116,0.000
 00467,-0.00000015,0.00000290,0.00000451,-0.00000069,0.00000245,0.00000
 271,-0.00000134,0.00000382,0.00000029,-0.00000139,0.00000064,0.0000031
 4,0.00000161,-0.00000270,0.00000042,0.00000091,-0.00000019,0.00000032,
 -0.00000056,-0.00000296,-0.00000044,0.00000164,0.00000373,-0.00000239,
 0.00000029,-0.00000055,-0.00000175,-0.00000129,-0.00000128,0.00000027,
 -0.00000283,0.00000263,-0.00000216,0.00000070,0.00000022,0.00000234,-0
 .00000133,-0.00000028,-0.00000161,-0.00000055,0.00000089,-0.00000048,-
 0.00000027,-0.00000035,-0.00000194,0.00000011,-0.00000084,-0.00000086,
 -0.00000494,-0.00000104,0.00000298,-0.00000227,0.00000268,-0.00000103,
 0.00000409,0.00000182,-0.00000375,-0.00000323,0.00000187,-0.00000113,-
 0.00000243,0.00000025,-0.00000190,0.00000009,0.00000186,0.00000217,-0.
 00000082,0.00000122,-0.00000182,-0.00000186,-0.00000022,-0.00000410,-0
 .00000109,-0.00000167,-0.00000209,0.00000002,-0.00000225,-0.00000303,0
 .00000081,-0.00000133,0.00000121,0.00000059,-0.00000170,-0.00000538,-0
 .00000006,-0.00000260,-0.00000390,0.00000164,-0.00000180,-0.00000288,0
 .00000036,-0.00000116,-0.00000034,0.00000224,-0.00000345,-0.00000278,0
 .00000063,-0.00000329,-0.00000411,0.00000143,-0.00000237,-0.00000052,0
 .00000156,-0.00000386,-0.00000218\\\@


 WE LEARN WISDOM FROM FAILURE MUCH MORE THAN FROM SUCCESS.
 WE DISCOVER WHAT WILL DO BY FINDING OUT WHAT WILL NOT DO...
 AND HE WHO NEVER MADE A MISTAKE NEVER MADE A DISCOVERY
 Job cpu time:       1 days  2 hours 51 minutes 38.2 seconds.
 File lengths (MBytes):  RWF=   1902 Int=      0 D2E=      0 Chk=     38 Scr=      1
 Normal termination of Gaussian 09 at Wed Jan 25 11:08:56 2023.
