 Entering Gaussian System, Link 0=g09
 Initial command:
 /cm/shared/apps/gaussian/g09revD.01/g09/l1.exe "//home/sweav003/CHB/CHActivation_Mkhalid/OtherCharges/G09-Table3_4_ESP.com.o9487749.tmp/Gau-75014.inp" -scrdir="//home/sweav003/CHB/CHActivation_Mkhalid/OtherCharges/G09-Table3_4_ESP.com.o9487749.tmp/"
 Entering Link 1 = /cm/shared/apps/gaussian/g09revD.01/g09/l1.exe PID=     75015.
  
 Copyright (c) 1988,1990,1992,1993,1995,1998,2003,2009,2013,
            Gaussian, Inc.  All Rights Reserved.
  
 This is part of the Gaussian(R) 09 program.  It is based on
 the Gaussian(R) 03 system (copyright 2003, Gaussian, Inc.),
 the Gaussian(R) 98 system (copyright 1998, Gaussian, Inc.),
 the Gaussian(R) 94 system (copyright 1995, Gaussian, Inc.),
 the Gaussian 92(TM) system (copyright 1992, Gaussian, Inc.),
 the Gaussian 90(TM) system (copyright 1990, Gaussian, Inc.),
 the Gaussian 88(TM) system (copyright 1988, Gaussian, Inc.),
 the Gaussian 86(TM) system (copyright 1986, Carnegie Mellon
 University), and the Gaussian 82(TM) system (copyright 1983,
 Carnegie Mellon University). Gaussian is a federally registered
 trademark of Gaussian, Inc.
  
 This software contains proprietary and confidential information,
 including trade secrets, belonging to Gaussian, Inc.
  
 This software is provided under written license and may be
 used, copied, transmitted, or stored only in accord with that
 written license.
  
 The following legend is applicable only to US Government
 contracts under FAR:
  
                    RESTRICTED RIGHTS LEGEND
  
 Use, reproduction and disclosure by the US Government is
 subject to restrictions as set forth in subparagraphs (a)
 and (c) of the Commercial Computer Software - Restricted
 Rights clause in FAR 52.227-19.
  
 Gaussian, Inc.
 340 Quinnipiac St., Bldg. 40, Wallingford CT 06492
  
  
 ---------------------------------------------------------------
 Warning -- This program may not be used in any manner that
 competes with the business of Gaussian, Inc. or will provide
 assistance to any competitor of Gaussian, Inc.  The licensee
 of this program is prohibited from giving any competitor of
 Gaussian, Inc. access to this program.  By using this program,
 the user acknowledges that Gaussian, Inc. is engaged in the
 business of creating and licensing software in the field of
 computational chemistry and represents and warrants to the
 licensee that it is not a competitor of Gaussian, Inc. and that
 it will not use this program in any manner prohibited above.
 ---------------------------------------------------------------
  

 Cite this work as:
 Gaussian 09, Revision D.01,
 M. J. Frisch, G. W. Trucks, H. B. Schlegel, G. E. Scuseria, 
 M. A. Robb, J. R. Cheeseman, G. Scalmani, V. Barone, B. Mennucci, 
 G. A. Petersson, H. Nakatsuji, M. Caricato, X. Li, H. P. Hratchian, 
 A. F. Izmaylov, J. Bloino, G. Zheng, J. L. Sonnenberg, M. Hada, 
 M. Ehara, K. Toyota, R. Fukuda, J. Hasegawa, M. Ishida, T. Nakajima, 
 Y. Honda, O. Kitao, H. Nakai, T. Vreven, J. A. Montgomery, Jr., 
 J. E. Peralta, F. Ogliaro, M. Bearpark, J. J. Heyd, E. Brothers, 
 K. N. Kudin, V. N. Staroverov, T. Keith, R. Kobayashi, J. Normand, 
 K. Raghavachari, A. Rendell, J. C. Burant, S. S. Iyengar, J. Tomasi, 
 M. Cossi, N. Rega, J. M. Millam, M. Klene, J. E. Knox, J. B. Cross, 
 V. Bakken, C. Adamo, J. Jaramillo, R. Gomperts, R. E. Stratmann, 
 O. Yazyev, A. J. Austin, R. Cammi, C. Pomelli, J. W. Ochterski, 
 R. L. Martin, K. Morokuma, V. G. Zakrzewski, G. A. Voth, 
 P. Salvador, J. J. Dannenberg, S. Dapprich, A. D. Daniels, 
 O. Farkas, J. B. Foresman, J. V. Ortiz, J. Cioslowski, 
 and D. J. Fox, Gaussian, Inc., Wallingford CT, 2013.
 
 ******************************************
 Gaussian 09:  ES64L-G09RevD.01 24-Apr-2013
                 3-Aug-2021 
 ******************************************
 %mem=200MW
 %Chk=Table3_4.chk
 %nprocshared=24
 Will use up to   24 processors via shared memory.
 ----------------------------------------------------------------------
 # b3lyp/6-311+g(d,p) pop=(chelpg, Dipole,ReadRadii, npa) Density=CHK S
 CF=Direct Geom=(checkpoint,NoDistance,NoAngle)
 ----------------------------------------------------------------------
 Warning!  Basis set taken from checkpoint file.
 1/29=2,38=1/1;
 2/9=11,12=2,40=1/2;
 3/5=7,6=2,7=111,11=2,14=-4,16=1,25=1,30=1,67=1,74=-5,89=1/1,2,3;
 4//1;
 6/7=2,8=2,9=2,10=2,11=2,15=24,20=103,22=10,28=1,40=-1/1,2,7;
 99/5=2/99;
 --------
 Table3_4
 --------
 Structure from the checkpoint file:  "Table3_4.chk"
 Charge =  0 Multiplicity = 1
 Redundant internal coordinates found in file.
 C,0,-0.1169264008,-0.4137184303,-0.0001217304
 C,0,1.2749845248,-0.4283649895,0.0154099405
 C,0,1.9650834953,0.7820514645,0.0072054637
 C,0,1.2750047031,1.9904625882,-0.0152532711
 C,0,-0.1193462583,1.9829614944,-0.0320398604
 C,0,-0.8278881649,0.7808668354,-0.0227078453
 H,0,1.8107539182,-1.3684733211,0.0308547223
 H,0,3.0485542286,0.7786297789,0.0158683158
 H,0,1.8127054779,2.9295623958,-0.0280458343
 H,0,-1.9091448542,0.7788071564,-0.0405097467
 C,0,-0.8748258519,3.2861169936,-0.0018051705
 F,0,-0.1912887478,4.2836547657,-0.6051382775
 F,0,-1.1160814923,3.6948036934,1.2692617888
 F,0,-2.0760348999,3.196321946,-0.6133907428
 Br,0,-1.0748985979,-2.0711426414,0.004244048
 Recover connectivity data from disk.
                          Input orientation:                          
 ---------------------------------------------------------------------
 Center     Atomic      Atomic             Coordinates (Angstroms)
 Number     Number       Type             X           Y           Z
 ---------------------------------------------------------------------
      1          6           0       -0.116926   -0.413718   -0.000122
      2          6           0        1.274985   -0.428365    0.015410
      3          6           0        1.965083    0.782051    0.007205
      4          6           0        1.275005    1.990463   -0.015253
      5          6           0       -0.119346    1.982961   -0.032040
      6          6           0       -0.827888    0.780867   -0.022708
      7          1           0        1.810754   -1.368473    0.030855
      8          1           0        3.048554    0.778630    0.015868
      9          1           0        1.812705    2.929562   -0.028046
     10          1           0       -1.909145    0.778807   -0.040510
     11          6           0       -0.874826    3.286117   -0.001805
     12          9           0       -0.191289    4.283655   -0.605138
     13          9           0       -1.116081    3.694804    1.269262
     14          9           0       -2.076035    3.196322   -0.613391
     15         35           0       -1.074899   -2.071143    0.004244
 ---------------------------------------------------------------------
 Stoichiometry    C7H4BrF3
 Framework group  C1[X(C7H4BrF3)]
 Deg. of freedom    39
 Full point group                 C1      NOp   1
 Largest Abelian subgroup         C1      NOp   1
 Largest concise Abelian subgroup C1      NOp   1
                         Standard orientation:                         
 ---------------------------------------------------------------------
 Center     Atomic      Atomic             Coordinates (Angstroms)
 Number     Number       Type             X           Y           Z
 ---------------------------------------------------------------------
      1          6           0        1.137652    0.354093   -0.003310
      2          6           0        1.118242    1.745957    0.011216
      3          6           0       -0.108699    2.406228    0.002823
      4          6           0       -1.299869    1.686773   -0.018831
      5          6           0       -1.258259    0.293011   -0.034616
      6          6           0       -0.039186   -0.385900   -0.025080
      7          1           0        2.044964    2.304578    0.026035
      8          1           0       -0.131786    3.489464    0.010705
      9          1           0       -2.251847    2.201327   -0.031771
     10          1           0       -0.010676   -1.466795   -0.042104
     11          6           0       -2.542532   -0.494104   -0.003505
     12          9           0       -3.556639    0.164383   -0.607076
     13          9           0       -2.944892   -0.744364    1.267839
     14          9           0       -2.423519   -1.693200   -0.614248
     15         35           0        2.818020   -0.563037    0.001323
 ---------------------------------------------------------------------
 Rotational constants (GHZ):      1.6488476      0.3760747      0.3237843
 Basis read from chk: "Table3_4.chk" (5D, 7F)
 There are   305 symmetry adapted cartesian basis functions of A   symmetry.
 There are   292 symmetry adapted basis functions of A   symmetry.
   292 basis functions,   486 primitive gaussians,   305 cartesian basis functions
    54 alpha electrons       54 beta electrons
       nuclear repulsion energy       852.0015717900 Hartrees.
 NAtoms=   15 NActive=   15 NUniq=   15 SFac= 1.00D+00 NAtFMM=   60 NAOKFM=F Big=F
 Integral buffers will be    131072 words long.
 Raffenetti 2 integral format.
 Two-electron integral symmetry is turned on.
 One-electron integrals computed using PRISM.
 NBasis=   292 RedAO= T EigKep=  2.20D-06  NBF=   292
 NBsUse=   292 1.00D-06 EigRej= -1.00D+00 NBFU=   292
 ExpMin= 3.50D-02 ExpMax= 4.40D+05 ExpMxC= 1.51D+04 IAcc=3 IRadAn=         5 AccDes= 0.00D+00
 Harris functional with IExCor=  402 and IRadAn=       5 diagonalized for initial guess.
 HarFok:  IExCor=  402 AccDes= 0.00D+00 IRadAn=         5 IDoV= 1 UseB2=F ITyADJ=14
 ICtDFT=  3500011 ScaDFX=  1.000000  1.000000  1.000000  1.000000
 FoFCou: FMM=F IPFlag=           0 FMFlag=      100000 FMFlg1=           0
         NFxFlg=           0 DoJE=T BraDBF=F KetDBF=T FulRan=T
         wScrn=  0.000000 ICntrl=     500 IOpCl=  0 I1Cent=   200000004 NGrid=           0
         NMat0=    1 NMatS0=      1 NMatT0=    0 NMatD0=    1 NMtDS0=    0 NMtDT0=    0
 Petite list used in FoFCou.
 Using densities on the checkpoint file.

 **********************************************************************

            Population analysis using the SCF density.

 **********************************************************************

 Orbital symmetries:
       Occupied  (A) (A) (A) (A) (A) (A) (A) (A) (A) (A) (A) (A)
                 (A) (A) (A) (A) (A) (A) (A) (A) (A) (A) (A) (A)
                 (A) (A) (A) (A) (A) (A) (A) (A) (A) (A) (A) (A)
                 (A) (A) (A) (A) (A) (A) (A) (A) (A) (A) (A) (A)
                 (A) (A) (A) (A) (A) (A)
       Virtual   (A) (A) (A) (A) (A) (A) (A) (A) (A) (A) (A) (A)
                 (A) (A) (A) (A) (A) (A) (A) (A) (A) (A) (A) (A)
                 (A) (A) (A) (A) (A) (A) (A) (A) (A) (A) (A) (A)
                 (A) (A) (A) (A) (A) (A) (A) (A) (A) (A) (A) (A)
                 (A) (A) (A) (A) (A) (A) (A) (A) (A) (A) (A) (A)
                 (A) (A) (A) (A) (A) (A) (A) (A) (A) (A) (A) (A)
                 (A) (A) (A) (A) (A) (A) (A) (A) (A) (A) (A) (A)
                 (A) (A) (A) (A) (A) (A) (A) (A) (A) (A) (A) (A)
                 (A) (A) (A) (A) (A) (A) (A) (A) (A) (A) (A) (A)
                 (A) (A) (A) (A) (A) (A) (A) (A) (A) (A) (A) (A)
                 (A) (A) (A) (A) (A) (A) (A) (A) (A) (A) (A) (A)
                 (A) (A) (A) (A) (A) (A) (A) (A) (A) (A) (A) (A)
                 (A) (A) (A) (A) (A) (A) (A) (A) (A) (A) (A) (A)
                 (A) (A) (A) (A) (A) (A) (A) (A) (A) (A) (A) (A)
                 (A) (A) (A) (A) (A) (A) (A) (A) (A) (A) (A) (A)
                 (A) (A) (A) (A) (A) (A) (A) (A) (A) (A) (A) (A)
                 (A) (A) (A) (A) (A) (A) (A) (A) (A) (A) (A) (A)
                 (A) (A) (A) (A) (A) (A) (A) (A) (A) (A) (A) (A)
                 (A) (A) (A) (A) (A) (A) (A) (A) (A) (A) (A) (A)
                 (A) (A) (A) (A) (A) (A) (A) (A) (A) (A)
 The electronic state is 1-A.
 Alpha  occ. eigenvalues -- -482.84640 -62.49923 -56.31964 -56.31570 -56.31557
 Alpha  occ. eigenvalues --  -24.72476 -24.72475 -24.72000 -10.44337 -10.25903
 Alpha  occ. eigenvalues --  -10.22945 -10.21892 -10.21550 -10.21399 -10.21288
 Alpha  occ. eigenvalues --   -8.70891  -6.54048  -6.52734  -6.52704  -2.65137
 Alpha  occ. eigenvalues --   -2.64763  -2.64743  -2.63698  -2.63697  -1.32994
 Alpha  occ. eigenvalues --   -1.24370  -1.23854  -0.91118  -0.83874  -0.80750
 Alpha  occ. eigenvalues --   -0.75975  -0.72569  -0.65618  -0.64307  -0.60779
 Alpha  occ. eigenvalues --   -0.60463  -0.58092  -0.53474  -0.50450  -0.48791
 Alpha  occ. eigenvalues --   -0.48291  -0.47639  -0.45405  -0.44969  -0.43989
 Alpha  occ. eigenvalues --   -0.43303  -0.42606  -0.41576  -0.38966  -0.38334
 Alpha  occ. eigenvalues --   -0.33931  -0.30916  -0.29739  -0.27169
 Alpha virt. eigenvalues --   -0.06112  -0.05028  -0.03149  -0.00563   0.01177
 Alpha virt. eigenvalues --    0.01844   0.03611   0.03879   0.04055   0.04365
 Alpha virt. eigenvalues --    0.05522   0.06684   0.07229   0.07316   0.08586
 Alpha virt. eigenvalues --    0.08812   0.09750   0.10387   0.11266   0.11306
 Alpha virt. eigenvalues --    0.11737   0.12425   0.13223   0.14172   0.14334
 Alpha virt. eigenvalues --    0.15175   0.15480   0.16033   0.16784   0.17260
 Alpha virt. eigenvalues --    0.17889   0.19060   0.19685   0.19991   0.20339
 Alpha virt. eigenvalues --    0.20875   0.21565   0.21807   0.23146   0.24287
 Alpha virt. eigenvalues --    0.24535   0.25782   0.26186   0.26320   0.26531
 Alpha virt. eigenvalues --    0.26999   0.28929   0.30854   0.31877   0.33380
 Alpha virt. eigenvalues --    0.33836   0.34538   0.35454   0.36051   0.38802
 Alpha virt. eigenvalues --    0.39191   0.41244   0.41832   0.42976   0.43187
 Alpha virt. eigenvalues --    0.44400   0.45761   0.46710   0.47315   0.48825
 Alpha virt. eigenvalues --    0.50637   0.51852   0.51977   0.52370   0.54117
 Alpha virt. eigenvalues --    0.56821   0.58046   0.58823   0.59318   0.59943
 Alpha virt. eigenvalues --    0.61283   0.62369   0.63237   0.64438   0.65211
 Alpha virt. eigenvalues --    0.67100   0.67693   0.69249   0.71625   0.71791
 Alpha virt. eigenvalues --    0.73025   0.75326   0.75780   0.77285   0.81086
 Alpha virt. eigenvalues --    0.81351   0.83070   0.85041   0.85665   0.89541
 Alpha virt. eigenvalues --    0.90295   0.91282   0.96201   0.99025   0.99681
 Alpha virt. eigenvalues --    1.00831   1.02478   1.05697   1.07289   1.08599
 Alpha virt. eigenvalues --    1.09554   1.12038   1.22537   1.27273   1.31308
 Alpha virt. eigenvalues --    1.34704   1.36661   1.38322   1.40725   1.41168
 Alpha virt. eigenvalues --    1.42399   1.44750   1.47230   1.47464   1.49287
 Alpha virt. eigenvalues --    1.50132   1.50943   1.51861   1.53671   1.54273
 Alpha virt. eigenvalues --    1.54658   1.59041   1.62547   1.64419   1.66730
 Alpha virt. eigenvalues --    1.68461   1.71312   1.73066   1.77172   1.79771
 Alpha virt. eigenvalues --    1.80997   1.87971   1.88749   1.90358   1.92093
 Alpha virt. eigenvalues --    1.92777   1.95036   1.96125   1.98901   1.99047
 Alpha virt. eigenvalues --    2.01389   2.02310   2.06195   2.06573   2.10492
 Alpha virt. eigenvalues --    2.13354   2.16243   2.24573   2.26348   2.31180
 Alpha virt. eigenvalues --    2.33056   2.36546   2.38005   2.47919   2.54291
 Alpha virt. eigenvalues --    2.62110   2.62844   2.67246   2.69246   2.71127
 Alpha virt. eigenvalues --    2.72700   2.75266   2.75816   2.76673   2.77089
 Alpha virt. eigenvalues --    2.81782   2.83957   2.86850   2.90928   2.96678
 Alpha virt. eigenvalues --    3.01664   3.05476   3.08904   3.13349   3.31407
 Alpha virt. eigenvalues --    3.33204   3.46535   3.47998   3.57884   3.68903
 Alpha virt. eigenvalues --    3.70847   3.74083   3.74803   3.75781   3.77055
 Alpha virt. eigenvalues --    3.77301   3.78139   3.91125   3.91773   3.93756
 Alpha virt. eigenvalues --    3.99346   4.08592   4.10011   4.12727   4.13337
 Alpha virt. eigenvalues --    4.16534   4.18160   4.19178   4.20594   4.37002
 Alpha virt. eigenvalues --    4.55696   4.68365   4.81352   4.90042   4.92614
 Alpha virt. eigenvalues --    6.30422   6.32207   6.35474   6.37564   6.37744
 Alpha virt. eigenvalues --    6.39978   6.45093   6.72109   6.73065   6.74148
 Alpha virt. eigenvalues --    7.54465   7.67085   7.73136  23.45130  23.57097
 Alpha virt. eigenvalues --   23.88238  23.91938  24.03831  24.05372  24.15219
 Alpha virt. eigenvalues --   47.99354  66.74471  66.75604  66.80678 289.74181
 Alpha virt. eigenvalues --  289.86999 289.954561020.80149
          Condensed to atoms (all electrons):
               1          2          3          4          5          6
     1  C   10.343589   0.451001   0.575042  -1.087949  -0.176985  -3.225947
     2  C    0.451001   7.426791   0.165671   0.238400  -1.700231  -1.265978
     3  C    0.575042   0.165671   8.663317  -0.693888  -0.651922  -1.648157
     4  C   -1.087949   0.238400  -0.693888  21.353847  -1.997640 -11.873491
     5  C   -0.176985  -1.700231  -0.651922  -1.997640  17.169440  -4.631636
     6  C   -3.225947  -1.265978  -1.648157 -11.873491  -4.631636  27.333226
     7  H   -0.041339   0.414914  -0.015848  -0.020050   0.027666  -0.010632
     8  H   -0.028368   0.023973   0.333998   0.000145   0.005922   0.000296
     9  H   -0.010310   0.001726  -0.017610   0.355440  -0.038871   0.003351
    10  H   -0.083257   0.016084  -0.018046   0.010777  -0.024221   0.388752
    11  C   -1.013403   0.341926  -0.640393   0.087535  -1.924318   1.160701
    12  F    0.038077  -0.004766   0.094357  -0.089229  -0.068011  -0.013378
    13  F    0.008884  -0.015795  -0.002371  -0.173865   0.404320  -0.218983
    14  F    0.129154   0.000477   0.023300   0.012130  -0.080423  -0.135501
    15  Br  -0.208287   0.112300   0.015940   0.052610  -0.086720   0.275069
               7          8          9         10         11         12
     1  C   -0.041339  -0.028368  -0.010310  -0.083257  -1.013403   0.038077
     2  C    0.414914   0.023973   0.001726   0.016084   0.341926  -0.004766
     3  C   -0.015848   0.333998  -0.017610  -0.018046  -0.640393   0.094357
     4  C   -0.020050   0.000145   0.355440   0.010777   0.087535  -0.089229
     5  C    0.027666   0.005922  -0.038871  -0.024221  -1.924318  -0.068011
     6  C   -0.010632   0.000296   0.003351   0.388752   1.160701  -0.013378
     7  H    0.506085  -0.007467  -0.000169  -0.000125   0.002826   0.000001
     8  H   -0.007467   0.522424  -0.006938   0.000051   0.013675   0.000066
     9  H   -0.000169  -0.006938   0.503995  -0.000180   0.056364   0.004804
    10  H   -0.000125   0.000051  -0.000180   0.485644   0.066415   0.000615
    11  C    0.002826   0.013675   0.056364   0.066415   6.839905   0.202394
    12  F    0.000001   0.000066   0.004804   0.000615   0.202394   9.027008
    13  F   -0.000002   0.000028  -0.000040  -0.000287   0.185409  -0.047495
    14  F   -0.000001   0.000021   0.000543   0.006424   0.212053  -0.025299
    15  Br  -0.009392  -0.000558  -0.000468  -0.011291  -0.013020  -0.000065
              13         14         15
     1  C    0.008884   0.129154  -0.208287
     2  C   -0.015795   0.000477   0.112300
     3  C   -0.002371   0.023300   0.015940
     4  C   -0.173865   0.012130   0.052610
     5  C    0.404320  -0.080423  -0.086720
     6  C   -0.218983  -0.135501   0.275069
     7  H   -0.000002  -0.000001  -0.009392
     8  H    0.000028   0.000021  -0.000558
     9  H   -0.000040   0.000543  -0.000468
    10  H   -0.000287   0.006424  -0.011291
    11  C    0.185409   0.212053  -0.013020
    12  F   -0.047495  -0.025299  -0.000065
    13  F    8.978262  -0.047205  -0.000171
    14  F   -0.047205   9.021728   0.000067
    15  Br  -0.000171   0.000067  34.997350
 Mulliken charges:
               1
     1  C    0.330099
     2  C   -0.206492
     3  C   -0.183390
     4  C   -0.174771
     5  C   -0.226369
     6  C   -0.137689
     7  H    0.153535
     8  H    0.142733
     9  H    0.148362
    10  H    0.162647
    11  C    0.421933
    12  F   -0.119078
    13  F   -0.070688
    14  F   -0.117466
    15  Br  -0.123365
 Sum of Mulliken charges =   0.00000
 Mulliken charges with hydrogens summed into heavy atoms:
               1
     1  C    0.330099
     2  C   -0.052958
     3  C   -0.040658
     4  C   -0.026408
     5  C   -0.226369
     6  C    0.024957
    11  C    0.421933
    12  F   -0.119078
    13  F   -0.070688
    14  F   -0.117466
    15  Br  -0.123365
 APT charges:
               1
     1  C    0.366178
     2  C   -0.121194
     3  C   -0.001956
     4  C   -0.059949
     5  C   -0.125526
     6  C   -0.140943
     7  H    0.070548
     8  H    0.039932
     9  H    0.073693
    10  H    0.091299
    11  C    1.810876
    12  F   -0.585108
    13  F   -0.614226
    14  F   -0.569504
    15  Br  -0.234121
 Sum of APT charges =   0.00000
 APT charges with hydrogens summed into heavy atoms:
               1
     1  C    0.366178
     2  C   -0.050646
     3  C    0.037976
     4  C    0.013744
     5  C   -0.125526
     6  C   -0.049644
    11  C    1.810876
    12  F   -0.585108
    13  F   -0.614226
    14  F   -0.569504
    15  Br  -0.234121
 Electronic spatial extent (au):  <R**2>=           2908.0834
 Charge=              0.0000 electrons
 Dipole moment (field-independent basis, Debye):
    X=              1.1847    Y=              2.3575    Z=             -0.0720  Tot=              2.6394
 Quadrupole moment (field-independent basis, Debye-Ang):
   XX=            -80.6400   YY=            -67.3530   ZZ=            -78.0678
   XY=             -2.1280   XZ=              0.2272   YZ=              0.0971
 Traceless Quadrupole moment (field-independent basis, Debye-Ang):
   XX=             -5.2864   YY=              8.0006   ZZ=             -2.7142
   XY=             -2.1280   XZ=              0.2272   YZ=              0.0971
 Octapole moment (field-independent basis, Debye-Ang**2):
  XXX=             57.4647  YYY=            -12.2501  ZZZ=             -1.0687  XYY=             13.9373
  XXY=             -2.2769  XXZ=              0.1695  XZZ=             12.7344  YZZ=            -14.0873
  YYZ=              1.1616  XYZ=             -0.4909
 Hexadecapole moment (field-independent basis, Debye-Ang**3):
 XXXX=          -2270.1367 YYYY=           -627.5037 ZZZZ=           -153.9171 XXXY=            -43.6223
 XXXZ=             -2.2461 YYYX=            -20.3269 YYYZ=             -1.2504 ZZZX=              3.6354
 ZZZY=              0.9333 XXYY=           -467.4162 XXZZ=           -415.5340 YYZZ=           -152.9284
 XXYZ=              3.0498 YYXZ=             -1.6650 ZZXY=             -5.6709
 N-N= 8.520015717900D+02 E-N=-9.195646083583D+03  KE= 3.137996839026D+03
 Breneman (CHELPG) radii used.
 Read replacement radii for each type of atom:
 Rad(35) =   1.850000000000D+00
 Atom Element Radius
    1     6    1.50
    2     6    1.50
    3     6    1.50
    4     6    1.50
    5     6    1.50
    6     6    1.50
    7     1    1.45
    8     1    1.45
    9     1    1.45
   10     1    1.45
   11     6    1.50
   12     9    1.70
   13     9    1.70
   14     9    1.70
   15    35    1.85
 Generate Potential Derived Charges using the Breneman model, NDens= 1.
 Grid spacing= 0.300 Box extension= 2.800
 NStep X,Y,Z=   41     37     26   Total possible points=       39442
 Number of Points to Fit=   10933

 **********************************************************************

            Electrostatic Properties Using The SCF Density

 **********************************************************************

       Atomic Center    1 is at   1.137652  0.354093 -0.003310
       Atomic Center    2 is at   1.118242  1.745957  0.011216
       Atomic Center    3 is at  -0.108699  2.406228  0.002823
       Atomic Center    4 is at  -1.299869  1.686773 -0.018831
       Atomic Center    5 is at  -1.258259  0.293011 -0.034616
       Atomic Center    6 is at  -0.039186 -0.385900 -0.025080
       Atomic Center    7 is at   2.044964  2.304578  0.026035
       Atomic Center    8 is at  -0.131786  3.489464  0.010705
       Atomic Center    9 is at  -2.251847  2.201327 -0.031771
       Atomic Center   10 is at  -0.010676 -1.466795 -0.042104
       Atomic Center   11 is at  -2.542532 -0.494104 -0.003505
       Atomic Center   12 is at  -3.556639  0.164383 -0.607076
       Atomic Center   13 is at  -2.944892 -0.744364  1.267839
       Atomic Center   14 is at  -2.423519 -1.693200 -0.614248
       Atomic Center   15 is at   2.818020 -0.563037  0.001323
   10933 points will be used for fitting atomic charges
 Fitting point charges to electrostatic potential
 The dipole moment will be constrained to the correct value
 Charges from ESP fit, RMS=   0.00535 RRMS=   0.43941:
 ESP charges:
               1
     1  C    0.036310
     2  C   -0.007440
     3  C   -0.110175
     4  C   -0.069709
     5  C   -0.118099
     6  C   -0.025674
     7  H    0.066785
     8  H    0.110563
     9  H    0.112693
    10  H    0.087147
    11  C    0.748766
    12  F   -0.251946
    13  F   -0.250528
    14  F   -0.246172
    15  Br  -0.082521
 Sum of ESP charges =   0.00000
 ESP charges with hydrogens summed into heavy atoms:
               1
     1  C    0.036310
     2  C    0.059345
     3  C    0.000388
     4  C    0.042984
     5  C   -0.118099
     6  C    0.061473
    11  C    0.748766
    12  F   -0.251946
    13  F   -0.250528
    14  F   -0.246172
    15  Br  -0.082521
 Charge=   0.00000 Dipole=     1.1847     2.3575    -0.0720 Tot=     2.6394
 -----------------------------------------------------------------

              Electrostatic Properties (Atomic Units)

 -----------------------------------------------------------------
    Center     Electric         -------- Electric Field --------
               Potential          X             Y             Z
 -----------------------------------------------------------------
    1 Atom    -14.692091
    2 Atom    -14.736410
    3 Atom    -14.738522
    4 Atom    -14.737526
    5 Atom    -14.721733
    6 Atom    -14.732758
    7 Atom     -1.072875
    8 Atom     -1.076479
    9 Atom     -1.074441
   10 Atom     -1.069014
   11 Atom    -14.498477
   12 Atom    -26.558702
   13 Atom    -26.563813
   14 Atom    -26.558695
   15 Atom   -175.802117
 -----------------------------------------------------------------
 ******************************Gaussian NBO Version 3.1******************************
             N A T U R A L   A T O M I C   O R B I T A L   A N D
          N A T U R A L   B O N D   O R B I T A L   A N A L Y S I S
 ******************************Gaussian NBO Version 3.1******************************
       /RESON  / : Allow strongly delocalized NBO set

 Analyzing the SCF density

 Job title: Table3_4                                                        

 Storage needed:    257284 in NPA ( 209713925 available)


 NATURAL POPULATIONS:  Natural atomic orbital occupancies 
                                                          
   NAO  Atom  No  lang   Type(AO)    Occupancy      Energy
 ----------------------------------------------------------
     1    C    1  S      Cor( 1S)     1.99863      -1.00000
     2    C    1  S      Val( 2S)     0.95632      -1.00000
     3    C    1  S      Ryd( 3S)     0.00137      -1.00000
     4    C    1  S      Ryd( 4S)     0.00030      -1.00000
     5    C    1  S      Ryd( 5S)     0.00001      -1.00000
     6    C    1  px     Val( 2p)     0.99916      -1.00000
     7    C    1  px     Ryd( 3p)     0.00717      -1.00000
     8    C    1  px     Ryd( 4p)     0.00021      -1.00000
     9    C    1  px     Ryd( 5p)     0.00036      -1.00000
    10    C    1  py     Val( 2p)     1.05850      -1.00000
    11    C    1  py     Ryd( 3p)     0.00699      -1.00000
    12    C    1  py     Ryd( 4p)     0.00028      -1.00000
    13    C    1  py     Ryd( 5p)     0.00011      -1.00000
    14    C    1  pz     Val( 2p)     1.06436      -1.00000
    15    C    1  pz     Ryd( 3p)     0.00121      -1.00000
    16    C    1  pz     Ryd( 4p)     0.00032      -1.00000
    17    C    1  pz     Ryd( 5p)     0.00004      -1.00000
    18    C    1  dxy    Ryd( 3d)     0.00128      -1.00000
    19    C    1  dxz    Ryd( 3d)     0.00090      -1.00000
    20    C    1  dyz    Ryd( 3d)     0.00077      -1.00000
    21    C    1  dx2y2  Ryd( 3d)     0.00127      -1.00000
    22    C    1  dz2    Ryd( 3d)     0.00058      -1.00000

    23    C    2  S      Cor( 1S)     1.99895      -1.00000
    24    C    2  S      Val( 2S)     0.94992      -1.00000
    25    C    2  S      Ryd( 3S)     0.00193      -1.00000
    26    C    2  S      Ryd( 4S)     0.00022      -1.00000
    27    C    2  S      Ryd( 5S)     0.00001      -1.00000
    28    C    2  px     Val( 2p)     1.15907      -1.00000
    29    C    2  px     Ryd( 3p)     0.00735      -1.00000
    30    C    2  px     Ryd( 4p)     0.00024      -1.00000
    31    C    2  px     Ryd( 5p)     0.00009      -1.00000
    32    C    2  py     Val( 2p)     1.10595      -1.00000
    33    C    2  py     Ryd( 3p)     0.00481      -1.00000
    34    C    2  py     Ryd( 4p)     0.00031      -1.00000
    35    C    2  py     Ryd( 5p)     0.00013      -1.00000
    36    C    2  pz     Val( 2p)     0.97557      -1.00000
    37    C    2  pz     Ryd( 3p)     0.00100      -1.00000
    38    C    2  pz     Ryd( 4p)     0.00030      -1.00000
    39    C    2  pz     Ryd( 5p)     0.00001      -1.00000
    40    C    2  dxy    Ryd( 3d)     0.00074      -1.00000
    41    C    2  dxz    Ryd( 3d)     0.00048      -1.00000
    42    C    2  dyz    Ryd( 3d)     0.00051      -1.00000
    43    C    2  dx2y2  Ryd( 3d)     0.00082      -1.00000
    44    C    2  dz2    Ryd( 3d)     0.00041      -1.00000

    45    C    3  S      Cor( 1S)     1.99916      -1.00000
    46    C    3  S      Val( 2S)     0.95148      -1.00000
    47    C    3  S      Ryd( 3S)     0.00142      -1.00000
    48    C    3  S      Ryd( 4S)     0.00017      -1.00000
    49    C    3  S      Ryd( 5S)     0.00001      -1.00000
    50    C    3  px     Val( 2p)     1.05296      -1.00000
    51    C    3  px     Ryd( 3p)     0.00423      -1.00000
    52    C    3  px     Ryd( 4p)     0.00046      -1.00000
    53    C    3  px     Ryd( 5p)     0.00017      -1.00000
    54    C    3  py     Val( 2p)     1.17556      -1.00000
    55    C    3  py     Ryd( 3p)     0.00696      -1.00000
    56    C    3  py     Ryd( 4p)     0.00026      -1.00000
    57    C    3  py     Ryd( 5p)     0.00006      -1.00000
    58    C    3  pz     Val( 2p)     0.98353      -1.00000
    59    C    3  pz     Ryd( 3p)     0.00076      -1.00000
    60    C    3  pz     Ryd( 4p)     0.00023      -1.00000
    61    C    3  pz     Ryd( 5p)     0.00001      -1.00000
    62    C    3  dxy    Ryd( 3d)     0.00064      -1.00000
    63    C    3  dxz    Ryd( 3d)     0.00049      -1.00000
    64    C    3  dyz    Ryd( 3d)     0.00043      -1.00000
    65    C    3  dx2y2  Ryd( 3d)     0.00078      -1.00000
    66    C    3  dz2    Ryd( 3d)     0.00041      -1.00000

    67    C    4  S      Cor( 1S)     1.99908      -1.00000
    68    C    4  S      Val( 2S)     0.94495      -1.00000
    69    C    4  S      Ryd( 3S)     0.00152      -1.00000
    70    C    4  S      Ryd( 4S)     0.00012      -1.00000
    71    C    4  S      Ryd( 5S)     0.00001      -1.00000
    72    C    4  px     Val( 2p)     1.16553      -1.00000
    73    C    4  px     Ryd( 3p)     0.00606      -1.00000
    74    C    4  px     Ryd( 4p)     0.00038      -1.00000
    75    C    4  px     Ryd( 5p)     0.00009      -1.00000
    76    C    4  py     Val( 2p)     1.07836      -1.00000
    77    C    4  py     Ryd( 3p)     0.00429      -1.00000
    78    C    4  py     Ryd( 4p)     0.00046      -1.00000
    79    C    4  py     Ryd( 5p)     0.00019      -1.00000
    80    C    4  pz     Val( 2p)     0.97464      -1.00000
    81    C    4  pz     Ryd( 3p)     0.00105      -1.00000
    82    C    4  pz     Ryd( 4p)     0.00030      -1.00000
    83    C    4  pz     Ryd( 5p)     0.00002      -1.00000
    84    C    4  dxy    Ryd( 3d)     0.00068      -1.00000
    85    C    4  dxz    Ryd( 3d)     0.00045      -1.00000
    86    C    4  dyz    Ryd( 3d)     0.00053      -1.00000
    87    C    4  dx2y2  Ryd( 3d)     0.00073      -1.00000
    88    C    4  dz2    Ryd( 3d)     0.00042      -1.00000

    89    C    5  S      Cor( 1S)     1.99889      -1.00000
    90    C    5  S      Val( 2S)     0.90469      -1.00000
    91    C    5  S      Ryd( 3S)     0.00112      -1.00000
    92    C    5  S      Ryd( 4S)     0.00019      -1.00000
    93    C    5  S      Ryd( 5S)     0.00001      -1.00000
    94    C    5  px     Val( 2p)     1.05741      -1.00000
    95    C    5  px     Ryd( 3p)     0.00544      -1.00000
    96    C    5  px     Ryd( 4p)     0.00044      -1.00000
    97    C    5  px     Ryd( 5p)     0.00020      -1.00000
    98    C    5  py     Val( 2p)     1.09609      -1.00000
    99    C    5  py     Ryd( 3p)     0.00481      -1.00000
   100    C    5  py     Ryd( 4p)     0.00044      -1.00000
   101    C    5  py     Ryd( 5p)     0.00021      -1.00000
   102    C    5  pz     Val( 2p)     1.05483      -1.00000
   103    C    5  pz     Ryd( 3p)     0.00204      -1.00000
   104    C    5  pz     Ryd( 4p)     0.00037      -1.00000
   105    C    5  pz     Ryd( 5p)     0.00002      -1.00000
   106    C    5  dxy    Ryd( 3d)     0.00093      -1.00000
   107    C    5  dxz    Ryd( 3d)     0.00046      -1.00000
   108    C    5  dyz    Ryd( 3d)     0.00068      -1.00000
   109    C    5  dx2y2  Ryd( 3d)     0.00074      -1.00000
   110    C    5  dz2    Ryd( 3d)     0.00044      -1.00000

   111    C    6  S      Cor( 1S)     1.99886      -1.00000
   112    C    6  S      Val( 2S)     0.93979      -1.00000
   113    C    6  S      Ryd( 3S)     0.00203      -1.00000
   114    C    6  S      Ryd( 4S)     0.00018      -1.00000
   115    C    6  S      Ryd( 5S)     0.00001      -1.00000
   116    C    6  px     Val( 2p)     1.06680      -1.00000
   117    C    6  px     Ryd( 3p)     0.00483      -1.00000
   118    C    6  px     Ryd( 4p)     0.00030      -1.00000
   119    C    6  px     Ryd( 5p)     0.00017      -1.00000
   120    C    6  py     Val( 2p)     1.20365      -1.00000
   121    C    6  py     Ryd( 3p)     0.00664      -1.00000
   122    C    6  py     Ryd( 4p)     0.00032      -1.00000
   123    C    6  py     Ryd( 5p)     0.00008      -1.00000
   124    C    6  pz     Val( 2p)     0.97238      -1.00000
   125    C    6  pz     Ryd( 3p)     0.00105      -1.00000
   126    C    6  pz     Ryd( 4p)     0.00040      -1.00000
   127    C    6  pz     Ryd( 5p)     0.00002      -1.00000
   128    C    6  dxy    Ryd( 3d)     0.00134      -1.00000
   129    C    6  dxz    Ryd( 3d)     0.00027      -1.00000
   130    C    6  dyz    Ryd( 3d)     0.00058      -1.00000
   131    C    6  dx2y2  Ryd( 3d)     0.00115      -1.00000
   132    C    6  dz2    Ryd( 3d)     0.00126      -1.00000

   133    H    7  S      Val( 1S)     0.77061      -1.00000
   134    H    7  S      Ryd( 2S)     0.00065      -1.00000
   135    H    7  S      Ryd( 3S)     0.00018      -1.00000
   136    H    7  px     Ryd( 2p)     0.00036      -1.00000
   137    H    7  py     Ryd( 2p)     0.00022      -1.00000
   138    H    7  pz     Ryd( 2p)     0.00017      -1.00000

   139    H    8  S      Val( 1S)     0.78078      -1.00000
   140    H    8  S      Ryd( 2S)     0.00054      -1.00000
   141    H    8  S      Ryd( 3S)     0.00017      -1.00000
   142    H    8  px     Ryd( 2p)     0.00011      -1.00000
   143    H    8  py     Ryd( 2p)     0.00043      -1.00000
   144    H    8  pz     Ryd( 2p)     0.00018      -1.00000

   145    H    9  S      Val( 1S)     0.76956      -1.00000
   146    H    9  S      Ryd( 2S)     0.00066      -1.00000
   147    H    9  S      Ryd( 3S)     0.00017      -1.00000
   148    H    9  px     Ryd( 2p)     0.00038      -1.00000
   149    H    9  py     Ryd( 2p)     0.00023      -1.00000
   150    H    9  pz     Ryd( 2p)     0.00017      -1.00000

   151    H   10  S      Val( 1S)     0.75609      -1.00000
   152    H   10  S      Ryd( 2S)     0.00094      -1.00000
   153    H   10  S      Ryd( 3S)     0.00016      -1.00000
   154    H   10  px     Ryd( 2p)     0.00026      -1.00000
   155    H   10  py     Ryd( 2p)     0.00018      -1.00000
   156    H   10  pz     Ryd( 2p)     0.00027      -1.00000

   157    C   11  S      Cor( 1S)     1.99911      -1.00000
   158    C   11  S      Val( 2S)     0.78477      -1.00000
   159    C   11  S      Ryd( 3S)     0.00385      -1.00000
   160    C   11  S      Ryd( 4S)     0.00047      -1.00000
   161    C   11  S      Ryd( 5S)     0.00003      -1.00000
   162    C   11  px     Val( 2p)     0.81353      -1.00000
   163    C   11  px     Ryd( 3p)     0.00977      -1.00000
   164    C   11  px     Ryd( 4p)     0.00073      -1.00000
   165    C   11  px     Ryd( 5p)     0.00016      -1.00000
   166    C   11  py     Val( 2p)     0.67183      -1.00000
   167    C   11  py     Ryd( 3p)     0.01154      -1.00000
   168    C   11  py     Ryd( 4p)     0.00079      -1.00000
   169    C   11  py     Ryd( 5p)     0.00013      -1.00000
   170    C   11  pz     Val( 2p)     0.60175      -1.00000
   171    C   11  pz     Ryd( 3p)     0.01042      -1.00000
   172    C   11  pz     Ryd( 4p)     0.00085      -1.00000
   173    C   11  pz     Ryd( 5p)     0.00007      -1.00000
   174    C   11  dxy    Ryd( 3d)     0.00381      -1.00000
   175    C   11  dxz    Ryd( 3d)     0.00432      -1.00000
   176    C   11  dyz    Ryd( 3d)     0.00487      -1.00000
   177    C   11  dx2y2  Ryd( 3d)     0.00364      -1.00000
   178    C   11  dz2    Ryd( 3d)     0.00488      -1.00000

   179    F   12  S      Cor( 1S)     1.99992      -1.00000
   180    F   12  S      Val( 2S)     1.85127      -1.00000
   181    F   12  S      Ryd( 3S)     0.00047      -1.00000
   182    F   12  S      Ryd( 4S)     0.00030      -1.00000
   183    F   12  S      Ryd( 5S)     0.00000      -1.00000
   184    F   12  px     Val( 2p)     1.75438      -1.00000
   185    F   12  px     Ryd( 3p)     0.00105      -1.00000
   186    F   12  px     Ryd( 4p)     0.00013      -1.00000
   187    F   12  px     Ryd( 5p)     0.00004       0.00000
   188    F   12  py     Val( 2p)     1.87027       0.00000
   189    F   12  py     Ryd( 3p)     0.00083       0.00000
   190    F   12  py     Ryd( 4p)     0.00014       0.00000
   191    F   12  py     Ryd( 5p)     0.00002       0.00000
   192    F   12  pz     Val( 2p)     1.87308       0.00000
   193    F   12  pz     Ryd( 3p)     0.00067       0.00000
   194    F   12  pz     Ryd( 4p)     0.00008       0.00000
   195    F   12  pz     Ryd( 5p)     0.00002       0.00000
   196    F   12  dxy    Ryd( 3d)     0.00074       0.00000
   197    F   12  dxz    Ryd( 3d)     0.00071       0.00000
   198    F   12  dyz    Ryd( 3d)     0.00035       0.00000
   199    F   12  dx2y2  Ryd( 3d)     0.00054       0.00000
   200    F   12  dz2    Ryd( 3d)     0.00037       0.00000

   201    F   13  S      Cor( 1S)     1.99992       0.00000
   202    F   13  S      Val( 2S)     1.85528       0.00000
   203    F   13  S      Ryd( 3S)     0.00045       0.00000
   204    F   13  S      Ryd( 4S)     0.00039       0.00000
   205    F   13  S      Ryd( 5S)     0.00000       0.00000
   206    F   13  px     Val( 2p)     1.91607       0.00000
   207    F   13  px     Ryd( 3p)     0.00100       0.00000
   208    F   13  px     Ryd( 4p)     0.00005       0.00000
   209    F   13  px     Ryd( 5p)     0.00001       0.00000
   210    F   13  py     Val( 2p)     1.92926       0.00000
   211    F   13  py     Ryd( 3p)     0.00075       0.00000
   212    F   13  py     Ryd( 4p)     0.00004       0.00000
   213    F   13  py     Ryd( 5p)     0.00001       0.00000
   214    F   13  pz     Val( 2p)     1.64808       0.00000
   215    F   13  pz     Ryd( 3p)     0.00080       0.00000
   216    F   13  pz     Ryd( 4p)     0.00018       0.00000
   217    F   13  pz     Ryd( 5p)     0.00006       0.00000
   218    F   13  dxy    Ryd( 3d)     0.00010       0.00000
   219    F   13  dxz    Ryd( 3d)     0.00073       0.00000
   220    F   13  dyz    Ryd( 3d)     0.00062       0.00000
   221    F   13  dx2y2  Ryd( 3d)     0.00010       0.00000
   222    F   13  dz2    Ryd( 3d)     0.00115       0.00000

   223    F   14  S      Cor( 1S)     1.99992       0.00000
   224    F   14  S      Val( 2S)     1.85107       0.00000
   225    F   14  S      Ryd( 3S)     0.00047       0.00000
   226    F   14  S      Ryd( 4S)     0.00031       0.00000
   227    F   14  S      Ryd( 5S)     0.00000       0.00000
   228    F   14  px     Val( 2p)     1.95024       0.00000
   229    F   14  px     Ryd( 3p)     0.00110       0.00000
   230    F   14  px     Ryd( 4p)     0.00011       0.00000
   231    F   14  px     Ryd( 5p)     0.00001       0.00000
   232    F   14  py     Val( 2p)     1.67591       0.00000
   233    F   14  py     Ryd( 3p)     0.00082       0.00000
   234    F   14  py     Ryd( 4p)     0.00017       0.00000
   235    F   14  py     Ryd( 5p)     0.00006       0.00000
   236    F   14  pz     Val( 2p)     1.87133       0.00000
   237    F   14  pz     Ryd( 3p)     0.00070       0.00000
   238    F   14  pz     Ryd( 4p)     0.00008       0.00000
   239    F   14  pz     Ryd( 5p)     0.00002       0.00000
   240    F   14  dxy    Ryd( 3d)     0.00049       0.00000
   241    F   14  dxz    Ryd( 3d)     0.00014       0.00000
   242    F   14  dyz    Ryd( 3d)     0.00094       0.00000
   243    F   14  dx2y2  Ryd( 3d)     0.00079       0.00000
   244    F   14  dz2    Ryd( 3d)     0.00037       0.00000

   245   Br   15  S      Cor( 1S)     2.00000       0.00000
   246   Br   15  S      Cor( 2S)     2.00000       0.00000
   247   Br   15  S      Cor( 3S)     1.99977       0.00000
   248   Br   15  S      Val( 4S)     1.86511       0.00000
   249   Br   15  S      Ryd( 5S)     0.00298       0.00000
   250   Br   15  S      Ryd( 6S)     0.00022       0.00000
   251   Br   15  S      Ryd( 7S)     0.00000       0.00000
   252   Br   15  S      Ryd( 8S)     0.00000       0.00000
   253   Br   15  S      Ryd( 9S)     0.00000       0.00000
   254   Br   15  px     Cor( 2p)     2.00000       0.00000
   255   Br   15  px     Cor( 3p)     1.99988       0.00000
   256   Br   15  px     Val( 4p)     1.32118       0.00000
   257   Br   15  px     Ryd( 5p)     0.00426       0.00000
   258   Br   15  px     Ryd( 6p)     0.00007       0.00000
   259   Br   15  px     Ryd( 7p)     0.00001       0.00000
   260   Br   15  px     Ryd( 8p)     0.00000       0.00000
   261   Br   15  px     Ryd( 9p)     0.00000       0.00000
   262   Br   15  py     Cor( 3p)     2.00000       0.00000
   263   Br   15  py     Cor( 4p)     1.99996       0.00000
   264   Br   15  py     Val( 5p)     1.78066       0.00000
   265   Br   15  py     Ryd( 6p)     0.00238       0.00000
   266   Br   15  py     Ryd( 7p)     0.00008       0.00000
   267   Br   15  py     Ryd( 8p)     0.00001       0.00000
   268   Br   15  py     Ryd( 2p)     0.00000      -0.00011
   269   Br   15  py     Ryd( 9p)     0.00000       0.00002
   270   Br   15  pz     Cor( 4p)     2.00000       0.00001
   271   Br   15  pz     Cor( 3p)     1.99999      -0.00065
   272   Br   15  pz     Val( 7p)     1.93319       0.93981
   273   Br   15  pz     Ryd( 6p)     0.00154       0.34169
   274   Br   15  pz     Ryd( 5p)     0.00005       0.00042
   275   Br   15  pz     Ryd( 2p)     0.00000      -0.34169
   276   Br   15  pz     Ryd( 8p)     0.00000       0.93981
   277   Br   15  pz     Ryd( 9p)     0.00000       0.99602
   278   Br   15  dxy    Cor( 3d)     1.99986      -0.03379
   279   Br   15  dxy    Ryd( 5d)     0.00242       0.00185
   280   Br   15  dxy    Ryd( 4d)     0.00001      -0.00088
   281   Br   15  dxz    Cor( 3d)     1.99996      -0.00017
   282   Br   15  dxz    Ryd( 5d)     0.00174       0.00007
   283   Br   15  dxz    Ryd( 4d)     0.00001       0.00000
   284   Br   15  dyz    Cor( 3d)     1.99998      -0.00315
   285   Br   15  dyz    Ryd( 4d)     0.00056       0.03371
   286   Br   15  dyz    Ryd( 5d)     0.00001       0.99790
   287   Br   15  dx2y2  Cor( 3d)     1.99992      -0.04650
   288   Br   15  dx2y2  Ryd( 5d)     0.00143       0.02933
   289   Br   15  dx2y2  Ryd( 4d)     0.00001       0.00409
   290   Br   15  dz2    Cor( 3d)     1.99994      -0.00195
   291   Br   15  dz2    Ryd( 4d)     0.00106      -0.00002
   292   Br   15  dz2    Ryd( 5d)     0.00000       0.00002

 WARNING:  1 low occupancy (<1.9990e) core orbital  found on  C    1
           1 low occupancy (<1.9990e) core orbital  found on  C    2
           1 low occupancy (<1.9990e) core orbital  found on  C    5
           1 low occupancy (<1.9990e) core orbital  found on  C    6

 WARNING:  Population inversion found on atom  C    1
           Population inversion found on atom Br   15


 Summary of Natural Population Analysis:                  
                                                          
                                       Natural Population 
                Natural  -----------------------------------------------
    Atom  No    Charge         Core      Valence    Rydberg      Total
 -----------------------------------------------------------------------
      C    1   -0.10014      1.99863     4.07834    0.02317     6.10014
      C    2   -0.20882      1.99895     4.19051    0.01935     6.20882
      C    3   -0.18018      1.99916     4.16353    0.01749     6.18018
      C    4   -0.17983      1.99908     4.16347    0.01728     6.17983
      C    5   -0.13042      1.99889     4.11302    0.01851     6.13042
      C    6   -0.20210      1.99886     4.18262    0.02062     6.20210
      H    7    0.22782      0.00000     0.77061    0.00157     0.77218
      H    8    0.21779      0.00000     0.78078    0.00143     0.78221
      H    9    0.22884      0.00000     0.76956    0.00161     0.77116
      H   10    0.24210      0.00000     0.75609    0.00181     0.75790
      C   11    1.06869      1.99911     2.87188    0.06032     4.93131
      F   12   -0.35541      1.99992     7.34901    0.00648     9.35541
      F   13   -0.35506      1.99992     7.34870    0.00644     9.35506
      F   14   -0.35502      1.99992     7.34855    0.00656     9.35502
     Br   15    0.08174     27.99926     6.90015    0.01885    34.91826
 =======================================================================
   * Total *    0.00000     47.99170    59.78682    0.22148   108.00000

                                 Natural Population      
 --------------------------------------------------------
   Core                      47.99170 ( 99.9827% of  48)
   Valence                   59.78682 ( 99.6447% of  60)
   Natural Minimal Basis    107.77852 ( 99.7949% of 108)
   Natural Rydberg Basis      0.22148 (  0.2051% of 108)
 --------------------------------------------------------

    Atom  No          Natural Electron Configuration
 ----------------------------------------------------------------------------
      C    1      [core]2S( 0.96)2p( 3.12)3p( 0.02)
      C    2      [core]2S( 0.95)2p( 3.24)3p( 0.01)
      C    3      [core]2S( 0.95)2p( 3.21)3p( 0.01)
      C    4      [core]2S( 0.94)2p( 3.22)3p( 0.01)
      C    5      [core]2S( 0.90)2p( 3.21)3p( 0.01)
      C    6      [core]2S( 0.94)2p( 3.24)3p( 0.01)
      H    7            1S( 0.77)
      H    8            1S( 0.78)
      H    9            1S( 0.77)
      H   10            1S( 0.76)
      C   11      [core]2S( 0.78)2p( 2.09)3p( 0.03)3d( 0.02)
      F   12      [core]2S( 1.85)2p( 5.50)
      F   13      [core]2S( 1.86)2p( 5.49)
      F   14      [core]2S( 1.85)2p( 5.50)
     Br   15      [core]4S( 1.87)4p( 1.32)5p( 1.78)5d( 0.01)7p( 1.93)


 NBO analysis skipped by request.

 This type of calculation cannot be archived.


 LENDING MONEY TO FRIENDS CAUSES THEM TO LOSE THEIR MEMORIES.

    --  PETER'S THEORY OF RECIPROCAL INHIBITION OF FISCAL RECALL
 Job cpu time:       0 days  0 hours  3 minutes 30.7 seconds.
 File lengths (MBytes):  RWF=     38 Int=      0 D2E=      0 Chk=      7 Scr=      1
 Normal termination of Gaussian 09 at Tue Aug  3 10:07:27 2021.
