module: Command not found.
module: Command not found.
 Entering Gaussian System, Link 0=g09
 Initial command:
 /opt/gaussian/g09/l1.exe "/tmp/G09-compound7.com.o10565211.tmp/Gau-1884184.inp" -scrdir="/tmp/G09-compound7.com.o10565211.tmp/"
 Entering Link 1 = /opt/gaussian/g09/l1.exe PID=   1884185.
  
 Copyright (c) 1988,1990,1992,1993,1995,1998,2003,2009,2013,
            Gaussian, Inc.  All Rights Reserved.
  
 This is part of the Gaussian(R) 09 program.  It is based on
 the Gaussian(R) 03 system (copyright 2003, Gaussian, Inc.),
 the Gaussian(R) 98 system (copyright 1998, Gaussian, Inc.),
 the Gaussian(R) 94 system (copyright 1995, Gaussian, Inc.),
 the Gaussian 92(TM) system (copyright 1992, Gaussian, Inc.),
 the Gaussian 90(TM) system (copyright 1990, Gaussian, Inc.),
 the Gaussian 88(TM) system (copyright 1988, Gaussian, Inc.),
 the Gaussian 86(TM) system (copyright 1986, Carnegie Mellon
 University), and the Gaussian 82(TM) system (copyright 1983,
 Carnegie Mellon University). Gaussian is a federally registered
 trademark of Gaussian, Inc.
  
 This software contains proprietary and confidential information,
 including trade secrets, belonging to Gaussian, Inc.
  
 This software is provided under written license and may be
 used, copied, transmitted, or stored only in accord with that
 written license.
  
 The following legend is applicable only to US Government
 contracts under FAR:
  
                    RESTRICTED RIGHTS LEGEND
  
 Use, reproduction and disclosure by the US Government is
 subject to restrictions as set forth in subparagraphs (a)
 and (c) of the Commercial Computer Software - Restricted
 Rights clause in FAR 52.227-19.
  
 Gaussian, Inc.
 340 Quinnipiac St., Bldg. 40, Wallingford CT 06492
  
  
 ---------------------------------------------------------------
 Warning -- This program may not be used in any manner that
 competes with the business of Gaussian, Inc. or will provide
 assistance to any competitor of Gaussian, Inc.  The licensee
 of this program is prohibited from giving any competitor of
 Gaussian, Inc. access to this program.  By using this program,
 the user acknowledges that Gaussian, Inc. is engaged in the
 business of creating and licensing software in the field of
 computational chemistry and represents and warrants to the
 licensee that it is not a competitor of Gaussian, Inc. and that
 it will not use this program in any manner prohibited above.
 ---------------------------------------------------------------
  

 Cite this work as:
 Gaussian 09, Revision D.01,
 M. J. Frisch, G. W. Trucks, H. B. Schlegel, G. E. Scuseria, 
 M. A. Robb, J. R. Cheeseman, G. Scalmani, V. Barone, B. Mennucci, 
 G. A. Petersson, H. Nakatsuji, M. Caricato, X. Li, H. P. Hratchian, 
 A. F. Izmaylov, J. Bloino, G. Zheng, J. L. Sonnenberg, M. Hada, 
 M. Ehara, K. Toyota, R. Fukuda, J. Hasegawa, M. Ishida, T. Nakajima, 
 Y. Honda, O. Kitao, H. Nakai, T. Vreven, J. A. Montgomery, Jr., 
 J. E. Peralta, F. Ogliaro, M. Bearpark, J. J. Heyd, E. Brothers, 
 K. N. Kudin, V. N. Staroverov, T. Keith, R. Kobayashi, J. Normand, 
 K. Raghavachari, A. Rendell, J. C. Burant, S. S. Iyengar, J. Tomasi, 
 M. Cossi, N. Rega, J. M. Millam, M. Klene, J. E. Knox, J. B. Cross, 
 V. Bakken, C. Adamo, J. Jaramillo, R. Gomperts, R. E. Stratmann, 
 O. Yazyev, A. J. Austin, R. Cammi, C. Pomelli, J. W. Ochterski, 
 R. L. Martin, K. Morokuma, V. G. Zakrzewski, G. A. Voth, 
 P. Salvador, J. J. Dannenberg, S. Dapprich, A. D. Daniels, 
 O. Farkas, J. B. Foresman, J. V. Ortiz, J. Cioslowski, 
 and D. J. Fox, Gaussian, Inc., Wallingford CT, 2013.
 
 ******************************************
 Gaussian 09:  ES64L-G09RevD.01 24-Apr-2013
                18-Jan-2024 
 ******************************************
 %nprocshared=20
 Will use up to   20 processors via shared memory.
 %mem=4GB
 %chk=compound7.chk
 ----------------------------------------------------------------------
 # opt freq=noraman b3lyp/6-311+g(d,p) pop=(npa,hirshfeld,chelpg,mbs) g
 eom=connectivity
 ----------------------------------------------------------------------
 1/14=-1,18=20,19=15,26=3,38=1,57=2/1,3;
 2/9=110,12=2,17=6,18=5,40=1/2;
 3/5=4,6=6,7=111,11=2,16=1,25=1,30=1,71=1,74=-5/1,2,3;
 4//1;
 5/5=2,38=5/2;
 6/7=2,8=2,9=2,10=2,15=8,20=3,27=100,28=1,40=-1,79=1/1,2,7;
 7//1,2,3,16;
 1/14=-1,18=20,19=15,26=3/3(2);
 2/9=110/2;
 99//99;
 2/9=110/2;
 3/5=4,6=6,7=111,11=2,16=1,25=1,30=1,71=1,74=-5/1,2,3;
 4/5=5,16=3,69=1/1;
 5/5=2,38=5/2;
 7//1,2,3,16;
 1/14=-1,18=20,19=15,26=3/3(-5);
 2/9=110/2;
 6/7=2,8=2,9=2,10=2,15=8,19=2,20=3,27=100,28=1,40=-1,79=1/1,2,7;
 99/9=1/99;
 ---
 tit
 ---
 Symbolic Z-matrix:
 Charge =  0 Multiplicity = 1
 C                     3.38276  -0.42452  -0.52662 
 C                     4.66458  -0.61116  -0.90762 
 C                     5.40634   0.69296  -0.64512 
 C                     4.51293   1.5625   -0.12667 
 N                     3.25499   0.85428   0.21385 
 H                     5.07827  -1.50289  -1.3302 
 H                     6.43841   0.88845  -0.84887 
 C                     2.22323  -1.39377  -0.82267 
 H                     1.49458  -1.32724  -0.04193 
 H                     1.77025  -1.13336  -1.75642 
 H                     2.5992   -2.39415  -0.87534 
 C                     4.76144   3.0688    0.07556 
 H                     4.46289   3.60073  -0.80354 
 H                     4.19188   3.41503   0.9126 
 H                     5.8022    3.23723   0.25814 
 C                     2.05107   1.61316  -0.15437 
 C                     1.34797   1.55642  -1.49648 
 C                     0.31678   2.39375  -1.40001 
 N                     1.40605   2.4361    0.62249 
 N                     0.44011   3.16096  -0.14033 
 C                    -0.84901   3.28659   0.55485 
 H                    -0.71024   3.82493   1.46909 
 H                    -1.54038   3.8143   -0.06838 
 H                    -1.23475   2.31197   0.76987 
 H                     1.6168    0.95743  -2.34137 
 H                    -0.475     2.49069  -2.11316 
 

 GradGradGradGradGradGradGradGradGradGradGradGradGradGradGradGradGradGrad
 Berny optimization.
 Initialization pass.
                           ----------------------------
                           !    Initial Parameters    !
                           ! (Angstroms and Degrees)  !
 --------------------------                            --------------------------
 ! Name  Definition              Value          Derivative Info.                !
 --------------------------------------------------------------------------------
 ! R1    R(1,2)                  1.3502         estimate D2E/DX2                !
 ! R2    R(1,5)                  1.4832         estimate D2E/DX2                !
 ! R3    R(1,8)                  1.54           estimate D2E/DX2                !
 ! R4    R(2,3)                  1.5231         estimate D2E/DX2                !
 ! R5    R(2,6)                  1.07           estimate D2E/DX2                !
 ! R6    R(3,4)                  1.3502         estimate D2E/DX2                !
 ! R7    R(3,7)                  1.07           estimate D2E/DX2                !
 ! R8    R(4,5)                  1.4832         estimate D2E/DX2                !
 ! R9    R(4,12)                 1.54           estimate D2E/DX2                !
 ! R10   R(5,16)                 1.47           estimate D2E/DX2                !
 ! R11   R(8,9)                  1.07           estimate D2E/DX2                !
 ! R12   R(8,10)                 1.07           estimate D2E/DX2                !
 ! R13   R(8,11)                 1.07           estimate D2E/DX2                !
 ! R14   R(12,13)                1.07           estimate D2E/DX2                !
 ! R15   R(12,14)                1.07           estimate D2E/DX2                !
 ! R16   R(12,15)                1.07           estimate D2E/DX2                !
 ! R17   R(16,17)                1.5162         estimate D2E/DX2                !
 ! R18   R(16,19)                1.3026         estimate D2E/DX2                !
 ! R19   R(17,18)                1.3318         estimate D2E/DX2                !
 ! R20   R(17,25)                1.07           estimate D2E/DX2                !
 ! R21   R(18,20)                1.4801         estimate D2E/DX2                !
 ! R22   R(18,26)                1.07           estimate D2E/DX2                !
 ! R23   R(19,20)                1.4284         estimate D2E/DX2                !
 ! R24   R(20,21)                1.47           estimate D2E/DX2                !
 ! R25   R(21,22)                1.07           estimate D2E/DX2                !
 ! R26   R(21,23)                1.07           estimate D2E/DX2                !
 ! R27   R(21,24)                1.07           estimate D2E/DX2                !
 ! A1    A(2,1,5)              109.9885         estimate D2E/DX2                !
 ! A2    A(2,1,8)              124.9987         estimate D2E/DX2                !
 ! A3    A(5,1,8)              125.0123         estimate D2E/DX2                !
 ! A4    A(1,2,3)              107.1783         estimate D2E/DX2                !
 ! A5    A(1,2,6)              126.4192         estimate D2E/DX2                !
 ! A6    A(3,2,6)              126.3952         estimate D2E/DX2                !
 ! A7    A(2,3,4)              107.1783         estimate D2E/DX2                !
 ! A8    A(2,3,7)              126.3952         estimate D2E/DX2                !
 ! A9    A(4,3,7)              126.4192         estimate D2E/DX2                !
 ! A10   A(3,4,5)              109.9885         estimate D2E/DX2                !
 ! A11   A(3,4,12)             124.9987         estimate D2E/DX2                !
 ! A12   A(5,4,12)             125.0123         estimate D2E/DX2                !
 ! A13   A(1,5,4)              102.9445         estimate D2E/DX2                !
 ! A14   A(1,5,16)             112.991          estimate D2E/DX2                !
 ! A15   A(4,5,16)             112.991          estimate D2E/DX2                !
 ! A16   A(1,8,9)              109.4712         estimate D2E/DX2                !
 ! A17   A(1,8,10)             109.4712         estimate D2E/DX2                !
 ! A18   A(1,8,11)             109.4712         estimate D2E/DX2                !
 ! A19   A(9,8,10)             109.4712         estimate D2E/DX2                !
 ! A20   A(9,8,11)             109.4712         estimate D2E/DX2                !
 ! A21   A(10,8,11)            109.4712         estimate D2E/DX2                !
 ! A22   A(4,12,13)            109.4712         estimate D2E/DX2                !
 ! A23   A(4,12,14)            109.4712         estimate D2E/DX2                !
 ! A24   A(4,12,15)            109.4712         estimate D2E/DX2                !
 ! A25   A(13,12,14)           109.4712         estimate D2E/DX2                !
 ! A26   A(13,12,15)           109.4712         estimate D2E/DX2                !
 ! A27   A(14,12,15)           109.4712         estimate D2E/DX2                !
 ! A28   A(5,16,17)            125.606          estimate D2E/DX2                !
 ! A29   A(5,16,19)            125.6122         estimate D2E/DX2                !
 ! A30   A(17,16,19)           108.7794         estimate D2E/DX2                !
 ! A31   A(16,17,18)           105.7482         estimate D2E/DX2                !
 ! A32   A(16,17,25)           127.1135         estimate D2E/DX2                !
 ! A33   A(18,17,25)           127.1334         estimate D2E/DX2                !
 ! A34   A(17,18,20)           108.8458         estimate D2E/DX2                !
 ! A35   A(17,18,26)           125.5649         estimate D2E/DX2                !
 ! A36   A(20,18,26)           125.5879         estimate D2E/DX2                !
 ! A37   A(16,19,20)           109.6915         estimate D2E/DX2                !
 ! A38   A(18,20,19)           104.3484         estimate D2E/DX2                !
 ! A39   A(18,20,21)           111.9451         estimate D2E/DX2                !
 ! A40   A(19,20,21)           112.5719         estimate D2E/DX2                !
 ! A41   A(20,21,22)           109.4712         estimate D2E/DX2                !
 ! A42   A(20,21,23)           109.4712         estimate D2E/DX2                !
 ! A43   A(20,21,24)           109.4712         estimate D2E/DX2                !
 ! A44   A(22,21,23)           109.4712         estimate D2E/DX2                !
 ! A45   A(22,21,24)           109.4712         estimate D2E/DX2                !
 ! A46   A(23,21,24)           109.4712         estimate D2E/DX2                !
 ! D1    D(5,1,2,3)            -10.3375         estimate D2E/DX2                !
 ! D2    D(5,1,2,6)            170.5972         estimate D2E/DX2                !
 ! D3    D(8,1,2,3)            169.4186         estimate D2E/DX2                !
 ! D4    D(8,1,2,6)             -9.6467         estimate D2E/DX2                !
 ! D5    D(2,1,5,4)             15.9759         estimate D2E/DX2                !
 ! D6    D(2,1,5,16)           138.1758         estimate D2E/DX2                !
 ! D7    D(8,1,5,4)           -163.7801         estimate D2E/DX2                !
 ! D8    D(8,1,5,16)           -41.5802         estimate D2E/DX2                !
 ! D9    D(2,1,8,9)            150.14           estimate D2E/DX2                !
 ! D10   D(2,1,8,10)           -89.86           estimate D2E/DX2                !
 ! D11   D(2,1,8,11)            30.14           estimate D2E/DX2                !
 ! D12   D(5,1,8,9)            -30.14           estimate D2E/DX2                !
 ! D13   D(5,1,8,10)            89.86           estimate D2E/DX2                !
 ! D14   D(5,1,8,11)          -150.14           estimate D2E/DX2                !
 ! D15   D(1,2,3,4)              0.0            estimate D2E/DX2                !
 ! D16   D(1,2,3,7)           -179.0656         estimate D2E/DX2                !
 ! D17   D(6,2,3,4)            179.0656         estimate D2E/DX2                !
 ! D18   D(6,2,3,7)              0.0            estimate D2E/DX2                !
 ! D19   D(2,3,4,5)             10.3375         estimate D2E/DX2                !
 ! D20   D(2,3,4,12)          -169.4186         estimate D2E/DX2                !
 ! D21   D(7,3,4,5)           -170.5972         estimate D2E/DX2                !
 ! D22   D(7,3,4,12)             9.6467         estimate D2E/DX2                !
 ! D23   D(3,4,5,1)            -15.9759         estimate D2E/DX2                !
 ! D24   D(3,4,5,16)          -138.1758         estimate D2E/DX2                !
 ! D25   D(12,4,5,1)           163.7801         estimate D2E/DX2                !
 ! D26   D(12,4,5,16)           41.5802         estimate D2E/DX2                !
 ! D27   D(3,4,12,13)           89.86           estimate D2E/DX2                !
 ! D28   D(3,4,12,14)         -150.14           estimate D2E/DX2                !
 ! D29   D(3,4,12,15)          -30.14           estimate D2E/DX2                !
 ! D30   D(5,4,12,13)          -89.86           estimate D2E/DX2                !
 ! D31   D(5,4,12,14)           30.14           estimate D2E/DX2                !
 ! D32   D(5,4,12,15)          150.14           estimate D2E/DX2                !
 ! D33   D(1,5,16,17)          -27.8721         estimate D2E/DX2                !
 ! D34   D(1,5,16,19)          151.4901         estimate D2E/DX2                !
 ! D35   D(4,5,16,17)           88.5099         estimate D2E/DX2                !
 ! D36   D(4,5,16,19)          -92.1279         estimate D2E/DX2                !
 ! D37   D(5,16,17,18)        -179.8446         estimate D2E/DX2                !
 ! D38   D(5,16,17,25)           0.92           estimate D2E/DX2                !
 ! D39   D(19,16,17,18)          0.703          estimate D2E/DX2                !
 ! D40   D(19,16,17,25)       -178.5324         estimate D2E/DX2                !
 ! D41   D(5,16,19,20)         169.8119         estimate D2E/DX2                !
 ! D42   D(17,16,19,20)        -10.7358         estimate D2E/DX2                !
 ! D43   D(16,17,18,20)          9.2253         estimate D2E/DX2                !
 ! D44   D(16,17,18,26)       -170.3644         estimate D2E/DX2                !
 ! D45   D(25,17,18,20)       -171.5395         estimate D2E/DX2                !
 ! D46   D(25,17,18,26)          8.8708         estimate D2E/DX2                !
 ! D47   D(17,18,20,19)        -15.3895         estimate D2E/DX2                !
 ! D48   D(17,18,20,21)       -137.4096         estimate D2E/DX2                !
 ! D49   D(26,18,20,19)        164.2001         estimate D2E/DX2                !
 ! D50   D(26,18,20,21)         42.18           estimate D2E/DX2                !
 ! D51   D(16,19,20,18)         15.8888         estimate D2E/DX2                !
 ! D52   D(16,19,20,21)        137.4953         estimate D2E/DX2                !
 ! D53   D(18,20,21,22)        178.5912         estimate D2E/DX2                !
 ! D54   D(18,20,21,23)        -61.4088         estimate D2E/DX2                !
 ! D55   D(18,20,21,24)         58.5912         estimate D2E/DX2                !
 ! D56   D(19,20,21,22)         61.4088         estimate D2E/DX2                !
 ! D57   D(19,20,21,23)       -178.5912         estimate D2E/DX2                !
 ! D58   D(19,20,21,24)        -58.5912         estimate D2E/DX2                !
 --------------------------------------------------------------------------------
 Trust Radius=3.00D-01 FncErr=1.00D-07 GrdErr=1.00D-06
 Number of steps in this run=    141 maximum allowed number of steps=    156.
 GradGradGradGradGradGradGradGradGradGradGradGradGradGradGradGradGradGrad

                          Input orientation:                          
 ---------------------------------------------------------------------
 Center     Atomic      Atomic             Coordinates (Angstroms)
 Number     Number       Type             X           Y           Z
 ---------------------------------------------------------------------
      1          6           0        3.382757   -0.424516   -0.526621
      2          6           0        4.664582   -0.611161   -0.907615
      3          6           0        5.406337    0.692963   -0.645121
      4          6           0        4.512927    1.562501   -0.126674
      5          7           0        3.254992    0.854278    0.213850
      6          1           0        5.078271   -1.502891   -1.330201
      7          1           0        6.438409    0.888447   -0.848872
      8          6           0        2.223229   -1.393769   -0.822667
      9          1           0        1.494584   -1.327239   -0.041930
     10          1           0        1.770253   -1.133356   -1.756422
     11          1           0        2.599204   -2.394153   -0.875343
     12          6           0        4.761437    3.068802    0.075560
     13          1           0        4.462892    3.600730   -0.803544
     14          1           0        4.191880    3.415034    0.912596
     15          1           0        5.802204    3.237229    0.258143
     16          6           0        2.051074    1.613155   -0.154374
     17          6           0        1.347970    1.556420   -1.496479
     18          6           0        0.316782    2.393750   -1.400013
     19          7           0        1.406053    2.436097    0.622489
     20          7           0        0.440115    3.160957   -0.140331
     21          6           0       -0.849008    3.286587    0.554852
     22          1           0       -0.710237    3.824933    1.469088
     23          1           0       -1.540381    3.814301   -0.068382
     24          1           0       -1.234748    2.311973    0.769868
     25          1           0        1.616799    0.957430   -2.341370
     26          1           0       -0.475000    2.490688   -2.113164
 ---------------------------------------------------------------------
                    Distance matrix (angstroms):
                    1          2          3          4          5
     1  C    0.000000
     2  C    1.350210   0.000000
     3  C    2.314665   1.523104   0.000000
     4  C    2.320663   2.314665   1.350210   0.000000
     5  N    1.483218   2.322098   2.322098   1.483218   0.000000
     6  H    2.164116   1.070000   2.323519   3.341365   3.356291
     7  H    3.341365   2.323519   1.070000   2.164116   3.356291
     8  C    1.540000   2.565130   3.810269   3.803505   2.681905
     9  H    2.148263   3.363192   4.443745   4.179494   2.814867
    10  H    2.148263   3.061094   4.218002   4.176839   3.168140
    11  H    2.148263   2.728715   4.178909   4.458469   3.488367
    12  C    3.803505   3.810269   2.565130   1.540000   2.681905
    13  H    4.176839   4.218002   3.061094   2.148263   3.168140
    14  H    4.179494   4.443745   3.363192   2.148263   2.814867
    15  H    4.458469   4.178909   2.728715   2.148263   3.488367
    16  C    2.462529   3.513599   3.513599   2.462529   1.470000
    17  C    3.000849   4.005632   4.235649   3.448674   2.656118
    18  C    4.255072   5.308042   5.419051   4.463182   3.688848
    19  N    3.662092   4.716462   4.543966   3.313168   2.467329
    20  N    4.654458   5.715218   5.568588   4.375276   3.656466
    21  C    5.731467   6.908757   6.877221   5.673385   4.782805
    22  H    6.228424   7.363173   7.189687   5.911556   5.111110
    23  H    6.512668   7.667503   7.637557   6.458834   5.642428
    24  H    5.521830   6.794170   6.980501   5.865258   4.753082
    25  H    2.884735   3.715523   4.160265   3.695747   3.037016
    26  H    5.088990   6.122917   6.322744   5.448585   4.691020
                    6          7          8          9         10
     6  H    0.000000
     7  H    2.792875   0.000000
     8  C    2.901855   4.793426   0.000000
     9  H    3.812257   5.477392   1.070000   0.000000
    10  H    3.355771   5.167496   1.070000   1.747303   0.000000
    11  H    2.673390   5.051302   1.070000   1.747303   1.747303
    12  C    4.793426   2.901855   5.211895   5.478258   5.473708
    13  H    5.167496   3.355771   5.473708   5.803085   5.529001
    14  H    5.477392   3.812257   5.478258   5.538563   5.803085
    15  H    5.051302   2.673390   5.951752   6.283311   6.278305
    16  C    4.500693   4.500693   3.085100   2.994703   3.191981
    17  C    4.827233   5.174761   3.150193   3.233064   2.735104
    18  C    6.153085   6.328033   4.279388   4.132477   3.831460
    19  N    5.728334   5.466693   4.174221   3.822563   4.304980
    20  N    6.684292   6.453361   4.938685   4.611452   4.777253
    21  C    7.850170   7.799228   5.765582   5.209220   5.633686
    22  H    8.350362   8.068396   6.410320   5.804247   6.414154
    23  H    8.583197   8.534101   6.469753   5.970524   6.187818
    24  H    7.669269   7.970199   5.312842   4.620837   5.223262
    25  H    4.365481   5.047794   2.863975   3.243775   2.176488
    26  H    6.884804   7.208386   4.902533   4.769260   4.278099
                   11         12         13         14         15
    11  H    0.000000
    12  C    5.951752   0.000000
    13  H    6.278305   1.070000   0.000000
    14  H    6.283311   1.070000   1.747303   0.000000
    15  H    6.576964   1.070000   1.747303   1.747303   0.000000
    16  C    4.108377   3.085100   3.191981   2.994703   4.108377
    17  C    4.190278   4.050971   3.789737   4.164843   5.073856
    18  C    5.329985   4.731593   4.359221   4.626831   5.792304
    19  N    5.196000   3.458041   3.568502   2.967038   4.483381
    20  N    6.005094   4.327693   4.100731   3.904991   5.377416
    21  C    6.797531   5.635090   5.491831   5.055199   6.658010
    22  H    7.424674   5.696741   5.654767   4.950601   6.650088
    23  H    7.505482   6.347393   6.051890   5.829284   7.372461
    24  H    6.289159   6.083509   6.049762   5.539441   7.115943
    25  H    3.787804   4.493127   4.177582   4.822775   5.428864
    26  H    5.902932   5.704822   5.227818   5.638209   6.751570
                   16         17         18         19         20
    16  C    0.000000
    17  C    1.516186   0.000000
    18  C    2.273480   1.331831   0.000000
    19  N    1.302613   2.295044   2.297567   0.000000
    20  N    2.234072   2.288641   1.480073   1.428409   0.000000
    21  C    3.422551   3.468162   2.444938   2.411060   1.470000
    22  H    3.892612   4.263443   3.366718   2.669134   2.086720
    23  H    4.213193   3.934471   2.690774   3.325391   2.086720
    24  H    3.484135   3.518184   2.668767   2.647821   2.086720
    25  H    2.324118   1.070000   2.153883   3.318935   3.329368
    26  H    3.314811   2.139246   1.070000   3.320412   2.275690
                   21         22         23         24         25
    21  C    0.000000
    22  H    1.070000   0.000000
    23  H    1.070000   1.747303   0.000000
    24  H    1.070000   1.747303   1.747303   0.000000
    25  H    4.460189   5.306342   4.826591   4.432371   0.000000
    26  H    2.809207   3.829892   2.658594   2.986809   2.603571
                   26
    26  H    0.000000
 Stoichiometry    C10H13N3
 Framework group  C1[X(C10H13N3)]
 Deg. of freedom    72
 Full point group                 C1      NOp   1
 Largest Abelian subgroup         C1      NOp   1
 Largest concise Abelian subgroup C1      NOp   1
                         Standard orientation:                         
 ---------------------------------------------------------------------
 Center     Atomic      Atomic             Coordinates (Angstroms)
 Number     Number       Type             X           Y           Z
 ---------------------------------------------------------------------
      1          6           0       -1.730601   -1.089326   -0.305375
      2          6           0       -2.959954   -0.693782    0.088712
      3          6           0       -2.915924    0.820377    0.247546
      4          6           0       -1.663516    1.217709   -0.063368
      5          7           0       -0.909490    0.091875   -0.666592
      6          1           0       -3.802889   -1.327056    0.271261
      7          1           0       -3.722152    1.449418    0.562512
      8          6           0       -1.249993   -2.551190   -0.365121
      9          1           0       -0.520349   -2.655338   -1.140797
     10          1           0       -0.813679   -2.821842    0.573642
     11          1           0       -2.082023   -3.192099   -0.569720
     12          6           0       -1.099328    2.630098    0.178393
     13          1           0       -0.653846    2.674689    1.150225
     14          1           0       -0.360241    2.850700   -0.563217
     15          1           0       -1.891897    3.346241    0.116147
     16          6           0        0.474019    0.000422   -0.178290
     17          6           0        0.928522   -0.767357    1.047583
     18          6           0        2.245049   -0.580843    1.123362
     19          7           0        1.512850    0.556003   -0.734132
     20          7           0        2.639294    0.450652    0.137864
     21          6           0        3.872431    0.086755   -0.574774
     22          1           0        4.106940    0.845320   -1.292050
     23          1           0        4.676218   -0.002335    0.125861
     24          1           0        3.731724   -0.847598   -1.076856
     25          1           0        0.319589   -1.349528    1.707263
     26          1           0        2.909801   -1.097465    1.783746
 ---------------------------------------------------------------------
 Rotational constants (GHZ):      1.4456577      0.5824861      0.4636910
 Standard basis: 6-311+G(d,p) (5D, 7F)
 There are   377 symmetry adapted cartesian basis functions of A   symmetry.
 There are   364 symmetry adapted basis functions of A   symmetry.
   364 basis functions,   572 primitive gaussians,   377 cartesian basis functions
    47 alpha electrons       47 beta electrons
       nuclear repulsion energy       772.7573283406 Hartrees.
 NAtoms=   26 NActive=   26 NUniq=   26 SFac= 1.00D+00 NAtFMM=   60 NAOKFM=F Big=F
 Integral buffers will be    131072 words long.
 Raffenetti 2 integral format.
 Two-electron integral symmetry is turned on.
 One-electron integrals computed using PRISM.
 NBasis=   364 RedAO= T EigKep=  3.06D-06  NBF=   364
 NBsUse=   364 1.00D-06 EigRej= -1.00D+00 NBFU=   364
 ExpMin= 4.38D-02 ExpMax= 6.29D+03 ExpMxC= 9.49D+02 IAcc=2 IRadAn=         4 AccDes= 0.00D+00
 Harris functional with IExCor=  402 and IRadAn=       4 diagonalized for initial guess.
 HarFok:  IExCor=  402 AccDes= 0.00D+00 IRadAn=         4 IDoV= 1 UseB2=F ITyADJ=14
 ICtDFT=  3500011 ScaDFX=  1.000000  1.000000  1.000000  1.000000
 FoFCou: FMM=F IPFlag=           0 FMFlag=      100000 FMFlg1=           0
         NFxFlg=           0 DoJE=T BraDBF=F KetDBF=T FulRan=T
         wScrn=  0.000000 ICntrl=     500 IOpCl=  0 I1Cent=   200000004 NGrid=           0
         NMat0=    1 NMatS0=      1 NMatT0=    0 NMatD0=    1 NMtDS0=    0 NMtDT0=    0
 Petite list used in FoFCou.
 Requested convergence on RMS density matrix=1.00D-08 within 128 cycles.
 Requested convergence on MAX density matrix=1.00D-06.
 Requested convergence on             energy=1.00D-06.
 No special actions if energy rises.
 SCF Done:  E(RB3LYP) =  -553.195226043     A.U. after   15 cycles
            NFock= 15  Conv=0.93D-08     -V/T= 2.0051

 **********************************************************************

            Population analysis using the SCF density.

 **********************************************************************

 Orbital symmetries:
       Occupied  (A) (A) (A) (A) (A) (A) (A) (A) (A) (A) (A) (A)
                 (A) (A) (A) (A) (A) (A) (A) (A) (A) (A) (A) (A)
                 (A) (A) (A) (A) (A) (A) (A) (A) (A) (A) (A) (A)
                 (A) (A) (A) (A) (A) (A) (A) (A) (A) (A) (A)
       Virtual   (A) (A) (A) (A) (A) (A) (A) (A) (A) (A) (A) (A)
                 (A) (A) (A) (A) (A) (A) (A) (A) (A) (A) (A) (A)
                 (A) (A) (A) (A) (A) (A) (A) (A) (A) (A) (A) (A)
                 (A) (A) (A) (A) (A) (A) (A) (A) (A) (A) (A) (A)
                 (A) (A) (A) (A) (A) (A) (A) (A) (A) (A) (A) (A)
                 (A) (A) (A) (A) (A) (A) (A) (A) (A) (A) (A) (A)
                 (A) (A) (A) (A) (A) (A) (A) (A) (A) (A) (A) (A)
                 (A) (A) (A) (A) (A) (A) (A) (A) (A) (A) (A) (A)
                 (A) (A) (A) (A) (A) (A) (A) (A) (A) (A) (A) (A)
                 (A) (A) (A) (A) (A) (A) (A) (A) (A) (A) (A) (A)
                 (A) (A) (A) (A) (A) (A) (A) (A) (A) (A) (A) (A)
                 (A) (A) (A) (A) (A) (A) (A) (A) (A) (A) (A) (A)
                 (A) (A) (A) (A) (A) (A) (A) (A) (A) (A) (A) (A)
                 (A) (A) (A) (A) (A) (A) (A) (A) (A) (A) (A) (A)
                 (A) (A) (A) (A) (A) (A) (A) (A) (A) (A) (A) (A)
                 (A) (A) (A) (A) (A) (A) (A) (A) (A) (A) (A) (A)
                 (A) (A) (A) (A) (A) (A) (A) (A) (A) (A) (A) (A)
                 (A) (A) (A) (A) (A) (A) (A) (A) (A) (A) (A) (A)
                 (A) (A) (A) (A) (A) (A) (A) (A) (A) (A) (A) (A)
                 (A) (A) (A) (A) (A) (A) (A) (A) (A) (A) (A) (A)
                 (A) (A) (A) (A) (A) (A) (A) (A) (A) (A) (A) (A)
                 (A) (A) (A) (A) (A) (A) (A) (A) (A) (A) (A) (A)
                 (A) (A) (A) (A) (A) (A) (A) (A) (A) (A) (A) (A)
                 (A) (A) (A) (A) (A) (A) (A) (A) (A) (A) (A) (A)
                 (A) (A) (A) (A) (A) (A) (A) (A) (A) (A) (A) (A)
                 (A) (A) (A) (A) (A) (A) (A) (A) (A) (A) (A) (A)
                 (A) (A) (A) (A) (A)
 The electronic state is 1-A.
 Alpha  occ. eigenvalues --  -14.38487 -14.36476 -14.33878 -10.25300 -10.21489
 Alpha  occ. eigenvalues --  -10.20639 -10.20594 -10.20342 -10.18495 -10.17163
 Alpha  occ. eigenvalues --  -10.16430 -10.16363 -10.16170  -1.02463  -0.95387
 Alpha  occ. eigenvalues --   -0.84660  -0.78739  -0.77441  -0.77240  -0.72191
 Alpha  occ. eigenvalues --   -0.68528  -0.65199  -0.60168  -0.58792  -0.55348
 Alpha  occ. eigenvalues --   -0.54363  -0.50591  -0.48194  -0.47076  -0.45700
 Alpha  occ. eigenvalues --   -0.45055  -0.43563  -0.42532  -0.42456  -0.42067
 Alpha  occ. eigenvalues --   -0.41128  -0.40354  -0.38577  -0.38250  -0.36909
 Alpha  occ. eigenvalues --   -0.35417  -0.34381  -0.29883  -0.27402  -0.26907
 Alpha  occ. eigenvalues --   -0.24683  -0.21207
 Alpha virt. eigenvalues --   -0.03227  -0.00428   0.00122   0.01121   0.01655
 Alpha virt. eigenvalues --    0.02449   0.03051   0.03158   0.03646   0.03991
 Alpha virt. eigenvalues --    0.04942   0.05023   0.05469   0.05937   0.05995
 Alpha virt. eigenvalues --    0.07186   0.07375   0.07829   0.08442   0.08649
 Alpha virt. eigenvalues --    0.09364   0.09731   0.10246   0.11360   0.11851
 Alpha virt. eigenvalues --    0.12073   0.12545   0.13040   0.13448   0.14184
 Alpha virt. eigenvalues --    0.14787   0.14978   0.15844   0.16104   0.16567
 Alpha virt. eigenvalues --    0.16806   0.17225   0.17282   0.17658   0.18273
 Alpha virt. eigenvalues --    0.18862   0.19177   0.19475   0.19574   0.20257
 Alpha virt. eigenvalues --    0.20664   0.21196   0.21417   0.21754   0.22393
 Alpha virt. eigenvalues --    0.23088   0.23133   0.23778   0.24258   0.24584
 Alpha virt. eigenvalues --    0.25273   0.25519   0.25838   0.26515   0.26820
 Alpha virt. eigenvalues --    0.27195   0.27309   0.28067   0.28483   0.29103
 Alpha virt. eigenvalues --    0.29817   0.31121   0.31420   0.31685   0.33054
 Alpha virt. eigenvalues --    0.34057   0.34733   0.34765   0.35585   0.36750
 Alpha virt. eigenvalues --    0.37857   0.39250   0.40035   0.40191   0.40990
 Alpha virt. eigenvalues --    0.41654   0.43176   0.43752   0.44151   0.47283
 Alpha virt. eigenvalues --    0.47815   0.48353   0.48929   0.51125   0.51393
 Alpha virt. eigenvalues --    0.53454   0.54248   0.55387   0.56918   0.57456
 Alpha virt. eigenvalues --    0.59606   0.59910   0.61345   0.62488   0.62730
 Alpha virt. eigenvalues --    0.64270   0.64312   0.65664   0.66436   0.66651
 Alpha virt. eigenvalues --    0.68158   0.68567   0.69155   0.69703   0.70845
 Alpha virt. eigenvalues --    0.71219   0.72464   0.72738   0.73033   0.73861
 Alpha virt. eigenvalues --    0.74154   0.75647   0.76890   0.78644   0.79963
 Alpha virt. eigenvalues --    0.80060   0.81707   0.82399   0.84086   0.84814
 Alpha virt. eigenvalues --    0.86580   0.87324   0.87504   0.88670   0.89574
 Alpha virt. eigenvalues --    0.90966   0.91562   0.92810   0.94386   0.94913
 Alpha virt. eigenvalues --    0.95891   0.98346   0.99984   1.00506   1.01200
 Alpha virt. eigenvalues --    1.02984   1.06531   1.06634   1.08048   1.09198
 Alpha virt. eigenvalues --    1.11195   1.12934   1.14095   1.17001   1.17778
 Alpha virt. eigenvalues --    1.19434   1.23826   1.25554   1.29161   1.34456
 Alpha virt. eigenvalues --    1.35012   1.38841   1.40065   1.41126   1.42361
 Alpha virt. eigenvalues --    1.44155   1.45235   1.46204   1.46620   1.48164
 Alpha virt. eigenvalues --    1.49903   1.51626   1.52752   1.54847   1.55354
 Alpha virt. eigenvalues --    1.56436   1.57353   1.58087   1.58920   1.60166
 Alpha virt. eigenvalues --    1.60979   1.62486   1.63016   1.63819   1.64630
 Alpha virt. eigenvalues --    1.65450   1.65703   1.66671   1.67959   1.69106
 Alpha virt. eigenvalues --    1.71085   1.72608   1.74078   1.75431   1.76855
 Alpha virt. eigenvalues --    1.80049   1.82137   1.82353   1.83517   1.84983
 Alpha virt. eigenvalues --    1.86353   1.88407   1.88847   1.90266   1.93184
 Alpha virt. eigenvalues --    1.96016   1.97955   1.98656   2.00262   2.01364
 Alpha virt. eigenvalues --    2.02404   2.03570   2.06733   2.07136   2.09395
 Alpha virt. eigenvalues --    2.10497   2.11126   2.14656   2.17013   2.17421
 Alpha virt. eigenvalues --    2.18098   2.20960   2.22109   2.25469   2.29788
 Alpha virt. eigenvalues --    2.32542   2.34817   2.35403   2.37711   2.40568
 Alpha virt. eigenvalues --    2.42311   2.43470   2.44998   2.47568   2.49777
 Alpha virt. eigenvalues --    2.50749   2.52255   2.52603   2.53513   2.55022
 Alpha virt. eigenvalues --    2.55822   2.56368   2.56659   2.57590   2.59449
 Alpha virt. eigenvalues --    2.60515   2.62016   2.63294   2.64490   2.65312
 Alpha virt. eigenvalues --    2.67391   2.67906   2.68472   2.69029   2.71218
 Alpha virt. eigenvalues --    2.73008   2.74167   2.77222   2.78179   2.81442
 Alpha virt. eigenvalues --    2.81851   2.82457   2.84274   2.86449   2.88461
 Alpha virt. eigenvalues --    2.89625   2.91650   2.92237   2.94828   2.99028
 Alpha virt. eigenvalues --    3.00883   3.03151   3.04941   3.07991   3.12589
 Alpha virt. eigenvalues --    3.13537   3.16936   3.20818   3.23435   3.26873
 Alpha virt. eigenvalues --    3.34821   3.40652   3.43133   3.47023   3.56728
 Alpha virt. eigenvalues --    3.58866   3.62362   3.77817   3.79134   3.79853
 Alpha virt. eigenvalues --    3.83031   3.85571   3.86400   3.88650   3.90162
 Alpha virt. eigenvalues --    3.93598   3.96620   3.99918   4.10098   4.12268
 Alpha virt. eigenvalues --    4.23838   4.25854   4.31466   4.35225   4.48276
 Alpha virt. eigenvalues --    4.86081   4.91103   4.92088   5.27853  23.66541
 Alpha virt. eigenvalues --   23.71009  23.72258  23.83155  23.96400  23.99003
 Alpha virt. eigenvalues --   24.00503  24.19025  24.21434  24.26093  35.45250
 Alpha virt. eigenvalues --   35.51749  35.62954
          Condensed to atoms (all electrons):
               1          2          3          4          5          6
     1  C   10.378974  -3.781274   2.989862  -2.471332  -0.284793  -0.018568
     2  C   -3.781274  11.003517  -3.381183   3.433084   0.268152   0.336198
     3  C    2.989862  -3.381183   9.392375  -2.884543  -0.332382   0.026563
     4  C   -2.471332   3.433084  -2.884543  10.038617   0.569887  -0.019789
     5  N   -0.284793   0.268152  -0.332382   0.569887   7.121973   0.016526
     6  H   -0.018568   0.336198   0.026563  -0.019789   0.016526   0.535753
     7  H   -0.024357   0.013456   0.332121   0.007084   0.020803  -0.002555
     8  C    0.058505  -1.805555   0.920244  -1.225950  -0.051806   0.006793
     9  H   -0.085683  -0.079213   0.018742  -0.039244  -0.011549   0.000242
    10  H    0.114118   0.087313  -0.034879   0.074178   0.001749  -0.000111
    11  H   -0.102954  -0.028853   0.025861  -0.029954   0.005027   0.000914
    12  C   -1.102721   0.840819  -1.290019  -0.262158  -0.124297   0.006873
    13  H    0.060241  -0.024892   0.033122   0.111322   0.000979   0.000011
    14  H   -0.037104   0.022515  -0.053229  -0.070674  -0.002329   0.000002
    15  H   -0.014420   0.011740  -0.002265  -0.083721   0.008609  -0.000018
    16  C    0.550521  -0.766250   0.591579  -1.462496  -1.016475  -0.011361
    17  C   -0.042677   0.132714  -0.097999   0.355398   0.361231   0.005564
    18  C   -0.338880   0.010411   0.035519  -0.160493   0.155381   0.000125
    19  N    0.059863  -0.076992   0.046679  -0.117033   0.060291  -0.000015
    20  N   -0.077162   0.064523  -0.019412   0.093329  -0.106940  -0.000066
    21  C   -0.015898  -0.001425  -0.000667  -0.009500  -0.016905  -0.000009
    22  H    0.000504   0.000032  -0.000018   0.000596   0.000404   0.000000
    23  H    0.000346  -0.000118   0.000221   0.000275   0.000231   0.000000
    24  H    0.000244   0.000150  -0.000275  -0.002028  -0.001211   0.000000
    25  H   -0.001766   0.016151  -0.004645   0.020373  -0.012187  -0.000076
    26  H    0.003681   0.000635  -0.000428   0.001582  -0.001766   0.000000
               7          8          9         10         11         12
     1  C   -0.024357   0.058505  -0.085683   0.114118  -0.102954  -1.102721
     2  C    0.013456  -1.805555  -0.079213   0.087313  -0.028853   0.840819
     3  C    0.332121   0.920244   0.018742  -0.034879   0.025861  -1.290019
     4  C    0.007084  -1.225950  -0.039244   0.074178  -0.029954  -0.262158
     5  N    0.020803  -0.051806  -0.011549   0.001749   0.005027  -0.124297
     6  H   -0.002555   0.006793   0.000242  -0.000111   0.000914   0.006873
     7  H    0.539203   0.007008   0.000007   0.000009  -0.000010   0.000379
     8  C    0.007008   7.605083   0.570871   0.128712   0.500608  -0.328378
     9  H    0.000007   0.570871   0.521035  -0.034616  -0.020347  -0.005084
    10  H    0.000009   0.128712  -0.034616   0.563130  -0.028001   0.006218
    11  H   -0.000010   0.500608  -0.020347  -0.028001   0.521459  -0.001095
    12  C    0.000379  -0.328378  -0.005084   0.006218  -0.001095   7.436012
    13  H    0.000031   0.006017   0.000013  -0.000032   0.000002   0.195768
    14  H    0.000149  -0.005186  -0.000006   0.000012  -0.000002   0.527747
    15  H    0.000412  -0.000227  -0.000002   0.000003  -0.000001   0.455001
    16  C   -0.018108  -0.111627   0.013588  -0.005682  -0.003189   0.340695
    17  C    0.006936   0.047697   0.004999  -0.002458   0.006843  -0.133891
    18  C    0.000269   0.145116  -0.011382  -0.014520   0.002159  -0.039411
    19  N    0.000158   0.056026  -0.000205  -0.001585  -0.000114  -0.099790
    20  N   -0.000081  -0.041751  -0.001710   0.000850  -0.000193   0.057058
    21  C   -0.000003  -0.002201  -0.000147  -0.000285   0.000026   0.003930
    22  H    0.000000   0.000069   0.000001   0.000000   0.000000  -0.000204
    23  H    0.000000   0.000280   0.000000   0.000000   0.000000  -0.000149
    24  H    0.000000  -0.001150   0.000008  -0.000003   0.000002   0.000003
    25  H   -0.000002  -0.007185   0.000038   0.001989   0.000074  -0.003912
    26  H    0.000000  -0.001623  -0.000027   0.000032  -0.000002   0.000619
              13         14         15         16         17         18
     1  C    0.060241  -0.037104  -0.014420   0.550521  -0.042677  -0.338880
     2  C   -0.024892   0.022515   0.011740  -0.766250   0.132714   0.010411
     3  C    0.033122  -0.053229  -0.002265   0.591579  -0.097999   0.035519
     4  C    0.111322  -0.070674  -0.083721  -1.462496   0.355398  -0.160493
     5  N    0.000979  -0.002329   0.008609  -1.016475   0.361231   0.155381
     6  H    0.000011   0.000002  -0.000018  -0.011361   0.005564   0.000125
     7  H    0.000031   0.000149   0.000412  -0.018108   0.006936   0.000269
     8  C    0.006017  -0.005186  -0.000227  -0.111627   0.047697   0.145116
     9  H    0.000013  -0.000006  -0.000002   0.013588   0.004999  -0.011382
    10  H   -0.000032   0.000012   0.000003  -0.005682  -0.002458  -0.014520
    11  H    0.000002  -0.000002  -0.000001  -0.003189   0.006843   0.002159
    12  C    0.195768   0.527747   0.455001   0.340695  -0.133891  -0.039411
    13  H    0.533182  -0.029484  -0.027015  -0.027657   0.011027  -0.006631
    14  H   -0.029484   0.508263  -0.020806  -0.009724   0.009309  -0.005497
    15  H   -0.027015  -0.020806   0.526072  -0.003478   0.000660   0.001251
    16  C   -0.027657  -0.009724  -0.003478  10.637863  -2.542446   0.123304
    17  C    0.011027   0.009309   0.000660  -2.542446   8.056933  -0.559372
    18  C   -0.006631  -0.005497   0.001251   0.123304  -0.559372   6.795951
    19  N    0.000282  -0.004126  -0.000865   0.184591   0.410805   0.113620
    20  N    0.001826   0.004154  -0.001057   0.267925  -0.615283  -0.135380
    21  C   -0.000164  -0.000164  -0.000157  -0.133014   0.053354  -0.182316
    22  H   -0.000001   0.000016   0.000000   0.008521  -0.006636   0.024372
    23  H    0.000001   0.000002   0.000000  -0.010655   0.026129  -0.001458
    24  H   -0.000001   0.000001   0.000000   0.016683  -0.000689  -0.003529
    25  H    0.000049   0.000007   0.000002   0.004648   0.374012  -0.054356
    26  H    0.000003  -0.000002   0.000000   0.015916   0.028583   0.331866
              19         20         21         22         23         24
     1  C    0.059863  -0.077162  -0.015898   0.000504   0.000346   0.000244
     2  C   -0.076992   0.064523  -0.001425   0.000032  -0.000118   0.000150
     3  C    0.046679  -0.019412  -0.000667  -0.000018   0.000221  -0.000275
     4  C   -0.117033   0.093329  -0.009500   0.000596   0.000275  -0.002028
     5  N    0.060291  -0.106940  -0.016905   0.000404   0.000231  -0.001211
     6  H   -0.000015  -0.000066  -0.000009   0.000000   0.000000   0.000000
     7  H    0.000158  -0.000081  -0.000003   0.000000   0.000000   0.000000
     8  C    0.056026  -0.041751  -0.002201   0.000069   0.000280  -0.001150
     9  H   -0.000205  -0.001710  -0.000147   0.000001   0.000000   0.000008
    10  H   -0.001585   0.000850  -0.000285   0.000000   0.000000  -0.000003
    11  H   -0.000114  -0.000193   0.000026   0.000000   0.000000   0.000002
    12  C   -0.099790   0.057058   0.003930  -0.000204  -0.000149   0.000003
    13  H    0.000282   0.001826  -0.000164  -0.000001   0.000001  -0.000001
    14  H   -0.004126   0.004154  -0.000164   0.000016   0.000002   0.000001
    15  H   -0.000865  -0.001057  -0.000157   0.000000   0.000000   0.000000
    16  C    0.184591   0.267925  -0.133014   0.008521  -0.010655   0.016683
    17  C    0.410805  -0.615283   0.053354  -0.006636   0.026129  -0.000689
    18  C    0.113620  -0.135380  -0.182316   0.024372  -0.001458  -0.003529
    19  N    7.177604  -0.527588  -0.089603  -0.012315   0.017957   0.001376
    20  N   -0.527588   7.680868   0.315219  -0.035140  -0.061618  -0.069575
    21  C   -0.089603   0.315219   5.136978   0.402178   0.398024   0.424960
    22  H   -0.012315  -0.035140   0.402178   0.510139  -0.019580  -0.031668
    23  H    0.017957  -0.061618   0.398024  -0.019580   0.548412  -0.036975
    24  H    0.001376  -0.069575   0.424960  -0.031668  -0.036975   0.544385
    25  H   -0.006246   0.032049  -0.001585   0.000024   0.000031  -0.000282
    26  H   -0.001962  -0.035090   0.006982   0.000018   0.001056   0.000614
              25         26
     1  C   -0.001766   0.003681
     2  C    0.016151   0.000635
     3  C   -0.004645  -0.000428
     4  C    0.020373   0.001582
     5  N   -0.012187  -0.001766
     6  H   -0.000076   0.000000
     7  H   -0.000002   0.000000
     8  C   -0.007185  -0.001623
     9  H    0.000038  -0.000027
    10  H    0.001989   0.000032
    11  H    0.000074  -0.000002
    12  C   -0.003912   0.000619
    13  H    0.000049   0.000003
    14  H    0.000007  -0.000002
    15  H    0.000002   0.000000
    16  C    0.004648   0.015916
    17  C    0.374012   0.028583
    18  C   -0.054356   0.331866
    19  N   -0.006246  -0.001962
    20  N    0.032049  -0.035090
    21  C   -0.001585   0.006982
    22  H    0.000024   0.000018
    23  H    0.000031   0.001056
    24  H   -0.000282   0.000614
    25  H    0.518506  -0.003353
    26  H   -0.003353   0.514949
 Mulliken charges:
               1
     1  C    0.182728
     2  C   -0.295656
     3  C   -0.310946
     4  C    0.133191
     5  N    0.371399
     6  H    0.117004
     7  H    0.117092
     8  C   -0.470392
     9  H    0.159671
    10  H    0.143860
    11  H    0.151741
    12  C   -0.480014
    13  H    0.162000
    14  H    0.166156
    15  H    0.150281
    16  C   -0.633676
    17  C    0.109258
    18  C   -0.226118
    19  N   -0.190811
    20  N    0.210248
    21  C   -0.287609
    22  H    0.158685
    23  H    0.137588
    24  H    0.158960
    25  H    0.127642
    26  H    0.137717
 Sum of Mulliken charges =   0.00000
 Mulliken charges with hydrogens summed into heavy atoms:
               1
     1  C    0.182728
     2  C   -0.178652
     3  C   -0.193853
     4  C    0.133191
     5  N    0.371399
     8  C   -0.015120
    12  C   -0.001577
    16  C   -0.633676
    17  C    0.236900
    18  C   -0.088401
    19  N   -0.190811
    20  N    0.210248
    21  C    0.167624
 Electronic spatial extent (au):  <R**2>=           2530.3583
 Charge=              0.0000 electrons
 Dipole moment (field-independent basis, Debye):
    X=              1.5310    Y=             -1.8246    Z=              1.9334  Tot=              3.0677
 Quadrupole moment (field-independent basis, Debye-Ang):
   XX=            -67.5803   YY=            -73.9219   ZZ=            -81.8884
   XY=             -3.0803   XZ=             -0.5368   YZ=             -0.2770
 Traceless Quadrupole moment (field-independent basis, Debye-Ang):
   XX=              6.8833   YY=              0.5417   ZZ=             -7.4249
   XY=             -3.0803   XZ=             -0.5368   YZ=             -0.2770
 Octapole moment (field-independent basis, Debye-Ang**2):
  XXX=             46.9314  YYY=              1.9467  ZZZ=              4.1960  XYY=            -10.9842
  XXY=             -8.0622  XXZ=              6.0690  XZZ=             12.1756  YZZ=             -5.8424
  YYZ=              1.3792  XYZ=             -5.5401
 Hexadecapole moment (field-independent basis, Debye-Ang**3):
 XXXX=          -2046.4999 YYYY=           -916.5965 ZZZZ=           -286.7595 XXXY=             -8.5645
 XXXZ=            -31.6593 YYYX=             -0.8894 YYYZ=              1.6729 ZZZX=              3.7762
 ZZZY=             -5.6453 XXYY=           -515.6762 XXZZ=           -438.1209 YYZZ=           -197.7621
 XXYZ=             -8.9339 YYXZ=             -2.1574 ZZXY=             -7.4318
 N-N= 7.727573283406D+02 E-N=-2.830730753497D+03  KE= 5.503803861796D+02
 There are a total of      214724 grid points.
 ElSum from          density=       93.9997637108
 ElSum from atomic densities=       93.9998034968

 Hirshfeld populations at iteration   1 (CX, CA, CB, DipXYZ):
               1          2          3          4          5          6
     1  C    0.000000   2.984980   2.984980   0.136304  -0.036134  -0.038700
     2  C    0.000000   3.042911   3.042911  -0.110443  -0.008766   0.022194
     3  C    0.000000   3.044598   3.044598  -0.107702   0.010463   0.024221
     4  C    0.000000   2.981538   2.981538   0.137573   0.035677  -0.034561
     5  N    0.000002   3.540828   3.540828   0.031870  -0.004491   0.082108
     6  H    0.000002   0.476326   0.476326  -0.134283  -0.095976   0.027492
     7  H    0.000002   0.476334   0.476334  -0.128571   0.096650   0.047563
     8  C    0.000000   3.048689   3.048689  -0.019287  -0.009827  -0.000866
     9  H    0.000001   0.479905   0.479905   0.094981  -0.024544  -0.115112
    10  H    0.000001   0.481805   0.481805   0.049283  -0.049849   0.130076
    11  H    0.000001   0.476531   0.476531  -0.118710  -0.098663  -0.029487
    12  C    0.000000   3.048563   3.048563  -0.016428   0.010825   0.005242
    13  H    0.000001   0.479584   0.479584   0.058808   0.018262   0.139707
    14  H    0.000001   0.480103   0.480103   0.088344   0.047680  -0.101055
    15  H    0.000001   0.476998   0.476998  -0.111289   0.109491  -0.008080
    16  C    0.000000   2.946546   2.946546  -0.124669   0.005743  -0.014735
    17  C    0.000000   3.039076   3.039076  -0.103846  -0.034548   0.028606
    18  C    0.000000   3.002895   3.002895   0.143315   0.009526   0.003484
    19  N    0.000001   3.581220   3.581220   0.053271  -0.092716   0.178704
    20  N    0.000000   3.520538   3.520538  -0.003583  -0.075323  -0.075267
    21  C    0.000000   3.017950   3.017950  -0.006604   0.014465   0.014947
    22  H    0.000001   0.474557   0.474557   0.049003   0.105376  -0.101930
    23  H    0.000001   0.475396   0.475396   0.123320  -0.012984   0.093559
    24  H    0.000001   0.480685   0.480685  -0.006715  -0.126078  -0.071259
    25  H    0.000001   0.472558   0.472558  -0.086242  -0.090805   0.110544
    26  H    0.000002   0.468768   0.468768   0.099396  -0.093461   0.103658
       Tot   0.000020  46.999882  46.999882  -0.012904  -0.390006   0.421053

 Dip from Atomic Chgs              0.614923  -0.328454   0.339892
         Total Dipole              0.602019  -0.718461   0.760945

 Hirshfeld charges, spin densities, dipoles, and CM5 charges using IRadAn=      4:
              Q-H        S-H        Dx         Dy         Dz        Q-CM5   
     1  C    0.030039   0.000000   0.136304  -0.036134  -0.038700   0.068184
     2  C   -0.085823   0.000000  -0.110443  -0.008766   0.022194  -0.133167
     3  C   -0.089196   0.000000  -0.107702   0.010463   0.024221  -0.136482
     4  C    0.036924   0.000000   0.137573   0.035677  -0.034561   0.075907
     5  N   -0.081656   0.000000   0.031870  -0.004491   0.082108  -0.271754
     6  H    0.047347   0.000000  -0.134283  -0.095976   0.027492   0.104454
     7  H    0.047332   0.000000  -0.128571   0.096650   0.047563   0.104437
     8  C   -0.097378   0.000000  -0.019287  -0.009827  -0.000866  -0.246341
     9  H    0.040189   0.000000   0.094981  -0.024544  -0.115112   0.097087
    10  H    0.036391   0.000000   0.049283  -0.049849   0.130076   0.092569
    11  H    0.046938   0.000000  -0.118710  -0.098663  -0.029487   0.101943
    12  C   -0.097126   0.000000  -0.016428   0.010825   0.005242  -0.245138
    13  H    0.040833   0.000000   0.058808   0.018262   0.139707   0.096562
    14  H    0.039794   0.000000   0.088344   0.047680  -0.101055   0.097853
    15  H    0.046004   0.000000  -0.111289   0.109491  -0.008080   0.101019
    16  C    0.106908   0.000000  -0.124669   0.005743  -0.014735   0.247303
    17  C   -0.078152   0.000000  -0.103846  -0.034548   0.028606  -0.116177
    18  C   -0.005790   0.000000   0.143315   0.009526   0.003484  -0.001442
    19  N   -0.162440   0.000000   0.053271  -0.092716   0.178704  -0.275232
    20  N   -0.041076   0.000000  -0.003583  -0.075323  -0.075267  -0.210949
    21  C   -0.035901   0.000000  -0.006604   0.014465   0.014947  -0.127654
    22  H    0.050886   0.000000   0.049003   0.105376  -0.101930   0.117150
    23  H    0.049208   0.000000   0.123320  -0.012984   0.093559   0.113772
    24  H    0.038631   0.000000  -0.006715  -0.126078  -0.071259   0.106041
    25  H    0.054885   0.000000  -0.086242  -0.090805   0.110544   0.114544
    26  H    0.062465   0.000000   0.099396  -0.093461   0.103658   0.125749
       Tot   0.000236   0.000000  -0.012904  -0.390006   0.421053   0.000236
 Hirshfeld charges with hydrogens summed into heavy atoms:
              Q-H       Q-CM5   
     1  C    0.030039   0.068184
     2  C   -0.038475  -0.028713
     3  C   -0.041864  -0.032045
     4  C    0.036924   0.075907
     5  N   -0.081656  -0.271754
     8  C    0.026140   0.045258
    12  C    0.029505   0.050296
    16  C    0.106908   0.247303
    17  C   -0.023268  -0.001634
    18  C    0.056675   0.124307
    19  N   -0.162440  -0.275232
    20  N   -0.041076  -0.210949
    21  C    0.102824   0.209308
 
 EQQ= 0.000000000000E+00 EQD= 0.000000000000E+00 EDD= 0.328542239134E-02
 EQQ+QD+DD= 0.328542239134E-02
 
          MBS Condensed to atoms (all electrons):
               1          2          3          4          5          6
     1  C    4.850219   0.570361  -0.046651  -0.051861   0.348776  -0.021973
     2  C    0.570361   4.914574   0.415750  -0.046316  -0.043659   0.390671
     3  C   -0.046651   0.415750   4.919522   0.570458  -0.043799  -0.017502
     4  C   -0.051861  -0.046316   0.570458   4.834630   0.344875   0.001328
     5  N    0.348776  -0.043659  -0.043799   0.344875   6.390140   0.001147
     6  H   -0.021973   0.390671  -0.017502   0.001328   0.001147   0.534740
     7  H    0.001317  -0.017569   0.390775  -0.021781   0.001142  -0.000775
     8  C    0.376045  -0.025670   0.000921   0.000845  -0.015714  -0.001871
     9  H   -0.022060   0.001182  -0.000034   0.000003  -0.001404   0.000031
    10  H   -0.023780  -0.000962  -0.000003   0.000031   0.000058   0.000045
    11  H   -0.019809  -0.003025   0.000022  -0.000021   0.000658   0.000470
    12  C    0.000845   0.000918  -0.025698   0.374990  -0.015681  -0.000012
    13  H    0.000030  -0.000005  -0.000915  -0.022858  -0.000001   0.000000
    14  H    0.000000  -0.000033   0.001160  -0.021651  -0.001396   0.000000
    15  H   -0.000021   0.000024  -0.002981  -0.019820   0.000671  -0.000001
    16  C   -0.027191   0.001024   0.001076  -0.025124   0.332759  -0.000024
    17  C   -0.003344   0.000085   0.000044  -0.000424  -0.020027  -0.000001
    18  C    0.000063   0.000000   0.000000  -0.000010   0.000474   0.000000
    19  N    0.000579  -0.000006  -0.000002  -0.000546  -0.019027   0.000000
    20  N   -0.000008   0.000000   0.000000  -0.000005   0.000526   0.000000
    21  C    0.000000   0.000000   0.000000   0.000000  -0.000005   0.000000
    22  H    0.000000   0.000000   0.000000   0.000000   0.000000   0.000000
    23  H    0.000000   0.000000   0.000000   0.000000   0.000000   0.000000
    24  H    0.000000   0.000000   0.000000   0.000000  -0.000003   0.000000
    25  H    0.000344   0.000004   0.000002   0.000016  -0.000192   0.000002
    26  H   -0.000002   0.000000   0.000000   0.000000  -0.000006   0.000000
               7          8          9         10         11         12
     1  C    0.001317   0.376045  -0.022060  -0.023780  -0.019809   0.000845
     2  C   -0.017569  -0.025670   0.001182  -0.000962  -0.003025   0.000918
     3  C    0.390775   0.000921  -0.000034  -0.000003   0.000022  -0.025698
     4  C   -0.021781   0.000845   0.000003   0.000031  -0.000021   0.374990
     5  N    0.001142  -0.015714  -0.001404   0.000058   0.000658  -0.015681
     6  H   -0.000775  -0.001871   0.000031   0.000045   0.000470  -0.000012
     7  H    0.533795  -0.000012   0.000000   0.000000  -0.000001  -0.001857
     8  C   -0.000012   4.802917   0.378948   0.379627   0.381854  -0.000003
     9  H    0.000000   0.378948   0.573976  -0.022932  -0.020618   0.000000
    10  H    0.000000   0.379627  -0.022932   0.585381  -0.022816   0.000000
    11  H   -0.000001   0.381854  -0.020618  -0.022816   0.570622   0.000000
    12  C   -0.001857  -0.000003   0.000000   0.000000   0.000000   4.805530
    13  H    0.000045   0.000000   0.000000   0.000000   0.000000   0.379911
    14  H    0.000030   0.000000   0.000000   0.000000   0.000000   0.377776
    15  H    0.000424   0.000000   0.000000   0.000000   0.000000   0.381842
    16  C   -0.000025  -0.001343   0.000642  -0.000287   0.000040  -0.001460
    17  C    0.000000  -0.001891   0.000129  -0.000544   0.000049  -0.000049
    18  C    0.000000   0.000004  -0.000009   0.000001   0.000000   0.000000
    19  N    0.000000  -0.000004  -0.000014  -0.000005   0.000000  -0.000324
    20  N    0.000000   0.000000   0.000001   0.000000   0.000000   0.000004
    21  C    0.000000   0.000000   0.000000   0.000000   0.000000   0.000000
    22  H    0.000000   0.000000   0.000000   0.000000   0.000000   0.000000
    23  H    0.000000   0.000000   0.000000   0.000000   0.000000   0.000000
    24  H    0.000000   0.000000   0.000001   0.000000   0.000000   0.000000
    25  H    0.000000  -0.001310  -0.000067   0.000224   0.000029   0.000000
    26  H    0.000000   0.000001   0.000000   0.000002   0.000000   0.000000
              13         14         15         16         17         18
     1  C    0.000030   0.000000  -0.000021  -0.027191  -0.003344   0.000063
     2  C   -0.000005  -0.000033   0.000024   0.001024   0.000085   0.000000
     3  C   -0.000915   0.001160  -0.002981   0.001076   0.000044   0.000000
     4  C   -0.022858  -0.021651  -0.019820  -0.025124  -0.000424  -0.000010
     5  N   -0.000001  -0.001396   0.000671   0.332759  -0.020027   0.000474
     6  H    0.000000   0.000000  -0.000001  -0.000024  -0.000001   0.000000
     7  H    0.000045   0.000030   0.000424  -0.000025   0.000000   0.000000
     8  C    0.000000   0.000000   0.000000  -0.001343  -0.001891   0.000004
     9  H    0.000000   0.000000   0.000000   0.000642   0.000129  -0.000009
    10  H    0.000000   0.000000   0.000000  -0.000287  -0.000544   0.000001
    11  H    0.000000   0.000000   0.000000   0.000040   0.000049   0.000000
    12  C    0.379911   0.377776   0.381842  -0.001460  -0.000049   0.000000
    13  H    0.575257  -0.022126  -0.022817  -0.000011   0.000080   0.000004
    14  H   -0.022126   0.563128  -0.020474   0.000265   0.000016   0.000002
    15  H   -0.022817  -0.020474   0.572513   0.000049   0.000000   0.000000
    16  C   -0.000011   0.000265   0.000049   4.709400   0.410624  -0.051226
    17  C    0.000080   0.000016   0.000000   0.410624   4.927709   0.574677
    18  C    0.000004   0.000002   0.000000  -0.051226   0.574677   4.867824
    19  N    0.000032   0.000814   0.000006   0.483033  -0.046776  -0.043992
    20  N   -0.000005  -0.000014   0.000000  -0.050010  -0.047206   0.348809
    21  C    0.000000   0.000000   0.000000   0.001543   0.001069  -0.031654
    22  H    0.000000   0.000000   0.000000  -0.000043  -0.000042   0.002135
    23  H    0.000000   0.000000   0.000000  -0.000066   0.000032  -0.002216
    24  H    0.000000   0.000000   0.000000   0.000513   0.000356  -0.004394
    25  H   -0.000001  -0.000001   0.000000  -0.017134   0.388893  -0.020204
    26  H    0.000000   0.000000   0.000000   0.001913  -0.023742   0.386914
              19         20         21         22         23         24
     1  C    0.000579  -0.000008   0.000000   0.000000   0.000000   0.000000
     2  C   -0.000006   0.000000   0.000000   0.000000   0.000000   0.000000
     3  C   -0.000002   0.000000   0.000000   0.000000   0.000000   0.000000
     4  C   -0.000546  -0.000005   0.000000   0.000000   0.000000   0.000000
     5  N   -0.019027   0.000526  -0.000005   0.000000   0.000000  -0.000003
     6  H    0.000000   0.000000   0.000000   0.000000   0.000000   0.000000
     7  H    0.000000   0.000000   0.000000   0.000000   0.000000   0.000000
     8  C   -0.000004   0.000000   0.000000   0.000000   0.000000   0.000000
     9  H   -0.000014   0.000001   0.000000   0.000000   0.000000   0.000001
    10  H   -0.000005   0.000000   0.000000   0.000000   0.000000   0.000000
    11  H    0.000000   0.000000   0.000000   0.000000   0.000000   0.000000
    12  C   -0.000324   0.000004   0.000000   0.000000   0.000000   0.000000
    13  H    0.000032  -0.000005   0.000000   0.000000   0.000000   0.000000
    14  H    0.000814  -0.000014   0.000000   0.000000   0.000000   0.000000
    15  H    0.000006   0.000000   0.000000   0.000000   0.000000   0.000000
    16  C    0.483033  -0.050010   0.001543  -0.000043  -0.000066   0.000513
    17  C   -0.046776  -0.047206   0.001069  -0.000042   0.000032   0.000356
    18  C   -0.043992   0.348809  -0.031654   0.002135  -0.002216  -0.004394
    19  N    6.635870   0.297495  -0.027173  -0.000436   0.001487  -0.002505
    20  N    0.297495   6.368341   0.314140  -0.021912  -0.020510  -0.021965
    21  C   -0.027173   0.314140   4.745607   0.381640   0.381979   0.379600
    22  H   -0.000436  -0.021912   0.381640   0.558193  -0.021104  -0.024638
    23  H    0.001487  -0.020510   0.381979  -0.021104   0.572853  -0.024438
    24  H   -0.002505  -0.021965   0.379600  -0.024638  -0.024438   0.587855
    25  H    0.000963   0.001336  -0.000030   0.000001  -0.000001  -0.000009
    26  H    0.001077  -0.014496  -0.001122   0.000003   0.000308  -0.000057
              25         26
     1  C    0.000344  -0.000002
     2  C    0.000004   0.000000
     3  C    0.000002   0.000000
     4  C    0.000016   0.000000
     5  N   -0.000192  -0.000006
     6  H    0.000002   0.000000
     7  H    0.000000   0.000000
     8  C   -0.001310   0.000001
     9  H   -0.000067   0.000000
    10  H    0.000224   0.000002
    11  H    0.000029   0.000000
    12  C    0.000000   0.000000
    13  H   -0.000001   0.000000
    14  H   -0.000001   0.000000
    15  H    0.000000   0.000000
    16  C   -0.017134   0.001913
    17  C    0.388893  -0.023742
    18  C   -0.020204   0.386914
    19  N    0.000963   0.001077
    20  N    0.001336  -0.014496
    21  C   -0.000030  -0.001122
    22  H    0.000001   0.000003
    23  H   -0.000001   0.000308
    24  H   -0.000009  -0.000057
    25  H    0.520783  -0.001794
    26  H   -0.001794   0.517100
 MBS Mulliken charges:
               1
     1  C    0.068121
     2  C   -0.157346
     3  C   -0.162144
     4  C    0.083241
     5  N   -0.260311
     6  H    0.113725
     7  H    0.114492
     8  C   -0.273342
     9  H    0.112227
    10  H    0.105959
    11  H    0.112544
    12  C   -0.276731
    13  H    0.113381
    14  H    0.122505
    15  H    0.110585
    16  C    0.231065
    17  C   -0.159715
    18  C   -0.027203
    19  N   -0.280549
    20  N   -0.154522
    21  C   -0.145594
    22  H    0.126203
    23  H    0.111675
    24  H    0.109685
    25  H    0.128145
    26  H    0.133902
 Sum of MBS Mulliken charges =   0.00000
 MBS Mulliken charges with hydrogens summed into heavy atoms:
               1
     1  C    0.068121
     2  C   -0.043620
     3  C   -0.047652
     4  C    0.083241
     5  N   -0.260311
     8  C    0.057389
    12  C    0.069740
    16  C    0.231065
    17  C   -0.031570
    18  C    0.106699
    19  N   -0.280549
    20  N   -0.154522
    21  C    0.201970
 Breneman (CHELPG) radii used.
 Generate Potential Derived Charges using the Breneman model, NDens= 1.
 Grid spacing= 0.300 Box extension= 2.800
 NStep X,Y,Z=   48     42     30   Total possible points=       60480
 Number of Points to Fit=   16476

 **********************************************************************

            Electrostatic Properties Using The SCF Density

 **********************************************************************

       Atomic Center    1 is at  -1.730601 -1.089326 -0.305375
       Atomic Center    2 is at  -2.959954 -0.693782  0.088712
       Atomic Center    3 is at  -2.915924  0.820377  0.247546
       Atomic Center    4 is at  -1.663516  1.217709 -0.063368
       Atomic Center    5 is at  -0.909490  0.091875 -0.666592
       Atomic Center    6 is at  -3.802889 -1.327056  0.271261
       Atomic Center    7 is at  -3.722152  1.449418  0.562512
       Atomic Center    8 is at  -1.249993 -2.551190 -0.365121
       Atomic Center    9 is at  -0.520349 -2.655338 -1.140797
       Atomic Center   10 is at  -0.813679 -2.821842  0.573642
       Atomic Center   11 is at  -2.082023 -3.192099 -0.569720
       Atomic Center   12 is at  -1.099328  2.630098  0.178393
       Atomic Center   13 is at  -0.653846  2.674689  1.150225
       Atomic Center   14 is at  -0.360241  2.850700 -0.563217
       Atomic Center   15 is at  -1.891897  3.346241  0.116147
       Atomic Center   16 is at   0.474019  0.000422 -0.178290
       Atomic Center   17 is at   0.928522 -0.767357  1.047583
       Atomic Center   18 is at   2.245049 -0.580843  1.123362
       Atomic Center   19 is at   1.512850  0.556003 -0.734132
       Atomic Center   20 is at   2.639294  0.450652  0.137864
       Atomic Center   21 is at   3.872431  0.086755 -0.574774
       Atomic Center   22 is at   4.106940  0.845320 -1.292050
       Atomic Center   23 is at   4.676218 -0.002335  0.125861
       Atomic Center   24 is at   3.731724 -0.847598 -1.076856
       Atomic Center   25 is at   0.319589 -1.349528  1.707263
       Atomic Center   26 is at   2.909801 -1.097465  1.783746
   16476 points will be used for fitting atomic charges
 Fitting point charges to electrostatic potential
 Charges from ESP fit, RMS=   0.00397 RRMS=   0.28111:
 ESP charges:
               1
     1  C    0.190629
     2  C   -0.199935
     3  C   -0.229315
     4  C    0.130167
     5  N   -0.430035
     6  H    0.124494
     7  H    0.135732
     8  C   -0.259571
     9  H    0.075223
    10  H    0.073978
    11  H    0.090203
    12  C   -0.055883
    13  H    0.003415
    14  H    0.047485
    15  H    0.040645
    16  C    0.778402
    17  C   -0.342464
    18  C   -0.023059
    19  N   -0.516413
    20  N   -0.080785
    21  C   -0.007505
    22  H    0.077666
    23  H    0.043720
    24  H    0.063623
    25  H    0.130179
    26  H    0.139404
 Sum of ESP charges =   0.00000
 ESP charges with hydrogens summed into heavy atoms:
               1
     1  C    0.190629
     2  C   -0.075441
     3  C   -0.093582
     4  C    0.130167
     5  N   -0.430035
     8  C   -0.020166
    12  C    0.035663
    16  C    0.778402
    17  C   -0.212285
    18  C    0.116345
    19  N   -0.516413
    20  N   -0.080785
    21  C    0.177503
 Charge=   0.00000 Dipole=     1.5023    -1.7866     1.8452 Tot=     2.9755
 -----------------------------------------------------------------

              Electrostatic Properties (Atomic Units)

 -----------------------------------------------------------------
    Center     Electric         -------- Electric Field --------
               Potential          X             Y             Z
 -----------------------------------------------------------------
    1 Atom    -14.742877
    2 Atom    -14.785963
    3 Atom    -14.788408
    4 Atom    -14.742763
    5 Atom    -18.348934
    6 Atom     -1.105732
    7 Atom     -1.107597
    8 Atom    -14.774472
    9 Atom     -1.116604
   10 Atom     -1.114851
   11 Atom     -1.112768
   12 Atom    -14.782378
   13 Atom     -1.122766
   14 Atom     -1.126499
   15 Atom     -1.119263
   16 Atom    -14.695303
   17 Atom    -14.766797
   18 Atom    -14.737080
   19 Atom    -18.385268
   20 Atom    -18.331487
   21 Atom    -14.743531
   22 Atom     -1.108279
   23 Atom     -1.099151
   24 Atom     -1.111593
   25 Atom     -1.084245
   26 Atom     -1.069526
 -----------------------------------------------------------------
 ******************************Gaussian NBO Version 3.1******************************
             N A T U R A L   A T O M I C   O R B I T A L   A N D
          N A T U R A L   B O N D   O R B I T A L   A N A L Y S I S
 ******************************Gaussian NBO Version 3.1******************************
       /RESON  / : Allow strongly delocalized NBO set

 Analyzing the SCF density

 Job title: tit                                                             

 Storage needed:    399906 in NPA ( 536867272 available)


 NATURAL POPULATIONS:  Natural atomic orbital occupancies 
                                                          
   NAO  Atom  No  lang   Type(AO)    Occupancy      Energy
 ----------------------------------------------------------
     1    C    1  S      Cor( 1S)     1.99895     -10.07421
     2    C    1  S      Val( 2S)     0.88086      -0.16047
     3    C    1  S      Ryd( 3S)     0.00148       0.83321
     4    C    1  S      Ryd( 4S)     0.00029       0.91727
     5    C    1  S      Ryd( 5S)     0.00001      23.04529
     6    C    1  px     Val( 2p)     0.99006      -0.05556
     7    C    1  px     Ryd( 4p)     0.00462       0.79595
     8    C    1  px     Ryd( 3p)     0.00040       0.72445
     9    C    1  px     Ryd( 5p)     0.00011       3.00703
    10    C    1  py     Val( 2p)     0.91412      -0.03369
    11    C    1  py     Ryd( 4p)     0.00399       1.03330
    12    C    1  py     Ryd( 3p)     0.00037       0.75465
    13    C    1  py     Ryd( 5p)     0.00010       3.03198
    14    C    1  pz     Val( 2p)     1.02880      -0.09997
    15    C    1  pz     Ryd( 3p)     0.00364       0.62339
    16    C    1  pz     Ryd( 4p)     0.00048       0.70790
    17    C    1  pz     Ryd( 5p)     0.00010       2.58582
    18    C    1  dxy    Ryd( 3d)     0.00133       2.32966
    19    C    1  dxz    Ryd( 3d)     0.00094       1.87507
    20    C    1  dyz    Ryd( 3d)     0.00092       1.77190
    21    C    1  dx2y2  Ryd( 3d)     0.00100       2.38376
    22    C    1  dz2    Ryd( 3d)     0.00072       1.93273

    23    C    2  S      Cor( 1S)     1.99892     -10.01951
    24    C    2  S      Val( 2S)     0.96746      -0.16235
    25    C    2  S      Ryd( 4S)     0.00123       0.77177
    26    C    2  S      Ryd( 3S)     0.00022       0.69166
    27    C    2  S      Ryd( 5S)     0.00001      23.20707
    28    C    2  px     Val( 2p)     1.15896      -0.06021
    29    C    2  px     Ryd( 4p)     0.00426       0.83157
    30    C    2  px     Ryd( 3p)     0.00038       0.38281
    31    C    2  px     Ryd( 5p)     0.00010       3.16184
    32    C    2  py     Val( 2p)     1.06164      -0.04173
    33    C    2  py     Ryd( 4p)     0.00461       0.84160
    34    C    2  py     Ryd( 3p)     0.00040       0.41021
    35    C    2  py     Ryd( 5p)     0.00011       3.10078
    36    C    2  pz     Val( 2p)     1.06155      -0.09648
    37    C    2  pz     Ryd( 4p)     0.00176       0.54683
    38    C    2  pz     Ryd( 3p)     0.00048       0.29154
    39    C    2  pz     Ryd( 5p)     0.00005       2.76977
    40    C    2  dxy    Ryd( 3d)     0.00076       2.36735
    41    C    2  dxz    Ryd( 3d)     0.00067       1.88151
    42    C    2  dyz    Ryd( 3d)     0.00047       1.69327
    43    C    2  dx2y2  Ryd( 3d)     0.00067       2.46200
    44    C    2  dz2    Ryd( 3d)     0.00055       1.96994

    45    C    3  S      Cor( 1S)     1.99893     -10.01727
    46    C    3  S      Val( 2S)     0.96722      -0.16037
    47    C    3  S      Ryd( 4S)     0.00125       0.74860
    48    C    3  S      Ryd( 3S)     0.00021       0.68427
    49    C    3  S      Ryd( 5S)     0.00000      23.23303
    50    C    3  px     Val( 2p)     1.15328      -0.05958
    51    C    3  px     Ryd( 4p)     0.00422       0.81348
    52    C    3  px     Ryd( 3p)     0.00037       0.37733
    53    C    3  px     Ryd( 5p)     0.00010       3.16306
    54    C    3  py     Val( 2p)     1.05877      -0.04031
    55    C    3  py     Ryd( 4p)     0.00442       0.83641
    56    C    3  py     Ryd( 3p)     0.00042       0.40546
    57    C    3  py     Ryd( 5p)     0.00011       3.10099
    58    C    3  pz     Val( 2p)     1.08117      -0.09454
    59    C    3  pz     Ryd( 4p)     0.00189       0.56819
    60    C    3  pz     Ryd( 3p)     0.00047       0.29587
    61    C    3  pz     Ryd( 5p)     0.00004       2.77715
    62    C    3  dxy    Ryd( 3d)     0.00071       2.34374
    63    C    3  dxz    Ryd( 3d)     0.00068       1.88416
    64    C    3  dyz    Ryd( 3d)     0.00050       1.72512
    65    C    3  dx2y2  Ryd( 3d)     0.00071       2.46789
    66    C    3  dz2    Ryd( 3d)     0.00047       1.96513

    67    C    4  S      Cor( 1S)     1.99892     -10.07472
    68    C    4  S      Val( 2S)     0.88353      -0.15927
    69    C    4  S      Ryd( 3S)     0.00122       0.81388
    70    C    4  S      Ryd( 4S)     0.00029       0.89569
    71    C    4  S      Ryd( 5S)     0.00001      23.09079
    72    C    4  px     Val( 2p)     0.99352      -0.05297
    73    C    4  px     Ryd( 3p)     0.00420       0.79334
    74    C    4  px     Ryd( 4p)     0.00041       0.87192
    75    C    4  px     Ryd( 5p)     0.00009       2.87960
    76    C    4  py     Val( 2p)     0.92624      -0.03757
    77    C    4  py     Ryd( 4p)     0.00411       1.03869
    78    C    4  py     Ryd( 3p)     0.00037       0.88954
    79    C    4  py     Ryd( 5p)     0.00009       2.85048
    80    C    4  pz     Val( 2p)     0.99018      -0.08912
    81    C    4  pz     Ryd( 3p)     0.00329       0.63326
    82    C    4  pz     Ryd( 4p)     0.00038       0.78437
    83    C    4  pz     Ryd( 5p)     0.00011       2.51805
    84    C    4  dxy    Ryd( 3d)     0.00127       2.31416
    85    C    4  dxz    Ryd( 3d)     0.00106       1.85888
    86    C    4  dyz    Ryd( 3d)     0.00091       1.85028
    87    C    4  dx2y2  Ryd( 3d)     0.00104       2.34306
    88    C    4  dz2    Ryd( 3d)     0.00082       1.91449

    89    N    5  S      Cor( 1S)     1.99929     -14.19178
    90    N    5  S      Val( 2S)     1.30878      -0.55298
    91    N    5  S      Ryd( 4S)     0.00078       1.72509
    92    N    5  S      Ryd( 3S)     0.00014       1.07480
    93    N    5  S      Ryd( 5S)     0.00000      35.27412
    94    N    5  px     Val( 2p)     1.25317      -0.22524
    95    N    5  px     Ryd( 4p)     0.00372       0.76176
    96    N    5  px     Ryd( 3p)     0.00152       0.71224
    97    N    5  px     Ryd( 5p)     0.00007       4.14663
    98    N    5  py     Val( 2p)     1.28207      -0.22703
    99    N    5  py     Ryd( 3p)     0.00270       0.66748
   100    N    5  py     Ryd( 4p)     0.00071       0.81076
   101    N    5  py     Ryd( 5p)     0.00002       4.17298
   102    N    5  pz     Val( 2p)     1.61967      -0.25012
   103    N    5  pz     Ryd( 3p)     0.00536       0.44051
   104    N    5  pz     Ryd( 4p)     0.00110       0.67558
   105    N    5  pz     Ryd( 5p)     0.00004       3.91903
   106    N    5  dxy    Ryd( 3d)     0.00068       2.64723
   107    N    5  dxz    Ryd( 3d)     0.00096       2.54187
   108    N    5  dyz    Ryd( 3d)     0.00130       2.41630
   109    N    5  dx2y2  Ryd( 3d)     0.00074       2.59662
   110    N    5  dz2    Ryd( 3d)     0.00119       2.38134

   111    H    6  S      Val( 1S)     0.78518       0.06207
   112    H    6  S      Ryd( 2S)     0.00049       0.74150
   113    H    6  S      Ryd( 3S)     0.00028       1.91383
   114    H    6  px     Ryd( 2p)     0.00034       2.43771
   115    H    6  py     Ryd( 2p)     0.00023       2.19836
   116    H    6  pz     Ryd( 2p)     0.00024       1.66989

   117    H    7  S      Val( 1S)     0.78408       0.06448
   118    H    7  S      Ryd( 2S)     0.00052       0.63362
   119    H    7  S      Ryd( 3S)     0.00030       2.01917
   120    H    7  px     Ryd( 2p)     0.00032       2.39283
   121    H    7  py     Ryd( 2p)     0.00023       2.19697
   122    H    7  pz     Ryd( 2p)     0.00026       1.71706

   123    C    8  S      Cor( 1S)     1.99925     -10.02310
   124    C    8  S      Val( 2S)     1.07691      -0.24062
   125    C    8  S      Ryd( 4S)     0.00059       0.88418
   126    C    8  S      Ryd( 3S)     0.00014       0.60126
   127    C    8  S      Ryd( 5S)     0.00000      23.42486
   128    C    8  px     Val( 2p)     1.21095      -0.09482
   129    C    8  px     Ryd( 3p)     0.00250       0.56395
   130    C    8  px     Ryd( 4p)     0.00010       0.62884
   131    C    8  px     Ryd( 5p)     0.00004       2.80786
   132    C    8  py     Val( 2p)     1.08686      -0.09412
   133    C    8  py     Ryd( 4p)     0.00100       0.54816
   134    C    8  py     Ryd( 3p)     0.00037       0.54748
   135    C    8  py     Ryd( 5p)     0.00007       2.69384
   136    C    8  pz     Val( 2p)     1.21183      -0.09496
   137    C    8  pz     Ryd( 3p)     0.00062       0.51486
   138    C    8  pz     Ryd( 4p)     0.00007       0.59127
   139    C    8  pz     Ryd( 5p)     0.00006       2.78990
   140    C    8  dxy    Ryd( 3d)     0.00068       2.18734
   141    C    8  dxz    Ryd( 3d)     0.00091       2.22033
   142    C    8  dyz    Ryd( 3d)     0.00047       1.85327
   143    C    8  dx2y2  Ryd( 3d)     0.00054       2.08119
   144    C    8  dz2    Ryd( 3d)     0.00067       2.12884

   145    H    9  S      Val( 1S)     0.78443       0.04685
   146    H    9  S      Ryd( 2S)     0.00105       0.73006
   147    H    9  S      Ryd( 3S)     0.00013       2.06191
   148    H    9  px     Ryd( 2p)     0.00018       2.24049
   149    H    9  py     Ryd( 2p)     0.00014       1.79128
   150    H    9  pz     Ryd( 2p)     0.00018       2.32936

   151    H   10  S      Val( 1S)     0.79498       0.03803
   152    H   10  S      Ryd( 2S)     0.00103       0.69509
   153    H   10  S      Ryd( 3S)     0.00010       2.14758
   154    H   10  px     Ryd( 2p)     0.00014       1.96800
   155    H   10  py     Ryd( 2p)     0.00020       1.83386
   156    H   10  pz     Ryd( 2p)     0.00026       2.51861

   157    H   11  S      Val( 1S)     0.78277       0.04468
   158    H   11  S      Ryd( 2S)     0.00075       0.73732
   159    H   11  S      Ryd( 3S)     0.00010       2.00894
   160    H   11  px     Ryd( 2p)     0.00022       2.34113
   161    H   11  py     Ryd( 2p)     0.00022       2.09333
   162    H   11  pz     Ryd( 2p)     0.00011       1.82280

   163    C   12  S      Cor( 1S)     1.99925     -10.01538
   164    C   12  S      Val( 2S)     1.07921      -0.23455
   165    C   12  S      Ryd( 4S)     0.00075       0.87203
   166    C   12  S      Ryd( 3S)     0.00011       0.57825
   167    C   12  S      Ryd( 5S)     0.00000      23.45067
[...]
 33,0.00171738,0.00033528,0.00261152,-0.00036159,0.00079187,-0.02854167
 ,0.02000780,0.02660866,0.00009810,0.00011910,-0.00060234,0.00009392,-0
 .00005519,-0.00021391,0.00028215,0.00003030,0.00055515,0.00020631,0.00
 040539,-0.00024538,0.00004452,0.00013174,0.00009301,0.00024962,-0.0000
 0309,-0.00015467,-0.00105100,-0.00098118,-0.00086582,-0.00013581,-0.00
 033766,0.00002457,-0.00054622,0.00027254,0.00075403,-0.00023199,0.0001
 8457,0.00054059,-0.12937228,0.05576089,0.08724180,0.02397812,0.0049407
 7,0.02622235,-0.04497268,0.02120735,-0.05135253,0.40666821,0.00166275,
 0.00178893,-0.00146301,0.00047148,-0.00015872,0.00055485,-0.00000570,-
 0.00044056,-0.00046492,-0.00288298,-0.00014130,-0.00043543,0.01324729,
 -0.01823098,-0.01050772,0.00010269,-0.00005164,0.00034228,-0.00002059,
 0.00009536,0.00001077,-0.00011945,0.00006025,0.00005926,0.00012744,-0.
 00011942,0.00006457,0.00004519,0.00018875,-0.00016269,-0.00009033,0.00
 001025,0.00002759,-0.00076936,-0.00021544,-0.00059476,0.00038059,0.000
 30354,-0.00018528,-0.00017429,-0.00001425,0.00076556,-0.00035467,0.000
 32155,0.00013288,0.04712565,-0.11844827,-0.09805270,-0.01002620,0.0154
 6367,-0.03541218,0.02881251,0.00422337,0.00752799,-0.16844052,0.218755
 95,-0.00254815,0.00271592,0.00094739,0.00065075,0.00076567,0.00021433,
 0.00031899,-0.00066849,-0.00003140,-0.00228512,-0.00087674,-0.00060547
 ,0.01085166,0.00008104,0.01091838,-0.00006155,0.00005241,-0.00024899,0
 .00004698,-0.00001520,-0.00006868,-0.00015232,0.00001011,-0.00044441,-
 0.00015604,-0.00032400,0.00008422,0.00003113,0.00020093,0.00012809,-0.
 00012259,-0.00002315,0.00016095,-0.00024302,-0.00016022,-0.00008785,0.
 00005969,0.00009737,-0.00010914,-0.00004609,0.00001038,0.00036171,-0.0
 0011744,0.00015485,-0.00006269,0.05584127,-0.08065641,-0.27324216,-0.0
 3115085,-0.00309018,-0.07246787,-0.02549736,-0.00485735,-0.06663048,0.
 00226772,0.09772845,0.52525273,-0.00141589,-0.00371302,-0.00167633,-0.
 00140875,0.00134089,0.00029559,-0.00147025,0.00057493,-0.00060599,0.00
 252177,0.00256323,0.00231605,-0.00035023,0.00704894,0.00212098,-0.0004
 5296,0.00001077,0.00007995,-0.00024613,0.00024835,-0.00023025,-0.00058
 528,0.00001373,0.00010987,0.00017569,-0.00006173,0.00009822,0.00011173
 ,0.00005962,-0.00013139,-0.00006328,0.00020237,0.00000015,-0.00005083,
 0.00062583,0.00061243,0.00007216,-0.00004886,0.00013386,-0.00018545,-0
 .00043546,-0.00046828,0.00002522,-0.00025870,-0.00024483,-0.07328834,0
 .05278135,0.03468300,-0.01448290,0.01581376,0.00873165,-0.10028616,0.0
 1833713,-0.03070048,-0.20628281,0.07037825,-0.02857605,0.55620823,-0.0
 0104997,0.00310204,0.00141498,0.00175371,0.00003437,0.00003893,0.00127
 154,-0.00124976,0.00047039,-0.00186508,-0.00213687,-0.00255522,0.00780
 510,0.00201117,-0.00363534,0.00014596,-0.00001447,-0.00007041,0.000135
 97,-0.00020165,0.00026759,0.00018224,0.00008579,-0.00021894,-0.0001319
 0,0.00000495,0.00004099,-0.00003100,-0.00000470,0.00004003,0.00000494,
 -0.00011071,0.00002491,-0.00011206,-0.00042601,-0.00060057,-0.00009970
 ,-0.00003557,-0.00006888,0.00014524,0.00046383,0.00048167,-0.00009452,
 0.00014206,0.00027506,0.04750406,-0.02288828,-0.02675758,0.03011577,-0
 .00572649,-0.01957876,0.01768070,-0.07503116,-0.04369678,0.05595211,-0
 .10045111,0.00107868,-0.23930629,0.30374637,-0.00008679,0.00055636,-0.
 00134104,0.00017240,0.00004996,0.00045464,-0.00009375,-0.00030467,-0.0
 0043568,-0.00088840,0.00043832,0.00115621,0.00133626,-0.00494482,-0.00
 208782,-0.00006688,-0.00002730,0.00020301,-0.00001368,0.00012821,-0.00
 013171,-0.00013558,-0.00053402,-0.00072447,0.00002258,-0.00000826,-0.0
 0003837,0.00022682,0.00035386,0.00050726,0.00019506,-0.00008263,0.0002
 8038,0.00006671,0.00027827,0.00006954,-0.00000078,-0.00008140,0.000002
 99,-0.00004645,0.00008620,-0.00008583,0.00001943,-0.00003653,-0.000012
 51,0.01630214,-0.01643594,-0.02283281,0.05575171,-0.04734047,-0.052189
 57,-0.02903510,-0.04497637,-0.31025259,-0.08376631,0.03438574,-0.13181
 537,-0.03010087,0.15473986,0.72047393,-0.00055538,0.00060219,0.0004679
 5,0.00031443,-0.00000874,-0.00003459,0.00031255,-0.00018290,0.00011834
 ,-0.00053946,-0.00043748,-0.00041954,0.00126650,0.00091980,0.00115288,
 0.00003287,-0.00002036,-0.00007362,0.00005173,-0.00003329,0.00002655,0
 .00002873,-0.00008601,-0.00009872,-0.00001147,0.00009055,-0.00004587,-
 0.00000043,0.00006596,0.00010350,0.00008188,-0.00007044,0.00002459,0.0
 0005976,0.00000793,-0.00002267,-0.00010131,-0.00007178,0.00003193,-0.0
 0005978,0.00000153,-0.00005774,0.00008516,-0.00000990,0.00001703,-0.00
 483909,0.00183553,-0.00832337,0.00566315,-0.00111531,-0.00249789,0.003
 65068,-0.00400383,0.00741738,-0.02942872,0.01761930,0.02290559,-0.1328
 7539,0.05211900,0.03995642,0.55475941,-0.00022461,-0.00054211,-0.00031
 484,-0.00013247,0.00026202,0.00001932,-0.00017534,-0.00000714,-0.00005
 089,0.00061257,0.00016828,0.00003851,0.00056831,0.00187047,-0.00025207
 ,-0.00007652,0.00000494,0.00003534,-0.00005305,0.00000682,0.00001804,-
 0.00002044,0.00008455,0.00003145,-0.00000608,-0.00007854,0.00004475,-0
 .00002199,-0.00009004,-0.00009670,-0.00006087,0.00005705,-0.00002273,-
 0.00007969,0.00000657,0.00010735,0.00004738,0.00005302,0.00000531,0.00
 002633,0.00004703,-0.00004582,-0.00006759,-0.00002058,-0.00002391,0.00
 204279,0.00110521,0.00440780,-0.00192021,0.00479752,-0.00094803,-0.000
 28763,-0.00805285,-0.00578942,0.01210381,-0.01520763,-0.00727317,0.053
 60981,-0.09524189,-0.04779346,0.02169627,0.55015256,0.00015848,-0.0014
 5945,-0.00031587,-0.00066364,0.00019740,-0.00006500,-0.00053044,0.0004
 3101,-0.00010300,0.00127596,0.00073849,0.00062357,-0.00255590,0.001353
 15,0.00097184,-0.00008947,0.00003229,0.00000103,-0.00007535,0.00005894
 ,-0.00005648,-0.00008040,0.00004779,0.00005239,0.00002882,-0.00007695,
 0.00003540,0.00004512,-0.00001743,-0.00004740,-0.00004130,0.00007969,0
 .00000544,-0.00008579,0.00001247,0.00010584,0.00006937,0.00002658,-0.0
 0001790,0.00005442,0.00001303,-0.00000473,-0.00009323,-0.00002528,-0.0
 0002495,-0.00316872,0.00097906,-0.00157605,-0.00270285,-0.00086700,-0.
 00494398,0.02211712,-0.01345813,-0.01194948,-0.00469292,0.00838380,0.0
 1720600,0.04604544,-0.05114778,-0.16295344,0.05502735,-0.03236771,0.56
 114114,0.00008450,-0.00004199,0.00000633,-0.00001571,-0.00001678,-0.00
 000113,-0.00003422,-0.00000898,-0.00001820,0.00000578,0.00007919,-0.00
 000443,-0.00018145,-0.00045323,0.00000172,0.00000253,-0.00000269,-0.00
 000140,-0.00000599,0.00000729,0.00000046,0.00000014,0.00001690,0.00002
 919,-0.00000452,-0.00000378,0.00000269,-0.00000855,-0.00001227,-0.0000
 1927,-0.00001048,0.00000396,-0.00000821,-0.00003013,0.00002013,0.00004
 688,-0.00000105,0.00000351,0.00001916,-0.00004077,0.00001332,-0.000040
 36,0.00001144,-0.00001063,-0.00001093,0.00028809,0.00066542,0.00156907
 ,-0.00123285,0.00084016,0.00079374,-0.00055534,0.00152387,-0.00194233,
 0.00272465,-0.00129371,-0.00044481,0.00915268,0.02283391,0.01618940,-0
 .11530002,-0.10594355,-0.05531517,0.11986058,-0.00009139,0.00021184,0.
 00008365,0.00010246,-0.00001579,-0.00000155,0.00009959,-0.00004272,0.0
 0003711,-0.00016233,-0.00016371,-0.00009512,0.00029921,0.00002633,0.00
 009709,0.00001315,0.00000016,-0.00001094,0.00001825,-0.00001152,0.0000
 0737,-0.00000143,-0.00003173,-0.00002352,0.00000158,0.00002667,-0.0000
 2194,0.00000612,0.00001830,0.00003750,0.00002347,-0.00001553,0.0000061
 8,0.00002357,-0.00002898,-0.00008325,-0.00001630,-0.00000747,0.0000008
 2,0.00001643,0.00002259,0.00003362,0.00000274,0.00001505,0.00001893,0.
 00009082,-0.00047957,-0.00210276,0.00163179,-0.00083703,0.00009388,-0.
 00017142,-0.00092427,0.00350531,-0.00241274,0.00189356,0.00073611,0.00
 002505,-0.01231651,-0.01463443,-0.10125146,-0.20764888,-0.07848687,0.1
 0803433,0.22416261,-0.00007170,0.00025281,0.00011573,0.00011457,-0.000
 01948,-0.00000940,0.00010576,-0.00005511,0.00002629,-0.00022247,-0.000
 16122,-0.00013801,0.00032677,-0.00011338,0.00012582,0.00001671,-0.0000
 0179,-0.00000820,0.00001504,-0.00001352,0.00001253,0.00001060,-0.00001
 486,-0.00002355,0.00000019,0.00001979,-0.00000793,-0.00000031,0.000013
 99,0.00002097,0.00001391,-0.00001637,0.00000572,0.00000859,-0.00001785
 ,0.00000565,0.00000215,-0.00000832,-0.00004839,0.00001437,-0.00001874,
 0.00004462,0.00000844,0.00001522,0.00000601,-0.00007522,0.00007471,-0.
 00146955,0.00139795,0.00012885,-0.00054159,0.00094326,-0.00242636,0.00
 180358,-0.00205958,0.00137067,0.00109867,-0.00607781,-0.02049002,-0.01
 717478,-0.04963432,-0.07718940,-0.08726127,0.05086915,0.09339465,0.098
 37715,-0.00000964,-0.00026628,0.00000766,-0.00012380,0.00003434,-0.000
 02525,-0.00008387,0.00009414,0.00000449,0.00023854,0.00009668,0.000084
 92,-0.00037754,0.00038400,0.00031278,-0.00001450,0.00000740,-0.0000116
 0,-0.00001053,0.00000716,-0.00001021,-0.00001366,0.00000313,-0.0000012
 1,0.00000357,-0.00000788,0.00000170,0.00000940,-0.00000086,0.00000254,
 -0.00000403,0.00001274,0.00000183,-0.00001070,-0.00000241,-0.00002430,
 0.00000628,-0.00000023,0.00000494,0.00001799,0.00000891,0.00001139,-0.
 00001905,-0.00000234,0.00000349,-0.00033986,0.00039942,-0.00078685,-0.
 00041060,0.00010634,0.00026620,0.00104928,-0.00072855,-0.00144001,-0.0
 0062492,0.00171791,0.00450336,-0.02084666,0.00713897,-0.01316162,-0.21
 209690,0.06741578,-0.10761530,-0.01038597,0.00483730,-0.00739361,0.233
 24318,0.00001359,0.00017886,-0.00000373,0.00007142,-0.00003039,0.00000
 276,0.00004899,-0.00004961,0.00001310,-0.00014444,-0.00007031,-0.00004
 393,0.00024698,-0.00020127,-0.00026022,0.00000974,-0.00000356,0.000009
 55,0.00000686,-0.00000574,0.00000547,0.00000493,-0.00000643,-0.0000063
 7,0.00000024,0.00000719,0.00000702,0.00000012,-0.00000256,-0.00000348,
 0.00000186,-0.00000850,-0.00000032,0.00001629,-0.00000660,-0.00002208,
 -0.00000407,0.00000223,0.00000282,0.00000389,-0.00000711,0.00000610,0.
 00000514,0.00000517,0.00000395,0.00089073,0.00017619,0.00041972,0.0000
 5564,-0.00029453,-0.00001318,-0.00026511,0.00073699,0.00085274,0.00098
 761,-0.00073185,-0.00330648,0.01539073,-0.00853919,0.01065977,0.064666
 10,-0.07467171,0.04137145,-0.01977789,0.01092182,-0.01274303,-0.078119
 03,0.07800207,0.00005806,0.00008032,-0.00001044,0.00003312,-0.00002957
 ,0.00000977,0.00002948,-0.00001584,0.00000849,-0.00005631,-0.00004965,
 -0.00003627,0.00015421,-0.00023728,-0.00031701,0.00000804,0.00000015,0
 .00000778,0.00000409,-0.00000522,0.00000486,0.00001083,-0.00000028,-0.
 00000644,-0.00000515,-0.00000396,-0.00000366,-0.00000352,-0.00000578,0
 .00000282,-0.00000426,-0.00000071,-0.00000130,0.00001635,-0.00001017,-
 0.00002908,0.00000203,0.00000528,0.00000284,0.00000947,0.00000897,0.00
 000970,-0.00000442,0.00000690,0.00000492,0.00143119,-0.00078707,0.0006
 7347,-0.00006458,0.00017987,0.00035424,0.00049382,-0.00024406,0.000595
 72,0.00158749,-0.00172808,-0.00308967,0.02224009,-0.00892267,0.0125838
 4,-0.11954702,0.04795951,-0.13078835,-0.00787085,0.00512985,-0.0061390
 7,0.11977874,-0.04612884,0.13666563,-0.00002956,-0.00010871,-0.0000832
 0,-0.00005515,0.00004835,0.00000068,-0.00004265,0.00003501,-0.00002173
 ,0.00012425,0.00001965,0.00003185,0.00012065,0.00044300,-0.00013182,-0
 .00001651,0.00000068,0.00001352,-0.00000957,0.00000097,0.00000482,-0.0
 0002601,0.00002117,0.00004867,0.00001702,-0.00000121,0.00001456,-0.000
 00336,-0.00001854,-0.00004217,-0.00001239,0.00001375,-0.00001458,-0.00
 002633,0.00000157,0.00002956,0.00001839,0.00001808,-0.00001892,0.00000
 406,-0.00002391,0.00001168,-0.00001235,0.00000095,-0.00001026,-0.00015
 066,0.00031602,0.00251518,-0.00204954,0.00095514,0.00025947,-0.0014599
 2,-0.00186104,-0.00300436,0.00317390,-0.00183408,-0.00062009,-0.009981
 59,-0.00563204,0.02309380,-0.07126381,-0.04898303,0.05182612,-0.004021
 57,-0.01128828,0.01158933,0.01027601,0.01601581,-0.01837228,0.07521799
 ,0.00004321,0.00000818,0.00000761,0.00000216,-0.00001552,0.00000423,-0
 .00000516,-0.00000050,-0.00000984,-0.00003298,0.00001617,0.00003069,-0
 .00021200,-0.00025762,0.00006910,0.00000585,0.00000266,-0.00000202,-0.
 00000055,0.00000162,-0.00000465,0.00002354,-0.00000772,-0.00002768,-0.
 00000351,-0.00000962,0.00000492,0.00000248,0.00000808,0.00001380,0.000
 00065,-0.00000213,0.00001036,0.00000040,0.00000387,0.00000214,0.000005
 41,-0.00000670,-0.00002224,0.00000332,-0.00001459,0.00001996,-0.000002
 65,0.00000355,0.00000165,-0.00008767,0.00009663,-0.00096371,0.00052710
 ,-0.00082533,-0.00070971,0.00183699,0.00035633,0.00018861,-0.00141400,
 0.00136355,0.00018626,0.00889994,0.01296167,-0.01970223,-0.05162231,-0
 .15752986,0.12447947,-0.00609141,-0.01498635,0.01819722,-0.00320162,-0
 .00562265,0.00493890,0.05136905,0.16474807,-0.00002557,0.00027564,0.00
 011829,0.00010327,-0.00006535,0.00000307,0.00010275,-0.00005763,0.0000
 2602,-0.00022782,-0.00014390,-0.00011559,0.00028443,-0.00019622,0.0000
 6453,0.00002424,-0.00000525,-0.00001241,0.00001678,-0.00001237,0.00000
 650,0.00004208,-0.00002111,-0.00005330,-0.00001074,0.00000768,0.000005
 13,-0.00000016,0.00002100,0.00002910,0.00001341,-0.00002298,0.00001506
 ,0.00001682,-0.00000064,-0.00002278,-0.00001958,-0.00002094,0.00000101
 ,-0.00000986,-0.00000588,0.00000432,0.00002021,0.00000477,0.00000829,-
 0.00020384,-0.00061925,-0.00175822,0.00105843,-0.00137675,0.00006205,0
 .00259395,0.00147301,0.00176252,-0.00247713,0.00146026,0.00121367,0.01
 011704,0.00555745,-0.02319919,0.05485538,0.11839945,-0.18124899,-0.004
 11634,-0.00769999,0.01105815,0.00477358,0.00963061,-0.01037447,-0.0671
 2228,-0.12663614,0.20234313,-0.00000466,0.00033479,0.00009860,0.000025
 84,-0.00000825,-0.00000085,0.00000244,-0.00009294,-0.00003310,-0.00033
 432,-0.00003405,-0.00000610,0.00052672,-0.00119463,0.00162985,0.000018
 20,-0.00000293,-0.00001836,-0.00000063,0.00000502,-0.00001753,0.000071
 85,0.00024533,0.00013409,-0.00001457,-0.00004326,0.00007326,0.00009217
 ,0.00004433,-0.00023471,-0.00006457,0.00000563,-0.00005765,-0.00000887
 ,0.00000737,-0.00006302,0.00001052,-0.00005054,-0.00001420,0.00000849,
 0.00002240,0.00004615,-0.00000555,-0.00000076,0.00001807,0.00869810,-0
 .00869715,-0.01330556,-0.06329559,0.03330041,0.05658491,0.00263383,0.0
 0253826,0.02182569,-0.00046700,0.00203082,-0.00608123,-0.00389026,0.00
 477890,0.00162195,0.00121492,0.00088189,0.00057494,-0.00038487,0.00024
 159,0.00031621,0.00004805,-0.00008325,-0.00001416,0.00004747,-0.000048
 16,0.00005912,0.05543568,0.00029297,0.00024071,0.00023756,0.00014677,-
 0.00007141,-0.00007790,-0.00006646,-0.00022300,0.00000654,-0.00037520,
 0.00017660,-0.00018581,-0.00098925,-0.00158839,0.00025640,0.00003759,-
 0.00000678,-0.00002024,-0.00002641,-0.00000140,0.00000612,0.00014169,0
 .00011636,0.00039231,-0.00004722,-0.00001507,-0.00001779,-0.00001074,-
 0.00039083,-0.00008834,-0.00011535,0.00004115,-0.00012498,-0.00000550,
 0.00010651,-0.00008027,-0.00000483,-0.00012576,0.00001299,-0.00000225,
 -0.00004798,0.00001118,0.00000760,-0.00002283,0.00001994,-0.00282760,0
 .00090005,0.00583296,0.03278397,-0.06400650,-0.09447485,-0.00268754,-0
 .00264822,-0.01146966,0.00300991,0.00457550,0.00064443,0.00400232,0.00
 157318,-0.00157272,0.00063442,0.00191164,-0.00081166,-0.00032336,0.000
 16248,0.00012786,-0.00006511,-0.00004745,0.00004762,0.00039952,-0.0003
 8777,-0.00029621,-0.03285549,0.06163528,-0.00039034,-0.00004063,-0.000
 17428,-0.00010166,0.00007535,0.00001463,0.00000287,0.00011587,-0.00002
 604,0.00000106,0.00001222,0.00004797,0.00021779,0.00041855,0.00063246,
 -0.00002354,-0.00000285,0.00000650,0.00000965,0.00001767,-0.00000444,0
 .00001020,-0.00023995,-0.00036008,-0.00001382,0.00000495,0.00000086,0.
 00012669,0.00029684,0.00037896,0.00008548,-0.00005150,0.00018706,-0.00
 000711,-0.00003476,-0.00005662,0.00000350,-0.00000019,-0.00001803,0.00
 001929,0.00005155,0.00005712,-0.00001627,0.00001259,0.00002285,0.01083
 680,-0.00743821,-0.00950658,0.05757829,-0.09470064,-0.31357359,-0.0022
 6006,0.00176361,0.00115818,-0.00204217,-0.00129599,-0.00378367,-0.0017
 1800,0.00020218,0.00062427,-0.00026087,-0.00027742,0.00040639,0.000085
 76,0.00002374,-0.00005439,0.00004169,0.00000592,0.00001020,-0.00012360
 ,0.00003416,0.00005177,-0.06265359,0.10085159,0.32429964,0.00010772,-0
 .00046050,-0.00009305,-0.00027046,-0.00001977,-0.00004074,-0.00017479,
 0.00020236,0.00000116,0.00049037,0.00028325,-0.00002191,-0.00093581,0.
 00054312,-0.00063834,-0.00002097,0.00000287,0.00001470,-0.00002144,0.0
 0000760,0.00002658,-0.00001805,-0.00000372,-0.00002991,0.00000762,-0.0
 0000325,0.00000874,0.00001229,-0.00000939,0.00000660,-0.00000408,0.000
 01453,0.00000473,-0.00000274,0.00002871,-0.00001405,0.00000103,-0.0000
 1825,0.00001908,-0.00001099,-0.00003447,-0.00002975,-0.00000135,-0.000
 01624,-0.00001138,-0.00124510,0.00315293,0.00080117,-0.00542102,0.0010
 5897,-0.01276647,-0.24541195,0.09207802,-0.12256869,0.00307959,0.00229
 002,0.00062558,-0.00010431,-0.00124557,0.00244153,-0.00045002,-0.00095
 187,0.00048734,0.00008309,-0.00007209,-0.00021798,0.00047995,-0.000042
 88,0.00008556,0.00016122,0.00000191,0.00013182,-0.00036338,-0.00105449
 ,0.00059197,0.25003358,-0.00010609,0.00027111,-0.00005548,0.00007958,-
 0.00002312,0.00004320,0.00012365,-0.00004560,-0.00004721,-0.00006620,-
 0.00027316,0.00012187,0.00077857,0.00055319,0.00085536,0.00000819,-0.0
 0000881,0.00000082,0.00002086,-0.00001783,-0.00002818,0.00001752,-0.00
 001769,-0.00000401,-0.00001338,-0.00002609,0.00002318,0.00001191,0.000
 00681,-0.00002403,-0.00001126,-0.00001476,0.00000489,0.00001874,-0.000
 01530,-0.00001253,-0.00000816,-0.00000925,0.00001463,-0.00003081,-0.00
 001887,-0.00002159,0.00001362,-0.00000007,-0.00000176,0.00393959,0.001
 81649,-0.00202993,0.00579224,0.00065515,0.00931999,0.09392079,-0.06807
 445,0.04418071,0.00185498,0.00516695,-0.00321121,-0.00810297,0.0002489
 2,-0.00320128,-0.00134478,-0.00143646,0.00051363,-0.00006171,0.0000486
 6,-0.00030630,0.00013009,0.00026895,-0.00018818,0.00009214,0.00009595,
 0.00035073,-0.00132533,-0.00185605,0.00019533,-0.09573181,0.06270533,-
 0.00005526,0.00014128,0.00003077,0.00010614,0.00002959,0.00000282,0.00
 009708,-0.00006733,-0.00000671,-0.00008522,-0.00018301,0.00006212,0.00
 054432,-0.00002368,0.00112388,0.00000700,0.00000006,-0.00001135,0.0000
 1326,-0.00000359,-0.00002384,-0.00000181,-0.00000266,0.00002149,-0.000
 00851,-0.00000766,-0.00002105,-0.00000684,0.00001455,0.00000720,0.0000
 0346,-0.00000402,0.00000102,-0.00001164,-0.00000553,-0.00001525,-0.000
 00398,0.00000875,0.00000376,0.00003516,0.00006222,0.00002140,-0.000014
 28,0.00000741,0.00001795,0.00244844,-0.00282675,-0.00183885,0.00819942
 ,-0.00230626,0.01192929,-0.11432817,0.03952490,-0.12623428,-0.00047538
 ,-0.00251190,-0.00489827,-0.02705403,0.01311026,-0.01108091,-0.0010886
 8,0.00137871,0.00080785,0.00017989,-0.00004544,0.00017524,0.00067065,-
 0.00045931,-0.00013849,0.00012604,-0.00011083,0.00001235,-0.00048279,0
 .00077290,-0.00034114,0.13118572,-0.04649265,0.13039303\\0.00000260,-0
 .00000065,0.00000465,-0.00000180,0.00000126,0.00000065,-0.00000124,-0.
 00000034,-0.00000154,0.00000078,-0.00000475,0.00000149,-0.00000091,-0.
 00000113,-0.00000030,-0.00000083,-0.00000102,0.00000399,0.00000003,-0.
 00000205,0.00000172,-0.00000189,0.00000087,0.00000450,-0.00000075,0.00
 000030,0.00000130,-0.00000076,-0.00000040,0.00000011,-0.00000146,-0.00
 000066,0.00000296,-0.00000103,-0.00000043,-0.00000069,0.00000107,-0.00
 000166,-0.00000297,0.00000139,0.00000024,-0.00000162,0.00000121,-0.000
 00101,-0.00000122,0.00000543,-0.00000351,-0.00000183,0.00000354,-0.000
 00035,0.00000447,-0.00000486,-0.00000134,0.00000302,-0.00000360,0.0000
 0257,-0.00000278,-0.00000160,0.00000482,-0.00000789,0.00000353,0.00000
 086,-0.00000085,-0.00000056,0.00000317,-0.00000195,0.00000228,0.000001
 34,-0.00000334,-0.00000093,0.00000297,-0.00000043,-0.00000089,-0.00000
 058,0.00000026,0.00000125,0.00000148,-0.00000171\\\@


 COMMON SENSE IS NOT SO COMMON.   -- VOLTAIRE
 Job cpu time:       0 days  1 hours 46 minutes 20.4 seconds.
 File lengths (MBytes):  RWF=    312 Int=      0 D2E=      0 Chk=     11 Scr=      1
 Normal termination of Gaussian 09 at Thu Jan 18 08:59:27 2024.
