 Entering Gaussian System, Link 0=g09
 Initial command:
 /cm/shared/apps/gaussian/g09revD.01/g09/l1.exe "//home/sweav003/CHB/CHActivation_Mkhalid/OtherCharges/G09-Chart9_2.com.o9823439.tmp/Gau-88358.inp" -scrdir="//home/sweav003/CHB/CHActivation_Mkhalid/OtherCharges/G09-Chart9_2.com.o9823439.tmp/"
 Entering Link 1 = /cm/shared/apps/gaussian/g09revD.01/g09/l1.exe PID=     88359.
  
 Copyright (c) 1988,1990,1992,1993,1995,1998,2003,2009,2013,
            Gaussian, Inc.  All Rights Reserved.
  
 This is part of the Gaussian(R) 09 program.  It is based on
 the Gaussian(R) 03 system (copyright 2003, Gaussian, Inc.),
 the Gaussian(R) 98 system (copyright 1998, Gaussian, Inc.),
 the Gaussian(R) 94 system (copyright 1995, Gaussian, Inc.),
 the Gaussian 92(TM) system (copyright 1992, Gaussian, Inc.),
 the Gaussian 90(TM) system (copyright 1990, Gaussian, Inc.),
 the Gaussian 88(TM) system (copyright 1988, Gaussian, Inc.),
 the Gaussian 86(TM) system (copyright 1986, Carnegie Mellon
 University), and the Gaussian 82(TM) system (copyright 1983,
 Carnegie Mellon University). Gaussian is a federally registered
 trademark of Gaussian, Inc.
  
 This software contains proprietary and confidential information,
 including trade secrets, belonging to Gaussian, Inc.
  
 This software is provided under written license and may be
 used, copied, transmitted, or stored only in accord with that
 written license.
  
 The following legend is applicable only to US Government
 contracts under FAR:
  
                    RESTRICTED RIGHTS LEGEND
  
 Use, reproduction and disclosure by the US Government is
 subject to restrictions as set forth in subparagraphs (a)
 and (c) of the Commercial Computer Software - Restricted
 Rights clause in FAR 52.227-19.
  
 Gaussian, Inc.
 340 Quinnipiac St., Bldg. 40, Wallingford CT 06492
  
  
 ---------------------------------------------------------------
 Warning -- This program may not be used in any manner that
 competes with the business of Gaussian, Inc. or will provide
 assistance to any competitor of Gaussian, Inc.  The licensee
 of this program is prohibited from giving any competitor of
 Gaussian, Inc. access to this program.  By using this program,
 the user acknowledges that Gaussian, Inc. is engaged in the
 business of creating and licensing software in the field of
 computational chemistry and represents and warrants to the
 licensee that it is not a competitor of Gaussian, Inc. and that
 it will not use this program in any manner prohibited above.
 ---------------------------------------------------------------
  

 Cite this work as:
 Gaussian 09, Revision D.01,
 M. J. Frisch, G. W. Trucks, H. B. Schlegel, G. E. Scuseria, 
 M. A. Robb, J. R. Cheeseman, G. Scalmani, V. Barone, B. Mennucci, 
 G. A. Petersson, H. Nakatsuji, M. Caricato, X. Li, H. P. Hratchian, 
 A. F. Izmaylov, J. Bloino, G. Zheng, J. L. Sonnenberg, M. Hada, 
 M. Ehara, K. Toyota, R. Fukuda, J. Hasegawa, M. Ishida, T. Nakajima, 
 Y. Honda, O. Kitao, H. Nakai, T. Vreven, J. A. Montgomery, Jr., 
 J. E. Peralta, F. Ogliaro, M. Bearpark, J. J. Heyd, E. Brothers, 
 K. N. Kudin, V. N. Staroverov, T. Keith, R. Kobayashi, J. Normand, 
 K. Raghavachari, A. Rendell, J. C. Burant, S. S. Iyengar, J. Tomasi, 
 M. Cossi, N. Rega, J. M. Millam, M. Klene, J. E. Knox, J. B. Cross, 
 V. Bakken, C. Adamo, J. Jaramillo, R. Gomperts, R. E. Stratmann, 
 O. Yazyev, A. J. Austin, R. Cammi, C. Pomelli, J. W. Ochterski, 
 R. L. Martin, K. Morokuma, V. G. Zakrzewski, G. A. Voth, 
 P. Salvador, J. J. Dannenberg, S. Dapprich, A. D. Daniels, 
 O. Farkas, J. B. Foresman, J. V. Ortiz, J. Cioslowski, 
 and D. J. Fox, Gaussian, Inc., Wallingford CT, 2013.
 
 ******************************************
 Gaussian 09:  ES64L-G09RevD.01 24-Apr-2013
                13-Jan-2023 
 ******************************************
 %nprocshared=20
 Will use up to   20 processors via shared memory.
 %mem=4GB
 %chk=Chart9_2.chk
 ----------------------------------------------------------------------
 # opt freq=noraman b3lyp/6-311+g(d,p) pop=(npa,hirshfeld,chelpg,mbs) g
 eom=connectivity
 ----------------------------------------------------------------------
 1/14=-1,18=20,19=15,26=3,38=1,57=2/1,3;
 2/9=110,12=2,17=6,18=5,40=1/2;
 3/5=4,6=6,7=111,11=2,16=1,25=1,30=1,71=1,74=-5/1,2,3;
 4//1;
 5/5=2,38=5/2;
 6/7=2,8=2,9=2,10=2,15=8,20=3,27=100,28=1,40=-1,79=1/1,2,7;
 7//1,2,3,16;
 1/14=-1,18=20,19=15,26=3/3(2);
 2/9=110/2;
 99//99;
 2/9=110/2;
 3/5=4,6=6,7=111,11=2,16=1,25=1,30=1,71=1,74=-5/1,2,3;
 4/5=5,16=3,69=1/1;
 5/5=2,38=5/2;
 7//1,2,3,16;
 1/14=-1,18=20,19=15,26=3/3(-5);
 2/9=110/2;
 6/7=2,8=2,9=2,10=2,15=8,19=2,20=3,27=100,28=1,40=-1,79=1/1,2,7;
 99/9=1/99;
 -------------------
 Title Card Required
 -------------------
 Symbolic Z-matrix:
 Charge =  0 Multiplicity = 1
 C                    -1.9852   -2.16648   0. 
 C                    -2.00413  -0.72083   0. 
 C                    -3.20361  -0.03778   0. 
 C                    -4.39648  -0.77996   0.00013 
 C                    -4.37829  -2.1698    0.00025 
 C                    -3.16642  -2.88055   0.00025 
 C                     0.21035  -1.41506  -0.00032 
 C                    -0.61627  -0.27565  -0.00014 
 H                    -3.23452   1.06069  -0.00015 
 H                    -5.35879  -0.24654   0.00015 
 H                    -5.32627  -2.72826   0.00049 
 H                    -3.16874  -3.97943   0.00045 
 H                    -0.29908   0.76461   0.00001 
 N                    -0.58601  -2.57521  -0.00023 
 H                    -1.1411   -3.407    -0.00016 
 C                     1.75022  -1.39476  -0.00058 
 O                     2.41831  -2.4243   -0.00073 
 C                     3.27317   0.18546   1.22956 
 C                     3.27136   0.18695  -1.23238 
 C                     4.66485   0.58216   0.75849 
 H                     3.31831  -0.76503   1.81887 
 H                     2.84746   0.97038   1.90344 
 C                     4.68098   0.51599  -0.76197 
 H                     2.8714    1.01023  -1.87614 
 H                     3.27409  -0.74395  -1.85322 
 H                     4.91249   1.61709   1.10525 
 H                     5.43668  -0.10284   1.19035 
 H                     5.02138   1.49066  -1.19312 
 H                     5.40036  -0.26724  -1.11047 
 N                     2.39605   0.00328  -0.00069 
 

 GradGradGradGradGradGradGradGradGradGradGradGradGradGradGradGradGradGrad
 Berny optimization.
 Initialization pass.
                           ----------------------------
                           !    Initial Parameters    !
                           ! (Angstroms and Degrees)  !
 --------------------------                            --------------------------
 ! Name  Definition              Value          Derivative Info.                !
 --------------------------------------------------------------------------------
 ! R1    R(1,2)                  1.4458         estimate D2E/DX2                !
 ! R2    R(1,6)                  1.3803         estimate D2E/DX2                !
 ! R3    R(1,14)                 1.4577         estimate D2E/DX2                !
 ! R4    R(2,3)                  1.3803         estimate D2E/DX2                !
 ! R5    R(2,8)                  1.4575         estimate D2E/DX2                !
 ! R6    R(3,4)                  1.4049         estimate D2E/DX2                !
 ! R7    R(3,9)                  1.0989         estimate D2E/DX2                !
 ! R8    R(4,5)                  1.39           estimate D2E/DX2                !
 ! R9    R(4,10)                 1.1003         estimate D2E/DX2                !
 ! R10   R(5,6)                  1.4049         estimate D2E/DX2                !
 ! R11   R(5,11)                 1.1002         estimate D2E/DX2                !
 ! R12   R(6,12)                 1.0989         estimate D2E/DX2                !
 ! R13   R(7,8)                  1.4077         estimate D2E/DX2                !
 ! R14   R(7,14)                 1.4072         estimate D2E/DX2                !
 ! R15   R(7,16)                 1.54           estimate D2E/DX2                !
 ! R16   R(8,13)                 1.0875         estimate D2E/DX2                !
 ! R17   R(14,15)                1.0            estimate D2E/DX2                !
 ! R18   R(16,17)                1.2273         estimate D2E/DX2                !
 ! R19   R(16,30)                1.54           estimate D2E/DX2                !
 ! R20   R(18,20)                1.5219         estimate D2E/DX2                !
 ! R21   R(18,21)                1.1193         estimate D2E/DX2                !
 ! R22   R(18,22)                1.1187         estimate D2E/DX2                !
 ! R23   R(18,30)                1.5219         estimate D2E/DX2                !
 ! R24   R(19,23)                1.522          estimate D2E/DX2                !
 ! R25   R(19,24)                1.119          estimate D2E/DX2                !
 ! R26   R(19,25)                1.1189         estimate D2E/DX2                !
 ! R27   R(19,30)                1.5222         estimate D2E/DX2                !
 ! R28   R(20,23)                1.522          estimate D2E/DX2                !
 ! R29   R(20,26)                1.1192         estimate D2E/DX2                !
 ! R30   R(20,27)                1.1187         estimate D2E/DX2                !
 ! R31   R(23,28)                1.1188         estimate D2E/DX2                !
 ! R32   R(23,29)                1.1191         estimate D2E/DX2                !
 ! A1    A(2,1,6)              120.4036         estimate D2E/DX2                !
 ! A2    A(2,1,14)             107.0339         estimate D2E/DX2                !
 ! A3    A(6,1,14)             132.5625         estimate D2E/DX2                !
 ! A4    A(1,2,3)              120.4093         estimate D2E/DX2                !
 ! A5    A(1,2,8)              107.0347         estimate D2E/DX2                !
 ! A6    A(3,2,8)              132.5559         estimate D2E/DX2                !
 ! A7    A(2,3,4)              118.452          estimate D2E/DX2                !
 ! A8    A(2,3,9)              121.2714         estimate D2E/DX2                !
 ! A9    A(4,3,9)              120.2766         estimate D2E/DX2                !
 ! A10   A(3,4,5)              121.1386         estimate D2E/DX2                !
 ! A11   A(3,4,10)             119.1113         estimate D2E/DX2                !
 ! A12   A(5,4,10)             119.7501         estimate D2E/DX2                !
 ! A13   A(4,5,6)              121.1411         estimate D2E/DX2                !
 ! A14   A(4,5,11)             119.7526         estimate D2E/DX2                !
 ! A15   A(6,5,11)             119.1063         estimate D2E/DX2                !
 ! A16   A(1,6,5)              118.4553         estimate D2E/DX2                !
 ! A17   A(1,6,12)             121.2745         estimate D2E/DX2                !
 ! A18   A(5,6,12)             120.2702         estimate D2E/DX2                !
 ! A19   A(8,7,14)             109.5728         estimate D2E/DX2                !
 ! A20   A(8,7,16)             125.205          estimate D2E/DX2                !
 ! A21   A(14,7,16)            125.2222         estimate D2E/DX2                !
 ! A22   A(2,8,7)              108.1756         estimate D2E/DX2                !
 ! A23   A(2,8,13)             124.7422         estimate D2E/DX2                !
 ! A24   A(7,8,13)             127.0822         estimate D2E/DX2                !
 ! A25   A(1,14,7)             108.183          estimate D2E/DX2                !
 ! A26   A(1,14,15)             72.5671         estimate D2E/DX2                !
 ! A27   A(7,16,17)            122.2249         estimate D2E/DX2                !
 ! A28   A(7,16,30)            115.5502         estimate D2E/DX2                !
 ! A29   A(17,16,30)           122.2249         estimate D2E/DX2                !
 ! A30   A(20,18,21)           110.332          estimate D2E/DX2                !
 ! A31   A(20,18,22)           110.5822         estimate D2E/DX2                !
 ! A32   A(20,18,30)           107.9403         estimate D2E/DX2                !
 ! A33   A(21,18,22)           107.0991         estimate D2E/DX2                !
 ! A34   A(21,18,30)           110.3173         estimate D2E/DX2                !
 ! A35   A(22,18,30)           110.5873         estimate D2E/DX2                !
 ! A36   A(23,19,24)           110.474          estimate D2E/DX2                !
 ! A37   A(23,19,25)           110.431          estimate D2E/DX2                !
 ! A38   A(23,19,30)           107.9735         estimate D2E/DX2                !
 ! A39   A(24,19,25)           107.0824         estimate D2E/DX2                !
 ! A40   A(24,19,30)           110.411          estimate D2E/DX2                !
 ! A41   A(25,19,30)           110.4863         estimate D2E/DX2                !
 ! A42   A(18,20,23)           107.9138         estimate D2E/DX2                !
 ! A43   A(18,20,26)           110.3329         estimate D2E/DX2                !
 ! A44   A(18,20,27)           110.5985         estimate D2E/DX2                !
 ! A45   A(23,20,26)           110.3269         estimate D2E/DX2                !
 ! A46   A(23,20,27)           110.5928         estimate D2E/DX2                !
 ! A47   A(26,20,27)           107.094          estimate D2E/DX2                !
 ! A48   A(19,23,20)           107.9592         estimate D2E/DX2                !
 ! A49   A(19,23,28)           110.5486         estimate D2E/DX2                !
 ! A50   A(19,23,29)           110.3522         estimate D2E/DX2                !
 ! A51   A(20,23,28)           110.5072         estimate D2E/DX2                !
 ! A52   A(20,23,29)           110.3864         estimate D2E/DX2                !
 ! A53   A(28,23,29)           107.1046         estimate D2E/DX2                !
 ! A54   A(16,30,18)           110.5067         estimate D2E/DX2                !
 ! A55   A(16,30,19)           110.5339         estimate D2E/DX2                !
 ! A56   A(18,30,19)           107.9539         estimate D2E/DX2                !
 ! A57   L(7,14,15,1,-1)       180.7502         estimate D2E/DX2                !
 ! A58   L(7,14,15,1,-2)       180.0003         estimate D2E/DX2                !
 ! D1    D(6,1,2,3)             -0.0121         estimate D2E/DX2                !
 ! D2    D(6,1,2,8)            179.9938         estimate D2E/DX2                !
 ! D3    D(14,1,2,3)           179.9905         estimate D2E/DX2                !
 ! D4    D(14,1,2,8)            -0.0036         estimate D2E/DX2                !
 ! D5    D(2,1,6,5)              0.012          estimate D2E/DX2                !
 ! D6    D(2,1,6,12)          -179.9879         estimate D2E/DX2                !
 ! D7    D(14,1,6,5)          -179.9914         estimate D2E/DX2                !
 ! D8    D(14,1,6,12)            0.0086         estimate D2E/DX2                !
 ! D9    D(2,1,14,7)             0.0018         estimate D2E/DX2                !
 ! D10   D(2,1,14,15)         -179.9985         estimate D2E/DX2                !
 ! D11   D(6,1,14,7)          -179.9951         estimate D2E/DX2                !
 ! D12   D(6,1,14,15)            0.0047         estimate D2E/DX2                !
 ! D13   D(1,2,3,4)              0.006          estimate D2E/DX2                !
 ! D14   D(1,2,3,9)           -179.991          estimate D2E/DX2                !
 ! D15   D(8,2,3,4)            179.9984         estimate D2E/DX2                !
 ! D16   D(8,2,3,9)              0.0013         estimate D2E/DX2                !
 ! D17   D(1,2,8,7)              0.0041         estimate D2E/DX2                !
 ! D18   D(1,2,8,13)          -179.9881         estimate D2E/DX2                !
 ! D19   D(3,2,8,7)           -179.989          estimate D2E/DX2                !
 ! D20   D(3,2,8,13)             0.0188         estimate D2E/DX2                !
 ! D21   D(2,3,4,5)             -0.0004         estimate D2E/DX2                !
 ! D22   D(2,3,4,10)           179.9989         estimate D2E/DX2                !
 ! D23   D(9,3,4,5)            179.9967         estimate D2E/DX2                !
 ! D24   D(9,3,4,10)            -0.004          estimate D2E/DX2                !
 ! D25   D(3,4,5,6)              0.0006         estimate D2E/DX2                !
 ! D26   D(3,4,5,11)           179.9918         estimate D2E/DX2                !
 ! D27   D(10,4,5,6)          -179.9987         estimate D2E/DX2                !
 ! D28   D(10,4,5,11)           -0.0076         estimate D2E/DX2                !
 ! D29   D(4,5,6,1)             -0.0065         estimate D2E/DX2                !
 ! D30   D(4,5,6,12)           179.9934         estimate D2E/DX2                !
 ! D31   D(11,5,6,1)          -179.9977         estimate D2E/DX2                !
 ! D32   D(11,5,6,12)            0.0022         estimate D2E/DX2                !
 ! D33   D(14,7,8,2)            -0.003          estimate D2E/DX2                !
 ! D34   D(14,7,8,13)          179.9889         estimate D2E/DX2                !
 ! D35   D(16,7,8,2)           179.9969         estimate D2E/DX2                !
 ! D36   D(16,7,8,13)           -0.0112         estimate D2E/DX2                !
 ! D37   D(8,7,14,1)             0.0008         estimate D2E/DX2                !
 ! D38   D(16,7,14,1)         -179.9992         estimate D2E/DX2                !
 ! D39   D(8,7,16,17)          180.0            estimate D2E/DX2                !
 ! D40   D(8,7,16,30)           -0.0022         estimate D2E/DX2                !
 ! D41   D(14,7,16,17)          -0.0001         estimate D2E/DX2                !
 ! D42   D(14,7,16,30)         179.9977         estimate D2E/DX2                !
 ! D43   D(7,16,30,18)         120.3239         estimate D2E/DX2                !
 ! D44   D(7,16,30,19)        -120.2351         estimate D2E/DX2                !
 ! D45   D(17,16,30,18)        -59.6783         estimate D2E/DX2                !
 ! D46   D(17,16,30,19)         59.7626         estimate D2E/DX2                !
 ! D47   D(21,18,20,23)        115.3328         estimate D2E/DX2                !
 ! D48   D(21,18,20,26)       -124.0619         estimate D2E/DX2                !
 ! D49   D(21,18,20,27)         -5.7574         estimate D2E/DX2                !
 ! D50   D(22,18,20,23)       -126.3671         estimate D2E/DX2                !
 ! D51   D(22,18,20,26)         -5.7618         estimate D2E/DX2                !
 ! D52   D(22,18,20,27)        112.5428         estimate D2E/DX2                !
 ! D53   D(30,18,20,23)         -5.2768         estimate D2E/DX2                !
 ! D54   D(30,18,20,26)        115.3286         estimate D2E/DX2                !
 ! D55   D(30,18,20,27)       -126.3669         estimate D2E/DX2                !
 ! D56   D(20,18,30,16)        125.0901         estimate D2E/DX2                !
 ! D57   D(20,18,30,19)          4.1024         estimate D2E/DX2                !
 ! D58   D(21,18,30,16)          4.4713         estimate D2E/DX2                !
 ! D59   D(21,18,30,19)       -116.5164         estimate D2E/DX2                !
 ! D60   D(22,18,30,16)       -113.8228         estimate D2E/DX2                !
 ! D61   D(22,18,30,19)        125.1895         estimate D2E/DX2                !
 ! D62   D(24,19,23,20)        118.9291         estimate D2E/DX2                !
 ! D63   D(24,19,23,28)         -2.0545         estimate D2E/DX2                !
 ! D64   D(24,19,23,29)       -120.353          estimate D2E/DX2                !
 ! D65   D(25,19,23,20)       -122.7969         estimate D2E/DX2                !
 ! D66   D(25,19,23,28)        116.2194         estimate D2E/DX2                !
 ! D67   D(25,19,23,29)         -2.0791         estimate D2E/DX2                !
 ! D68   D(30,19,23,20)         -1.9007         estimate D2E/DX2                !
 ! D69   D(30,19,23,28)       -122.8844         estimate D2E/DX2                !
 ! D70   D(30,19,23,29)        118.8171         estimate D2E/DX2                !
 ! D71   D(23,19,30,16)       -122.3312         estimate D2E/DX2                !
 ! D72   D(23,19,30,18)         -1.3604         estimate D2E/DX2                !
 ! D73   D(24,19,30,16)        116.7997         estimate D2E/DX2                !
 ! D74   D(24,19,30,18)       -122.2296         estimate D2E/DX2                !
 ! D75   D(25,19,30,16)         -1.4694         estimate D2E/DX2                !
 ! D76   D(25,19,30,18)        119.5013         estimate D2E/DX2                !
 ! D77   D(18,20,23,19)          4.4355         estimate D2E/DX2                !
 ! D78   D(18,20,23,28)        125.4449         estimate D2E/DX2                !
 ! D79   D(18,20,23,29)       -116.2609         estimate D2E/DX2                !
 ! D80   D(26,20,23,19)       -116.1737         estimate D2E/DX2                !
 ! D81   D(26,20,23,28)          4.8358         estimate D2E/DX2                !
 ! D82   D(26,20,23,29)        123.1299         estimate D2E/DX2                !
 ! D83   D(27,20,23,19)        125.5291         estimate D2E/DX2                !
 ! D84   D(27,20,23,28)       -113.4615         estimate D2E/DX2                !
 ! D85   D(27,20,23,29)          4.8327         estimate D2E/DX2                !
 --------------------------------------------------------------------------------
 Trust Radius=3.00D-01 FncErr=1.00D-07 GrdErr=1.00D-06
 Number of steps in this run=    180 maximum allowed number of steps=    180.
 GradGradGradGradGradGradGradGradGradGradGradGradGradGradGradGradGradGrad

                          Input orientation:                          
 ---------------------------------------------------------------------
 Center     Atomic      Atomic             Coordinates (Angstroms)
 Number     Number       Type             X           Y           Z
 ---------------------------------------------------------------------
      1          6           0       -1.985201   -2.166483    0.000000
      2          6           0       -2.004125   -0.720828    0.000000
      3          6           0       -3.203609   -0.037783    0.000000
      4          6           0       -4.396484   -0.779955    0.000130
      5          6           0       -4.378289   -2.169799    0.000247
      6          6           0       -3.166417   -2.880547    0.000252
      7          6           0        0.210351   -1.415059   -0.000322
      8          6           0       -0.616275   -0.275647   -0.000143
      9          1           0       -3.234523    1.060694   -0.000147
     10          1           0       -5.358791   -0.246539    0.000150
     11          1           0       -5.326270   -2.728261    0.000485
     12          1           0       -3.168735   -3.979434    0.000454
     13          1           0       -0.299081    0.764606    0.000009
     14          7           0       -0.586012   -2.575208   -0.000230
     15          1           0       -1.141099   -3.407000   -0.000162
     16          6           0        1.750217   -1.394759   -0.000581
     17          8           0        2.418306   -2.424304   -0.000729
     18          6           0        3.273167    0.185455    1.229559
     19          6           0        3.271360    0.186949   -1.232376
     20          6           0        4.664849    0.582161    0.758487
     21          1           0        3.318307   -0.765028    1.818868
     22          1           0        2.847464    0.970378    1.903441
     23          6           0        4.680983    0.515986   -0.761965
     24          1           0        2.871396    1.010228   -1.876141
     25          1           0        3.274089   -0.743950   -1.853219
     26          1           0        4.912490    1.617085    1.105249
     27          1           0        5.436681   -0.102836    1.190354
     28          1           0        5.021377    1.490663   -1.193118
     29          1           0        5.400357   -0.267235   -1.110475
     30          7           0        2.396047    0.003277   -0.000695
 ---------------------------------------------------------------------
                    Distance matrix (angstroms):
                    1          2          3          4          5
     1  C    0.000000
     2  C    1.445779   0.000000
     3  C    2.452730   1.380331   0.000000
     4  C    2.781501   2.393090   1.404910   0.000000
     5  C    2.393091   2.781397   2.434208   1.389963   0.000000
     6  C    1.380275   2.452613   2.843008   2.434246   1.404919
     7  C    2.320578   2.320746   3.681306   4.650407   4.650296
     8  C    2.334357   1.457503   2.598245   3.813701   4.211955
     9  H    3.460561   2.165110   1.098911   2.176728   3.426994
    10  H    3.881662   3.388028   2.165269   1.100258   2.158776
    11  H    3.387969   3.881550   3.427005   2.158795   1.100248
    12  H    2.165073   3.460466   3.941806   3.426956   2.176648
    13  H    3.381462   2.261347   3.013322   4.378857   5.025005
    14  N    1.457664   2.334474   3.645592   4.212200   3.813886
    15  H    1.500462   2.821406   3.950389   4.183168   3.465554
    16  C    3.814302   3.814350   5.136319   6.177371   6.177319
    17  O    4.411048   4.739170   6.107488   7.010368   6.801359
    18  C    5.890150   5.493904   6.596232   7.827328   8.099581
    19  C    5.889721   5.493046   6.595034   7.826225   8.098812
    20  C    7.235572   6.837273   7.929203   9.194467   9.482962
    21  H    5.779235   5.624813   6.809740   7.926288   8.032333
    22  H    6.067754   5.479159   6.423002   7.691622   8.105206
    23  C    7.225942   6.841124   7.940657   9.201123   9.479706
    24  H    6.099011   5.503378   6.443905   7.716685   8.135806
    25  H    5.754837   5.594149   6.774486   7.891381   8.001704
    26  H    7.944502   7.384239   8.356508   9.675955  10.093568
    27  H    7.794864   7.560718   8.722143   9.928055  10.100611
    28  H    7.993146   7.461361   8.450448   9.760926  10.157600
    29  H    7.706280   7.501017   8.678366   9.872914  10.023741
    30  N    4.889089   4.459355   5.599807   6.837539   7.114344
                    6          7          8          9         10
     6  C    0.000000
     7  C    3.681062   0.000000
     8  C    3.645371   1.407683   0.000000
     9  H    3.941830   4.242229   2.939563   0.000000
    10  H    3.427025   5.690411   4.742606   2.494268   0.000000
    11  H    2.165214   5.690225   5.310308   4.328000   2.481935
    12  H    1.098889   4.241962   4.498121   5.040557   4.327915
    13  H    4.637754   2.238406   1.087538   2.950337   5.159756
    14  N    2.598408   1.407174   2.299760   4.498266   5.310567
    15  H    2.092621   2.407123   3.175029   4.933833   5.270430
    16  C    5.136230   1.540000   2.617765   5.556697   7.201139
    17  O    5.603329   2.427683   3.718253   6.640760   8.076255
    18  C    7.237390   3.668119   4.105185   6.680438   8.729763
    19  C    7.236979   3.667992   4.104399   6.678947   8.728490
    20  C    8.596162   4.940368   5.403852   7.950132  10.086386
    21  H    7.059351   3.659424   4.362251   7.041425   8.880800
    22  H    7.390434   4.033484   4.144116   6.373568   8.511523
    23  C    8.584818   4.929056   5.409990   7.970716  10.097491
    24  H    7.423892   4.059788   4.163735   6.387812   8.534396
    25  H    7.034239   3.642816   4.334527   7.003759   8.843586
    26  H    9.312275   5.703184   5.947400   8.240467  10.497312
    27  H    9.118406   5.518530   6.171339   8.829546  10.861835
    28  H    9.357969   5.745604   6.027119   8.352721  10.591962
    29  H    9.025117   5.430111   6.118232   8.806667  10.816338
    30  N    6.265577   2.605561   3.025208   5.729001   7.758861
                   11         12         13         14         15
    11  H    0.000000
    12  H    2.494070   0.000000
    13  H    6.121499   5.544442   0.000000
    14  N    4.742728   2.939781   3.352117   0.000000
    15  H    4.239851   2.106891   4.255736   1.000000   0.000000
    16  C    7.201034   5.556675   2.976991   2.617523   3.522616
    17  O    7.750538   5.799437   4.189671   3.008106   3.692568
    18  C    9.162460   7.768855   3.822063   4.901725   5.822688
    19  C    9.161748   7.768747   3.821061   4.901735   5.822766
    20  C   10.552531   9.096582   5.024856   6.173829   7.085054
    21  H    9.049282   7.464634   4.328224   4.672213   5.493195
    22  H    9.171210   8.019766   3.683224   5.289981   6.220432
    23  C   10.547586   9.077894   5.044150   6.154425   7.061643
    24  H    9.203246   8.056148   3.692180   5.322411   6.255503
    25  H    9.018862   7.444088   4.298574   4.656979   5.479009
    26  H   11.177421   9.891805   5.395253   7.002209   7.944137
    27  H   11.142251   9.512994   5.921853   6.618379   7.456676
    28  H   11.238229   9.920913   5.500726   7.028307   7.961555
    29  H   11.061256   9.404463   5.897581   6.511220   7.340406
    30  N    8.191183   6.843157   2.800596   3.942240   4.913389
                   16         17         18         19         20
    16  C    0.000000
    17  O    1.227317   0.000000
    18  C    2.515889   3.009192   0.000000
    19  C    2.516544   3.010530   2.461936   0.000000
    20  C    3.602704   3.829124   1.521861   2.462020   0.000000
    21  H    2.483115   2.621856   1.119259   3.196647   2.180022
    22  H    3.228486   3.915853   1.118680   3.259877   2.182778
    23  C    3.580509   3.787412   2.461171   1.522035   1.521977
    24  H    3.249420   3.939349   3.238370   1.119014   3.215740
    25  H    2.485560   2.643421   3.219831   1.118940   3.242498
    26  H    4.504890   4.876163   2.179999   3.194228   1.119213
    27  H    4.083798   3.989797   2.182989   3.262241   1.118685
    28  H    4.521979   4.850230   3.260240   2.182607   2.182029
    29  H    3.978278   3.844100   3.194623   2.180315   2.180703
    30  N    1.540000   2.427683   1.521858   1.522152   2.461488
                   21         22         23         24         25
    21  H    0.000000
    22  H    1.800134   0.000000
    23  C    3.187253   3.266903   0.000000
    24  H    4.123633   3.779868   2.181804   0.000000
    25  H    3.672414   4.151316   2.181198   1.799952   0.000000
    26  H    2.953834   2.306442   2.180024   3.663746   4.124486
    27  H    2.306737   2.892115   2.183019   4.150059   3.788294
    28  H    4.130453   3.819067   1.118819   2.306460   2.912429
    29  H    3.628191   4.139159   1.119104   2.934928   2.302161
    30  N    2.179831   2.182841   2.462384   2.181102   2.182006
                   26         27         28         29         30
    26  H    0.000000
    27  H    1.800041   0.000000
    28  H    2.304416   2.897008   0.000000
    29  H    2.949256   2.306981   1.800183   0.000000
    30  N    3.187472   3.267310   3.244464   3.214135   0.000000
 Stoichiometry    C13H14N2O
 Framework group  C1[X(C13H14N2O)]
 Deg. of freedom    84
 Full point group                 C1      NOp   1
 Largest Abelian subgroup         C1      NOp   1
 Largest concise Abelian subgroup C1      NOp   1
                         Standard orientation:                         
 ---------------------------------------------------------------------
 Center     Atomic      Atomic             Coordinates (Angstroms)
 Number     Number       Type             X           Y           Z
 ---------------------------------------------------------------------
      1          6           0       -2.516171    0.694539   -0.003451
      2          6           0       -2.207477   -0.717884    0.003401
      3          6           0       -3.221285   -1.654624    0.008206
      4          6           0       -4.551161   -1.201635    0.006141
      5          6           0       -4.847937    0.156259   -0.000563
      6          6           0       -3.828330    1.122786   -0.005520
      7          6           0       -0.207534    0.459425   -0.002470
      8          6           0       -0.754887   -0.837469    0.003820
      9          1           0       -3.002830   -2.731589    0.013581
     10          1           0       -5.367803   -1.938960    0.009907
     11          1           0       -5.897699    0.485718   -0.002191
     12          1           0       -4.079248    2.192630   -0.010908
     13          1           0       -0.210529   -1.778954    0.008163
     14          7           0       -1.245763    1.409266   -0.006992
     15          1           0       -1.974673    2.093868   -0.010258
     16          6           0        1.296984    0.788094   -0.004142
     17          8           0        1.714774    1.942098   -0.009735
     18          6           0        3.137745   -0.412525   -1.228809
     19          6           0        3.136848   -0.402331    1.233105
     20          6           0        4.583197   -0.481719   -0.757702
     21          1           0        2.966510    0.520621   -1.822659
     22          1           0        2.900555   -1.276708   -1.898416
     23          6           0        4.584263   -0.406164    0.762399
     24          1           0        2.933691   -1.291597    1.881277
     25          1           0        2.928991    0.508069    1.849541
     26          1           0        5.058528   -1.435449   -1.099899
     27          1           0        5.179913    0.358038   -1.193814
     28          1           0        5.136474   -1.276411    1.197701
     29          1           0        5.107822    0.521220    1.106258
     30          7           0        2.242415   -0.427523    0.001724
 ---------------------------------------------------------------------
 Rotational constants (GHZ):      1.7028274      0.2322585      0.2165671
 Standard basis: 6-311+G(d,p) (5D, 7F)
 There are   452 symmetry adapted cartesian basis functions of A   symmetry.
 There are   436 symmetry adapted basis functions of A   symmetry.
   436 basis functions,   688 primitive gaussians,   452 cartesian basis functions
    57 alpha electrons       57 beta electrons
       nuclear repulsion energy      1010.9037208290 Hartrees.
 NAtoms=   30 NActive=   30 NUniq=   30 SFac= 1.00D+00 NAtFMM=   60 NAOKFM=F Big=F
 Integral buffers will be    131072 words long.
 Raffenetti 2 integral format.
 Two-electron integral symmetry is turned on.
 One-electron integrals computed using PRISM.
 NBasis=   436 RedAO= T EigKep=  1.21D-06  NBF=   436
 NBsUse=   434 1.00D-06 EigRej=  9.83D-07 NBFU=   434
 ExpMin= 4.38D-02 ExpMax= 8.59D+03 ExpMxC= 1.30D+03 IAcc=2 IRadAn=         4 AccDes= 0.00D+00
 Harris functional with IExCor=  402 and IRadAn=       4 diagonalized for initial guess.
 HarFok:  IExCor=  402 AccDes= 0.00D+00 IRadAn=         4 IDoV= 1 UseB2=F ITyADJ=14
 ICtDFT=  3500011 ScaDFX=  1.000000  1.000000  1.000000  1.000000
 FoFCou: FMM=F IPFlag=           0 FMFlag=      100000 FMFlg1=           0
         NFxFlg=           0 DoJE=T BraDBF=F KetDBF=T FulRan=T
         wScrn=  0.000000 ICntrl=     500 IOpCl=  0 I1Cent=   200000004 NGrid=           0
         NMat0=    1 NMatS0=      1 NMatT0=    0 NMatD0=    1 NMtDS0=    0 NMtDT0=    0
 Petite list used in FoFCou.
 Requested convergence on RMS density matrix=1.00D-08 within 128 cycles.
 Requested convergence on MAX density matrix=1.00D-06.
 Requested convergence on             energy=1.00D-06.
 No special actions if energy rises.
 SCF Done:  E(RB3LYP) =  -688.606598323     A.U. after   15 cycles
            NFock= 15  Conv=0.85D-08     -V/T= 2.0055

 **********************************************************************

            Population analysis using the SCF density.

 **********************************************************************

 Orbital symmetries:
       Occupied  (A) (A) (A) (A) (A) (A) (A) (A) (A) (A) (A) (A)
                 (A) (A) (A) (A) (A) (A) (A) (A) (A) (A) (A) (A)
                 (A) (A) (A) (A) (A) (A) (A) (A) (A) (A) (A) (A)
                 (A) (A) (A) (A) (A) (A) (A) (A) (A) (A) (A) (A)
                 (A) (A) (A) (A) (A) (A) (A) (A) (A)
       Virtual   (A) (A) (A) (A) (A) (A) (A) (A) (A) (A) (A) (A)
                 (A) (A) (A) (A) (A) (A) (A) (A) (A) (A) (A) (A)
                 (A) (A) (A) (A) (A) (A) (A) (A) (A) (A) (A) (A)
                 (A) (A) (A) (A) (A) (A) (A) (A) (A) (A) (A) (A)
                 (A) (A) (A) (A) (A) (A) (A) (A) (A) (A) (A) (A)
                 (A) (A) (A) (A) (A) (A) (A) (A) (A) (A) (A) (A)
                 (A) (A) (A) (A) (A) (A) (A) (A) (A) (A) (A) (A)
                 (A) (A) (A) (A) (A) (A) (A) (A) (A) (A) (A) (A)
                 (A) (A) (A) (A) (A) (A) (A) (A) (A) (A) (A) (A)
                 (A) (A) (A) (A) (A) (A) (A) (A) (A) (A) (A) (A)
                 (A) (A) (A) (A) (A) (A) (A) (A) (A) (A) (A) (A)
                 (A) (A) (A) (A) (A) (A) (A) (A) (A) (A) (A) (A)
                 (A) (A) (A) (A) (A) (A) (A) (A) (A) (A) (A) (A)
                 (A) (A) (A) (A) (A) (A) (A) (A) (A) (A) (A) (A)
                 (A) (A) (A) (A) (A) (A) (A) (A) (A) (A) (A) (A)
                 (A) (A) (A) (A) (A) (A) (A) (A) (A) (A) (A) (A)
                 (A) (A) (A) (A) (A) (A) (A) (A) (A) (A) (A) (A)
                 (A) (A) (A) (A) (A) (A) (A) (A) (A) (A) (A) (A)
                 (A) (A) (A) (A) (A) (A) (A) (A) (A) (A) (A) (A)
                 (A) (A) (A) (A) (A) (A) (A) (A) (A) (A) (A) (A)
                 (A) (A) (A) (A) (A) (A) (A) (A) (A) (A) (A) (A)
                 (A) (A) (A) (A) (A) (A) (A) (A) (A) (A) (A) (A)
                 (A) (A) (A) (A) (A) (A) (A) (A) (A) (A) (A) (A)
                 (A) (A) (A) (A) (A) (A) (A) (A) (A) (A) (A) (A)
                 (A) (A) (A) (A) (A) (A) (A) (A) (A) (A) (A) (A)
                 (A) (A) (A) (A) (A) (A) (A) (A) (A) (A) (A) (A)
                 (A) (A) (A) (A) (A) (A) (A) (A) (A) (A) (A) (A)
                 (A) (A) (A) (A) (A) (A) (A) (A) (A) (A) (A) (A)
                 (A) (A) (A) (A) (A) (A) (A) (A) (A) (A) (A) (A)
                 (A) (A) (A) (A) (A) (A) (A) (A) (A) (A) (A) (A)
                 (A) (A) (A) (A) (A) (A) (A) (A) (A) (A) (A) (A)
                 (A) (A) (A) (A) (A)
 The electronic state is 1-A.
 Alpha  occ. eigenvalues --  -19.12721 -14.36255 -14.31968 -10.30367 -10.25293
 Alpha  occ. eigenvalues --  -10.23076 -10.20207 -10.20186 -10.19972 -10.19362
 Alpha  occ. eigenvalues --  -10.19199 -10.19145 -10.18975 -10.18495 -10.17472
 Alpha  occ. eigenvalues --  -10.17428  -1.05499  -0.98955  -0.90478  -0.86060
 Alpha  occ. eigenvalues --   -0.81555  -0.77599  -0.75086  -0.74554  -0.72858
 Alpha  occ. eigenvalues --   -0.65901  -0.63068  -0.61121  -0.59565  -0.57541
 Alpha  occ. eigenvalues --   -0.56546  -0.52293  -0.50354  -0.49058  -0.47881
 Alpha  occ. eigenvalues --   -0.46721  -0.46134  -0.44283  -0.44230  -0.42738
 Alpha  occ. eigenvalues --   -0.42517  -0.41796  -0.40886  -0.40206  -0.37615
 Alpha  occ. eigenvalues --   -0.37466  -0.36545  -0.35746  -0.35098  -0.34720
 Alpha  occ. eigenvalues --   -0.34647  -0.31387  -0.30150  -0.28694  -0.24964
 Alpha  occ. eigenvalues --   -0.22965  -0.22703
 Alpha virt. eigenvalues --   -0.07679  -0.01718  -0.00529  -0.00110   0.00134
 Alpha virt. eigenvalues --    0.01217   0.01721   0.02270   0.02643   0.02965
 Alpha virt. eigenvalues --    0.03933   0.04030   0.04324   0.05059   0.05761
 Alpha virt. eigenvalues --    0.05845   0.05985   0.06776   0.06828   0.07526
 Alpha virt. eigenvalues --    0.07885   0.08831   0.09298   0.09389   0.10055
 Alpha virt. eigenvalues --    0.10401   0.10729   0.11055   0.11441   0.11933
 Alpha virt. eigenvalues --    0.12053   0.12743   0.12862   0.13305   0.14225
 Alpha virt. eigenvalues --    0.14246   0.14376   0.15021   0.15371   0.15820
 Alpha virt. eigenvalues --    0.16318   0.17046   0.17085   0.17379   0.17466
 Alpha virt. eigenvalues --    0.17780   0.18877   0.19274   0.19318   0.19831
 Alpha virt. eigenvalues --    0.20088   0.20406   0.20591   0.20618   0.21022
 Alpha virt. eigenvalues --    0.21110   0.21493   0.22252   0.22714   0.23079
 Alpha virt. eigenvalues --    0.23569   0.23875   0.24283   0.24514   0.25232
 Alpha virt. eigenvalues --    0.26009   0.26360   0.26677   0.26733   0.26927
 Alpha virt. eigenvalues --    0.28080   0.28195   0.28748   0.29228   0.29437
 Alpha virt. eigenvalues --    0.29707   0.30443   0.30677   0.32137   0.32267
 Alpha virt. eigenvalues --    0.32786   0.32845   0.33474   0.34150   0.35065
 Alpha virt. eigenvalues --    0.35537   0.35637   0.36113   0.36525   0.38403
 Alpha virt. eigenvalues --    0.38537   0.40739   0.41773   0.42517   0.44866
 Alpha virt. eigenvalues --    0.45413   0.45962   0.47318   0.48392   0.48660
 Alpha virt. eigenvalues --    0.49210   0.51030   0.52009   0.52223   0.52710
 Alpha virt. eigenvalues --    0.52938   0.53861   0.54081   0.54356   0.54813
 Alpha virt. eigenvalues --    0.55255   0.56521   0.56722   0.58592   0.59061
 Alpha virt. eigenvalues --    0.60047   0.61215   0.62367   0.64109   0.64699
 Alpha virt. eigenvalues --    0.64838   0.65574   0.65875   0.66132   0.67104
 Alpha virt. eigenvalues --    0.67308   0.68082   0.68912   0.69241   0.69510
 Alpha virt. eigenvalues --    0.70093   0.70369   0.70529   0.71176   0.71559
 Alpha virt. eigenvalues --    0.73574   0.73729   0.74760   0.75329   0.76632
 Alpha virt. eigenvalues --    0.76890   0.79217   0.79910   0.80900   0.82017
 Alpha virt. eigenvalues --    0.83040   0.83360   0.83527   0.86642   0.87700
 Alpha virt. eigenvalues --    0.88530   0.88919   0.90238   0.92350   0.92382
 Alpha virt. eigenvalues --    0.92554   0.94303   0.94924   0.95593   0.96910
 Alpha virt. eigenvalues --    0.97614   0.98487   0.99961   1.00702   1.01570
 Alpha virt. eigenvalues --    1.04541   1.05945   1.07019   1.07052   1.08673
 Alpha virt. eigenvalues --    1.08959   1.10825   1.11650   1.12743   1.15101
 Alpha virt. eigenvalues --    1.18037   1.19388   1.21751   1.22372   1.23801
 Alpha virt. eigenvalues --    1.25098   1.26984   1.29358   1.29880   1.30813
 Alpha virt. eigenvalues --    1.31191   1.34311   1.35712   1.38123   1.42370
 Alpha virt. eigenvalues --    1.43872   1.44527   1.45231   1.46280   1.46381
 Alpha virt. eigenvalues --    1.47789   1.49343   1.50648   1.52641   1.54308
 Alpha virt. eigenvalues --    1.55098   1.55176   1.55913   1.56309   1.56797
 Alpha virt. eigenvalues --    1.57103   1.57407   1.59782   1.61217   1.62424
 Alpha virt. eigenvalues --    1.63404   1.63725   1.64153   1.65102   1.65375
 Alpha virt. eigenvalues --    1.66698   1.68634   1.70602   1.71742   1.72739
 Alpha virt. eigenvalues --    1.73230   1.73446   1.74367   1.76541   1.79281
 Alpha virt. eigenvalues --    1.79917   1.80403   1.81707   1.82186   1.83215
 Alpha virt. eigenvalues --    1.84664   1.84853   1.87425   1.89433   1.90100
 Alpha virt. eigenvalues --    1.90597   1.92318   1.93044   1.93779   1.94023
 Alpha virt. eigenvalues --    1.94386   1.96795   1.98485   2.00274   2.03213
 Alpha virt. eigenvalues --    2.03323   2.05439   2.06194   2.08844   2.09635
 Alpha virt. eigenvalues --    2.10770   2.11555   2.14314   2.18435   2.19332
 Alpha virt. eigenvalues --    2.19588   2.21799   2.22232   2.24596   2.26790
 Alpha virt. eigenvalues --    2.28312   2.29039   2.33074   2.34855   2.36767
 Alpha virt. eigenvalues --    2.37397   2.39419   2.40922   2.41842   2.42631
 Alpha virt. eigenvalues --    2.44420   2.45295   2.48531   2.48759   2.49207
 Alpha virt. eigenvalues --    2.49899   2.50912   2.54215   2.58556   2.59395
 Alpha virt. eigenvalues --    2.60464   2.63348   2.65248   2.65354   2.65831
 Alpha virt. eigenvalues --    2.67680   2.68558   2.68930   2.69289   2.70916
 Alpha virt. eigenvalues --    2.71586   2.72797   2.73918   2.74695   2.75160
 Alpha virt. eigenvalues --    2.75221   2.76688   2.77555   2.79151   2.80169
 Alpha virt. eigenvalues --    2.82271   2.82960   2.84162   2.84404   2.85018
 Alpha virt. eigenvalues --    2.86150   2.87637   2.88858   2.91872   2.91970
 Alpha virt. eigenvalues --    2.94410   2.96513   2.97294   3.01787   3.03420
 Alpha virt. eigenvalues --    3.04611   3.07393   3.13084   3.18435   3.19338
 Alpha virt. eigenvalues --    3.23058   3.26235   3.26672   3.28074   3.32971
 Alpha virt. eigenvalues --    3.35510   3.36949   3.38151   3.41557   3.44476
 Alpha virt. eigenvalues --    3.47297   3.50811   3.51886   3.53545   3.58164
 Alpha virt. eigenvalues --    3.62574   3.66369   3.67547   3.82930   3.85231
 Alpha virt. eigenvalues --    3.88969   3.89908   3.99427   4.03344   4.04682
 Alpha virt. eigenvalues --    4.05182   4.05838   4.17471   4.18363   4.19473
 Alpha virt. eigenvalues --    4.29122   4.31549   4.40752   4.52773   4.77290
 Alpha virt. eigenvalues --    4.80828   4.82124   5.08700   5.12352   5.26322
 Alpha virt. eigenvalues --    5.73706  23.55559  23.75143  23.76524  23.82155
 Alpha virt. eigenvalues --   23.82266  23.85797  23.86548  23.87674  23.95052
 Alpha virt. eigenvalues --   24.00669  24.05976  24.10097  24.16614  35.54400
 Alpha virt. eigenvalues --   35.64244  49.99245
          Condensed to atoms (all electrons):
               1          2          3          4          5          6
     1  C   17.925339  -0.655165  -2.254348  -0.707684   0.812343   0.298803
     2  C   -0.655165  13.020577   0.539963  -0.078443  -0.717748  -0.375647
     3  C   -2.254348   0.539963   7.710598   0.924675  -0.667390   0.542128
     4  C   -0.707684  -0.078443   0.924675   6.041864   0.685388  -0.087335
     5  C    0.812343  -0.717748  -0.667390   0.685388   5.917060   0.687480
     6  C    0.298803  -0.375647   0.542128  -0.087335   0.687480   7.033187
     7  C   -0.181155   0.214780  -0.939446  -0.531364  -0.261087  -0.627707
     8  C   -4.953813  -3.137267  -0.217941  -0.416758  -0.510293  -1.225028
     9  H   -0.004075  -0.021446   0.359053  -0.040654   0.000172  -0.020410
    10  H    0.010563   0.054397  -0.108440   0.408441  -0.019069  -0.013895
    11  H    0.039139   0.029601  -0.016688  -0.025744   0.400478  -0.097679
    12  H    0.045945   0.007675  -0.028192  -0.008751   0.009055   0.302724
    13  H   -0.060637  -0.029781   0.056695   0.011920  -0.001353  -0.000288
    14  N   -0.408201   0.578603   0.120269   0.075460  -0.078274  -0.205380
    15  H   -0.119071   0.125703   0.004487  -0.000657  -0.001823   0.002869
    16  C   -3.090711  -4.731405   0.067323  -0.109734  -0.020791   0.161250
    17  O    0.182053   0.068500  -0.003100   0.000169   0.001423   0.011155
    18  C    0.066271  -0.001284  -0.018465  -0.004548   0.000211   0.010046
    19  C    0.045888   0.018516  -0.014691  -0.003604  -0.000032   0.007963
    20  C   -0.012696  -0.011389  -0.001056  -0.000196  -0.000126   0.000042
    21  H    0.010591   0.014916   0.000582   0.000114   0.000002  -0.000569
    22  H   -0.003139  -0.009021   0.000440  -0.000034  -0.000011   0.000081
    23  C    0.003544  -0.010992  -0.002130  -0.000486  -0.000039   0.001093
    24  H   -0.002900  -0.009199   0.000353  -0.000034  -0.000011   0.000070
    25  H    0.010736   0.015849   0.000625   0.000118   0.000004  -0.000522
    26  H   -0.000125  -0.000076   0.000005   0.000000   0.000000   0.000002
    27  H   -0.000010  -0.000233   0.000001   0.000000   0.000000  -0.000003
    28  H   -0.000183  -0.000180  -0.000003  -0.000001   0.000000   0.000002
    29  H    0.000005  -0.000239   0.000006   0.000000   0.000000  -0.000003
    30  N    0.014369  -0.017233  -0.045220  -0.012903  -0.001849   0.026622
               7          8          9         10         11         12
     1  C   -0.181155  -4.953813  -0.004075   0.010563   0.039139   0.045945
     2  C    0.214780  -3.137267  -0.021446   0.054397   0.029601   0.007675
     3  C   -0.939446  -0.217941   0.359053  -0.108440  -0.016688  -0.028192
     4  C   -0.531364  -0.416758  -0.040654   0.408441  -0.025744  -0.008751
     5  C   -0.261087  -0.510293   0.000172  -0.019069   0.400478   0.009055
     6  C   -0.627707  -1.225028  -0.020410  -0.013895  -0.097679   0.302724
     7  C   17.828189  -0.332112   0.007539   0.002158   0.006141   0.005956
     8  C   -0.332112  13.037621   0.060678   0.010876   0.010516   0.023232
     9  H    0.007539   0.060678   0.543180  -0.007193  -0.000206   0.000069
    10  H    0.002158   0.010876  -0.007193   0.541461  -0.007799  -0.000237
    11  H    0.006141   0.010516  -0.000206  -0.007799   0.537173  -0.007272
    12  H    0.005956   0.023232   0.000069  -0.000237  -0.007272   0.546768
    13  H   -0.127311   0.461159   0.001189  -0.000002  -0.000002   0.000008
    14  N    0.334406  -0.200826  -0.000311   0.000729   0.000289  -0.034059
    15  H   -0.029312   0.006619   0.000095  -0.000016  -0.000139   0.018838
    16  C  -11.083467   4.677217  -0.001385   0.000002   0.000273   0.005189
    17  O    0.319188  -0.156313  -0.000003   0.000000   0.000000  -0.000032
    18  C    0.305999  -0.258124   0.000008   0.000000   0.000000   0.000000
    19  C    0.376010  -0.198484   0.000024   0.000000   0.000000  -0.000001
    20  C   -0.063161   0.001590   0.000002   0.000000   0.000000   0.000001
    21  H    0.208265  -0.013764   0.000000   0.000000   0.000000   0.000000
    22  H   -0.109251   0.023797   0.000000   0.000000   0.000000   0.000000
    23  C   -0.029292  -0.057913  -0.000003   0.000000   0.000000   0.000001
    24  H   -0.107210   0.023102   0.000000   0.000000   0.000000   0.000000
    25  H    0.207279  -0.013752   0.000000   0.000000   0.000000   0.000000
    26  H   -0.007715   0.002154   0.000000   0.000000   0.000000   0.000000
    27  H   -0.004763  -0.000143   0.000000   0.000000   0.000000   0.000000
    28  H   -0.010147   0.001936   0.000000   0.000000   0.000000   0.000000
    29  H   -0.006828   0.000338   0.000000   0.000000   0.000000   0.000000
    30  N    0.148742  -0.344147   0.000048  -0.000002   0.000002   0.000009
              13         14         15         16         17         18
     1  C   -0.060637  -0.408201  -0.119071  -3.090711   0.182053   0.066271
     2  C   -0.029781   0.578603   0.125703  -4.731405   0.068500  -0.001284
     3  C    0.056695   0.120269   0.004487   0.067323  -0.003100  -0.018465
     4  C    0.011920   0.075460  -0.000657  -0.109734   0.000169  -0.004548
     5  C   -0.001353  -0.078274  -0.001823  -0.020791   0.001423   0.000211
     6  C   -0.000288  -0.205380   0.002869   0.161250   0.011155   0.010046
     7  C   -0.127311   0.334406  -0.029312 -11.083467   0.319188   0.305999
     8  C    0.461159  -0.200826   0.006619   4.677217  -0.156313  -0.258124
     9  H    0.001189  -0.000311   0.000095  -0.001385  -0.000003   0.000008
    10  H   -0.000002   0.000729  -0.000016   0.000002   0.000000   0.000000
    11  H   -0.000002   0.000289  -0.000139   0.000273   0.000000   0.000000
    12  H    0.000008  -0.034059   0.018838   0.005189  -0.000032   0.000000
    13  H    0.499119   0.019023  -0.000017   0.023837  -0.001160   0.000611
    14  N    0.019023   6.846384   0.367244  -0.467306   0.044667  -0.000685
    15  H   -0.000017   0.367244   0.401190  -0.040871  -0.000191  -0.000086
    16  C    0.023837  -0.467306  -0.040871  23.393375  -0.232462  -0.825707
    17  O   -0.001160   0.044667  -0.000191  -0.232462   8.012879   0.028468
    18  C    0.000611  -0.000685  -0.000086  -0.825707   0.028468   6.054295
    19  C    0.001050  -0.003438  -0.000045  -0.773070   0.031411  -0.238779
    20  C    0.000473   0.000207  -0.000011   0.124330   0.002522  -0.330949
    21  H   -0.000181  -0.000084  -0.000014  -0.231979   0.020854   0.479751
    22  H    0.000605   0.000214   0.000001   0.128870  -0.003234   0.424999
    23  C    0.000247   0.002696  -0.000026  -0.088228   0.005388   0.389147
    24  H    0.000596   0.000215   0.000001   0.127992  -0.003275   0.002991
    25  H   -0.000186  -0.000053  -0.000014  -0.232604   0.019131  -0.011398
    26  H   -0.000003  -0.000002   0.000000   0.017932  -0.000671  -0.052967
    27  H    0.000002   0.000009   0.000000   0.003650  -0.000151  -0.065524
    28  H   -0.000001  -0.000008   0.000000   0.022277  -0.000791   0.006522
    29  H    0.000003   0.000018   0.000000   0.007733  -0.000436   0.003721
    30  N   -0.005716   0.016207   0.000313  -0.048404  -0.208633   0.236972
              19         20         21         22         23         24
     1  C    0.045888  -0.012696   0.010591  -0.003139   0.003544  -0.002900
     2  C    0.018516  -0.011389   0.014916  -0.009021  -0.010992  -0.009199
     3  C   -0.014691  -0.001056   0.000582   0.000440  -0.002130   0.000353
     4  C   -0.003604  -0.000196   0.000114  -0.000034  -0.000486  -0.000034
     5  C   -0.000032  -0.000126   0.000002  -0.000011  -0.000039  -0.000011
     6  C    0.007963   0.000042  -0.000569   0.000081   0.001093   0.000070
     7  C    0.376010  -0.063161   0.208265  -0.109251  -0.029292  -0.107210
     8  C   -0.198484   0.001590  -0.013764   0.023797  -0.057913   0.023102
     9  H    0.000024   0.000002   0.000000   0.000000  -0.000003   0.000000
    10  H    0.000000   0.000000   0.000000   0.000000   0.000000   0.000000
    11  H    0.000000   0.000000   0.000000   0.000000   0.000000   0.000000
    12  H   -0.000001   0.000001   0.000000   0.000000   0.000001   0.000000
    13  H    0.001050   0.000473  -0.000181   0.000605   0.000247   0.000596
    14  N   -0.003438   0.000207  -0.000084   0.000214   0.002696   0.000215
    15  H   -0.000045  -0.000011  -0.000014   0.000001  -0.000026   0.000001
    16  C   -0.773070   0.124330  -0.231979   0.128870  -0.088228   0.127992
    17  O    0.031411   0.002522   0.020854  -0.003234   0.005388  -0.003275
    18  C   -0.238779  -0.330949   0.479751   0.424999   0.389147   0.002991
    19  C    5.848503   0.291695  -0.015360   0.005452  -0.230280   0.441533
    20  C    0.291695   6.091851  -0.088762  -0.065781  -0.337141   0.007709
    21  H   -0.015360  -0.088762   0.561837  -0.044108   0.032225  -0.001016
    22  H    0.005452  -0.065781  -0.044108   0.559971   0.002469   0.000465
    23  C   -0.230280  -0.337141   0.032225   0.002469   6.149640  -0.085760
    24  H    0.441533   0.007709  -0.001016   0.000465  -0.085760   0.559373
    25  H    0.465700   0.023751   0.001974  -0.000944  -0.069316  -0.042972
    26  H    0.001925   0.442356   0.004551  -0.011103  -0.061744   0.000134
    27  H    0.009838   0.450165  -0.013012   0.005874  -0.051606  -0.000284
    28  H   -0.046424  -0.056933  -0.000689  -0.000086   0.426032  -0.010268
    29  H   -0.069560  -0.051030  -0.000019  -0.000271   0.456229   0.006756
    30  N    0.220899  -0.122132  -0.087248  -0.058521  -0.111788  -0.060253
              25         26         27         28         29         30
     1  C    0.010736  -0.000125  -0.000010  -0.000183   0.000005   0.014369
     2  C    0.015849  -0.000076  -0.000233  -0.000180  -0.000239  -0.017233
     3  C    0.000625   0.000005   0.000001  -0.000003   0.000006  -0.045220
     4  C    0.000118   0.000000   0.000000  -0.000001   0.000000  -0.012903
     5  C    0.000004   0.000000   0.000000   0.000000   0.000000  -0.001849
     6  C   -0.000522   0.000002  -0.000003   0.000002  -0.000003   0.026622
     7  C    0.207279  -0.007715  -0.004763  -0.010147  -0.006828   0.148742
     8  C   -0.013752   0.002154  -0.000143   0.001936   0.000338  -0.344147
     9  H    0.000000   0.000000   0.000000   0.000000   0.000000   0.000048
    10  H    0.000000   0.000000   0.000000   0.000000   0.000000  -0.000002
    11  H    0.000000   0.000000   0.000000   0.000000   0.000000   0.000002
    12  H    0.000000   0.000000   0.000000   0.000000   0.000000   0.000009
    13  H   -0.000186  -0.000003   0.000002  -0.000001   0.000003  -0.005716
    14  N   -0.000053  -0.000002   0.000009  -0.000008   0.000018   0.016207
    15  H   -0.000014   0.000000   0.000000   0.000000   0.000000   0.000313
    16  C   -0.232604   0.017932   0.003650   0.022277   0.007733  -0.048404
    17  O    0.019131  -0.000671  -0.000151  -0.000791  -0.000436  -0.208633
    18  C   -0.011398  -0.052967  -0.065524   0.006522   0.003721   0.236972
    19  C    0.465700   0.001925   0.009838  -0.046424  -0.069560   0.220899
    20  C    0.023751   0.442356   0.450165  -0.056933  -0.051030  -0.122132
    21  H    0.001974   0.004551  -0.013012  -0.000689  -0.000019  -0.087248
    22  H   -0.000944  -0.011103   0.005874  -0.000086  -0.000271  -0.058521
    23  C   -0.069316  -0.061744  -0.051606   0.426032   0.456229  -0.111788
    24  H   -0.042972   0.000134  -0.000284  -0.010268   0.006756  -0.060253
    25  H    0.558432  -0.000581  -0.000223   0.003198  -0.013490  -0.082583
    26  H   -0.000581   0.543092  -0.030465  -0.013198   0.005918   0.007796
    27  H   -0.000223  -0.030465   0.531316   0.005123  -0.014919   0.012053
    28  H    0.003198  -0.013198   0.005123   0.541803  -0.030086   0.008554
    29  H   -0.013490   0.005918  -0.014919  -0.030086   0.529835   0.011388
    30  N   -0.082583   0.007796   0.012053   0.008554   0.011388   7.240566
 Mulliken charges:
               1
     1  C   -1.011673
     2  C    1.117669
     3  C   -0.010094
     4  C   -0.119219
     5  C   -0.233721
     6  C   -0.431050
     7  C    0.486677
     8  C   -0.304157
     9  H    0.123630
    10  H    0.128025
    11  H    0.131917
    12  H    0.113077
    13  H    0.150100
    14  N   -0.008011
    15  H    0.264934
    16  C   -0.783127
    17  O   -0.137353
    18  C   -0.201495
    19  C   -0.172639
    20  C   -0.295333
    21  H    0.161143
    22  H    0.152268
    23  C   -0.331967
    24  H    0.151892
    25  H    0.161840
    26  H    0.152788
    27  H    0.163304
    28  H    0.153551
    29  H    0.164931
    30  N    0.262092
 Sum of Mulliken charges =   0.00000
 Mulliken charges with hydrogens summed into heavy atoms:
               1
     1  C   -1.011673
     2  C    1.117669
     3  C    0.113536
     4  C    0.008806
     5  C   -0.101804
     6  C   -0.317973
     7  C    0.486677
     8  C   -0.154056
    14  N    0.256924
    16  C   -0.783127
    17  O   -0.137353
    18  C    0.111916
    19  C    0.141094
    20  C    0.020759
    23  C   -0.013486
    30  N    0.262092
 Electronic spatial extent (au):  <R**2>=           4996.6992
 Charge=              0.0000 electrons
 Dipole moment (field-independent basis, Debye):
    X=             -1.1206    Y=             -1.3994    Z=              0.0089  Tot=              1.7928
 Quadrupole moment (field-independent basis, Debye-Ang):
   XX=            -80.1948   YY=            -94.0297   ZZ=            -97.9867
   XY=             -7.3808   XZ=              0.0345   YZ=             -0.0355
 Traceless Quadrupole moment (field-independent basis, Debye-Ang):
   XX=             10.5423   YY=             -3.2926   ZZ=             -7.2496
   XY=             -7.3808   XZ=              0.0345   YZ=             -0.0355
 Octapole moment (field-independent basis, Debye-Ang**2):
  XXX=            -10.1855  YYY=             -8.1803  ZZZ=             -0.0428  XYY=            -25.7947
  XXY=              2.3997  XXZ=             -0.0828  XZZ=             26.3717  YZZ=              4.2436
  YYZ=              0.1173  XYZ=             -0.0060
 Hexadecapole moment (field-independent basis, Debye-Ang**3):
 XXXX=          -5523.4790 YYYY=           -692.3698 ZZZZ=           -334.6996 XXXY=            -33.8450
 XXXZ=             -0.5429 YYYX=            -35.2278 YYYZ=             -0.1888 ZZZX=              0.0740
 ZZZY=             -0.0349 XXYY=          -1037.3411 XXZZ=          -1103.2980 YYZZ=           -178.0893
 XXYZ=             -2.7004 YYXZ=              0.4921 ZZXY=             -2.2785
 N-N= 1.010903720829D+03 E-N=-3.623189460491D+03  KE= 6.848226376695D+02
 There are a total of      250096 grid points.
 ElSum from          density=      113.9997890957
 ElSum from atomic densities=      113.9998990817

 Hirshfeld populations at iteration   1 (CX, CA, CB, DipXYZ):
               1          2          3          4          5          6
     1  C    0.000000   2.980731   2.980731   0.043117   0.068616  -0.000333
     2  C    0.000000   3.011868   3.011868   0.002164  -0.020887   0.000098
     3  C    0.000000   3.021494   3.021494   0.023215  -0.065443   0.000322
     4  C    0.000000   3.028339   3.028339  -0.041500  -0.032986   0.000167
     5  C    0.000000   3.022842   3.022842  -0.054829   0.016420  -0.000063
     6  C    0.000000   3.031408   3.031408  -0.004152   0.060554  -0.000308
     7  C    0.000000   2.976976   2.976976   0.027736   0.102834  -0.000562
     8  C    0.000000   3.029469   3.029469   0.003766  -0.087520   0.000421
     9  H    0.000002   0.473490   0.473490   0.030866  -0.157755   0.000792
    10  H    0.000002   0.476120   0.476120  -0.118873  -0.107694   0.000546
    11  H    0.000002   0.473942   0.473942  -0.155882   0.046593  -0.000235
    12  H    0.000002   0.474594   0.474594  -0.040291   0.156000  -0.000792
    13  H    0.000001   0.470569   0.470569   0.059288  -0.157394   0.000737
    14  N    0.000000   3.565040   3.565040   0.026010   0.008672  -0.000060
    15  H    0.000002   0.426370   0.426370  -0.135761   0.150479  -0.000733
    16  C    0.000000   2.897037   2.897037   0.023083  -0.059069  -0.000025
    17  O    0.000005   4.133947   4.133947  -0.014815  -0.109035   0.000226
    18  C    0.000000   3.005099   3.005099  -0.001409  -0.011923   0.034367
    19  C    0.000000   3.004992   3.004992  -0.001224  -0.010045  -0.034192
    20  C    0.000000   3.029143   3.029143  -0.014288   0.002814   0.009688
    21  H    0.000001   0.482482   0.482482  -0.006690   0.105044  -0.086910
    22  H    0.000001   0.482681   0.482681  -0.019563  -0.109961  -0.087167
    23  C    0.000000   3.029350   3.029350  -0.014277  -0.002048  -0.010050
    24  H    0.000001   0.483076   0.483076  -0.015136  -0.112212   0.084072
    25  H    0.000001   0.481772   0.481772  -0.011641   0.103972   0.090017
    26  H    0.000000   0.482393   0.482393   0.057619  -0.124771  -0.039916
    27  H    0.000000   0.479976   0.479976   0.075580   0.113413  -0.053920
    28  H    0.000000   0.481828   0.481828   0.067768  -0.115568   0.052286
    29  H    0.000000   0.480539   0.480539   0.066120   0.122915   0.041833
    30  N    0.000000   3.582327   3.582327   0.089037   0.139253  -0.000798
       Tot   0.000022  56.999895  56.999895  -0.054963  -0.086732  -0.000492

 Dip from Atomic Chgs             -0.381987  -0.463834   0.004072
         Total Dipole             -0.436951  -0.550566   0.003580

 Hirshfeld charges, spin densities, dipoles, and CM5 charges using IRadAn=      4:
              Q-H        S-H        Dx         Dy         Dz        Q-CM5   
     1  C    0.038538   0.000000   0.043117   0.068616  -0.000333   0.073325
     2  C   -0.023737   0.000000   0.002164  -0.020887   0.000098  -0.024292
     3  C   -0.042987   0.000000   0.023215  -0.065443   0.000322  -0.093450
     4  C   -0.056678   0.000000  -0.041500  -0.032986   0.000167  -0.110023
     5  C   -0.045683   0.000000  -0.054829   0.016420  -0.000063  -0.099027
     6  C   -0.062815   0.000000  -0.004152   0.060554  -0.000308  -0.113762
     7  C    0.046048   0.000000   0.027736   0.102834  -0.000562   0.109573
     8  C   -0.058939   0.000000   0.003766  -0.087520   0.000421  -0.099677
     9  H    0.053019   0.000000   0.030866  -0.157755   0.000792   0.107215
    10  H    0.047761   0.000000  -0.118873  -0.107694   0.000546   0.101444
    11  H    0.052116   0.000000  -0.155882   0.046593  -0.000235   0.105811
    12  H    0.050811   0.000000  -0.040291   0.156000  -0.000792   0.106046
    13  H    0.058863   0.000000   0.059288  -0.157394   0.000737   0.116320
    14  N   -0.130080   0.000000   0.026010   0.008672  -0.000060  -0.460663
    15  H    0.147261   0.000000  -0.135761   0.150479  -0.000733   0.360015
    16  C    0.205926   0.000000   0.023083  -0.059069  -0.000025   0.285552
    17  O   -0.267895   0.000000  -0.014815  -0.109035   0.000226  -0.308820
    18  C   -0.010198   0.000000  -0.001409  -0.011923   0.034367  -0.058436
    19  C   -0.009984   0.000000  -0.001224  -0.010045  -0.034192  -0.058258
    20  C   -0.058285   0.000000  -0.014288   0.002814   0.009688  -0.155837
    21  H    0.035035   0.000000  -0.006690   0.105044  -0.086910   0.097763
    22  H    0.034638   0.000000  -0.019563  -0.109961  -0.087167   0.093283
    23  C   -0.058700   0.000000  -0.014277  -0.002048  -0.010050  -0.156254
    24  H    0.033847   0.000000  -0.015136  -0.112212   0.084072   0.092526
    25  H    0.036455   0.000000  -0.011641   0.103972   0.090017   0.098959
    26  H    0.035215   0.000000   0.057619  -0.124771  -0.039916   0.087226
    27  H    0.040048   0.000000   0.075580   0.113413  -0.053920   0.091981
    28  H    0.036344   0.000000   0.067768  -0.115568   0.052286   0.088213
    29  H    0.038922   0.000000   0.066120   0.122915   0.041833   0.091035
    30  N   -0.164655   0.000000   0.089037   0.139253  -0.000798  -0.367578
       Tot   0.000211   0.000000  -0.054963  -0.086732  -0.000492   0.000211
 Hirshfeld charges with hydrogens summed into heavy atoms:
              Q-H       Q-CM5   
     1  C    0.038538   0.073325
     2  C   -0.023737  -0.024292
     3  C    0.010032   0.013765
     4  C   -0.008917  -0.008578
     5  C    0.006433   0.006784
     6  C   -0.012004  -0.007716
     7  C    0.046048   0.109573
     8  C   -0.000076   0.016643
    14  N    0.017181  -0.100648
    16  C    0.205926   0.285552
    17  O   -0.267895  -0.308820
    18  C    0.059475   0.132610
    19  C    0.060318   0.133228
    20  C    0.016978   0.023371
    23  C    0.016565   0.022993
    30  N   -0.164655  -0.367578
 
 EQQ= 0.000000000000E+00 EQD= 0.000000000000E+00 EDD= 0.492310460612E-02
 EQQ+QD+DD= 0.492310460612E-02
 
          MBS Condensed to atoms (all electrons):
               1          2          3          4          5          6
     1  C    4.897566   0.453740  -0.027587  -0.012113  -0.030010   0.507255
     2  C    0.453740   4.797822   0.501238  -0.032831  -0.012190  -0.027291
     3  C   -0.027587   0.501238   4.815037   0.506563  -0.030058  -0.009139
     4  C   -0.012113  -0.032831   0.506563   4.835224   0.504801  -0.030848
     5  C   -0.030010  -0.012190  -0.030058   0.504801   4.817096   0.505246
     6  C    0.507255  -0.027291  -0.009139  -0.030848   0.505246   4.859438
     7  C   -0.044690  -0.046392   0.000906  -0.000011  -0.000007   0.001025
     8  C   -0.050950   0.457860  -0.019924   0.000773   0.000060   0.000976
     9  H    0.001449  -0.025036   0.385497  -0.024107   0.001380   0.000010
    10  H    0.000075   0.001497  -0.025542   0.387445  -0.025487   0.001472
    11  H    0.001397   0.000069   0.001453  -0.025033   0.387861  -0.025418
    12  H   -0.028146   0.001464   0.000008   0.001348  -0.022775   0.382173
    13  H    0.001536  -0.018630  -0.000980  -0.000002  -0.000001  -0.000016
    14  N    0.338541  -0.042894   0.000737   0.000020   0.000470  -0.021326
    15  H   -0.060584   0.003176  -0.000037   0.000021  -0.000218  -0.004676
    16  C    0.000866   0.000676  -0.000003   0.000000   0.000000  -0.000004
    17  O   -0.000001  -0.000002   0.000000   0.000000   0.000000   0.000000
    18  C    0.000000   0.000000   0.000000   0.000000   0.000000   0.000000
    19  C    0.000000   0.000000   0.000000   0.000000   0.000000   0.000000
    20  C    0.000000   0.000000   0.000000   0.000000   0.000000   0.000000
    21  H    0.000000   0.000000   0.000000   0.000000   0.000000   0.000000
    22  H    0.000000   0.000000   0.000000   0.000000   0.000000   0.000000
    23  C    0.000000   0.000000   0.000000   0.000000   0.000000   0.000000
    24  H    0.000000   0.000000   0.000000   0.000000   0.000000   0.000000
    25  H    0.000000   0.000000   0.000000   0.000000   0.000000   0.000000
    26  H    0.000000   0.000000   0.000000   0.000000   0.000000   0.000000
    27  H    0.000000   0.000000   0.000000   0.000000   0.000000   0.000000
    28  H    0.000000   0.000000   0.000000   0.000000   0.000000   0.000000
    29  H    0.000000   0.000000   0.000000   0.000000   0.000000   0.000000
    30  N   -0.000004   0.000015   0.000000   0.000000   0.000000   0.000000
               7          8          9         10         11         12
     1  C   -0.044690  -0.050950   0.001449   0.000075   0.001397  -0.028146
     2  C   -0.046392   0.457860  -0.025036   0.001497   0.000069   0.001464
     3  C    0.000906  -0.019924   0.385497  -0.025542   0.001453   0.000008
     4  C   -0.000011   0.000773  -0.024107   0.387445  -0.025033   0.001348
     5  C   -0.000007   0.000060   0.001380  -0.025487   0.387861  -0.022775
     6  C    0.001025   0.000976   0.000010   0.001472  -0.025418   0.382173
     7  C    4.766574   0.520453   0.000001   0.000000   0.000000  -0.000005
     8  C    0.520453   4.902858  -0.002373  -0.000016   0.000000  -0.000029
     9  H    0.000001  -0.002373   0.557958  -0.003633  -0.000036   0.000003
    10  H    0.000000  -0.000016  -0.003633   0.563822  -0.003867  -0.000034
    11  H    0.000000   0.000000  -0.000036  -0.003867   0.557539  -0.003804
    12  H   -0.000005  -0.000029   0.000003  -0.000034  -0.003804   0.566571
    13  H   -0.018090   0.385150   0.000518   0.000000   0.000000   0.000001
    14  N    0.400362  -0.048993  -0.000016   0.000000  -0.000008  -0.001699
    15  H   -0.012740   0.002554   0.000001   0.000000   0.000005   0.003297
    16  C    0.380265  -0.019552   0.000000   0.000000   0.000000   0.000000
    17  O   -0.027783   0.000234   0.000000   0.000000   0.000000   0.000000
    18  C    0.000502  -0.000010   0.000000   0.000000   0.000000   0.000000
    19  C    0.000502  -0.000010   0.000000   0.000000   0.000000   0.000000
    20  C   -0.000007   0.000000   0.000000   0.000000   0.000000   0.000000
    21  H    0.000131  -0.000010   0.000000   0.000000   0.000000   0.000000
    22  H    0.000002   0.000015   0.000000   0.000000   0.000000   0.000000
    23  C   -0.000007   0.000000   0.000000   0.000000   0.000000   0.000000
    24  H    0.000000   0.000015   0.000000   0.000000   0.000000   0.000000
    25  H    0.000132  -0.000010   0.000000   0.000000   0.000000   0.000000
    26  H    0.000000   0.000000   0.000000   0.000000   0.000000   0.000000
    27  H    0.000000   0.000000   0.000000   0.000000   0.000000   0.000000
    28  H    0.000000   0.000000   0.000000   0.000000   0.000000   0.000000
    29  H    0.000001   0.000000   0.000000   0.000000   0.000000   0.000000
    30  N   -0.028134  -0.000857   0.000000   0.000000   0.000000   0.000000
              13         14         15         16         17         18
     1  C    0.001536   0.338541  -0.060584   0.000866  -0.000001   0.000000
     2  C   -0.018630  -0.042894   0.003176   0.000676  -0.000002   0.000000
     3  C   -0.000980   0.000737  -0.000037  -0.000003   0.000000   0.000000
     4  C   -0.000002   0.000020   0.000021   0.000000   0.000000   0.000000
     5  C   -0.000001   0.000470  -0.000218   0.000000   0.000000   0.000000
     6  C   -0.000016  -0.021326  -0.004676  -0.000004   0.000000   0.000000
     7  C   -0.018090   0.400362  -0.012740   0.380265  -0.027783   0.000502
     8  C    0.385150  -0.048993   0.002554  -0.019552   0.000234  -0.000010
     9  H    0.000518  -0.000016   0.000001   0.000000   0.000000   0.000000
    10  H    0.000000   0.000000   0.000000   0.000000   0.000000   0.000000
    11  H    0.000000  -0.000008   0.000005   0.000000   0.000000   0.000000
    12  H    0.000001  -0.001699   0.003297   0.000000   0.000000   0.000000
    13  H    0.504990   0.000985  -0.000063  -0.001212   0.000007  -0.000034
    14  N    0.000985   6.495228   0.325579  -0.016546   0.000063  -0.000002
    15  H   -0.000063   0.325579   0.376232  -0.000068  -0.000008   0.000000
    16  C   -0.001212  -0.016546  -0.000068   4.551275   0.449025  -0.022824
    17  O    0.000007   0.000063  -0.000008   0.449025   8.022724  -0.001629
    18  C   -0.000034  -0.000002   0.000000  -0.022824  -0.001629   4.759102
    19  C   -0.000034  -0.000002   0.000000  -0.022786  -0.001537  -0.036632
    20  C    0.000001   0.000000   0.000000   0.000802  -0.000002   0.364570
    21  H    0.000004  -0.000001   0.000000  -0.005653   0.001746   0.366178
    22  H   -0.000015   0.000000   0.000000   0.001253  -0.000003   0.371770
    23  C    0.000001   0.000000   0.000000   0.000786  -0.000005  -0.033378
    24  H   -0.000015   0.000000   0.000000   0.001278  -0.000003   0.001531
    25  H    0.000004  -0.000001   0.000000  -0.005413   0.001537   0.001333
    26  H    0.000000   0.000000   0.000000  -0.000011   0.000000  -0.022294
    27  H    0.000000   0.000000   0.000000  -0.000034   0.000018  -0.021045
    28  H    0.000000   0.000000   0.000000  -0.000011   0.000000   0.001432
    29  H    0.000000   0.000000   0.000000  -0.000033   0.000029   0.001274
    30  N    0.001611   0.000129  -0.000002   0.293590  -0.021882   0.307452
              19         20         21         22         23         24
     1  C    0.000000   0.000000   0.000000   0.000000   0.000000   0.000000
     2  C    0.000000   0.000000   0.000000   0.000000   0.000000   0.000000
     3  C    0.000000   0.000000   0.000000   0.000000   0.000000   0.000000
     4  C    0.000000   0.000000   0.000000   0.000000   0.000000   0.000000
     5  C    0.000000   0.000000   0.000000   0.000000   0.000000   0.000000
     6  C    0.000000   0.000000   0.000000   0.000000   0.000000   0.000000
     7  C    0.000502  -0.000007   0.000131   0.000002  -0.000007   0.000000
     8  C   -0.000010   0.000000  -0.000010   0.000015   0.000000   0.000015
     9  H    0.000000   0.000000   0.000000   0.000000   0.000000   0.000000
    10  H    0.000000   0.000000   0.000000   0.000000   0.000000   0.000000
    11  H    0.000000   0.000000   0.000000   0.000000   0.000000   0.000000
    12  H    0.000000   0.000000   0.000000   0.000000   0.000000   0.000000
    13  H   -0.000034   0.000001   0.000004  -0.000015   0.000001  -0.000015
    14  N   -0.000002   0.000000  -0.000001   0.000000   0.000000   0.000000
    15  H    0.000000   0.000000   0.000000   0.000000   0.000000   0.000000
    16  C   -0.022786   0.000802  -0.005653   0.001253   0.000786   0.001278
    17  O   -0.001537  -0.000002   0.001746  -0.000003  -0.000005  -0.000003
    18  C   -0.036632   0.364570   0.366178   0.371770  -0.033378   0.001531
    19  C    4.758387  -0.033350   0.001268   0.001568   0.364496   0.371499
    20  C   -0.033350   4.813926  -0.020480  -0.024449   0.362928   0.000963
    21  H    0.001268  -0.020480   0.616226  -0.026849   0.001197  -0.000058
    22  H    0.001568  -0.024449  -0.026849   0.615934   0.001122   0.000006
    23  C    0.364496   0.362928   0.001197   0.001122   4.814864  -0.025055
    24  H    0.371499   0.000963  -0.000058   0.000006  -0.025055   0.617696
    25  H    0.366945   0.001338   0.000020  -0.000055  -0.020150  -0.026721
    26  H    0.001279   0.372715   0.001839  -0.006624  -0.021862  -0.000020
    27  H    0.001412   0.373743  -0.007019   0.001829  -0.020815  -0.000026
    28  H   -0.021639  -0.021256  -0.000034  -0.000037   0.372654  -0.006435
    29  H   -0.021714  -0.021476  -0.000037  -0.000027   0.373480   0.001978
    30  N    0.307166  -0.026888  -0.019283  -0.022807  -0.026902  -0.023086
              25         26         27         28         29         30
     1  C    0.000000   0.000000   0.000000   0.000000   0.000000  -0.000004
     2  C    0.000000   0.000000   0.000000   0.000000   0.000000   0.000015
     3  C    0.000000   0.000000   0.000000   0.000000   0.000000   0.000000
     4  C    0.000000   0.000000   0.000000   0.000000   0.000000   0.000000
     5  C    0.000000   0.000000   0.000000   0.000000   0.000000   0.000000
     6  C    0.000000   0.000000   0.000000   0.000000   0.000000   0.000000
     7  C    0.000132   0.000000   0.000000   0.000000   0.000001  -0.028134
     8  C   -0.000010   0.000000   0.000000   0.000000   0.000000  -0.000857
     9  H    0.000000   0.000000   0.000000   0.000000   0.000000   0.000000
    10  H    0.000000   0.000000   0.000000   0.000000   0.000000   0.000000
    11  H    0.000000   0.000000   0.000000   0.000000   0.000000   0.000000
    12  H    0.000000   0.000000   0.000000   0.000000   0.000000   0.000000
    13  H    0.000004   0.000000   0.000000   0.000000   0.000000   0.001611
    14  N   -0.000001   0.000000   0.000000   0.000000   0.000000   0.000129
    15  H    0.000000   0.000000   0.000000   0.000000   0.000000  -0.000002
    16  C   -0.005413  -0.000011  -0.000034  -0.000011  -0.000033   0.293590
    17  O    0.001537   0.000000   0.000018   0.000000   0.000029  -0.021882
    18  C    0.001333  -0.022294  -0.021045   0.001432   0.001274   0.307452
    19  C    0.366945   0.001279   0.001412  -0.021639  -0.021714   0.307166
    20  C    0.001338   0.372715   0.373743  -0.021256  -0.021476  -0.026888
    21  H    0.000020   0.001839  -0.007019  -0.000034  -0.000037  -0.019283
    22  H   -0.000055  -0.006624   0.001829  -0.000037  -0.000027  -0.022807
    23  C   -0.020150  -0.021862  -0.020815   0.372654   0.373480  -0.026902
    24  H   -0.026721  -0.000020  -0.000026  -0.006435   0.001978  -0.023086
    25  H    0.613543  -0.000033  -0.000051   0.001677  -0.007210  -0.018807
    26  H   -0.000033   0.625879  -0.023910  -0.007448   0.001918   0.000787
    27  H   -0.000051  -0.023910   0.615326   0.001687  -0.007534   0.000924
    28  H    0.001677  -0.007448   0.001687   0.623458  -0.023835   0.000881
    29  H   -0.007210   0.001918  -0.007534  -0.023835   0.617639   0.000860
    30  N   -0.018807   0.000787   0.000924   0.000881   0.000860   6.668945
 MBS Mulliken charges:
               1
     1  C    0.051659
     2  C   -0.012288
     3  C   -0.098168
     4  C   -0.111249
     5  C   -0.096168
     6  C   -0.138876
     7  C    0.107012
     8  C   -0.128213
     9  H    0.108385
    10  H    0.104269
    11  H    0.109841
    12  H    0.101628
    13  H    0.144283
    14  N   -0.430626
    15  H    0.367530
    16  C    0.414335
    17  O   -0.422529
    18  C   -0.037296
    19  C   -0.036817
    20  C   -0.143079
    21  H    0.090815
    22  H    0.087367
    23  C   -0.143354
    24  H    0.086456
    25  H    0.091923
    26  H    0.077785
    27  H    0.085495
    28  H    0.078905
    29  H    0.084684
    30  N   -0.393708
 Sum of MBS Mulliken charges =   0.00000
 MBS Mulliken charges with hydrogens summed into heavy atoms:
               1
     1  C    0.051659
     2  C   -0.012288
     3  C    0.010217
     4  C   -0.006980
     5  C    0.013673
     6  C   -0.037248
     7  C    0.107012
     8  C    0.016070
    14  N   -0.063097
    16  C    0.414335
    17  O   -0.422529
    18  C    0.140886
    19  C    0.141562
    20  C    0.020201
    23  C    0.020235
    30  N   -0.393708
 Breneman (CHELPG) radii used.
 Generate Potential Derived Charges using the Breneman model, NDens= 1.
 Grid spacing= 0.300 Box extension= 2.800
 NStep X,Y,Z=   56     37     33   Total possible points=       68376
 Number of Points to Fit=   18669

 **********************************************************************

            Electrostatic Properties Using The SCF Density

 **********************************************************************

       Atomic Center    1 is at  -2.516171  0.694539 -0.003451
       Atomic Center    2 is at  -2.207477 -0.717884  0.003401
       Atomic Center    3 is at  -3.221285 -1.654624  0.008206
       Atomic Center    4 is at  -4.551161 -1.201635  0.006141
       Atomic Center    5 is at  -4.847937  0.156259 -0.000563
       Atomic Center    6 is at  -3.828330  1.122786 -0.005520
       Atomic Center    7 is at  -0.207534  0.459425 -0.002470
       Atomic Center    8 is at  -0.754887 -0.837469  0.003820
       Atomic Center    9 is at  -3.002830 -2.731589  0.013581
       Atomic Center   10 is at  -5.367803 -1.938960  0.009907
       Atomic Center   11 is at  -5.897699  0.485718 -0.002191
       Atomic Center   12 is at  -4.079248  2.192630 -0.010908
[...]
 0.00005729,-0.00004160,-0.00008356,0.00000372,0.00003104,-0.00093069,0
 .00142543,0.00112244,0.00146478,0.00000736,-0.00055242,0.00057309,-0.0
 0061346,-0.00044795,-0.00223386,-0.05917232,0.04108569,-0.00002551,0.0
 0091165,-0.00011376,0.00015754,-0.00021444,-0.00004522,-0.00000597,-0.
 00002977,-0.00004823,0.00111510,0.00421296,-0.02101253,0.00108301,0.05
 734594,0.00000532,0.00004344,0.00001545,0.00002467,-0.00002258,0.00002
 010,-0.00002689,0.00000989,0.00003486,0.00002356,0.00002206,0.00001084
 ,0.00003433,-0.00000190,-0.00000343,-0.00000091,-0.00001795,-0.0000164
 5,0.00038154,0.00030692,-0.00043137,-0.00010812,0.00008866,0.00009946,
 -0.00000362,-0.00000165,-0.00000637,0.00000846,0.00000174,-0.00000533,
 0.00000828,0.00000214,-0.00000079,0.00000246,0.00001011,0.00000315,-0.
 00003340,0.00001612,0.00000321,0.00010465,-0.00009368,0.00002557,-0.00
 005178,0.00001171,-0.00003002,-0.00245660,-0.00352744,-0.00141297,-0.0
 0026800,0.00157984,0.00134552,0.00019920,0.00107501,-0.00078386,0.0128
 9743,0.04129279,-0.29176969,0.00048233,0.00035757,0.00000364,-0.000006
 12,-0.00041035,-0.00033974,0.00004365,-0.00003275,-0.00012845,-0.00129
 742,0.00329103,-0.01388996,-0.02098462,-0.04091656,0.31696777,-0.00022
 790,0.00000328,0.00006060,-0.00008556,-0.00001174,-0.00005018,0.000071
 38,-0.00001551,-0.00004310,-0.00004877,-0.00006852,-0.00004874,-0.0000
 8230,0.00003807,0.00005470,0.00009431,0.00005399,-0.00001809,-0.000046
 40,-0.00043658,0.00090174,0.00013923,0.00005288,-0.00007114,0.00000353
 ,0.00000593,0.00000234,-0.00000890,-0.00000140,0.00000295,-0.00000455,
 -0.00000441,0.00000425,-0.00000536,-0.00000721,-0.00000818,0.00002795,
 -0.00002541,-0.00001084,0.00023887,-0.00006278,-0.00002833,-0.00004457
 ,0.00000563,0.00002188,0.00146445,0.00623116,0.00355574,0.00121845,-0.
 00294053,-0.00213509,-0.00353821,0.00058464,-0.00190377,-0.05953388,0.
 05300086,-0.01067096,-0.00305715,-0.00217853,-0.00183552,-0.00004407,0
 .00002298,0.00003312,-0.00020154,0.00122298,0.00073420,0.00736132,-0.0
 1777431,0.00416099,0.00235679,-0.00161906,-0.00065913,0.07101135,-0.00
 004630,-0.00000105,0.00006161,-0.00003911,0.00004729,-0.00002354,0.000
 00443,0.00001156,-0.00000982,-0.00000200,-0.00001249,-0.00000554,-0.00
 000868,0.00001577,0.00000976,0.00002908,0.00000586,-0.00000632,0.00038
 008,-0.00028353,0.00044441,-0.00005843,0.00003991,0.00001502,-0.000001
 54,-0.00000323,0.00000306,0.00000290,-0.00000314,0.00000166,0.00000328
 ,0.00000092,0.00000040,0.00000192,0.00000013,0.00000391,-0.00002096,-0
 .00000643,0.00004051,0.00008517,0.00006096,-0.00004217,-0.00000505,-0.
 00000663,0.00001478,-0.00168167,-0.00107040,-0.00121699,-0.00106642,0.
 00070626,0.00026933,0.00002008,-0.00059679,0.00123744,0.05927833,-0.28
 890609,0.05294015,-0.00142947,-0.00127957,-0.00188437,-0.00001780,0.00
 002545,-0.00001903,0.00012519,-0.00029379,-0.00023406,0.00392921,-0.01
 331918,0.00382263,0.00061925,-0.00526494,0.00207171,-0.06602636,0.3103
 2619,-0.00004144,-0.00001807,0.00001471,0.00002653,0.00000243,-0.00001
 888,0.00000116,0.00000051,0.00000280,0.00000583,-0.00000303,-0.0000063
 7,-0.00000613,0.00000343,0.00000080,0.00001527,-0.00000223,0.00001234,
 0.00019202,-0.00006705,-0.00031962,0.00002078,0.00001292,-0.00000917,-
 0.00000047,-0.00000233,0.00000017,0.00000192,-0.00000053,0.00000011,0.
 00000079,0.00000195,-0.00000117,-0.00000038,-0.00000028,0.00000049,-0.
 00002319,-0.00000426,0.00002127,0.00001983,0.00000962,-0.00005444,-0.0
 0005666,0.00001137,0.00001562,-0.00057359,0.00105290,0.00175548,0.0010
 1609,-0.00047374,-0.00086706,0.00097195,-0.00120191,-0.00043664,-0.012
 61180,0.05613163,-0.06052156,-0.00061286,-0.00238566,-0.00164138,0.000
 01774,-0.00015688,-0.00016476,0.00018802,-0.00039250,-0.00032243,0.004
 77441,-0.01596578,0.00233948,-0.00722970,0.03109887,-0.00743435,0.0096
 6018,-0.05325679,0.06395351,0.00000134,-0.00003722,-0.00001976,0.00004
 524,-0.00000860,-0.00006750,-0.00000144,-0.00000398,-0.00000726,-0.000
 00938,0.00000411,0.00000585,-0.00000819,-0.00000055,-0.00000255,0.0000
 0478,-0.00000630,-0.00000085,0.00014883,0.00010091,0.00007719,-0.00006
 089,0.00014976,0.00001475,0.00000446,-0.00000100,0.00000426,-0.0000045
 6,-0.00000111,0.00000175,-0.00000341,-0.00000151,0.00000008,-0.0000034
 6,-0.00000548,-0.00000071,0.00013543,-0.00009639,-0.00000608,-0.000074
 09,-0.00007411,-0.00008329,-0.00001514,-0.00000332,0.00001509,0.000001
 50,-0.00002834,-0.00004315,0.00004805,-0.00021522,-0.00016675,-0.00285
 970,-0.01682564,0.02829212,0.00011396,-0.00072337,-0.00019517,-0.04499
 492,0.00292155,-0.00872940,-0.00463490,-0.00356255,0.00047743,0.001504
 35,0.00068728,0.00031847,-0.00330260,0.01345999,-0.02045065,0.00046985
 ,-0.00001092,0.00030801,-0.00006529,-0.00016136,0.00014325,0.05512348,
 0.00000388,-0.00002170,-0.00001099,0.00003433,-0.00000387,-0.00002866,
 -0.00000727,-0.00000155,0.00000072,0.00000056,0.00000552,0.00000358,-0
 .00000262,-0.00000298,-0.00000549,-0.00000438,0.00000017,-0.00000384,0
 .00003435,0.00003793,0.00006290,-0.00004214,0.00003482,0.00001031,0.00
 000244,-0.00000116,0.00000058,-0.00000136,-0.00000063,0.00000094,-0.00
 000152,-0.00000153,0.00000068,-0.00000188,-0.00000433,0.00000037,0.000
 03389,-0.00003624,-0.00002046,-0.00005659,-0.00004955,-0.00004407,-0.0
 0001114,-0.00000780,0.00001731,-0.00010456,-0.00009373,-0.00002052,-0.
 00002983,-0.00004645,-0.00012818,0.00037348,-0.00663887,0.01128675,-0.
 00006078,0.00044030,0.00089827,0.00217020,-0.12420710,0.11341833,-0.00
 157253,-0.00030335,-0.00007955,0.00025571,0.00094044,-0.00061136,0.002
 18148,-0.01322964,0.02110443,-0.00004488,-0.00034392,-0.00058829,0.000
 10115,0.00015968,-0.00040904,-0.00500948,0.13288388,0.00001461,0.00003
 524,0.00001576,-0.00000830,0.00000177,0.00001184,-0.00001730,0.0000064
 8,0.00001840,0.00002220,0.00001031,0.00000923,0.00002552,-0.00000712,-
 0.00000963,-0.00001862,-0.00001024,-0.00000061,-0.00000075,-0.00006338
 ,-0.00005089,0.00003291,-0.00004192,-0.00000160,-0.00000398,0.00000069
 ,-0.00000773,0.00000639,0.00000166,-0.00000360,0.00000494,0.00000242,-
 0.00000124,0.00000111,0.00000605,0.00000118,-0.00004719,0.00005175,0.0
 0001380,0.00005498,0.00001184,0.00001643,-0.00001695,0.00000195,-0.000
 01236,-0.00032149,-0.00015036,-0.00027382,0.00007895,0.00023928,0.0002
 1902,0.00108514,0.00149778,-0.00476515,0.00017740,0.00018598,0.0003607
 7,-0.00709063,0.11441741,-0.23179309,0.00107044,0.00046462,0.00147967,
 0.00035142,-0.00041581,0.00100880,-0.00089829,-0.00226419,0.00346753,0
 .00012523,0.00017849,0.00012850,0.00005111,0.00008306,0.00007388,0.006
 02221,-0.12706193,0.24755611,-0.00003044,-0.00002630,-0.00002015,-0.00
 002508,0.00001219,0.00006541,0.00003076,-0.00002577,-0.00003177,-0.000
 03195,-0.00002090,-0.00001529,-0.00003938,0.00001015,0.00001872,0.0000
 3037,0.00002288,0.00001173,-0.00011379,0.00009601,0.00001973,-0.000010
 26,-0.00009926,-0.00006415,-0.00000384,0.00000608,0.00000899,-0.000008
 00,-0.00000055,0.00000146,-0.00000429,0.,0.00000138,0.00000032,-0.0000
 0278,-0.00000268,0.00000135,0.00000284,-0.00003877,-0.00001630,0.00005
 783,0.00007568,0.00004927,0.00000399,-0.00000790,0.00196818,-0.0001077
 1,0.00031738,-0.00023673,-0.00079691,-0.00070761,-0.00391223,-0.015405
 34,-0.02203175,-0.00432261,0.00335993,0.00009320,-0.06340057,-0.039128
 62,-0.04850884,0.00172168,0.00026723,0.00032604,-0.00092820,0.00004074
 ,-0.00004621,0.00728278,0.01303867,0.01783252,0.00003871,-0.00005892,-
 0.00008255,0.00096007,0.00056858,0.00042422,-0.00034846,-0.00025199,-0
 .00071254,0.06646484,-0.00003560,-0.00001515,-0.00002092,-0.00006980,0
 .00001742,0.00006046,0.00004578,-0.00002316,-0.00003258,-0.00004110,-0
 .00003368,-0.00001980,-0.00004579,0.00001726,0.00002587,0.00003729,0.0
 0002055,0.00001581,-0.00019759,0.00000933,0.00001981,0.00000601,-0.000
 07385,-0.00004010,-0.00000265,0.00000882,0.00000610,-0.00000928,0.0000
 0042,0.00000182,-0.00000616,-0.00000016,0.00000088,0.00000135,-0.00000
 298,-0.00000332,-0.00001305,0.00000986,-0.00002854,-0.00003349,0.00010
 274,0.00008889,0.00008123,0.00000251,-0.00000776,0.00115820,0.00008346
 ,0.00012333,-0.00060016,-0.00050905,-0.00038323,-0.00065861,-0.0067409
 1,-0.00877821,0.00268531,-0.00335650,0.00021192,-0.03965686,-0.1400975
 4,-0.11824620,0.00026036,0.00043783,0.00027344,-0.00040134,-0.00026900
 ,0.00009841,-0.00714260,-0.01296107,-0.01609607,-0.00005580,-0.0001728
 3,-0.00026926,-0.00064376,-0.00052645,-0.00073324,0.00462339,0.0117245
 6,0.01332040,0.04292258,0.15354876,-0.00001285,-0.00002064,-0.00001398
 ,-0.00001721,0.00001001,0.00000741,0.00002774,-0.00001466,-0.00002119,
 -0.00002371,-0.00001638,-0.00001142,-0.00002633,0.00000838,0.00001374,
 0.00002178,0.00001267,0.00000709,-0.00009908,0.00001627,0.00003442,-0.
 00001596,-0.00001234,-0.00002621,0.00000005,0.00000345,0.00000651,-0.0
 0000673,-0.00000042,0.00000225,-0.00000417,-0.00000074,0.00000024,0.00
 000036,-0.00000217,-0.00000213,0.00001024,-0.00002935,-0.00000836,-0.0
 0001138,0.00002932,0.00003108,0.00002053,0.00000793,-0.00000341,0.0000
 8176,0.00054844,0.00041125,0.00004763,0.00010797,0.00006148,0.00177747
 ,0.00501204,0.00400629,0.00115456,0.00015199,0.00105084,-0.05027748,-0
 .12205083,-0.20391105,-0.00034828,-0.00000480,0.00106124,-0.00007818,-
 0.00037643,0.00003185,-0.00051026,0.00044108,-0.00138543,0.00004040,0.
 00031306,0.00016182,-0.00023981,-0.00000481,0.00003762,-0.00656002,-0.
 01618867,-0.02044343,0.05316430,0.13086465,0.21689109,-0.00005630,-0.0
 0006742,-0.00004210,-0.00000114,-0.00000599,0.00002013,0.00004339,-0.0
 0001780,-0.00003074,-0.00004277,-0.00003209,-0.00002023,-0.00005630,0.
 00001443,0.00002434,0.00004018,0.00003015,0.00000790,-0.00017153,-0.00
 013199,-0.00003500,0.00000384,-0.00004194,-0.00002230,0.00000430,0.000
 00567,0.00000535,-0.00001178,0.00000042,0.00000363,-0.00001046,-0.0000
 0305,0.00000180,-0.00000242,-0.00000864,-0.00000646,0.00003205,-0.0000
 1179,-0.00006009,-0.00012782,0.00000419,0.00006618,0.00003164,0.000015
 15,0.00001589,0.00002264,0.00126923,0.00062057,0.00002133,-0.00048090,
 -0.00038317,-0.00171012,0.00253881,-0.00037847,-0.01061545,-0.00140270
 ,0.00795864,-0.01375427,-0.00542091,0.00699935,-0.00010113,-0.00003680
 ,0.00015375,-0.00068447,-0.00049739,0.00023985,-0.23421494,-0.05867724
 ,0.10399221,0.00068829,0.00042806,-0.00033547,-0.00043862,-0.00040219,
 -0.00034983,0.00074869,-0.00022871,-0.00047513,-0.00015399,0.00035458,
 0.00017290,0.25519811,-0.00003405,-0.00001913,-0.00000535,-0.00009243,
 0.00005776,0.00002691,0.00003580,-0.00001143,-0.00001460,-0.00002313,-
 0.00002614,-0.00001868,-0.00002824,0.00001263,0.00001783,0.00001858,0.
 00002411,0.00001542,-0.00019931,-0.00032394,-0.00015125,0.00008687,-0.
 00003080,-0.00010631,-0.00000200,0.00000239,0.00000328,-0.00000273,0.0
 0000004,0.00000117,-0.00000297,-0.00000010,0.00000193,0.00000262,-0.00
 000106,-0.00000108,-0.00001220,0.00002257,0.00008291,-0.00006804,0.000
 11463,0.00013313,0.00004295,0.00000800,0.00000258,-0.00029978,0.001121
 82,0.00047058,-0.00004237,-0.00006404,-0.00008351,0.00328424,-0.004942
 62,-0.00073647,-0.01647932,-0.00393620,0.01210358,0.02287384,0.0085248
 8,-0.01226045,0.00007600,0.00005752,-0.00000333,0.00102540,0.00086388,
 -0.00004121,-0.05937918,-0.06486987,0.03287936,0.00057792,0.00142291,-
 0.00002723,-0.00015490,-0.00074127,-0.00020785,-0.00091414,0.00146394,
 0.00023255,-0.00033532,-0.00002519,-0.00033753,0.06282258,0.06813895,-
 0.00002946,-0.00002007,-0.00000849,-0.00003040,0.00001145,0.00000984,0
 .00000374,-0.00000100,-0.00000226,-0.00000352,-0.00000410,-0.00000076,
 -0.00000451,0.00000132,0.00000197,-0.00000181,0.00000951,0.00000520,-0
 .00012005,-0.00031216,-0.00020841,0.00000221,0.00000306,-0.00002005,-0
 .00000295,0.00000143,0.00000104,0.00000101,-0.00000035,-0.00000062,0.0
 0000035,0.00000106,0.00000125,0.00000069,0.00000036,0.00000058,-0.0000
 0666,0.00000741,0.00001918,-0.00008466,0.00005143,0.00007276,0.0000051
 7,0.00000204,0.00000223,-0.00097746,0.00063017,0.00056290,0.00014828,0
 .00003615,-0.00005806,-0.00068304,-0.00187647,0.00020218,-0.01486900,-
 0.00293622,0.00830942,0.00171615,0.00143136,-0.00230162,-0.00039715,0.
 00000295,0.00012206,0.00012430,0.00029017,0.00020013,0.10808243,0.0334
 4600,-0.10850347,0.00013840,0.00058512,0.00101155,0.00019270,-0.000412
 24,-0.00001912,-0.00049779,-0.00025546,0.00094806,0.00024200,-0.000101
 93,-0.00023803,-0.11378208,-0.03517130,0.11410981,0.00000238,0.0000149
 5,-0.00001460,-0.00001249,-0.00000572,0.00001561,-0.00000087,-0.000002
 61,0.00000440,0.00000125,0.00000112,0.00000195,0.00000439,-0.00000183,
 0.00000021,-0.00000495,-0.00000240,0.00000267,-0.00000520,-0.00007907,
 -0.00002160,-0.00001462,-0.00000468,0.00002201,-0.00000223,0.00000248,
 -0.00000143,0.00000096,0.00000090,-0.00000140,0.00000091,0.00000098,-0
 .00000037,0.00000069,0.00000228,-0.00000023,-0.00001271,0.00001867,-0.
 00001312,-0.00001267,0.00002068,0.00002792,0.00000876,0.00000437,-0.00
 001179,-0.00023140,-0.00046056,-0.00009920,-0.00016038,0.00014617,0.00
 020549,0.00069408,0.00007034,-0.00079281,-0.00358740,0.00621480,-0.015
 15932,-0.00446192,0.00809589,-0.01770689,-0.00037297,-0.00002445,0.000
 32629,0.00006925,-0.00001836,0.00036692,-0.06527900,0.02108541,-0.0506
 0468,-0.00101506,-0.00147516,-0.00113599,0.00089804,0.00029195,0.00061
 524,-0.00206331,0.00258449,0.00037688,0.00110875,-0.00057016,0.0002750
 0,0.00762004,-0.01049332,0.02454800,0.06626380,-0.00000680,0.00000601,
 0.00000034,-0.00002666,0.00000708,0.00001101,0.00000626,0.00000352,-0.
 00000480,-0.00000519,-0.00000650,-0.00000407,-0.00000540,0.00000561,0.
 00000339,0.00000540,0.00000050,0.00000350,-0.00001198,-0.00003695,-0.0
 0003313,0.00001324,0.00001098,-0.00002181,-0.00000015,-0.00000121,0.00
 000234,0.00000029,-0.00000057,0.00000066,0.00000007,-0.00000007,0.0000
 0059,0.00000086,0.00000031,-0.00000002,-0.00000292,0.00000093,0.000028
 92,-0.00000683,0.00002961,0.00001473,0.00001401,0.00000084,-0.00000228
 ,-0.00014875,-0.00025824,-0.00005339,-0.00009000,0.00006343,0.00029368
 ,-0.00069877,0.00026734,0.00009484,-0.00580204,0.00739001,-0.02421914,
 0.00621968,-0.01382728,0.02451655,0.00038676,0.00047969,-0.00027213,-0
 .00009824,0.00006096,-0.00028874,0.02165764,-0.08252447,0.08945574,-0.
 00335267,-0.00218176,-0.00243309,0.00083137,0.00133876,-0.00000466,0.0
 0447056,-0.00324382,-0.00109786,-0.00106999,0.00092033,0.00004800,0.00
 188220,-0.00336000,0.00728860,-0.02519247,0.09472579,-0.00003221,-0.00
 001722,-0.00001781,-0.00003758,0.00001438,0.00002270,0.00003156,-0.000
 01358,-0.00001682,-0.00002746,-0.00002467,-0.00001314,-0.00003203,0.00
 001107,0.00002105,0.00002909,0.00001316,0.00000981,-0.00010360,-0.0000
 4163,-0.00000801,0.00000582,-0.00003535,-0.00000391,0.00000029,0.00000
 617,0.00000133,-0.00000640,0.00000128,0.00000052,-0.00000504,0.0000002
 9,-0.00000046,0.00000017,-0.00000066,-0.00000505,0.00000158,0.00001093
 ,-0.00001694,-0.00003203,0.00003916,0.00005993,0.00003531,0.00001664,-
 0.00001219,0.00008083,0.00011974,-0.00009900,-0.00019893,-0.00010183,0
 .00019209,-0.00037691,-0.00006880,-0.00003099,-0.00295831,0.00483981,-
 0.01740868,0.00151979,-0.00175446,0.00500537,-0.00027091,0.00005357,0.
 00007678,-0.00014112,-0.00004594,0.00008012,-0.05155765,0.08835140,-0.
 25264814,-0.00252516,-0.00242320,-0.00003829,0.00049712,-0.00028390,0.
 00118866,0.00104947,-0.00112199,0.00144839,-0.00038106,0.00040040,0.00
 114946,-0.00325324,0.00569645,-0.01348169,0.05866822,-0.09336527,0.274
 18280,-0.00209284,-0.00099231,-0.00041125,-0.00303849,0.00019075,0.000
 20592,0.00158013,-0.00036737,-0.00078203,-0.00100674,-0.00113862,-0.00
 077925,-0.00129277,0.00042504,0.00069205,0.00071270,0.00083256,0.00059
 106,-0.03702937,-0.02264834,-0.00769260,0.00368705,-0.00181255,-0.0020
 9883,-0.00002998,0.00016431,0.00013997,-0.00019022,0.00000662,0.000067
 31,-0.00017754,-0.00000306,0.00004427,0.00000901,-0.00011684,-0.000111
 35,-0.00038515,0.00044483,0.00084279,-0.00260912,0.00449109,0.00447520
 ,0.00141334,0.00019370,0.00006902,-0.24678929,-0.08649818,-0.02822220,
 0.01893877,-0.02600740,-0.01672466,-0.10074884,0.01732499,0.01757469,-
 0.15467491,0.00908988,0.03345931,-0.00529561,-0.02587927,-0.01727379,0
 .00189976,0.00458434,0.00108925,0.00110154,0.01978457,0.01758563,-0.03
 933583,-0.01107579,0.00334257,-0.01851762,0.00139327,0.01292672,-0.018
 41265,0.00562789,0.00341084,0.00009979,-0.00034431,0.00010972,-0.00607
 097,-0.00199228,0.00143672,-0.00230099,-0.00228338,-0.00371486,0.00056
 388,0.00103052,0.00002040,0.60999296,0.00025512,0.00105618,0.00061396,
 -0.00148624,-0.00002351,0.00058129,0.00071058,-0.00026773,-0.00030272,
 -0.00041119,-0.00047885,-0.00037940,-0.00043601,0.00017593,0.00029159,
 0.00036692,-0.00006432,0.00020931,-0.01124941,0.00961759,0.00426591,0.
 00108962,-0.00238131,-0.00234058,-0.00004746,0.00008723,0.00010348,-0.
 00009374,0.00001229,0.00002413,-0.00004131,0.00001265,-0.00002647,0.00
 002416,-0.00003045,-0.00002762,-0.00042954,0.00018133,0.00015286,0.003
 32168,0.00301108,0.00016335,0.00274274,-0.00033531,-0.00068044,-0.0863
 5492,-0.16595456,-0.06266980,-0.03402917,-0.06155649,-0.05143782,0.005
 58976,-0.13731668,-0.05467242,0.01582299,-0.09078601,-0.02244063,-0.01
 613920,-0.02930253,-0.01670355,0.00073209,-0.00424192,-0.01435985,0.00
 150289,-0.02260913,-0.01346880,-0.01943536,-0.00209252,0.00470942,-0.0
 0346749,0.00286890,-0.00183802,0.02981609,-0.00042374,-0.01303980,0.00
 127301,0.00054697,0.00036311,-0.00307933,-0.00209630,0.00148448,-0.001
 89792,-0.00348427,-0.00270827,-0.00022470,0.00012915,-0.00027594,0.115
 57534,0.50574632,0.00066517,0.00075101,0.00093444,-0.00091966,0.000286
 38,0.00006341,0.00028532,-0.00005783,-0.00019387,-0.00015284,-0.000195
 03,-0.00013453,-0.00006665,0.00012341,0.00010167,0.00006221,0.00010525
 ,-0.00028049,0.00132797,0.00625815,0.01212451,0.00030483,-0.00173471,-
 0.00049104,-0.00003445,0.00004509,0.00004039,-0.00002949,-0.00000218,0
 .00001223,0.00001390,-0.00002921,0.00001449,0.00002199,0.00000491,0.00
 000716,-0.00040397,-0.00004588,-0.00009902,0.00335380,-0.00019731,0.00
 086361,0.00166668,-0.00028144,-0.00040680,-0.02396775,-0.05759570,-0.0
 8804509,-0.02295174,-0.05405708,-0.01393779,0.01274601,-0.05956704,-0.
 09379776,0.03232854,-0.02249243,-0.08364724,-0.00800981,-0.00524403,0.
 00010816,0.00330665,-0.03565065,-0.01523862,0.00288623,-0.00045878,0.0
 0597486,-0.01401373,0.00145475,0.00575581,0.03491615,-0.00876732,-0.00
 354037,-0.00221072,-0.00361987,0.00240003,0.00010101,-0.00022667,0.000
 58578,0.00004852,-0.00075102,0.00109896,-0.00110817,-0.00250154,-0.000
 73757,0.00010664,0.00003753,0.00036212,-0.02027262,0.24440924,0.270102
 55\\0.00002248,0.00000041,0.00001891,0.00001004,-0.00000311,-0.0000279
 0,-0.00000950,-0.00000360,-0.00000198,0.00000553,0.00000898,0.00001095
 ,0.00000685,-0.00000953,-0.00001309,-0.00001017,-0.00000312,0.00000089
 ,-0.00001598,0.00000866,-0.00000157,0.00000608,-0.00000993,0.00001801,
 0.00000355,-0.00000660,0.00000627,-0.00000054,-0.00000796,0.00000147,-
 0.00000263,0.00000187,-0.00000242,0.00000187,0.00000600,-0.00000797,0.
 00000767,-0.00000054,0.00000637,-0.00000093,0.00000559,-0.00001059,0.0
 0000040,0.00000611,-0.00001040,0.00003656,0.00003776,-0.00001026,-0.00
 002412,-0.00002708,-0.00000791,0.00000785,0.00001530,0.00001971,0.0000
 2986,0.00000876,-0.00003103,0.00001221,0.00000461,0.00000208,-0.000000
 10,-0.00000735,0.00000228,-0.00000257,-0.00000859,0.00000158,-0.000023
 77,-0.00000679,0.00001209,-0.00001512,0.00000404,0.00000912,-0.0000054
 1,0.00000243,0.00000563,-0.00000119,-0.00000215,0.00000555,-0.00000017
 ,-0.00000637,0.00000765,-0.00000125,0.00000944,0.00000511,0.00000522,-
 0.00000315,-0.00000159,-0.00004272,-0.00001408,-0.00000695\\\@


 A politician is a person who can make waves and then
 make you think he's the only one who can save the ship.
 -- Ivern Ball
 Job cpu time:       0 days  4 hours 19 minutes 10.4 seconds.
 File lengths (MBytes):  RWF=    595 Int=      0 D2E=      0 Chk=     15 Scr=      1
 Normal termination of Gaussian 09 at Fri Jan 13 15:07:23 2023.
