 Entering Gaussian System, Link 0=g09
 Initial command:
 /cm/shared/apps/gaussian/g09revD.01/g09/l1.exe "//home/sweav003/CHB/validation/G09-substitutedquinolines4_Marder.com.o9822895.tmp/Gau-90088.inp" -scrdir="//home/sweav003/CHB/validation/G09-substitutedquinolines4_Marder.com.o9822895.tmp/"
 Entering Link 1 = /cm/shared/apps/gaussian/g09revD.01/g09/l1.exe PID=     90089.
  
 Copyright (c) 1988,1990,1992,1993,1995,1998,2003,2009,2013,
            Gaussian, Inc.  All Rights Reserved.
  
 This is part of the Gaussian(R) 09 program.  It is based on
 the Gaussian(R) 03 system (copyright 2003, Gaussian, Inc.),
 the Gaussian(R) 98 system (copyright 1998, Gaussian, Inc.),
 the Gaussian(R) 94 system (copyright 1995, Gaussian, Inc.),
 the Gaussian 92(TM) system (copyright 1992, Gaussian, Inc.),
 the Gaussian 90(TM) system (copyright 1990, Gaussian, Inc.),
 the Gaussian 88(TM) system (copyright 1988, Gaussian, Inc.),
 the Gaussian 86(TM) system (copyright 1986, Carnegie Mellon
 University), and the Gaussian 82(TM) system (copyright 1983,
 Carnegie Mellon University). Gaussian is a federally registered
 trademark of Gaussian, Inc.
  
 This software contains proprietary and confidential information,
 including trade secrets, belonging to Gaussian, Inc.
  
 This software is provided under written license and may be
 used, copied, transmitted, or stored only in accord with that
 written license.
  
 The following legend is applicable only to US Government
 contracts under FAR:
  
                    RESTRICTED RIGHTS LEGEND
  
 Use, reproduction and disclosure by the US Government is
 subject to restrictions as set forth in subparagraphs (a)
 and (c) of the Commercial Computer Software - Restricted
 Rights clause in FAR 52.227-19.
  
 Gaussian, Inc.
 340 Quinnipiac St., Bldg. 40, Wallingford CT 06492
  
  
 ---------------------------------------------------------------
 Warning -- This program may not be used in any manner that
 competes with the business of Gaussian, Inc. or will provide
 assistance to any competitor of Gaussian, Inc.  The licensee
 of this program is prohibited from giving any competitor of
 Gaussian, Inc. access to this program.  By using this program,
 the user acknowledges that Gaussian, Inc. is engaged in the
 business of creating and licensing software in the field of
 computational chemistry and represents and warrants to the
 licensee that it is not a competitor of Gaussian, Inc. and that
 it will not use this program in any manner prohibited above.
 ---------------------------------------------------------------
  

 Cite this work as:
 Gaussian 09, Revision D.01,
 M. J. Frisch, G. W. Trucks, H. B. Schlegel, G. E. Scuseria, 
 M. A. Robb, J. R. Cheeseman, G. Scalmani, V. Barone, B. Mennucci, 
 G. A. Petersson, H. Nakatsuji, M. Caricato, X. Li, H. P. Hratchian, 
 A. F. Izmaylov, J. Bloino, G. Zheng, J. L. Sonnenberg, M. Hada, 
 M. Ehara, K. Toyota, R. Fukuda, J. Hasegawa, M. Ishida, T. Nakajima, 
 Y. Honda, O. Kitao, H. Nakai, T. Vreven, J. A. Montgomery, Jr., 
 J. E. Peralta, F. Ogliaro, M. Bearpark, J. J. Heyd, E. Brothers, 
 K. N. Kudin, V. N. Staroverov, T. Keith, R. Kobayashi, J. Normand, 
 K. Raghavachari, A. Rendell, J. C. Burant, S. S. Iyengar, J. Tomasi, 
 M. Cossi, N. Rega, J. M. Millam, M. Klene, J. E. Knox, J. B. Cross, 
 V. Bakken, C. Adamo, J. Jaramillo, R. Gomperts, R. E. Stratmann, 
 O. Yazyev, A. J. Austin, R. Cammi, C. Pomelli, J. W. Ochterski, 
 R. L. Martin, K. Morokuma, V. G. Zakrzewski, G. A. Voth, 
 P. Salvador, J. J. Dannenberg, S. Dapprich, A. D. Daniels, 
 O. Farkas, J. B. Foresman, J. V. Ortiz, J. Cioslowski, 
 and D. J. Fox, Gaussian, Inc., Wallingford CT, 2013.
 
 ******************************************
 Gaussian 09:  ES64L-G09RevD.01 24-Apr-2013
                 9-Jan-2023 
 ******************************************
 %nprocshared=20
 Will use up to   20 processors via shared memory.
 %mem=4GB
 %chk=substitutedquinolines4_Marder.chk
 ----------------------------------------------------------------------
 # opt freq b3lyp/6-311+g(d,p) geom=connectivity pop=(hirshfeld,chelpg,
 mbs,npa)
 ----------------------------------------------------------------------
 1/14=-1,18=20,19=15,26=3,38=1,57=2/1,3;
 2/9=110,12=2,17=6,18=5,40=1/2;
 3/5=4,6=6,7=111,11=2,16=1,25=1,30=1,71=1,74=-5/1,2,3;
 4//1;
 5/5=2,38=5/2;
 6/7=2,8=2,9=2,10=2,15=8,20=3,27=100,28=1,40=-1,79=1/1,2,7;
 7//1,2,3,16;
 1/14=-1,18=20,19=15,26=3/3(2);
 2/9=110/2;
 99//99;
 2/9=110/2;
 3/5=4,6=6,7=111,11=2,16=1,25=1,30=1,71=1,74=-5/1,2,3;
 4/5=5,16=3,69=1/1;
 5/5=2,38=5/2;
 7//1,2,3,16;
 1/14=-1,18=20,19=15,26=3/3(-5);
 2/9=110/2;
 6/7=2,8=2,9=2,10=2,15=8,19=2,20=3,27=100,28=1,40=-1,79=1/1,2,7;
 99/9=1/99;
 -------------------
 Title Card Required
 -------------------
 Symbolic Z-matrix:
 Charge =  0 Multiplicity = 1
 C                    -1.67194  -0.88517   0.00026 
 C                    -0.48306  -1.57157   0.00026 
 C                     0.75471  -0.87155   0.00026 
 C                     0.74495   0.54728   0.00063 
 C                    -0.50072   1.23255   0.00079 
 C                    -1.68124   0.53083   0.0005 
 H                    -2.63072  -1.42437   0.00018 
 H                    -0.4661   -2.67177   0.00004 
 C                     1.98324   1.24655   0.00075 
 H                    -0.49741   2.33275   0.00087 
 C                     3.1722    0.56018   0.00048 
 C                     3.18134  -0.85602   0.00002 
 H                     1.96667   2.34677   0.00101 
 H                     4.13094   1.09938   0.0003 
 N                     2.00074  -1.55683   0. 
 C                     4.53316  -1.59371  -0.00024 
 N                     5.53965  -2.14295  -0.00043 
 O                    -2.93644   1.21593   0.00063 
 C                    -3.60676   0.98442  -1.24114 
 H                    -4.00104  -0.0102   -1.2536 
 H                    -4.40664   1.68658  -1.351 
 H                    -2.91415   1.10367  -2.04797 
 

 GradGradGradGradGradGradGradGradGradGradGradGradGradGradGradGradGradGrad
 Berny optimization.
 Initialization pass.
                           ----------------------------
                           !    Initial Parameters    !
                           ! (Angstroms and Degrees)  !
 --------------------------                            --------------------------
 ! Name  Definition              Value          Derivative Info.                !
 --------------------------------------------------------------------------------
 ! R1    R(1,2)                  1.3728         estimate D2E/DX2                !
 ! R2    R(1,6)                  1.416          estimate D2E/DX2                !
 ! R3    R(1,7)                  1.1            estimate D2E/DX2                !
 ! R4    R(2,3)                  1.422          estimate D2E/DX2                !
 ! R5    R(2,8)                  1.1003         estimate D2E/DX2                !
 ! R6    R(3,4)                  1.4189         estimate D2E/DX2                !
 ! R7    R(3,15)                 1.422          estimate D2E/DX2                !
 ! R8    R(4,5)                  1.4217         estimate D2E/DX2                !
 ! R9    R(4,9)                  1.4221         estimate D2E/DX2                !
 ! R10   R(5,6)                  1.3733         estimate D2E/DX2                !
 ! R11   R(5,10)                 1.1002         estimate D2E/DX2                !
 ! R12   R(6,18)                 1.43           estimate D2E/DX2                !
 ! R13   R(9,11)                 1.3729         estimate D2E/DX2                !
 ! R14   R(9,13)                 1.1003         estimate D2E/DX2                !
 ! R15   R(11,12)                1.4162         estimate D2E/DX2                !
 ! R16   R(11,14)                1.1            estimate D2E/DX2                !
 ! R17   R(12,15)                1.3729         estimate D2E/DX2                !
 ! R18   R(12,16)                1.54           estimate D2E/DX2                !
 ! R19   R(16,17)                1.1466         estimate D2E/DX2                !
 ! R20   R(18,19)                1.43           estimate D2E/DX2                !
 ! R21   R(19,20)                1.07           estimate D2E/DX2                !
 ! R22   R(19,21)                1.07           estimate D2E/DX2                !
 ! R23   R(19,22)                1.07           estimate D2E/DX2                !
 ! A1    A(2,1,6)              120.3763         estimate D2E/DX2                !
 ! A2    A(2,1,7)              120.6477         estimate D2E/DX2                !
 ! A3    A(6,1,7)              118.976          estimate D2E/DX2                !
 ! A4    A(1,2,3)              120.5099         estimate D2E/DX2                !
 ! A5    A(1,2,8)              120.8832         estimate D2E/DX2                !
 ! A6    A(3,2,8)              118.6069         estimate D2E/DX2                !
 ! A7    A(2,3,4)              119.0959         estimate D2E/DX2                !
 ! A8    A(2,3,15)             121.7004         estimate D2E/DX2                !
 ! A9    A(4,3,15)             119.2037         estimate D2E/DX2                !
 ! A10   A(3,4,5)              119.2103         estimate D2E/DX2                !
 ! A11   A(3,4,9)              119.0596         estimate D2E/DX2                !
 ! A12   A(5,4,9)              121.73           estimate D2E/DX2                !
 ! A13   A(4,5,6)              120.4559         estimate D2E/DX2                !
 ! A14   A(4,5,10)             118.6441         estimate D2E/DX2                !
 ! A15   A(6,5,10)             120.8999         estimate D2E/DX2                !
 ! A16   A(1,6,5)              120.3516         estimate D2E/DX2                !
 ! A17   A(1,6,18)             119.0027         estimate D2E/DX2                !
 ! A18   A(5,6,18)             120.6457         estimate D2E/DX2                !
 ! A19   A(4,9,11)             120.5491         estimate D2E/DX2                !
 ! A20   A(4,9,13)             118.5913         estimate D2E/DX2                !
 ! A21   A(11,9,13)            120.8596         estimate D2E/DX2                !
 ! A22   A(9,11,12)            120.3669         estimate D2E/DX2                !
 ! A23   A(9,11,14)            120.6492         estimate D2E/DX2                !
 ! A24   A(12,11,14)           118.9839         estimate D2E/DX2                !
 ! A25   A(11,12,15)           120.3239         estimate D2E/DX2                !
 ! A26   A(11,12,16)           118.991          estimate D2E/DX2                !
 ! A27   A(15,12,16)           120.685          estimate D2E/DX2                !
 ! A28   A(3,15,12)            120.4968         estimate D2E/DX2                !
 ! A29   A(6,18,19)            109.5            estimate D2E/DX2                !
 ! A30   A(18,19,20)           109.4712         estimate D2E/DX2                !
 ! A31   A(18,19,21)           109.4712         estimate D2E/DX2                !
 ! A32   A(18,19,22)           109.4712         estimate D2E/DX2                !
 ! A33   A(20,19,21)           109.4713         estimate D2E/DX2                !
 ! A34   A(20,19,22)           109.4712         estimate D2E/DX2                !
 ! A35   A(21,19,22)           109.4712         estimate D2E/DX2                !
 ! A36   L(12,16,17,14,-1)     180.0            estimate D2E/DX2                !
 ! A37   L(12,16,17,14,-2)     180.0            estimate D2E/DX2                !
 ! D1    D(6,1,2,3)             -0.011          estimate D2E/DX2                !
 ! D2    D(6,1,2,8)           -179.9971         estimate D2E/DX2                !
 ! D3    D(7,1,2,3)            179.9952         estimate D2E/DX2                !
 ! D4    D(7,1,2,8)              0.009          estimate D2E/DX2                !
 ! D5    D(2,1,6,5)             -0.0029         estimate D2E/DX2                !
 ! D6    D(2,1,6,18)          -179.9936         estimate D2E/DX2                !
 ! D7    D(7,1,6,5)            179.991          estimate D2E/DX2                !
 ! D8    D(7,1,6,18)             0.0003         estimate D2E/DX2                !
 ! D9    D(1,2,3,4)              0.0171         estimate D2E/DX2                !
 ! D10   D(1,2,3,15)          -179.9875         estimate D2E/DX2                !
 ! D11   D(8,2,3,4)           -179.9964         estimate D2E/DX2                !
 ! D12   D(8,2,3,15)            -0.0011         estimate D2E/DX2                !
 ! D13   D(2,3,4,5)             -0.0096         estimate D2E/DX2                !
 ! D14   D(2,3,4,9)            179.9947         estimate D2E/DX2                !
 ! D15   D(15,3,4,5)           179.995          estimate D2E/DX2                !
 ! D16   D(15,3,4,9)            -0.0008         estimate D2E/DX2                !
 ! D17   D(2,3,15,12)         -179.9995         estimate D2E/DX2                !
 ! D18   D(4,3,15,12)           -0.0042         estimate D2E/DX2                !
 ! D19   D(3,4,5,6)             -0.004          estimate D2E/DX2                !
 ! D20   D(3,4,5,10)          -179.9878         estimate D2E/DX2                !
 ! D21   D(9,4,5,6)            179.9916         estimate D2E/DX2                !
 ! D22   D(9,4,5,10)             0.0078         estimate D2E/DX2                !
 ! D23   D(3,4,9,11)             0.0014         estimate D2E/DX2                !
 ! D24   D(3,4,9,13)           179.9984         estimate D2E/DX2                !
 ! D25   D(5,4,9,11)          -179.9942         estimate D2E/DX2                !
 ! D26   D(5,4,9,13)             0.0027         estimate D2E/DX2                !
 ! D27   D(4,5,6,1)              0.0104         estimate D2E/DX2                !
 ! D28   D(4,5,6,18)          -179.999          estimate D2E/DX2                !
 ! D29   D(10,5,6,1)           179.9938         estimate D2E/DX2                !
 ! D30   D(10,5,6,18)           -0.0156         estimate D2E/DX2                !
 ! D31   D(1,6,18,19)          -67.1002         estimate D2E/DX2                !
 ! D32   D(5,6,18,19)          112.9092         estimate D2E/DX2                !
 ! D33   D(4,9,11,12)            0.0027         estimate D2E/DX2                !
 ! D34   D(4,9,11,14)          179.9839         estimate D2E/DX2                !
 ! D35   D(13,9,11,12)        -179.9941         estimate D2E/DX2                !
 ! D36   D(13,9,11,14)          -0.013          estimate D2E/DX2                !
 ! D37   D(9,11,12,15)          -0.0078         estimate D2E/DX2                !
 ! D38   D(9,11,12,16)        -179.9982         estimate D2E/DX2                !
 ! D39   D(14,11,12,15)       -179.9892         estimate D2E/DX2                !
 ! D40   D(14,11,12,16)          0.0203         estimate D2E/DX2                !
 ! D41   D(11,12,15,3)           0.0084         estimate D2E/DX2                !
 ! D42   D(16,12,15,3)         179.9987         estimate D2E/DX2                !
 ! D43   D(6,18,19,20)          74.7896         estimate D2E/DX2                !
 ! D44   D(6,18,19,21)        -165.2104         estimate D2E/DX2                !
 ! D45   D(6,18,19,22)         -45.2104         estimate D2E/DX2                !
 --------------------------------------------------------------------------------
 Trust Radius=3.00D-01 FncErr=1.00D-07 GrdErr=1.00D-06
 Number of steps in this run=    115 maximum allowed number of steps=    132.
 GradGradGradGradGradGradGradGradGradGradGradGradGradGradGradGradGradGrad

                          Input orientation:                          
 ---------------------------------------------------------------------
 Center     Atomic      Atomic             Coordinates (Angstroms)
 Number     Number       Type             X           Y           Z
 ---------------------------------------------------------------------
      1          6           0       -1.671943   -0.885171    0.000263
      2          6           0       -0.483063   -1.571572    0.000263
      3          6           0        0.754715   -0.871555    0.000263
      4          6           0        0.744954    0.547279    0.000633
      5          6           0       -0.500715    1.232549    0.000787
      6          6           0       -1.681243    0.530825    0.000497
      7          1           0       -2.630723   -1.424366    0.000183
      8          1           0       -0.466102   -2.671773    0.000035
      9          6           0        1.983237    1.246548    0.000748
     10          1           0       -0.497412    2.332753    0.000869
     11          6           0        3.172203    0.560176    0.000475
     12          6           0        3.181342   -0.856019    0.000016
     13          1           0        1.966674    2.346772    0.001008
     14          1           0        4.130942    1.099377    0.000297
     15          7           0        2.000738   -1.556833    0.000000
     16          6           0        4.533161   -1.593708   -0.000239
     17          7           0        5.539652   -2.142950   -0.000429
     18          8           0       -2.936443    1.215933    0.000630
     19          6           0       -3.606755    0.984423   -1.241137
     20          1           0       -4.001041   -0.010205   -1.253596
     21          1           0       -4.406635    1.686579   -1.350996
     22          1           0       -2.914152    1.103666   -2.047971
 ---------------------------------------------------------------------
                    Distance matrix (angstroms):
                    1          2          3          4          5
     1  C    0.000000
     2  C    1.372801   0.000000
     3  C    2.426696   1.422011   0.000000
     4  C    2.809503   2.448990   1.418868   0.000000
     5  C    2.420024   2.804177   2.450175   1.421719   0.000000
     6  C    1.416027   2.419857   2.810793   2.426253   1.373340
     7  H    1.099995   2.152700   3.430275   3.909294   3.405310
     8  H    2.155458   1.100332   2.175127   3.439325   3.904476
     9  C    4.231379   3.744921   2.448597   1.422083   2.483991
    10  H    3.425575   3.904351   3.440263   2.175176   1.100209
    11  C    5.055174   4.231468   2.809645   2.427284   3.733954
    12  C    4.853373   3.733614   2.426677   2.811625   4.233162
    13  H    4.866723   4.621107   3.438965   2.175035   2.707305
    14  H    6.132855   5.331323   3.909410   3.430704   4.633571
    15  N    3.733593   2.483844   1.422034   2.450364   3.746722
    16  C    6.245426   5.016273   3.846838   4.351361   5.773010
    17  N    7.320459   6.049758   4.950967   5.497860   6.919540
    18  O    2.452264   3.713389   4.240548   3.741628   2.435784
    19  C    2.963099   4.222752   4.899811   4.546478   3.354315
    20  H    2.786113   4.047987   4.993125   4.940480   3.920484
    21  H    3.989780   5.275971   5.916881   5.446446   4.158085
    22  H    3.113490   4.154800   4.642989   4.230296   3.168391
                    6          7          8          9         10
     6  C    0.000000
     7  H    2.173542   0.000000
     8  H    3.425376   2.498322   0.000000
     9  C    3.733721   5.331267   4.620877   0.000000
    10  H    2.156015   4.320528   5.004624   2.708036   0.000000
    11  C    4.853535   6.132892   4.866494   1.372861   4.075304
    12  C    5.056488   5.839788   4.074409   2.419968   4.868418
    13  H    4.074919   5.946221   5.577114   1.100349   2.464125
    14  H    5.839927   7.217299   5.945956   2.152742   4.789872
    15  N    4.232647   4.633355   2.707100   2.803436   4.622730
    16  C    6.567531   7.165886   5.114182   3.816958   6.381517
    17  N    7.700026   8.201915   6.028991   4.912921   7.515189
    18  O    1.430000   2.657940   4.606175   4.919775   2.682566
    19  C    2.335595   2.880239   4.977146   5.732277   3.609514
    20  H    2.692011   2.334434   4.599057   6.242146   4.397562
    21  H    3.254238   3.828514   6.028957   6.546091   4.186539
    22  H    2.458543   3.265917   4.943807   5.310564   3.398387
                   11         12         13         14         15
    11  C    0.000000
    12  C    1.416225   0.000000
    13  H    2.155279   3.425389   0.000000
    14  H    1.099963   2.173779   2.498010   0.000000
    15  N    2.419517   1.372941   3.903755   3.404883   0.000000
    16  C    2.547827   1.540000   4.702578   2.722955   2.532692
    17  N    3.593287   2.686600   5.737925   3.535131   3.587123
    18  O    6.143742   6.459123   5.031834   7.068346   5.662507
    19  C    6.904771   7.141845   5.870437   7.837495   6.280317
    20  H    7.304345   7.339861   6.537812   8.302564   6.323362
    21  H    7.780363   8.115875   6.548499   8.663777   7.307485
    22  H    6.444784   6.722326   5.437471   7.336810   5.952192
                   16         17         18         19         20
    16  C    0.000000
    17  N    1.146600   0.000000
    18  O    7.980543   9.117362   0.000000
    19  C    8.628141   9.745593   1.430000   0.000000
    20  H    8.769891   9.856158   2.051796   1.070000   0.000000
    21  H    9.617941  10.743275   2.051796   1.070000   1.747303
    22  H    8.181168   9.284383   2.051796   1.070000   1.747303
                   21         22
    21  H    0.000000
    22  H    1.747303   0.000000
 Stoichiometry    C11H8N2O
 Framework group  C1[X(C11H8N2O)]
 Deg. of freedom    60
 Full point group                 C1      NOp   1
 Largest Abelian subgroup         C1      NOp   1
 Largest concise Abelian subgroup C1      NOp   1
                         Standard orientation:                         
 ---------------------------------------------------------------------
 Center     Atomic      Atomic             Coordinates (Angstroms)
 Number     Number       Type             X           Y           Z
 ---------------------------------------------------------------------
      1          6           0        1.998163   -1.304108   -0.268019
      2          6           0        0.672331   -1.648671   -0.178414
      3          6           0       -0.331390   -0.643977   -0.105958
      4          6           0        0.055724    0.720885   -0.127874
      5          6           0        1.435845    1.049218   -0.221413
      6          6           0        2.384088    0.058141   -0.289727
      7          1           0        2.776458   -2.079415   -0.324108
      8          1           0        0.363119   -2.704516   -0.160850
      9          6           0       -0.948690    1.724993   -0.055487
     10          1           0        1.725585    2.110468   -0.237476
     11          6           0       -2.274578    1.380480    0.034395
     12          6           0       -2.660385    0.017995    0.056319
     13          1           0       -0.639856    2.780968   -0.073057
     14          1           0       -3.052814    2.155782    0.090739
     15          7           0       -1.711846   -0.972224   -0.012287
     16          6           0       -4.156517   -0.332556    0.157828
     17          7           0       -5.270455   -0.593557    0.233406
     18          8           0        3.773331    0.383777   -0.383879
     19          6           0        4.441085   -0.022598    0.813561
     20          1           0        4.556221   -1.086385    0.814275
     21          1           0        5.404608    0.440467    0.859338
     22          1           0        3.862075    0.274054    1.663058
 ---------------------------------------------------------------------
 Rotational constants (GHZ):      2.4436911      0.3344224      0.3007718
 Standard basis: 6-311+G(d,p) (5D, 7F)
 There are   370 symmetry adapted cartesian basis functions of A   symmetry.
 There are   356 symmetry adapted basis functions of A   symmetry.
   356 basis functions,   568 primitive gaussians,   370 cartesian basis functions
    48 alpha electrons       48 beta electrons
       nuclear repulsion energy       764.4028149590 Hartrees.
 NAtoms=   22 NActive=   22 NUniq=   22 SFac= 1.00D+00 NAtFMM=   60 NAOKFM=F Big=F
 Integral buffers will be    131072 words long.
 Raffenetti 2 integral format.
 Two-electron integral symmetry is turned on.
 One-electron integrals computed using PRISM.
 NBasis=   356 RedAO= T EigKep=  1.81D-06  NBF=   356
 NBsUse=   354 1.00D-06 EigRej=  9.84D-07 NBFU=   354
 ExpMin= 4.38D-02 ExpMax= 8.59D+03 ExpMxC= 1.30D+03 IAcc=2 IRadAn=         4 AccDes= 0.00D+00
 Harris functional with IExCor=  402 and IRadAn=       4 diagonalized for initial guess.
 HarFok:  IExCor=  402 AccDes= 0.00D+00 IRadAn=         4 IDoV= 1 UseB2=F ITyADJ=14
 ICtDFT=  3500011 ScaDFX=  1.000000  1.000000  1.000000  1.000000
 FoFCou: FMM=F IPFlag=           0 FMFlag=      100000 FMFlg1=           0
         NFxFlg=           0 DoJE=T BraDBF=F KetDBF=T FulRan=T
         wScrn=  0.000000 ICntrl=     500 IOpCl=  0 I1Cent=   200000004 NGrid=           0
         NMat0=    1 NMatS0=      1 NMatT0=    0 NMatD0=    1 NMtDS0=    0 NMtDT0=    0
 Petite list used in FoFCou.
 Requested convergence on RMS density matrix=1.00D-08 within 128 cycles.
 Requested convergence on MAX density matrix=1.00D-06.
 Requested convergence on             energy=1.00D-06.
 No special actions if energy rises.
 SCF Done:  E(RB3LYP) =  -608.824080157     A.U. after   16 cycles
            NFock= 16  Conv=0.31D-08     -V/T= 2.0050

 **********************************************************************

            Population analysis using the SCF density.

 **********************************************************************

 Orbital symmetries:
       Occupied  (A) (A) (A) (A) (A) (A) (A) (A) (A) (A) (A) (A)
                 (A) (A) (A) (A) (A) (A) (A) (A) (A) (A) (A) (A)
                 (A) (A) (A) (A) (A) (A) (A) (A) (A) (A) (A) (A)
                 (A) (A) (A) (A) (A) (A) (A) (A) (A) (A) (A) (A)
       Virtual   (A) (A) (A) (A) (A) (A) (A) (A) (A) (A) (A) (A)
                 (A) (A) (A) (A) (A) (A) (A) (A) (A) (A) (A) (A)
                 (A) (A) (A) (A) (A) (A) (A) (A) (A) (A) (A) (A)
                 (A) (A) (A) (A) (A) (A) (A) (A) (A) (A) (A) (A)
                 (A) (A) (A) (A) (A) (A) (A) (A) (A) (A) (A) (A)
                 (A) (A) (A) (A) (A) (A) (A) (A) (A) (A) (A) (A)
                 (A) (A) (A) (A) (A) (A) (A) (A) (A) (A) (A) (A)
                 (A) (A) (A) (A) (A) (A) (A) (A) (A) (A) (A) (A)
                 (A) (A) (A) (A) (A) (A) (A) (A) (A) (A) (A) (A)
                 (A) (A) (A) (A) (A) (A) (A) (A) (A) (A) (A) (A)
                 (A) (A) (A) (A) (A) (A) (A) (A) (A) (A) (A) (A)
                 (A) (A) (A) (A) (A) (A) (A) (A) (A) (A) (A) (A)
                 (A) (A) (A) (A) (A) (A) (A) (A) (A) (A) (A) (A)
                 (A) (A) (A) (A) (A) (A) (A) (A) (A) (A) (A) (A)
                 (A) (A) (A) (A) (A) (A) (A) (A) (A) (A) (A) (A)
                 (A) (A) (A) (A) (A) (A) (A) (A) (A) (A) (A) (A)
                 (A) (A) (A) (A) (A) (A) (A) (A) (A) (A) (A) (A)
                 (A) (A) (A) (A) (A) (A) (A) (A) (A) (A) (A) (A)
                 (A) (A) (A) (A) (A) (A) (A) (A) (A) (A) (A) (A)
                 (A) (A) (A) (A) (A) (A) (A) (A) (A) (A) (A) (A)
                 (A) (A) (A) (A) (A) (A) (A) (A) (A) (A) (A) (A)
                 (A) (A) (A) (A) (A) (A) (A) (A) (A) (A) (A) (A)
                 (A) (A) (A) (A) (A) (A) (A) (A) (A) (A) (A) (A)
                 (A) (A) (A) (A) (A) (A) (A) (A) (A) (A) (A) (A)
                 (A) (A) (A) (A) (A) (A) (A) (A) (A) (A) (A) (A)
                 (A) (A) (A) (A) (A) (A)
 The electronic state is 1-A.
 Alpha  occ. eigenvalues --  -19.16225 -14.35342 -14.32813 -10.28493 -10.26354
 Alpha  occ. eigenvalues --  -10.24944 -10.22912 -10.22839 -10.22558 -10.22485
 Alpha  occ. eigenvalues --  -10.22064 -10.21317 -10.21215 -10.20891  -1.06569
 Alpha  occ. eigenvalues --   -0.96221  -0.92555  -0.88103  -0.83726  -0.79113
 Alpha  occ. eigenvalues --   -0.77567  -0.71868  -0.68815  -0.65761  -0.63655
 Alpha  occ. eigenvalues --   -0.57892  -0.55583  -0.54899  -0.50718  -0.50136
 Alpha  occ. eigenvalues --   -0.48420  -0.47391  -0.46681  -0.45026  -0.44158
 Alpha  occ. eigenvalues --   -0.43890  -0.42098  -0.39569  -0.39205  -0.37860
 Alpha  occ. eigenvalues --   -0.37006  -0.35855  -0.34907  -0.33366  -0.30633
 Alpha  occ. eigenvalues --   -0.29012  -0.28036  -0.26207
 Alpha virt. eigenvalues --   -0.10055  -0.06259  -0.02822  -0.01020  -0.00229
 Alpha virt. eigenvalues --    0.01058   0.01344   0.01833   0.02101   0.02204
 Alpha virt. eigenvalues --    0.02862   0.03586   0.04013   0.04953   0.05359
 Alpha virt. eigenvalues --    0.06216   0.06552   0.06850   0.08045   0.08180
 Alpha virt. eigenvalues --    0.08444   0.09429   0.09711   0.10090   0.10705
 Alpha virt. eigenvalues --    0.10969   0.11088   0.11957   0.12785   0.12953
 Alpha virt. eigenvalues --    0.13759   0.14137   0.14867   0.15181   0.15501
 Alpha virt. eigenvalues --    0.15947   0.16645   0.17139   0.17649   0.17866
 Alpha virt. eigenvalues --    0.18284   0.18534   0.19175   0.19711   0.19825
 Alpha virt. eigenvalues --    0.20123   0.20311   0.21136   0.21677   0.21942
 Alpha virt. eigenvalues --    0.22288   0.22532   0.23522   0.24329   0.24429
 Alpha virt. eigenvalues --    0.25042   0.25351   0.25568   0.25628   0.26242
 Alpha virt. eigenvalues --    0.26504   0.27046   0.27449   0.27976   0.28522
 Alpha virt. eigenvalues --    0.29529   0.29679   0.30836   0.30963   0.31405
 Alpha virt. eigenvalues --    0.31804   0.32424   0.33659   0.34931   0.35760
 Alpha virt. eigenvalues --    0.36053   0.37267   0.39234   0.39989   0.44167
 Alpha virt. eigenvalues --    0.44489   0.45960   0.46560   0.47183   0.50091
 Alpha virt. eigenvalues --    0.51383   0.51893   0.52448   0.53442   0.54134
 Alpha virt. eigenvalues --    0.55056   0.56463   0.57133   0.57621   0.58227
 Alpha virt. eigenvalues --    0.58599   0.60404   0.61096   0.62087   0.62344
 Alpha virt. eigenvalues --    0.63952   0.65642   0.65775   0.66793   0.67044
 Alpha virt. eigenvalues --    0.68814   0.68917   0.69154   0.70084   0.70617
 Alpha virt. eigenvalues --    0.71176   0.72255   0.73423   0.75840   0.76355
 Alpha virt. eigenvalues --    0.78187   0.79126   0.80943   0.81954   0.83078
 Alpha virt. eigenvalues --    0.85121   0.86093   0.87142   0.87940   0.88787
 Alpha virt. eigenvalues --    0.89439   0.89883   0.91828   0.92087   0.92375
 Alpha virt. eigenvalues --    0.93463   0.96756   0.97841   0.98224   0.98594
 Alpha virt. eigenvalues --    0.99381   1.00359   1.01606   1.02419   1.03705
 Alpha virt. eigenvalues --    1.05086   1.06372   1.06449   1.07959   1.09184
 Alpha virt. eigenvalues --    1.12240   1.12781   1.14111   1.16370   1.20742
 Alpha virt. eigenvalues --    1.22166   1.23546   1.27132   1.28310   1.29565
 Alpha virt. eigenvalues --    1.29725   1.34093   1.34465   1.38673   1.42502
 Alpha virt. eigenvalues --    1.44713   1.46720   1.47740   1.48560   1.49948
 Alpha virt. eigenvalues --    1.52251   1.52350   1.53786   1.54230   1.54899
 Alpha virt. eigenvalues --    1.56430   1.57390   1.57735   1.59828   1.63567
 Alpha virt. eigenvalues --    1.64095   1.64889   1.67130   1.67994   1.69209
 Alpha virt. eigenvalues --    1.70583   1.71017   1.72691   1.74774   1.75533
 Alpha virt. eigenvalues --    1.78284   1.78430   1.80353   1.82692   1.84083
 Alpha virt. eigenvalues --    1.85157   1.88221   1.89915   1.91505   1.94180
 Alpha virt. eigenvalues --    1.95569   1.96728   1.98529   1.99124   2.02060
 Alpha virt. eigenvalues --    2.03715   2.05083   2.06278   2.07106   2.08833
 Alpha virt. eigenvalues --    2.09234   2.09805   2.13057   2.14455   2.16837
 Alpha virt. eigenvalues --    2.20551   2.23537   2.24184   2.28252   2.32751
 Alpha virt. eigenvalues --    2.35586   2.38694   2.40826   2.44069   2.48679
 Alpha virt. eigenvalues --    2.49168   2.50183   2.52371   2.53207   2.55215
 Alpha virt. eigenvalues --    2.57855   2.58374   2.59718   2.63166   2.63937
 Alpha virt. eigenvalues --    2.65667   2.66828   2.69436   2.70506   2.71581
 Alpha virt. eigenvalues --    2.72399   2.74175   2.75164   2.75971   2.76576
 Alpha virt. eigenvalues --    2.76901   2.80592   2.82069   2.83884   2.86279
 Alpha virt. eigenvalues --    2.87553   2.88743   2.89592   2.93617   2.94241
 Alpha virt. eigenvalues --    2.94973   2.97575   2.99231   3.02474   3.06738
 Alpha virt. eigenvalues --    3.07353   3.11561   3.13604   3.16446   3.21818
 Alpha virt. eigenvalues --    3.24314   3.26567   3.31353   3.35313   3.36185
 Alpha virt. eigenvalues --    3.37753   3.46513   3.48027   3.54485   3.59016
 Alpha virt. eigenvalues --    3.62971   3.75194   3.82749   3.84175   3.88572
 Alpha virt. eigenvalues --    3.90521   3.97055   3.97962   4.00248   4.01907
 Alpha virt. eigenvalues --    4.02061   4.10347   4.11487   4.14050   4.36325
 Alpha virt. eigenvalues --    4.48756   4.60187   4.80351   5.11986   5.17741
 Alpha virt. eigenvalues --    5.36673   5.66538  23.51616  23.70770  23.85797
 Alpha virt. eigenvalues --   23.86600  23.90981  23.94776  23.96932  24.07909
 Alpha virt. eigenvalues --   24.11081  24.14508  24.24379  35.59662  35.88304
 Alpha virt. eigenvalues --   49.91643
          Condensed to atoms (all electrons):
               1          2          3          4          5          6
     1  C    9.592863  -1.375936   0.818264  -1.100712  -3.483393   1.485644
     2  C   -1.375936   8.945232  -1.149004  -1.987410   3.115031  -1.321275
     3  C    0.818264  -1.149004  15.903626  -5.400477  -2.704355  -0.068524
     4  C   -1.100712  -1.987410  -5.400477  15.120153  -1.460540   0.398234
     5  C   -3.483393   3.115031  -2.704355  -1.460540  14.928732  -4.322814
     6  C    1.485644  -1.321275  -0.068524   0.398234  -4.322814  11.665860
     7  H    0.428284  -0.072763   0.033898   0.045992  -0.029529  -0.055149
     8  H    0.008046   0.340360  -0.018557   0.028597  -0.018661   0.006645
     9  C   -0.013896  -0.289673   0.509964   0.011271  -0.518458  -1.107314
    10  H    0.002173  -0.019865  -0.009282  -0.006907   0.364366  -0.040386
    11  C   -0.014861   1.115934  -0.853151  -1.888616   1.376221  -0.700059
    12  C   -0.268736  -0.616174   1.727111   0.511844  -1.079646  -0.118739
    13  H    0.002085  -0.000646  -0.049841  -0.071747   0.064653   0.033633
    14  H   -0.000613   0.000857  -0.019375   0.013327  -0.002606  -0.000353
    15  N    0.027047  -0.180572  -0.401807   0.647715   0.137592   0.084646
    16  C   -0.011416  -0.281691  -0.839090  -0.526409  -0.185843  -0.133530
    17  N   -0.001184   0.004310   0.047444   0.005844  -0.001222   0.000806
    18  O   -0.197339   0.023585   0.016610  -0.092369  -0.376876   0.787544
    19  C   -0.068087   0.041634  -0.035546  -0.045317   0.202610  -0.237091
    20  H    0.076085  -0.026143   0.014660  -0.020541  -0.107919   0.061485
    21  H   -0.000841   0.002904  -0.000432  -0.000244   0.011833   0.000007
    22  H   -0.060804   0.030075  -0.019276   0.030408   0.171361  -0.168100
               7          8          9         10         11         12
     1  C    0.428284   0.008046  -0.013896   0.002173  -0.014861  -0.268736
     2  C   -0.072763   0.340360  -0.289673  -0.019865   1.115934  -0.616174
     3  C    0.033898  -0.018557   0.509964  -0.009282  -0.853151   1.727111
     4  C    0.045992   0.028597   0.011271  -0.006907  -1.888616   0.511844
     5  C   -0.029529  -0.018661  -0.518458   0.364366   1.376221  -1.079646
     6  C   -0.055149   0.006645  -1.107314  -0.040386  -0.700059  -0.118739
     7  H    0.520689  -0.007278   0.002072  -0.000136  -0.000838   0.004324
     8  H   -0.007278   0.505498   0.008956   0.000045   0.000741   0.005340
     9  C    0.002072   0.008956   7.335715   0.040497  -0.945840   0.291031
    10  H   -0.000136   0.000045   0.040497   0.525164   0.008523   0.006229
    11  C   -0.000838   0.000741  -0.945840   0.008523   9.748251  -1.610338
    12  C    0.004324   0.005340   0.291031   0.006229  -1.610338  11.926656
    13  H   -0.000002   0.000010   0.354600   0.002090   0.006926  -0.008363
    14  H    0.000000  -0.000003  -0.065286  -0.000010   0.390542  -0.040507
    15  N   -0.000301  -0.003972  -0.158057   0.000244   0.242387  -0.122551
    16  C    0.000231  -0.000159   0.782307  -0.000374  -0.593476  -6.473525
    17  N    0.000000   0.000001  -0.018901   0.000003  -0.009072   0.881487
    18  O   -0.005687  -0.000490  -0.014227  -0.003902  -0.001201  -0.001159
    19  C   -0.002147   0.000178   0.002816   0.000461   0.002513  -0.005589
    20  H    0.001717   0.000072  -0.003022  -0.000029  -0.000292  -0.000248
    21  H   -0.000149  -0.000003   0.000378  -0.000151   0.000054   0.000015
    22  H    0.000609  -0.000011   0.011122   0.000672   0.001445   0.000628
              13         14         15         16         17         18
     1  C    0.002085  -0.000613   0.027047  -0.011416  -0.001184  -0.197339
     2  C   -0.000646   0.000857  -0.180572  -0.281691   0.004310   0.023585
     3  C   -0.049841  -0.019375  -0.401807  -0.839090   0.047444   0.016610
     4  C   -0.071747   0.013327   0.647715  -0.526409   0.005844  -0.092369
     5  C    0.064653  -0.002606   0.137592  -0.185843  -0.001222  -0.376876
     6  C    0.033633  -0.000353   0.084646  -0.133530   0.000806   0.787544
     7  H   -0.000002   0.000000  -0.000301   0.000231   0.000000  -0.005687
     8  H    0.000010  -0.000003  -0.003972  -0.000159   0.000001  -0.000490
     9  C    0.354600  -0.065286  -0.158057   0.782307  -0.018901  -0.014227
    10  H    0.002090  -0.000010   0.000244  -0.000374   0.000003  -0.003902
    11  C    0.006926   0.390542   0.242387  -0.593476  -0.009072  -0.001201
    12  C   -0.008363  -0.040507  -0.122551  -6.473525   0.881487  -0.001159
    13  H    0.526042  -0.007352   0.002885   0.004830  -0.000131  -0.000028
    14  H   -0.007352   0.512148   0.003862   0.067866  -0.002043  -0.000002
    15  N    0.002885   0.003862   6.865411  -0.205949  -0.033826   0.000672
    16  C    0.004830   0.067866  -0.205949  15.879193  -0.581027   0.000178
    17  N   -0.000131  -0.002043  -0.033826  -0.581027   6.904441  -0.000001
    18  O   -0.000028  -0.000002   0.000672   0.000178  -0.000001   8.023952
    19  C    0.000099  -0.000003   0.000189  -0.000158  -0.000003   0.155452
    20  H    0.000000   0.000000  -0.000032  -0.000022   0.000000  -0.046295
    21  H    0.000000   0.000000   0.000003   0.000001   0.000000  -0.048814
    22  H   -0.000004   0.000000   0.000011   0.000066   0.000000  -0.051369
              19         20         21         22
     1  C   -0.068087   0.076085  -0.000841  -0.060804
     2  C    0.041634  -0.026143   0.002904   0.030075
     3  C   -0.035546   0.014660  -0.000432  -0.019276
     4  C   -0.045317  -0.020541  -0.000244   0.030408
     5  C    0.202610  -0.107919   0.011833   0.171361
     6  C   -0.237091   0.061485   0.000007  -0.168100
     7  H   -0.002147   0.001717  -0.000149   0.000609
     8  H    0.000178   0.000072  -0.000003  -0.000011
     9  C    0.002816  -0.003022   0.000378   0.011122
    10  H    0.000461  -0.000029  -0.000151   0.000672
    11  C    0.002513  -0.000292   0.000054   0.001445
    12  C   -0.005589  -0.000248   0.000015   0.000628
    13  H    0.000099   0.000000   0.000000  -0.000004
    14  H   -0.000003   0.000000   0.000000   0.000000
    15  N    0.000189  -0.000032   0.000003   0.000011
    16  C   -0.000158  -0.000022   0.000001   0.000066
    17  N   -0.000003   0.000000   0.000000   0.000000
    18  O    0.155452  -0.046295  -0.048814  -0.051369
    19  C    5.013580   0.420891   0.413714   0.411459
    20  H    0.420891   0.579219  -0.031190  -0.051499
    21  H    0.413714  -0.031190   0.522114  -0.024135
    22  H    0.411459  -0.051499  -0.024135   0.573115
 Mulliken charges:
               1
     1  C    0.157326
     2  C   -0.298769
     3  C   -1.502861
     4  C    1.787905
     5  C   -0.080538
     6  C   -0.251171
     7  H    0.136163
     8  H    0.144648
     9  C   -0.216057
    10  H    0.130575
    11  C   -0.275793
    12  C    0.990910
    13  H    0.140261
    14  H    0.149551
    15  N    0.094405
    16  C   -0.902002
    17  N   -0.196927
    18  O   -0.168236
    19  C   -0.271655
    20  H    0.133103
    21  H    0.154935
    22  H    0.144228
 Sum of Mulliken charges =   0.00000
 Mulliken charges with hydrogens summed into heavy atoms:
               1
     1  C    0.293489
     2  C   -0.154121
     3  C   -1.502861
     4  C    1.787905
     5  C    0.050038
     6  C   -0.251171
     9  C   -0.075797
    11  C   -0.126243
    12  C    0.990910
    15  N    0.094405
    16  C   -0.902002
    17  N   -0.196927
    18  O   -0.168236
    19  C    0.160611
 Electronic spatial extent (au):  <R**2>=           3442.0919
 Charge=              0.0000 electrons
 Dipole moment (field-independent basis, Debye):
    X=              5.5764    Y=              2.1677    Z=              1.0708  Tot=              6.0780
 Quadrupole moment (field-independent basis, Debye-Ang):
   XX=           -103.1292   YY=            -74.0595   ZZ=            -83.6235
   XY=            -13.1454   XZ=              7.4842   YZ=              0.9777
 Traceless Quadrupole moment (field-independent basis, Debye-Ang):
   XX=            -16.1918   YY=             12.8779   ZZ=              3.3139
   XY=            -13.1454   XZ=              7.4842   YZ=              0.9777
 Octapole moment (field-independent basis, Debye-Ang**2):
  XXX=            229.5604  YYY=             10.7138  ZZZ=              1.9678  XYY=             15.6155
  XXY=             24.8198  XXZ=             19.9154  XZZ=              6.9929  YZZ=             -0.0169
  YYZ=             -1.4739  XYZ=              1.4107
 Hexadecapole moment (field-independent basis, Debye-Ang**3):
 XXXX=          -4850.5708 YYYY=           -553.8559 ZZZZ=           -148.6444 XXXY=           -211.9817
 XXXZ=            177.9452 YYYX=            -35.3429 YYYZ=              1.2481 ZZZX=              5.7442
 ZZZY=             -0.3140 XXYY=           -756.9308 XXZZ=           -695.5098 YYZZ=           -138.6918
 XXYZ=             19.2753 YYXZ=             -1.6712 ZZXY=              5.3549
 N-N= 7.644028149590D+02 E-N=-2.944932127550D+03  KE= 6.057920823059D+02
 There are a total of      182222 grid points.
 ElSum from          density=       96.0003808880
 ElSum from atomic densities=       96.0011486078

 Hirshfeld populations at iteration   1 (CX, CA, CB, DipXYZ):
               1          2          3          4          5          6
     1  C    0.000000   3.019657   3.019657   0.059631  -0.031060  -0.008084
     2  C    0.000000   3.014809   3.014809  -0.040752  -0.046115  -0.001354
     3  C    0.000000   2.970527   2.970527  -0.033579  -0.012041  -0.000129
     4  C    0.000000   2.999841   2.999841  -0.000902   0.004743  -0.002213
     5  C    0.000000   3.024635   3.024635  -0.016679   0.059104  -0.006991
     6  C    0.000000   2.960891   2.960891   0.146178   0.006640  -0.010643
     7  H    0.000001   0.468983   0.468983   0.109706  -0.123956  -0.010474
     8  H    0.000002   0.468594   0.468594  -0.032127  -0.160638   0.001202
     9  C    0.000000   3.009037   3.009037   0.044324   0.059896  -0.004295
    10  H    0.000001   0.470609   0.470609   0.037732   0.158741  -0.002526
    11  C    0.000000   3.020471   3.020471  -0.053044   0.029196   0.002511
    12  C    0.000001   2.955335   2.955335  -0.080149  -0.026249   0.004510
    13  H    0.000001   0.468262   0.468262   0.041479   0.159281  -0.002738
    14  H    0.000003   0.469597   0.469597  -0.110032   0.123274   0.007797
    15  N    0.000004   3.590367   3.590367   0.084864   0.194662  -0.006055
    16  C    0.000001   2.955731   2.955731   0.234155   0.063135  -0.016385
    17  N    0.000040   3.606014   3.606014   0.032619  -0.003918  -0.002539
    18  O    0.000004   4.084618   4.084618  -0.064247  -0.084129   0.148756
    19  C    0.000000   3.007424   3.007424  -0.000345   0.023397  -0.045816
    20  H    0.000000   0.481276   0.481276   0.030723  -0.144603   0.006514
    21  H    0.000001   0.472740   0.472740   0.147357   0.064930   0.016262
    22  H    0.000000   0.480772   0.480772  -0.060475   0.041202   0.126989
       Tot   0.000062  48.000190  48.000190   0.476437   0.355491   0.194299

 Dip from Atomic Chgs              1.717292   0.497565   0.226788
         Total Dipole              2.193729   0.853056   0.421088

 Hirshfeld charges, spin densities, dipoles, and CM5 charges using IRadAn=      4:
              Q-H        S-H        Dx         Dy         Dz        Q-CM5   
     1  C   -0.039314   0.000000   0.059631  -0.031060  -0.008084  -0.088684
     2  C   -0.029618   0.000000  -0.040752  -0.046115  -0.001354  -0.075256
     3  C    0.058946   0.000000  -0.033579  -0.012041  -0.000129   0.116304
     4  C    0.000318   0.000000  -0.000902   0.004743  -0.002213  -0.001693
     5  C   -0.049271   0.000000  -0.016679   0.059104  -0.006991  -0.095330
     6  C    0.078218   0.000000   0.146178   0.006640  -0.010643   0.089851
     7  H    0.062035   0.000000   0.109706  -0.123956  -0.010474   0.118810
     8  H    0.062812   0.000000  -0.032127  -0.160638   0.001202   0.119227
     9  C   -0.018074   0.000000   0.044324   0.059896  -0.004295  -0.066955
    10  H    0.058782   0.000000   0.037732   0.158741  -0.002526   0.115762
    11  C   -0.040943   0.000000  -0.053044   0.029196   0.002511  -0.085553
    12  C    0.089330   0.000000  -0.080149  -0.026249   0.004510   0.157513
    13  H    0.063475   0.000000   0.041479   0.159281  -0.002738   0.118095
    14  H    0.060806   0.000000  -0.110032   0.123274   0.007797   0.116024
    15  N   -0.180734   0.000000   0.084864   0.194662  -0.006055  -0.334972
    16  C    0.088538   0.000000   0.234155   0.063135  -0.016385   0.212329
    17  N   -0.212029   0.000000   0.032619  -0.003918  -0.002539  -0.336095
    18  O   -0.169236   0.000000  -0.064247  -0.084129   0.148756  -0.253785
    19  C   -0.014847   0.000000  -0.000345   0.023397  -0.045816  -0.144919
    20  H    0.037448   0.000000   0.030723  -0.144603   0.006514   0.100574
    21  H    0.054520   0.000000   0.147357   0.064930   0.016262   0.116227
    22  H    0.038457   0.000000  -0.060475   0.041202   0.126989   0.102145
       Tot  -0.000381   0.000000   0.476437   0.355491   0.194299  -0.000381
 Hirshfeld charges with hydrogens summed into heavy atoms:
              Q-H       Q-CM5   
     1  C    0.022721   0.030126
     2  C    0.033194   0.043971
     3  C    0.058946   0.116304
     4  C    0.000318  -0.001693
     5  C    0.009511   0.020432
     6  C    0.078218   0.089851
     9  C    0.045401   0.051140
    11  C    0.019863   0.030470
    12  C    0.089330   0.157513
    15  N   -0.180734  -0.334972
    16  C    0.088538   0.212329
    17  N   -0.212029  -0.336095
    18  O   -0.169236  -0.253785
    19  C    0.115577   0.174028
 
 EQQ= 0.000000000000E+00 EQD= 0.000000000000E+00 EDD= 0.384046090226E-02
 EQQ+QD+DD= 0.384046090226E-02
 
          MBS Condensed to atoms (all electrons):
               1          2          3          4          5          6
     1  C    4.843526   0.529250  -0.028944  -0.008317  -0.037441   0.465811
     2  C    0.529250   4.818466   0.473928  -0.035372  -0.008895  -0.027735
     3  C   -0.028944   0.473928   4.697550   0.466178  -0.028903  -0.010141
     4  C   -0.008317  -0.035372   0.466178   4.766544   0.469339  -0.026695
     5  C   -0.037441  -0.008895  -0.028903   0.469339   4.861825   0.524678
     6  C    0.465811  -0.027735  -0.010141  -0.026695   0.524678   4.696977
     7  H    0.385021  -0.023202   0.001423   0.000041   0.001343  -0.025144
     8  H   -0.022919   0.382599  -0.024611   0.001404   0.000006   0.001376
     9  C    0.000025   0.000891  -0.028399   0.472437  -0.029200   0.000782
    10  H    0.001434   0.000023   0.001271  -0.023793   0.381852  -0.023840
    11  C    0.000001   0.000007  -0.010197  -0.029326   0.000836  -0.000011
    12  C   -0.000013   0.001028  -0.033171  -0.010543   0.000052   0.000001
    13  H   -0.000001  -0.000022   0.001332  -0.025466  -0.003589   0.000023
    14  H    0.000000   0.000001   0.000070   0.001448  -0.000015   0.000000
    15  N    0.000479  -0.026548   0.396931  -0.024674   0.000584   0.000017
    16  C    0.000000  -0.000003   0.000983  -0.000013   0.000000   0.000000
    17  N    0.000000   0.000000  -0.000001   0.000000   0.000000   0.000000
    18  O   -0.021255   0.000324   0.000004   0.000312  -0.022239   0.288238
    19  C   -0.003731   0.000016   0.000002  -0.000020  -0.000003  -0.037460
    20  H    0.000567  -0.000042   0.000000   0.000002  -0.000105  -0.002196
    21  H    0.000029   0.000001   0.000000   0.000000  -0.000001   0.002502
    22  H   -0.000125  -0.000005  -0.000003  -0.000025   0.001050  -0.005513
               7          8          9         10         11         12
     1  C    0.385021  -0.022919   0.000025   0.001434   0.000001  -0.000013
     2  C   -0.023202   0.382599   0.000891   0.000023   0.000007   0.001028
     3  C    0.001423  -0.024611  -0.028399   0.001271  -0.010197  -0.033171
     4  C    0.000041   0.001404   0.472437  -0.023793  -0.029326  -0.010543
     5  C    0.001343   0.000006  -0.029200   0.381852   0.000836   0.000052
     6  C   -0.025144   0.001376   0.000782  -0.023840  -0.000011   0.000001
     7  H    0.543796  -0.004218   0.000000  -0.000044   0.000000   0.000000
     8  H   -0.004218   0.533929  -0.000022   0.000002   0.000001   0.000003
     9  C    0.000000  -0.000022   4.800805  -0.003858   0.530737  -0.029421
    10  H   -0.000044   0.000002  -0.003858   0.546045   0.000030  -0.000001
    11  C    0.000000   0.000001   0.530737   0.000030   4.836128   0.468515
    12  C    0.000000   0.000003  -0.029421  -0.000001   0.468515   4.640455
    13  H    0.000000   0.000001   0.385964   0.001500  -0.024132   0.001427
    14  H    0.000000   0.000000  -0.023658  -0.000003   0.382857  -0.024523
    15  N   -0.000008  -0.000372  -0.007290  -0.000013  -0.027850   0.446232
    16  C    0.000000  -0.000001   0.000769   0.000000  -0.032508   0.393263
    17  N    0.000000   0.000000  -0.000001   0.000000   0.000022  -0.007724
    18  O   -0.000995  -0.000005  -0.000001  -0.000669   0.000000   0.000000
    19  C   -0.000482   0.000000   0.000000   0.000039   0.000000   0.000000
    20  H    0.000231   0.000003   0.000000   0.000004   0.000000   0.000000
    21  H   -0.000018   0.000000   0.000000  -0.000015   0.000000   0.000000
    22  H    0.000079   0.000000   0.000000   0.000047   0.000000   0.000000
              13         14         15         16         17         18
     1  C   -0.000001   0.000000   0.000479   0.000000   0.000000  -0.021255
     2  C   -0.000022   0.000001  -0.026548  -0.000003   0.000000   0.000324
     3  C    0.001332   0.000070   0.396931   0.000983  -0.000001   0.000004
     4  C   -0.025466   0.001448  -0.024674  -0.000013   0.000000   0.000312
     5  C   -0.003589  -0.000015   0.000584   0.000000   0.000000  -0.022239
     6  C    0.000023   0.000000   0.000017   0.000000   0.000000   0.288238
     7  H    0.000000   0.000000  -0.000008   0.000000   0.000000  -0.000995
     8  H    0.000001   0.000000  -0.000372  -0.000001   0.000000  -0.000005
     9  C    0.385964  -0.023658  -0.007290   0.000769  -0.000001  -0.000001
    10  H    0.001500  -0.000003  -0.000013   0.000000   0.000000  -0.000669
    11  C   -0.024132   0.382857  -0.027850  -0.032508   0.000022   0.000000
    12  C    0.001427  -0.024523   0.446232   0.393263  -0.007724   0.000000
    13  H    0.546471  -0.004097   0.000007  -0.000017   0.000000   0.000000
    14  H   -0.004097   0.542122   0.000971  -0.001493   0.000018   0.000000
    15  N    0.000007   0.000971   6.603025  -0.024116   0.000001   0.000000
    16  C   -0.000017  -0.001493  -0.024116   4.787396   0.736899   0.000000
    17  N    0.000000   0.000018   0.000001   0.736899   6.537805   0.000000
    18  O    0.000000   0.000000   0.000000   0.000000   0.000000   7.944135
    19  C    0.000000   0.000000   0.000000   0.000000   0.000000   0.266769
    20  H    0.000000   0.000000   0.000000   0.000000   0.000000  -0.020051
    21  H    0.000000   0.000000   0.000000   0.000000   0.000000  -0.017502
    22  H    0.000000   0.000000   0.000000   0.000000   0.000000  -0.018103
              19         20         21         22
     1  C   -0.003731   0.000567   0.000029  -0.000125
     2  C    0.000016  -0.000042   0.000001  -0.000005
     3  C    0.000002   0.000000   0.000000  -0.000003
     4  C   -0.000020   0.000002   0.000000  -0.000025
     5  C   -0.000003  -0.000105  -0.000001   0.001050
     6  C   -0.037460  -0.002196   0.002502  -0.005513
     7  H   -0.000482   0.000231  -0.000018   0.000079
     8  H    0.000000   0.000003   0.000000   0.000000
     9  C    0.000000   0.000000   0.000000   0.000000
    10  H    0.000039   0.000004  -0.000015   0.000047
    11  C    0.000000   0.000000   0.000000   0.000000
    12  C    0.000000   0.000000   0.000000   0.000000
    13  H    0.000000   0.000000   0.000000   0.000000
    14  H    0.000000   0.000000   0.000000   0.000000
    15  N    0.000000   0.000000   0.000000   0.000000
    16  C    0.000000   0.000000   0.000000   0.000000
    17  N    0.000000   0.000000   0.000000   0.000000
    18  O    0.266769  -0.020051  -0.017502  -0.018103
    19  C    4.730717   0.375082   0.380733   0.374377
    20  H    0.375082   0.598425  -0.025177  -0.027332
    21  H    0.380733  -0.025177   0.558522  -0.022848
    22  H    0.374377  -0.027332  -0.022848   0.593145
 MBS Mulliken charges:
               1
     1  C   -0.103399
     2  C   -0.084709
     3  C    0.124699
     4  C    0.006537
     5  C   -0.111173
     6  C    0.178331
     7  H    0.122178
     8  H    0.132824
     9  C   -0.070560
    10  H    0.119990
    11  C   -0.095111
    12  C    0.154421
    13  H    0.120601
    14  H    0.126303
    15  N   -0.337374
    16  C    0.138841
    17  N   -0.267020
    18  O   -0.398963
    19  C   -0.086038
    20  H    0.100589
    21  H    0.123776
    22  H    0.105257
 Sum of MBS Mulliken charges =   0.00000
 MBS Mulliken charges with hydrogens summed into heavy atoms:
               1
     1  C    0.018779
     2  C    0.048115
     3  C    0.124699
     4  C    0.006537
     5  C    0.008817
     6  C    0.178331
     9  C    0.050042
    11  C    0.031192
    12  C    0.154421
    15  N   -0.337374
    16  C    0.138841
    17  N   -0.267020
    18  O   -0.398963
    19  C    0.243584
 Breneman (CHELPG) radii used.
 Generate Potential Derived Charges using the Breneman model, NDens= 1.
 Grid spacing= 0.300 Box extension= 2.800
 NStep X,Y,Z=   56     38     26   Total possible points=       55328
 Number of Points to Fit=   14843

 **********************************************************************

            Electrostatic Properties Using The SCF Density

 **********************************************************************

       Atomic Center    1 is at   1.998163 -1.304108 -0.268019
       Atomic Center    2 is at   0.672331 -1.648671 -0.178414
       Atomic Center    3 is at  -0.331390 -0.643977 -0.105958
       Atomic Center    4 is at   0.055724  0.720885 -0.127874
       Atomic Center    5 is at   1.435845  1.049218 -0.221413
       Atomic Center    6 is at   2.384088  0.058141 -0.289727
       Atomic Center    7 is at   2.776458 -2.079415 -0.324108
       Atomic Center    8 is at   0.363119 -2.704516 -0.160850
       Atomic Center    9 is at  -0.948690  1.724993 -0.055487
       Atomic Center   10 is at   1.725585  2.110468 -0.237476
       Atomic Center   11 is at  -2.274578  1.380480  0.034395
       Atomic Center   12 is at  -2.660385  0.017995  0.056319
       Atomic Center   13 is at  -0.639856  2.780968 -0.073057
       Atomic Center   14 is at  -3.052814  2.155782  0.090739
       Atomic Center   15 is at  -1.711846 -0.972224 -0.012287
       Atomic Center   16 is at  -4.156517 -0.332556  0.157828
       Atomic Center   17 is at  -5.270455 -0.593557  0.233406
       Atomic Center   18 is at   3.773331  0.383777 -0.383879
       Atomic Center   19 is at   4.441085 -0.022598  0.813561
       Atomic Center   20 is at   4.556221 -1.086385  0.814275
       Atomic Center   21 is at   5.404608  0.440467  0.859338
       Atomic Center   22 is at   3.862075  0.274054  1.663058
   14843 points will be used for fitting atomic charges
 Fitting point charges to electrostatic potential
 Charges from ESP fit, RMS=   0.00425 RRMS=   0.22024:
 ESP charges:
               1
     1  C   -0.233105
     2  C   -0.219443
     3  C    0.497142
     4  C   -0.063887
     5  C   -0.265095
     6  C    0.424184
     7  H    0.183120
     8  H    0.136800
     9  C    0.054522
    10  H    0.150951
    11  C   -0.303762
    12  C    0.436496
    13  H    0.090201
    14  H    0.126970
    15  N   -0.637576
    16  C    0.300079
    17  N   -0.434028
    18  O   -0.511056
    19  C    0.381888
    20  H   -0.057173
    21  H    0.012853
    22  H   -0.070082
 Sum of ESP charges =   0.00000
 ESP charges with hydrogens summed into heavy atoms:
               1
     1  C   -0.049985
     2  C   -0.082643
     3  C    0.497142
     4  C   -0.063887
     5  C   -0.114144
     6  C    0.424184
     9  C    0.144723
    11  C   -0.176792
    12  C    0.436496
    15  N   -0.637576
    16  C    0.300079
    17  N   -0.434028
    18  O   -0.511056
    19  C    0.267486
 Charge=   0.00000 Dipole=     5.4652     2.1257     0.9629 Tot=     5.9426
 -----------------------------------------------------------------

              Electrostatic Properties (Atomic Units)

 -----------------------------------------------------------------
    Center     Electric         -------- Electric Field --------
               Potential          X             Y             Z
 -----------------------------------------------------------------
    1 Atom    -14.738366
    2 Atom    -14.739086
    3 Atom    -14.699354
    4 Atom    -14.726268
    5 Atom    -14.742272
    6 Atom    -14.686000
    7 Atom     -1.070013
    8 Atom     -1.078366
    9 Atom    -14.726162
   10 Atom     -1.071948
   11 Atom    -14.730794
   12 Atom    -14.660362
   13 Atom     -1.063896
   14 Atom     -1.068156
   15 Atom    -18.366711
   16 Atom    -14.733552
   17 Atom    -18.407012
   18 Atom    -22.332798
   19 Atom    -14.717911
   20 Atom     -1.101161
   21 Atom     -1.094827
   22 Atom     -1.098897
 -----------------------------------------------------------------
 ******************************Gaussian NBO Version 3.1******************************
             N A T U R A L   A T O M I C   O R B I T A L   A N D
          N A T U R A L   B O N D   O R B I T A L   A N A L Y S I S
 ******************************Gaussian NBO Version 3.1******************************
       /RESON  / : Allow strongly delocalized NBO set

 Analyzing the SCF density

 Job title: Title Card Required                                             

 Storage needed:    382038 in NPA ( 536868272 available)


 NATURAL POPULATIONS:  Natural atomic orbital occupancies 
                                                          
   NAO  Atom  No  lang   Type(AO)    Occupancy      Energy
 ----------------------------------------------------------
     1    C    1  S      Cor( 1S)     1.99900     -10.06601
     2    C    1  S      Val( 2S)     0.95898      -0.19931
     3    C    1  S      Ryd( 4S)     0.00145       0.84442
     4    C    1  S      Ryd( 3S)     0.00018       0.66747
     5    C    1  S      Ryd( 5S)     0.00002      23.09204
     6    C    1  px     Val( 2p)     1.13243      -0.08875
     7    C    1  px     Ryd( 4p)     0.00502       1.01150
     8    C    1  px     Ryd( 3p)     0.00027       0.40560
     9    C    1  px     Ryd( 5p)     0.00013       3.14767
    10    C    1  py     Val( 2p)     1.12250      -0.09225
    11    C    1  py     Ryd( 4p)     0.00492       0.92613
    12    C    1  py     Ryd( 3p)     0.00032       0.36946
    13    C    1  py     Ryd( 5p)     0.00010       3.11335
    14    C    1  pz     Val( 2p)     0.99692      -0.14191
    15    C    1  pz     Ryd( 4p)     0.00098       0.52624
    16    C    1  pz     Ryd( 3p)     0.00033       0.33287
    17    C    1  pz     Ryd( 5p)     0.00001       2.66009
    18    C    1  dxy    Ryd( 3d)     0.00068       2.44815
    19    C    1  dxz    Ryd( 3d)     0.00056       1.64097
    20    C    1  dyz    Ryd( 3d)     0.00052       1.61628
    21    C    1  dx2y2  Ryd( 3d)     0.00072       2.57511
    22    C    1  dz2    Ryd( 3d)     0.00042       2.04872

    23    C    2  S      Cor( 1S)     1.99906     -10.06521
    24    C    2  S      Val( 2S)     0.95335      -0.19339
    25    C    2  S      Ryd( 3S)     0.00165       0.96180
    26    C    2  S      Ryd( 4S)     0.00015       1.31806
    27    C    2  S      Ryd( 5S)     0.00001      22.25017
    28    C    2  px     Val( 2p)     1.06292      -0.07387
    29    C    2  px     Ryd( 4p)     0.00480       0.88650
    30    C    2  px     Ryd( 3p)     0.00041       0.42853
    31    C    2  px     Ryd( 5p)     0.00014       3.09512
    32    C    2  py     Val( 2p)     1.17152      -0.09047
    33    C    2  py     Ryd( 4p)     0.00641       1.07891
    34    C    2  py     Ryd( 3p)     0.00018       0.29917
    35    C    2  py     Ryd( 5p)     0.00007       3.11992
    36    C    2  pz     Val( 2p)     0.97103      -0.13566
    37    C    2  pz     Ryd( 4p)     0.00082       0.53936
    38    C    2  pz     Ryd( 3p)     0.00026       0.29982
    39    C    2  pz     Ryd( 5p)     0.00002       2.66638
    40    C    2  dxy    Ryd( 3d)     0.00082       2.53217
    41    C    2  dxz    Ryd( 3d)     0.00058       1.66293
    42    C    2  dyz    Ryd( 3d)     0.00044       1.58552
    43    C    2  dx2y2  Ryd( 3d)     0.00059       2.49031
    44    C    2  dz2    Ryd( 3d)     0.00042       2.04497

    45    C    3  S      Cor( 1S)     1.99887     -10.11086
    46    C    3  S      Val( 2S)     0.84516      -0.15823
    47    C    3  S      Ryd( 4S)     0.00118       0.91297
    48    C    3  S      Ryd( 3S)     0.00013       0.64795
    49    C    3  S      Ryd( 5S)     0.00002      22.94831
    50    C    3  px     Val( 2p)     0.92930      -0.07110
    51    C    3  px     Ryd( 4p)     0.00657       1.16808
    52    C    3  px     Ryd( 3p)     0.00021       0.70439
    53    C    3  px     Ryd( 5p)     0.00009       3.06796
    54    C    3  py     Val( 2p)     1.06047      -0.07920
    55    C    3  py     Ryd( 4p)     0.00751       1.16036
    56    C    3  py     Ryd( 3p)     0.00014       0.68082
    57    C    3  py     Ryd( 5p)     0.00013       3.04201
    58    C    3  pz     Val( 2p)     0.97982      -0.13980
    59    C    3  pz     Ryd( 4p)     0.00053       0.59701
    60    C    3  pz     Ryd( 3p)     0.00016       0.49582
    61    C    3  pz     Ryd( 5p)     0.00001       2.57995
    62    C    3  dxy    Ryd( 3d)     0.00158       2.50926
    63    C    3  dxz    Ryd( 3d)     0.00122       1.59396
    64    C    3  dyz    Ryd( 3d)     0.00051       1.61790
    65    C    3  dx2y2  Ryd( 3d)     0.00124       2.49559
    66    C    3  dz2    Ryd( 3d)     0.00047       2.04587

    67    C    4  S      Cor( 1S)     1.99894     -10.07390
    68    C    4  S      Val( 2S)     0.87788      -0.15862
    69    C    4  S      Ryd( 3S)     0.00089       0.73274
    70    C    4  S      Ryd( 4S)     0.00017       0.75991
    71    C    4  S      Ryd( 5S)     0.00002      23.05454
    72    C    4  px     Val( 2p)     1.09024      -0.09445
    73    C    4  px     Ryd( 4p)     0.00471       1.36588
    74    C    4  px     Ryd( 3p)     0.00027       0.98255
    75    C    4  px     Ryd( 5p)     0.00011       3.01880
    76    C    4  py     Val( 2p)     1.09976      -0.09554
    77    C    4  py     Ryd( 4p)     0.00488       1.25169
    78    C    4  py     Ryd( 3p)     0.00016       0.75887
    79    C    4  py     Ryd( 5p)     0.00010       3.05800
    80    C    4  pz     Val( 2p)     0.99164      -0.13860
    81    C    4  pz     Ryd( 3p)     0.00035       0.58366
    82    C    4  pz     Ryd( 4p)     0.00027       0.67083
    83    C    4  pz     Ryd( 5p)     0.00002       2.40210
    84    C    4  dxy    Ryd( 3d)     0.00067       2.55821
    85    C    4  dxz    Ryd( 3d)     0.00076       1.63458
    86    C    4  dyz    Ryd( 3d)     0.00044       1.62895
    87    C    4  dx2y2  Ryd( 3d)     0.00083       2.59759
    88    C    4  dz2    Ryd( 3d)     0.00039       2.07939

    89    C    5  S      Cor( 1S)     1.99893     -10.05962
    90    C    5  S      Val( 2S)     0.94495      -0.18703
    91    C    5  S      Ryd( 4S)     0.00168       0.96523
    92    C    5  S      Ryd( 3S)     0.00015       0.65529
    93    C    5  S      Ryd( 5S)     0.00002      22.94251
    94    C    5  px     Val( 2p)     1.05960      -0.07493
    95    C    5  px     Ryd( 4p)     0.00468       0.90281
    96    C    5  px     Ryd( 3p)     0.00024       0.53989
    97    C    5  px     Ryd( 5p)     0.00012       3.08696
    98    C    5  py     Val( 2p)     1.18629      -0.10232
    99    C    5  py     Ryd( 4p)     0.00545       1.18843
   100    C    5  py     Ryd( 3p)     0.00028       0.52705
   101    C    5  py     Ryd( 5p)     0.00009       2.95340
   102    C    5  pz     Val( 2p)     1.01356      -0.13865
   103    C    5  pz     Ryd( 4p)     0.00115       0.54681
   104    C    5  pz     Ryd( 3p)     0.00051       0.28403
   105    C    5  pz     Ryd( 5p)     0.00001       2.68679
   106    C    5  dxy    Ryd( 3d)     0.00079       2.56753
   107    C    5  dxz    Ryd( 3d)     0.00046       1.65402
   108    C    5  dyz    Ryd( 3d)     0.00059       1.61000
   109    C    5  dx2y2  Ryd( 3d)     0.00066       2.48145
   110    C    5  dz2    Ryd( 3d)     0.00047       2.07835

   111    C    6  S      Cor( 1S)     1.99866     -10.13208
   112    C    6  S      Val( 2S)     0.84424      -0.17093
   113    C    6  S      Ryd( 4S)     0.00085       0.89271
   114    C    6  S      Ryd( 3S)     0.00024       0.86521
   115    C    6  S      Ryd( 5S)     0.00002      22.66717
   116    C    6  px     Val( 2p)     0.77774      -0.06849
   117    C    6  px     Ryd( 4p)     0.00658       1.14362
   118    C    6  px     Ryd( 3p)     0.00035       0.77746
   119    C    6  px     Ryd( 5p)     0.00020       2.83073
   120    C    6  py     Val( 2p)     1.05401      -0.07983
   121    C    6  py     Ryd( 4p)     0.00511       1.05325
   122    C    6  py     Ryd( 3p)     0.00013       0.79314
   123    C    6  py     Ryd( 5p)     0.00013       2.80122
   124    C    6  pz     Val( 2p)     0.98143      -0.14463
   125    C    6  pz     Ryd( 3p)     0.00223       0.63819
   126    C    6  pz     Ryd( 4p)     0.00029       0.70804
   127    C    6  pz     Ryd( 5p)     0.00008       2.36031
   128    C    6  dxy    Ryd( 3d)     0.00185       2.54275
   129    C    6  dxz    Ryd( 3d)     0.00205       1.63657
   130    C    6  dyz    Ryd( 3d)     0.00060       1.64681
   131    C    6  dx2y2  Ryd( 3d)     0.00184       2.41202
   132    C    6  dz2    Ryd( 3d)     0.00064       2.03149

   133    H    7  S      Val( 1S)     0.77283       0.01318
   134    H    7  S      Ryd( 2S)     0.00066       1.03354
   135    H    7  S      Ryd( 3S)     0.00016       1.68339
   136    H    7  px     Ryd( 2p)     0.00026       2.32997
   137    H    7  py     Ryd( 2p)     0.00027       2.31722
   138    H    7  pz     Ryd( 2p)     0.00017       1.57694

   139    H    8  S      Val( 1S)     0.76503       0.02345
   140    H    8  S      Ryd( 2S)     0.00094       1.13140
   141    H    8  S      Ryd( 3S)     0.00015       1.58192
   142    H    8  px     Ryd( 2p)     0.00014       2.04868
   143    H    8  py     Ryd( 2p)     0.00040       2.61472
   144    H    8  pz     Ryd( 2p)     0.00015       1.58506

   145    C    9  S      Cor( 1S)     1.99906     -10.07750
   146    C    9  S      Val( 2S)     0.94780      -0.19993
   147    C    9  S      Ryd( 4S)     0.00186       0.89220
   148    C    9  S      Ryd( 3S)     0.00017       0.60649
   149    C    9  S      Ryd( 5S)     0.00002      23.06431
   150    C    9  px     Val( 2p)     1.06424      -0.08339
   151    C    9  px     Ryd( 4p)     0.00436       0.85651
   152    C    9  px     Ryd( 3p)     0.00025       0.49176
   153    C    9  px     Ryd( 5p)     0.00013       3.15653
   154    C    9  py     Val( 2p)     1.15895      -0.09486
   155    C    9  py     Ryd( 4p)     0.00671       1.03656
   156    C    9  py     Ryd( 3p)     0.00018       0.31568
   157    C    9  py     Ryd( 5p)     0.00007       3.13321
   158    C    9  pz     Val( 2p)     0.94721      -0.14644
   159    C    9  pz     Ryd( 4p)     0.00055       0.51872
   160    C    9  pz     Ryd( 3p)     0.00025       0.26907
   161    C    9  pz     Ryd( 5p)     0.00001       2.67237
   162    C    9  dxy    Ryd( 3d)     0.00071       2.51191
   163    C    9  dxz    Ryd( 3d)     0.00062       1.64974
   164    C    9  dyz    Ryd( 3d)     0.00039       1.57450
   165    C    9  dx2y2  Ryd( 3d)     0.00070       2.48448
   166    C    9  dz2    Ryd( 3d)     0.00040       2.02530

   167    H   10  S      Val( 1S)     0.77263       0.01273
   168    H   10  S      Ryd( 2S)     0.00248       0.34951
   169    H   10  S      Ryd( 3S)     0.00024       2.32031
   170    H   10  px     Ryd( 2p)     0.00018       2.06512
   171    H   10  py     Ryd( 2p)     0.00041       2.64757
   172    H   10  pz     Ryd( 2p)     0.00016       1.58874

   173    C   11  S      Cor( 1S)     1.99904     -10.07392
   174    C   11  S      Val( 2S)     0.95778      -0.20525
   175    C   11  S      Ryd( 4S)     0.00165       0.78034
   176    C   11  S      Ryd( 3S)     0.00031       0.67010
   177    C   11  S      Ryd( 5S)     0.00001      23.29184
   178    C   11  px     Val( 2p)     1.13405      -0.09657
   179    C   11  px     Ryd( 4p)     0.00385       0.90596
   180    C   11  px     Ryd( 3p)     0.00014       0.41024
   181    C   11  px     Ryd( 5p)     0.00013       3.17146
   182    C   11  py     Val( 2p)     1.11611      -0.09927
   183    C   11  py     Ryd( 4p)     0.00516       0.89831
   184    C   11  py     Ryd( 3p)     0.00019       0.37945
   185    C   11  py     Ryd( 5p)     0.00010       3.10306
   186    C   11  pz     Val( 2p)     0.99391      -0.14807
   187    C   11  pz     Ryd( 4p)     0.00098       0.51893
   188    C   11  pz     Ryd( 3p)     0.00029       0.33509
   189    C   11  pz     Ryd( 5p)     0.00002       2.67165
   190    C   11  dxy    Ryd( 3d)     0.00070       2.45811
   191    C   11  dxz    Ryd( 3d)     0.00052       1.62188
   192    C   11  dyz    Ryd( 3d)     0.00042       1.60511
   193    C   11  dx2y2  Ryd( 3d)     0.00071       2.56353
   194    C   11  dz2    Ryd( 3d)     0.00043       2.02162

   195    C   12  S      Cor( 1S)     1.99890     -10.15966
   196    C   12  S      Val( 2S)     0.88260      -0.20715
   197    C   12  S      Ryd( 4S)     0.00185       0.82820
   198    C   12  S      Ryd( 3S)     0.00024       0.75604
   199    C   12  S      Ryd( 5S)     0.00002      23.04442
   200    C   12  px     Val( 2p)     0.97806      -0.09890
   201    C   12  px     Ryd( 4p)     0.00679       0.89392
   202    C   12  px     Ryd( 3p)     0.00175       0.63494
   203    C   12  px     Ryd( 5p)     0.00017       2.74738
   204    C   12  py     Val( 2p)     0.99966      -0.09095
   205    C   12  py     Ryd( 4p)     0.00846       0.77568
   206    C   12  py     Ryd( 3p)     0.00129       0.53036
   207    C   12  py     Ryd( 5p)     0.00017       2.79477
   208    C   12  pz     Val( 2p)     0.99855      -0.16030
   209    C   12  pz     Ryd( 4p)     0.00071       0.48021
   210    C   12  pz     Ryd( 3p)     0.00043       0.37796
   211    C   12  pz     Ryd( 5p)     0.00003       2.54082
   212    C   12  dxy    Ryd( 3d)     0.00120       2.44940
   213    C   12  dxz    Ryd( 3d)     0.00087       1.56632
   214    C   12  dyz    Ryd( 3d)     0.00103       1.59232
   215    C   12  dx2y2  Ryd( 3d)     0.00201       2.45324
   216    C   12  dz2    Ryd( 3d)     0.00047       2.00005

   217    H   13  S      Val( 1S)     0.77840       0.00469
   218    H   13  S      Ryd( 2S)     0.00064       1.07826
   219    H   13  S      Ryd( 3S)     0.00017       1.59640
   220    H   13  px     Ryd( 2p)     0.00013       2.02033
   221    H   13  py     Ryd( 2p)     0.00043       2.61202
   222    H   13  pz     Ryd( 2p)     0.00016       1.56383

   223    H   14  S      Val( 1S)     0.76905       0.01180
   224    H   14  S      Ryd( 2S)     0.00043       0.84654
   225    H   14  S      Ryd( 3S)     0.00022       1.78774
   226    H   14  px     Ryd( 2p)     0.00027       2.31544
   227    H   14  py     Ryd( 2p)     0.00026       2.32165
   228    H   14  pz     Ryd( 2p)     0.00016       1.57105

   229    N   15  S      Cor( 1S)     1.99938     -14.17826
   230    N   15  S      Val( 2S)     1.39377      -0.55566
   231    N   15  S      Ryd( 4S)     0.00152       1.56924
   232    N   15  S      Ryd( 3S)     0.00011       0.92777
   233    N   15  S      Ryd( 5S)     0.00000      35.26349
   234    N   15  px     Val( 2p)     1.20795      -0.18498
   235    N   15  px     Ryd( 4p)     0.00214       0.94441
   236    N   15  px     Ryd( 3p)     0.00086       0.72123
   237    N   15  px     Ryd( 5p)     0.00006       4.33946
   238    N   15  py     Val( 2p)     1.65130      -0.23855
   239    N   15  py     Ryd( 3p)     0.00677       0.58828
   240    N   15  py     Ryd( 4p)     0.00056       0.68071
   241    N   15  py     Ryd( 5p)     0.00005       4.03960
   242    N   15  pz     Val( 2p)     1.14190      -0.20552
   243    N   15  pz     Ryd( 3p)     0.00119       0.49504
   244    N   15  pz     Ryd( 4p)     0.00041       0.57715
   245    N   15  pz     Ryd( 5p)     0.00004       3.84769
   246    N   15  dxy    Ryd( 3d)     0.00134       2.83391
   247    N   15  dxz    Ryd( 3d)     0.00040       2.21138
   248    N   15  dyz    Ryd( 3d)     0.00137       2.12061
   249    N   15  dx2y2  Ryd( 3d)     0.00115       2.69689
   250    N   15  dz2    Ryd( 3d)     0.00074       2.50970

   251    C   16  S      Cor( 1S)     1.99917     -10.10518
   252    C   16  S      Val( 2S)     0.85802      -0.14849
   253    C   16  S      Ryd( 4S)     0.01092       0.73849
   254    C   16  S      Ryd( 3S)     0.00029       0.60844
   255    C   16  S      Ryd( 5S)     0.00004      23.18530
   256    C   16  px     Val( 2p)     0.98685       0.02038
   257    C   16  px     Ryd( 3p)     0.01594       1.15167
   258    C   16  px     Ryd( 4p)     0.00028       1.17068
   259    C   16  px     Ryd( 5p)     0.00006       1.74511
   260    C   16  py     Val( 2p)     0.91716      -0.10290
   261    C   16  py     Ryd( 3p)     0.00477       0.72612
   262    C   16  py     Ryd( 4p)     0.00010       1.20062
   263    C   16  py     Ryd( 5p)     0.00004       1.78496
   264    C   16  pz     Val( 2p)     0.91946      -0.11042
   265    C   16  pz     Ryd( 3p)     0.00034       0.63324
   266    C   16  pz     Ryd( 4p)     0.00017       1.05618
   267    C   16  pz     Ryd( 5p)     0.00001       1.83366
   268    C   16  dxy    Ryd( 3d)     0.00077       2.36634
   269    C   16  dxz    Ryd( 3d)     0.00102       2.12236
   270    C   16  dyz    Ryd( 3d)     0.00007       1.41973
   271    C   16  dx2y2  Ryd( 3d)     0.00051       2.74369
   272    C   16  dz2    Ryd( 3d)     0.00014       1.91135

   273    N   17  S      Cor( 1S)     1.99958     -14.06586
   274    N   17  S      Val( 2S)     1.58901      -0.58869
   275    N   17  S      Ryd( 3S)     0.00509       1.64814
   276    N   17  S      Ryd( 4S)     0.00006       1.86490
   277    N   17  S      Ryd( 5S)     0.00000      34.09295
   278    N   17  px     Val( 2p)     1.50664      -0.19260
   279    N   17  px     Ryd( 3p)     0.00210       0.57347
   280    N   17  px     Ryd( 5p)     0.00027       3.09925
   281    N   17  px     Ryd( 4p)     0.00002       2.11589
   282    N   17  py     Val( 2p)     1.09898      -0.16006
   283    N   17  py     Ryd( 3p)     0.00031       0.55744
   284    N   17  py     Ryd( 5p)     0.00003       2.40156
   285    N   17  py     Ryd( 4p)     0.00002       2.17757
   286    N   17  pz     Val( 2p)     1.08853      -0.15900
   287    N   17  pz     Ryd( 3p)     0.00041       0.53572
   288    N   17  pz     Ryd( 5p)     0.00001       2.36749
   289    N   17  pz     Ryd( 4p)     0.00003       2.11261
   290    N   17  dxy    Ryd( 3d)     0.00388       2.19334
   291    N   17  dxz    Ryd( 3d)     0.00349       2.06860
   292    N   17  dyz    Ryd( 3d)     0.00023       1.97021
   293    N   17  dx2y2  Ryd( 3d)     0.00448       2.40575
   294    N   17  dz2    Ryd( 3d)     0.00158       2.13359

   295    O   18  S      Cor( 1S)     1.99976     -18.96697
   296    O   18  S      Val( 2S)     1.62993      -0.88901
   297    O   18  S      Ryd( 3S)     0.00307       1.00564
   298    O   18  S      Ryd( 4S)     0.00010       1.51786
   299    O   18  S      Ryd( 5S)     0.00000      49.54569
   300    O   18  px     Val( 2p)     1.42189      -0.30967
   301    O   18  px     Ryd( 3p)     0.00284       0.77301
   302    O   18  px     Ryd( 4p)     0.00070       0.79178
   303    O   18  px     Ryd( 5p)     0.00004       5.10260
   304    O   18  py     Val( 2p)     1.88422      -0.32377
   305    O   18  py     Ryd( 3p)     0.00495       0.62007
   306    O   18  py     Ryd( 4p)     0.00022       0.80379
   307    O   18  py     Ryd( 5p)     0.00002       4.98391
   308    O   18  pz     Val( 2p)     1.62015      -0.32283
   309    O   18  pz     Ryd( 3p)     0.00223       0.65108
   310    O   18  pz     Ryd( 4p)     0.00038       0.77992
   311    O   18  pz     Ryd( 5p)     0.00003       5.07590
   312    O   18  dxy    Ryd( 3d)     0.00047       3.11303
   313    O   18  dxz    Ryd( 3d)     0.00083       3.17509
   314    O   18  dyz    Ryd( 3d)     0.00078       3.04182
   315    O   18  dx2y2  Ryd( 3d)     0.00067       3.27571
   316    O   18  dz2    Ryd( 3d)     0.00100       3.18249

   317    C   19  S      Cor( 1S)     1.99919     -10.09907
   318    C   19  S      Val( 2S)     1.06828      -0.27165
   319    C   19  S      Ryd( 4S)     0.00195       0.85780
   320    C   19  S      Ryd( 3S)     0.00016       0.82177
   321    C   19  S      Ryd( 5S)     0.00000      23.07805
   322    C   19  px     Val( 2p)     1.10385      -0.11603
   323    C   19  px     Ryd( 3p)     0.00141       0.71430
   324    C   19  px     Ryd( 4p)     0.00030       1.31620
   325    C   19  px     Ryd( 5p)     0.00008       1.82889
   326    C   19  py     Val( 2p)     1.14902      -0.11646
   327    C   19  py     Ryd( 3p)     0.00116       0.60632
   328    C   19  py     Ryd( 4p)     0.00062       1.30833
   329    C   19  py     Ryd( 5p)     0.00003       1.89444
   330    C   19  pz     Val( 2p)     0.85743      -0.09826
   331    C   19  pz     Ryd( 3p)     0.00254       0.58218
   332    C   19  pz     Ryd( 4p)     0.00031       1.30909
   333    C   19  pz     Ryd( 5p)     0.00005       1.86736
   334    C   19  dxy    Ryd( 3d)     0.00097       1.98409
   335    C   19  dxz    Ryd( 3d)     0.00179       2.11322
   336    C   19  dyz    Ryd( 3d)     0.00127       1.84406
   337    C   19  dx2y2  Ryd( 3d)     0.00118       2.14972
   338    C   19  dz2    Ryd( 3d)     0.00197       2.11896

   339    H   20  S      Val( 1S)     0.83674      -0.00059
   340    H   20  S      Ryd( 2S)     0.00123       0.47275
   341    H   20  S      Ryd( 3S)     0.00017       2.20956
   342    H   20  px     Ryd( 2p)     0.00018       1.82267
   343    H   20  py     Ryd( 2p)     0.00037       2.70865
   344    H   20  pz     Ryd( 2p)     0.00013       1.69615

   345    H   21  S      Val( 1S)     0.81142       0.01076
   346    H   21  S      Ryd( 2S)     0.00045       0.44169
[...]
 .25294748,-0.01341862,0.00199821,0.61770569,-0.00178127,0.00273842,-0.
 00055549,0.00288906,0.00115371,0.00909103,-0.01732603,0.00222608,0.001
 78181,-0.00205349,-0.00449489,-0.00918155,0.00171081,-0.00032939,-0.00
 040020,-0.00107253,-0.00285011,-0.00005623,0.00008205,0.00011706,-0.00
 089474,0.00000056,-0.00005020,-0.00023070,0.00635905,0.00219525,0.0089
 0179,0.00013518,0.00002354,-0.00021322,-0.00923128,-0.00535194,-0.0707
 0810,0.07960635,0.01883269,0.16803878,0.00029736,-0.00026151,0.0000308
 1,0.00016977,-0.00158596,0.00005829,-0.00465901,-0.00111153,-0.0017430
 7,0.00321064,-0.02772855,-0.00130681,0.00143643,-0.00107066,0.00057099
 ,0.00010208,0.00056036,0.00009905,-0.00001201,0.00005962,-0.00000997,-
 0.00039029,-0.00020617,-0.00010107,-0.05908719,-0.01408779,-0.00359468
 ,-0.00032078,0.00080749,-0.00005299,0.00562606,0.02759311,0.00113881,-
 0.00381478,0.00236044,-0.00199012,0.05742211,-0.00006171,0.00016259,-0
 .00000408,0.00054927,-0.00073936,0.00007971,-0.00255166,0.00150303,-0.
 00058887,0.00147071,-0.01083899,-0.00038980,0.00125003,0.00106071,0.00
 033741,-0.00014448,-0.00003212,-0.00000736,-0.00002428,0.00003095,-0.0
 0000525,-0.00020060,-0.00008805,-0.00004292,-0.01333024,-0.33415874,-0
 .01388033,-0.00068821,0.00031291,-0.00010247,-0.00297108,-0.01297271,-
 0.00119499,0.00318841,0.00120202,0.00014415,0.01376783,0.35413048,0.00
 003912,-0.00003512,0.00003198,0.00014333,-0.00024775,-0.00061300,-0.00
 180044,-0.00036854,0.00613947,-0.00013185,-0.00486094,0.00425610,0.000
 66363,-0.00001819,-0.00247055,0.00007098,0.00010107,-0.00038245,-0.000
 01332,0.00000762,0.00006696,-0.00010092,-0.00004376,0.00019871,-0.0035
 6701,-0.01399651,-0.04042629,-0.00011299,0.00012680,0.00022407,-0.0000
 8806,0.00348494,0.00556118,-0.00195470,0.00001877,0.00949314,0.0054649
 3,0.01531057,0.02680397,-0.00004613,0.00020221,-0.00001297,0.00021979,
 -0.00010243,0.00020259,0.00008858,0.00055505,0.00008617,-0.00131510,0.
 00384078,-0.00147823,-0.00040644,-0.00099095,-0.00012965,-0.00017277,0
 .00010126,0.00010129,-0.00001107,-0.00000819,-0.00001433,-0.00000479,-
 0.00002010,-0.00001031,-0.01714080,-0.01253996,-0.00372543,0.00000880,
 0.00003971,-0.00004460,-0.28560294,-0.10698264,-0.04250101,0.00204044,
 0.00255776,0.00030246,0.00077337,0.00011275,0.00091623,0.30007010,0.00
 009334,-0.00016849,0.00000386,-0.00042591,0.00012316,-0.00001471,0.001
 86445,-0.00065443,0.00027220,0.00348247,-0.00201452,0.00007706,0.00032
 965,0.00076682,0.00007383,0.00026611,0.00002174,0.00007408,-0.00001728
 ,0.00000976,-0.00000551,0.00010496,0.00005175,0.00001584,0.01775756,0.
 01218943,0.00305352,-0.00001352,-0.00000039,-0.00001457,-0.10598116,-0
 .10845075,-0.01914043,-0.02856244,-0.00555010,-0.00462816,-0.00050069,
 0.00084783,0.00016574,0.11291440,0.10962739,-0.00001739,0.00002074,0.0
 0008967,0.00018958,0.00003456,-0.00109905,0.00013900,0.00007202,-0.000
 30476,-0.00149215,0.00013245,0.00911405,-0.00007620,-0.00012814,0.0001
 6405,0.00010763,0.00004843,-0.00078904,-0.00001471,-0.00000406,0.00007
 799,-0.00000525,-0.00000325,0.00005629,-0.00250817,-0.00158787,0.00344
 443,-0.00004677,-0.00000636,0.00030284,-0.04245984,-0.01929029,-0.0435
 3391,-0.00095211,0.00013556,0.00060068,0.00089149,0.00025906,-0.005030
 08,0.04666177,0.02069704,0.03309413,0.01302673,-0.02998312,-0.00017084
 ,-0.08998203,0.01533308,-0.01257725,-0.20426744,0.10170835,-0.01744181
 ,0.02640721,0.05813171,0.00406538,-0.01138477,0.00068465,-0.00245131,0
 .00879503,0.02266368,0.00240207,-0.00106705,0.00033490,-0.00029750,0.0
 0257511,0.00187575,0.00099542,-0.05658506,0.00753651,-0.00761379,-0.00
 038818,-0.00037153,-0.00016325,0.01143509,-0.08385974,-0.00539963,-0.2
 8879113,-0.11830158,-0.03919937,-0.00065078,-0.00034117,0.00048999,0.0
 0148543,-0.00093391,-0.00066398,0.65314607,-0.00500211,0.00314542,-0.0
 0089220,0.00024840,0.01684220,0.00086411,0.08569861,-0.18049988,0.0084
 4528,0.03458757,-0.02668985,0.00362165,-0.00357391,-0.00646091,-0.0009
 9915,-0.00142422,-0.00344997,-0.00031852,-0.00057987,0.00044081,-0.000
 10937,0.00047870,0.00124494,0.00026036,-0.00178679,0.00381471,0.000075
 47,0.00187267,-0.00105129,0.00022176,-0.03703999,-0.02693274,-0.007742
 68,-0.10892175,-0.18586056,-0.02156594,0.00008221,0.00028281,0.0001822
 2,0.00008057,-0.00720320,-0.00050065,0.02631604,0.39502199,0.00082881,
 -0.00471852,0.00624776,-0.01318355,0.00317551,-0.00572081,-0.01807880,
 0.01089596,-0.06607012,0.00311709,0.00722444,0.01587630,-0.00262212,-0
 .00034646,0.00437917,0.00143670,0.00337108,-0.00060153,-0.00033343,0.0
 0003076,0.00090810,0.00093849,0.00047427,-0.00326601,-0.00798522,0.001
 50279,-0.00606807,-0.00007288,-0.00012219,0.00056234,-0.00352627,-0.01
 492232,0.02361335,-0.03881437,-0.02298932,-0.07058808,0.00050910,0.000
 11804,-0.00387177,-0.00062497,-0.00065644,0.00546305,0.08689798,0.0161
 4779,0.10644769,0.00006089,-0.00150750,0.00003076,-0.00275727,0.000169
 13,-0.00058176,0.00388388,-0.00586017,-0.00153871,-0.00430090,0.001974
 92,-0.00056854,0.00369656,0.00019588,0.00076665,-0.00239269,0.00025546
 ,-0.00039744,-0.00003659,0.00007439,0.00002738,0.00008370,-0.00001185,
 -0.00001985,0.00613725,-0.00204285,0.00006770,-0.00000991,0.00001909,-
 0.00000394,-0.00237703,0.01920896,-0.00022442,-0.18403343,0.09643767,-
 0.01541094,0.00026640,-0.00009169,0.00003949,0.00000567,-0.00095591,0.
 00024234,-0.07400293,0.00793601,-0.00965521,1.12984177,-0.00073420,0.0
 0127162,-0.00004008,0.00203636,0.00126606,0.00031927,-0.00891895,0.002
 66894,-0.00175523,0.00071297,-0.00224891,0.00002237,-0.00155736,0.0001
 3006,-0.00018306,0.00117265,-0.00107102,0.00012610,-0.00009895,0.00005
 510,-0.00000511,-0.00005820,-0.00007108,-0.00002028,-0.00438405,-0.006
 29962,-0.00113224,-0.00009861,0.00006627,-0.00001330,0.03572867,-0.027
 80303,0.00420250,0.08508830,-0.15237110,0.00929939,0.00143188,-0.00074
 432,0.00018951,0.00020673,0.00033360,0.00011807,0.00466593,0.01925738,
 0.00184190,-0.63932248,0.52886965,0.00006162,-0.00015763,-0.00053167,-
 0.00050657,0.00003281,0.00101212,-0.00166030,-0.00128607,0.01209182,-0
 .00061931,0.00021527,-0.00016106,0.00069595,0.00008559,-0.00114704,-0.
 00036054,-0.00001513,0.00021490,0.00002056,0.00002139,-0.00019253,-0.0
 0002183,-0.00001308,0.00020711,-0.00002702,-0.00077435,0.00512419,-0.0
 0000869,0.00000480,0.00001944,0.00044270,0.00166068,0.00423874,-0.0158
 7336,0.01104657,-0.06048868,0.00010101,-0.00004354,-0.00000150,0.00028
 811,-0.00005960,-0.00178027,-0.00978041,0.00234345,-0.01033274,0.13497
 968,-0.08027193,0.10089898,-0.00032082,0.00084110,-0.00003280,0.001310
 96,0.00044964,0.00025748,-0.00299614,0.00213868,-0.00002743,0.00188674
 ,-0.00145425,0.00024072,-0.00188120,-0.00004129,-0.00032629,0.00156993
 ,-0.00054640,0.00022490,-0.00005841,-0.00000463,-0.00001525,-0.0000028
 4,-0.00003829,0.00000832,-0.00161133,0.00157280,-0.00005410,-0.0000226
 4,0.00004972,0.00000073,-0.00258481,-0.00650907,-0.00081225,-0.0067958
 6,0.01419702,-0.00285935,-0.00038027,0.00015296,-0.00003679,0.00025746
 ,0.00048683,0.00004479,0.00979813,0.00122478,0.00100426,-0.87570047,0.
 52513803,-0.10793830,0.87875426,0.00041350,-0.00064080,0.00003312,-0.0
 0102918,-0.00062183,-0.00017255,0.00285052,-0.00109211,0.00048354,-0.0
 0062332,0.00121419,-0.00004437,0.00094479,0.00004609,0.00013712,-0.000
 86179,0.00060059,-0.00010623,0.00006251,-0.00002319,0.00000703,0.00003
 210,0.00004180,0.00000934,0.00102222,0.00048628,0.00021002,0.00002153,
 -0.00004037,0.00000226,-0.00203330,0.00329026,-0.00022012,0.01466397,0
 .01063233,0.00205081,-0.00009072,0.00000546,-0.00000960,0.00000039,0.0
 0002070,-0.00000291,-0.00223625,-0.00305895,-0.00060745,0.52465004,-0.
 36417222,0.06734941,-0.53854602,0.35389449,-0.00005001,0.00009861,0.00
 010982,0.00019834,0.00005431,-0.00022036,0.00000044,0.00037425,-0.0022
 4233,0.00027413,-0.00017182,-0.00002886,-0.00028699,-0.00001402,0.0001
 9323,0.00021267,-0.00005794,-0.00001223,-0.00001262,-0.00000323,0.0000
 3808,0.00001119,-0.00000151,-0.00006586,-0.00007605,0.00029509,-0.0008
 4624,-0.00000041,0.00000659,-0.00001411,-0.00063327,-0.00090612,0.0008
 7260,-0.00284157,0.00198001,0.01521272,-0.00004682,0.00002775,-0.00010
 580,0.00002535,0.00007171,0.00009965,0.00086528,-0.00007705,0.00368999
 ,-0.10795549,0.06742273,-0.04921525,0.11047266,-0.06921225,0.03255571,
 -0.00772136,0.01627223,-0.00176098,0.00054463,-0.00101410,-0.00072655,
 -0.00374884,0.00460991,-0.00027408,0.00760257,-0.01081221,-0.00005889,
 -0.06898680,0.02722664,-0.01071191,-0.21740716,0.10015016,-0.02292961,
 -0.00082108,0.00083313,0.00019425,-0.00026183,0.00013135,0.00001411,-0
 .00474347,0.00200067,-0.00067176,0.00178926,0.00138198,0.00089684,0.00
 149022,-0.00182898,0.00020080,-0.00318957,0.00223456,-0.00041002,0.000
 07736,-0.00008885,-0.00000195,-0.00028609,0.00007554,-0.00003870,0.002
 39482,-0.00048494,0.00040330,0.00224225,-0.00145167,0.00029160,-0.0017
 0618,0.00108630,-0.00022151,0.53871489,0.04444991,-0.02816104,0.005352
 50,-0.00900947,-0.00493382,-0.00177819,0.00493662,-0.00054067,0.000765
 20,-0.00435946,-0.00144774,-0.00093475,-0.00430544,0.01977815,-0.00019
 103,0.06255454,-0.17014568,0.00442001,-0.00074934,0.00188785,0.0000362
 3,0.00169609,-0.00074644,0.00024295,-0.00061089,0.00038870,-0.00008434
 ,0.00066273,0.00087825,0.00028579,-0.00055364,-0.00124494,-0.00012191,
 0.00295434,0.00020332,0.00045541,-0.00000265,0.00002894,-0.00000204,0.
 00000007,0.00006399,0.00000317,-0.00305357,0.00116656,-0.00040591,-0.0
 0101793,0.00078660,-0.00012214,0.00078691,-0.00050789,0.00009937,-0.02
 424635,0.31068627,-0.00063377,0.00103915,0.00800243,-0.00104722,-0.000
 55372,0.00484375,-0.00025908,0.00071432,-0.00077104,0.00019727,-0.0019
 2114,0.00512084,-0.01197799,0.00463729,0.00645376,-0.02443161,0.010174
 80,-0.04478827,0.00013127,0.00027782,-0.00184325,0.00007699,0.00000314
 ,-0.00030909,-0.00077549,0.00031546,0.00005456,0.00086875,0.00039534,-
 0.00355974,0.00025291,-0.00031781,-0.00028132,-0.00038426,0.00034636,0
 .00005183,0.00000143,-0.00001515,0.00006698,-0.00004179,0.00001470,-0.
 00001896,0.00030059,-0.00001255,-0.00032412,0.00030959,-0.00018872,-0.
 00000756,-0.00023298,0.00014497,-0.00000750,0.07171751,0.00618214,0.07
 532299,0.00558940,-0.00175369,0.00095819,-0.00265636,-0.00203648,-0.00
 050718,0.00228240,-0.00087369,0.00027678,-0.00253675,0.00065878,-0.000
 69675,0.00481143,0.00283922,0.00045311,-0.05091141,-0.00184264,-0.0068
 4893,-0.00155470,-0.00077161,-0.00029224,0.00045369,-0.00027856,0.0000
 5968,0.00065876,-0.00010119,0.00014154,-0.00019409,-0.00035349,0.00008
 241,-0.00038971,-0.00011315,-0.00003066,0.00157442,-0.00015109,0.00022
 529,-0.00008309,0.00000364,-0.00002327,0.00006614,0.00000876,0.0000026
 5,-0.00167779,0.00018812,-0.00019626,-0.00084659,0.00057139,-0.0001188
 1,0.00065185,-0.00042831,0.00008724,-0.17089845,-0.04213112,-0.0191059
 1,0.48101890,0.00703832,-0.00166984,0.00105670,-0.00108253,-0.00022748
 ,-0.00018060,0.00130438,0.00004467,0.00019164,0.00038134,0.00115722,0.
 00001765,0.00388207,-0.00352204,0.00034900,0.01739093,0.01477525,0.003
 52189,0.00191719,-0.00117148,0.00024008,0.00013032,-0.00011687,0.00001
 570,0.00024217,-0.00042160,0.00003198,0.00010687,0.00024493,0.00005917
 ,0.00000872,-0.00019604,0.00000228,0.00075492,0.00010021,0.00011667,-0
 .00004651,0.00000902,-0.00000958,0.00006308,-0.00002242,0.00000670,-0.
 00080149,0.00003323,-0.00010717,-0.00033897,0.00022930,-0.00004583,0.0
 0027191,-0.00018671,0.00003540,-0.07120619,-0.12217390,-0.01351121,-0.
 07354033,0.57584780,0.00131197,-0.00029294,-0.00093670,-0.00046878,-0.
 00032480,0.00003857,0.00036448,-0.00014180,0.00029677,-0.00070640,0.00
 005926,0.00207763,0.00049255,0.00018902,0.00267933,-0.00607349,0.00057
 413,-0.00755001,-0.00018454,-0.00016980,0.00012185,0.00007584,-0.00004
 711,0.00000223,0.00015452,-0.00002083,-0.00026833,0.00010084,-0.000011
 15,-0.00080943,-0.00002579,-0.00001695,-0.00022148,0.00026284,-0.00002
 091,0.00009597,-0.00002526,-0.00000186,0.00006565,0.00000483,-0.000001
 61,0.00005183,-0.00023603,0.00004404,-0.00038028,-0.00015551,0.0000933
 6,0.00006050,0.00011518,-0.00007189,-0.00001437,-0.02027005,-0.0090547
 7,-0.06069165,-0.01628705,-0.01098893,0.56499168,0.00030633,0.00053103
 ,0.00011045,-0.00055449,0.00032824,-0.00050531,0.00025581,0.00043434,0
 .00017021,0.00102236,-0.00054121,-0.00041229,-0.00200533,0.00017135,-0
 .00087916,0.00594978,-0.00424308,0.00257439,-0.00098152,0.00089475,0.0
 0091985,-0.00004533,0.00002178,0.00002510,-0.00050261,0.00000477,0.000
 03258,0.00009871,0.00010328,0.00025612,0.00019485,-0.00033519,0.000034
 61,0.00003413,0.00032909,0.00001069,0.00000894,0.00000491,-0.00000376,
 -0.00000527,-0.00000079,-0.00000834,-0.00015239,0.00003702,0.00007220,
 0.00009419,-0.00004525,-0.00000412,-0.00005881,0.00003472,-0.00000481,
 -0.02402568,-0.02477514,0.02063194,-0.05995743,-0.02573877,0.03790247,
 0.07161623,-0.00053219,0.00044467,-0.00033812,0.00047605,0.00007364,0.
 00027502,-0.00052871,0.00005112,0.00000575,0.00018165,-0.00011181,-0.0
 0011021,-0.00064847,0.00016831,-0.00018877,0.00315673,-0.00140387,-0.0
 0010453,0.00096230,-0.00013529,-0.00044509,-0.00002295,0.00003466,-0.0
 0004508,-0.00002254,0.00005094,0.00002114,0.00004743,0.00004527,0.0001
 2054,0.00000656,0.00010026,0.00000642,-0.00029076,-0.00005598,-0.00004
 606,0.00001465,-0.00000373,0.00000340,-0.00001458,0.00000199,0.0000003
 1,0.00033425,-0.00003788,-0.00000055,0.00011924,-0.00008589,0.00002189
 ,-0.00009619,0.00006395,-0.00001561,-0.01524574,-0.01058171,0.00726688
 ,-0.02923385,-0.13493570,0.11478306,0.04133943,0.14739994,0.00078154,0
 .00101926,0.00028939,-0.00050613,-0.00042341,-0.00018012,0.00025542,0.
 00014911,-0.00001818,-0.00011495,0.00000994,-0.00014859,0.00026009,-0.
 00024268,-0.00030548,-0.00061870,0.00053495,0.00083736,-0.00035357,-0.
 00057339,-0.00011048,0.00003342,-0.00000837,0.00002677,0.00005082,-0.0
 0001356,0.00005274,-0.00005428,-0.00003207,0.00003505,-0.00005665,-0.0
 0002416,-0.00000653,0.00011243,-0.00001455,0.00001989,-0.00000902,-0.0
 0000832,-0.00000806,0.00000352,-0.00000151,-0.00000571,-0.00022290,-0.
 00001017,0.00001308,-0.00004163,0.00002365,-0.00001404,0.00002001,-0.0
 0001546,0.00000651,0.00033815,-0.00563711,0.01167445,0.04231494,0.1163
 2615,-0.21008559,-0.04662180,-0.12739194,0.21811502,-0.00016331,-0.000
 86980,-0.00010175,0.00012158,0.00032646,0.00000237,-0.00001458,0.00004
 218,0.00001655,-0.00001850,-0.00054512,-0.00001442,-0.00127110,0.00118
 970,-0.00017799,-0.00165359,-0.00435451,-0.00051416,0.00036515,0.00018
 349,0.00012834,-0.00004704,0.00002180,-0.00001357,-0.00015670,0.000155
 25,-0.00001263,-0.00001076,-0.00004344,-0.00000643,-0.00001053,-0.0000
 7026,-0.00000414,-0.00007632,0.00003420,-0.00001642,0.00000411,-0.0000
 0821,-0.00000022,-0.00001787,0.00000946,-0.00000361,0.00007063,0.00002
 198,0.00001630,0.00007475,-0.00004663,0.00001010,-0.00006169,0.0000382
 3,-0.00000763,-0.03663489,0.01979658,-0.00488309,-0.15470695,0.1291748
 6,-0.01064578,0.00704855,-0.00492836,-0.00026132,0.18571113,-0.0004045
 8,-0.00108602,-0.00011648,0.00009849,0.00047720,0.00002637,0.00009129,
 -0.00009382,0.00001471,0.00005600,-0.00020820,0.00000281,-0.00065421,0
 .00064032,-0.00008289,-0.00332310,-0.00084812,-0.00056529,0.00060275,0
 .00050115,0.00012948,-0.00003868,0.00001133,-0.00000738,-0.00015447,0.
 00003751,-0.00002080,0.00001283,-0.00002348,0.00000028,0.00005881,-0.0
 0010089,0.00000507,0.00004866,0.00009791,0.00000973,0.00000112,0.00000
 565,0.00000026,-0.00000233,0.00000411,-0.00000053,-0.00000602,0.000037
 97,0.00000185,-0.00000792,0.00001537,-0.00000045,0.00002035,-0.0000139
 9,0.00000264,-0.01790570,0.01446847,-0.00217315,0.14268372,-0.21124840
 ,0.01532040,0.01096250,-0.01212631,-0.00020545,-0.14129139,0.22004913,
 -0.00008389,-0.00018732,0.00025420,-0.00000678,0.00006119,0.00019294,0
 .00001838,0.00000715,-0.00010869,0.00000979,-0.00008894,-0.00007118,-0
 .00025147,0.00019984,0.00017076,-0.00047910,-0.00072289,0.00048235,0.0
 0014532,0.00006484,-0.00040144,-0.00001601,0.00000191,0.00004500,-0.00
 002494,0.00002662,-0.00003643,-0.00000430,-0.00000846,0.00001965,0.000
 00099,-0.00001464,-0.00000228,-0.00001592,0.00000751,0.00003809,0.0000
 0016,-0.00000117,0.00000334,-0.00000409,0.00000129,0.00000763,0.000015
 23,0.00000608,-0.00002762,0.00001164,-0.00000641,-0.00000196,-0.000008
 33,0.00000537,-0.00000298,-0.00640656,0.00359482,-0.00032460,-0.010096
 45,0.01325256,-0.05185644,-0.01654074,0.01935079,-0.00050627,0.0155195
 2,-0.01458473,0.04856208,0.00055785,0.00081073,0.00003605,-0.00081774,
 0.00015149,0.00032220,0.00035326,0.00046531,-0.00001596,0.00077168,-0.
 00055627,0.00065622,-0.00202369,0.00003805,0.00034356,0.00605821,-0.00
 371443,-0.00125158,-0.00075590,0.00075947,-0.00106712,-0.00002200,0.00
 002074,-0.00003931,-0.00042897,0.00000915,-0.00018323,0.00014843,0.000
 10696,-0.00021115,0.00017435,-0.00032684,-0.00000478,0.00006765,0.0003
 0986,0.00002934,0.00000357,0.00000169,0.00000760,-0.00000652,-0.000001
 93,0.00000798,-0.00018469,0.00004092,-0.00013115,0.00007049,-0.0000365
 7,0.00002792,-0.00004785,0.00002807,-0.00001015,-0.01442458,-0.0230227
 9,-0.03071505,-0.05069365,0.01008773,0.01429315,0.00165898,0.00492605,
 0.00469059,0.00144794,0.00915190,0.01821754,0.05809319,-0.00055361,0.0
 0049850,0.00019725,0.00049991,0.00005069,-0.00011806,-0.00048709,0.000
 06387,-0.00014987,0.00011903,-0.00011503,0.00015047,-0.00063692,0.0001
 3772,0.00002367,0.00288194,-0.00134441,0.00086635,0.00075974,-0.000237
 98,0.00070605,-0.00003204,0.00003040,0.00003767,-0.00000506,0.00005160
 ,-0.00002349,0.00007513,0.00005005,-0.00009824,0.00000021,0.00010220,0
 .00000261,-0.00028135,-0.00006080,-0.00004621,0.00001404,-0.00000438,0
 .00000113,-0.00001358,0.00000203,-0.00000405,0.00030350,-0.00004280,0.
 00009197,0.00011649,-0.00008276,0.00000789,-0.00009459,0.00006191,-0.0
 0000890,-0.01171774,-0.00985328,-0.01281892,0.00665557,-0.11654914,-0.
 10989791,0.00048220,0.01104340,0.01653912,0.00116351,-0.01059689,-0.02
 096541,0.00075071,0.12679510,-0.00073261,-0.00078466,-0.00001167,0.000
 34247,0.00050336,0.00010500,-0.00017770,0.00000019,-0.00012812,0.00041
 432,-0.00018392,0.00010528,-0.00085611,0.00030600,-0.00025763,0.002505
 62,-0.00191390,0.00066570,0.00020772,0.00082308,-0.00023087,-0.0000515
 8,0.00001606,0.00000762,-0.00020282,0.00001769,-0.00002157,0.00009585,
 0.00006776,-0.00001966,0.00011330,-0.00006906,0.00001193,-0.00012116,0
 .00010729,-0.00000874,0.00001376,0.00000943,-0.00000206,-0.00000493,0.
 00000166,-0.00000453,0.00018613,0.00001610,0.00005033,0.00007824,-0.00
 004248,0.00000649,-0.00004519,0.00002987,-0.00000244,-0.00957399,-0.00
 310540,0.00133549,0.00960168,-0.11038026,-0.23766773,0.00223971,-0.013
 16924,-0.01968121,0.00096997,0.00224354,0.00356384,-0.00500267,0.12550
 688,0.25218455\\-0.00000209,0.00000457,-0.00000792,-0.00002374,-0.0000
 0283,-0.00000326,0.00004083,0.00000625,0.00000664,0.00005820,-0.000003
 26,0.00002109,-0.00007252,0.00001186,-0.00000626,0.00004077,0.00000229
 ,-0.00000796,-0.00000590,-0.00000666,0.00000684,-0.00000384,0.00000487
 ,0.00000121,-0.00004637,0.00001144,-0.00000914,0.00000570,-0.00000669,
 -0.00000134,0.00002637,-0.00003238,0.00002307,0.00001291,0.00005161,-0
 .00005511,0.00000172,-0.00000470,-0.00000217,-0.00001065,0.00000600,0.
 00000021,-0.00004516,-0.00000779,0.00001007,-0.00000359,-0.00000096,0.
 00001926,0.00000980,-0.00000872,-0.00000047,0.00002502,-0.00001187,-0.
 00000379,0.00000549,-0.00001038,0.00003345,-0.00000571,-0.00000406,-0.
 00000560,-0.00001214,0.00000883,-0.00000029,0.00000491,-0.00000741,-0.
 00001852\\\@


 THIS CURIOUS WORLD WHICH WE INHABIT IS MORE WONDERFUL THAN IT IS CONVENIENT;
 MORE BEAUTIFUL THAN IT IS USEFUL;
 IT IS MORE TO BE ADMIRED THAN IT IS TO BE USED.

                                                                 -- THOREAU
 Job cpu time:       0 days  1 hours 45 minutes 10.7 seconds.
 File lengths (MBytes):  RWF=    293 Int=      0 D2E=      0 Chk=     11 Scr=      1
 Normal termination of Gaussian 09 at Mon Jan  9 17:51:14 2023.
