 Entering Gaussian System, Link 0=g09
 Initial command:
 /cm/shared/apps/gaussian/g09revD.01/g09/l1.exe "//home/sweav003/CHB/validation/natProd2/G09-Kopsifoline8-11_Movassaghi_fixed.com.o10259839.tmp/Gau-219640.inp" -scrdir="//home/sweav003/CHB/validation/natProd2/G09-Kopsifoline8-11_Movassaghi_fixed.com.o10259839.tmp/"
 Entering Link 1 = /cm/shared/apps/gaussian/g09revD.01/g09/l1.exe PID=    219641.
  
 Copyright (c) 1988,1990,1992,1993,1995,1998,2003,2009,2013,
            Gaussian, Inc.  All Rights Reserved.
  
 This is part of the Gaussian(R) 09 program.  It is based on
 the Gaussian(R) 03 system (copyright 2003, Gaussian, Inc.),
 the Gaussian(R) 98 system (copyright 1998, Gaussian, Inc.),
 the Gaussian(R) 94 system (copyright 1995, Gaussian, Inc.),
 the Gaussian 92(TM) system (copyright 1992, Gaussian, Inc.),
 the Gaussian 90(TM) system (copyright 1990, Gaussian, Inc.),
 the Gaussian 88(TM) system (copyright 1988, Gaussian, Inc.),
 the Gaussian 86(TM) system (copyright 1986, Carnegie Mellon
 University), and the Gaussian 82(TM) system (copyright 1983,
 Carnegie Mellon University). Gaussian is a federally registered
 trademark of Gaussian, Inc.
  
 This software contains proprietary and confidential information,
 including trade secrets, belonging to Gaussian, Inc.
  
 This software is provided under written license and may be
 used, copied, transmitted, or stored only in accord with that
 written license.
  
 The following legend is applicable only to US Government
 contracts under FAR:
  
                    RESTRICTED RIGHTS LEGEND
  
 Use, reproduction and disclosure by the US Government is
 subject to restrictions as set forth in subparagraphs (a)
 and (c) of the Commercial Computer Software - Restricted
 Rights clause in FAR 52.227-19.
  
 Gaussian, Inc.
 340 Quinnipiac St., Bldg. 40, Wallingford CT 06492
  
  
 ---------------------------------------------------------------
 Warning -- This program may not be used in any manner that
 competes with the business of Gaussian, Inc. or will provide
 assistance to any competitor of Gaussian, Inc.  The licensee
 of this program is prohibited from giving any competitor of
 Gaussian, Inc. access to this program.  By using this program,
 the user acknowledges that Gaussian, Inc. is engaged in the
 business of creating and licensing software in the field of
 computational chemistry and represents and warrants to the
 licensee that it is not a competitor of Gaussian, Inc. and that
 it will not use this program in any manner prohibited above.
 ---------------------------------------------------------------
  

 Cite this work as:
 Gaussian 09, Revision D.01,
 M. J. Frisch, G. W. Trucks, H. B. Schlegel, G. E. Scuseria, 
 M. A. Robb, J. R. Cheeseman, G. Scalmani, V. Barone, B. Mennucci, 
 G. A. Petersson, H. Nakatsuji, M. Caricato, X. Li, H. P. Hratchian, 
 A. F. Izmaylov, J. Bloino, G. Zheng, J. L. Sonnenberg, M. Hada, 
 M. Ehara, K. Toyota, R. Fukuda, J. Hasegawa, M. Ishida, T. Nakajima, 
 Y. Honda, O. Kitao, H. Nakai, T. Vreven, J. A. Montgomery, Jr., 
 J. E. Peralta, F. Ogliaro, M. Bearpark, J. J. Heyd, E. Brothers, 
 K. N. Kudin, V. N. Staroverov, T. Keith, R. Kobayashi, J. Normand, 
 K. Raghavachari, A. Rendell, J. C. Burant, S. S. Iyengar, J. Tomasi, 
 M. Cossi, N. Rega, J. M. Millam, M. Klene, J. E. Knox, J. B. Cross, 
 V. Bakken, C. Adamo, J. Jaramillo, R. Gomperts, R. E. Stratmann, 
 O. Yazyev, A. J. Austin, R. Cammi, C. Pomelli, J. W. Ochterski, 
 R. L. Martin, K. Morokuma, V. G. Zakrzewski, G. A. Voth, 
 P. Salvador, J. J. Dannenberg, S. Dapprich, A. D. Daniels, 
 O. Farkas, J. B. Foresman, J. V. Ortiz, J. Cioslowski, 
 and D. J. Fox, Gaussian, Inc., Wallingford CT, 2013.
 
 ******************************************
 Gaussian 09:  ES64L-G09RevD.01 24-Apr-2013
                 9-Feb-2023 
 ******************************************
 %nprocshared=20
 Will use up to   20 processors via shared memory.
 %mem=4GB
 %chk=Kopsifoline8-11_Movassaghi_fixed.chk
 ----------------------------------------------------------------------
 # opt=rcfc freq=noraman b3lyp/6-311+g(d,p) geom=allcheck pop=(hirshfel
 d,chelpg,npa,mbs) guess=read
 ----------------------------------------------------------------------
 1/10=5,14=-1,18=20,19=15,26=3,29=7,38=1/1,3;
 2/9=110,12=2,40=1/2;
 3/5=4,6=6,7=111,11=2,14=-4,16=1,25=1,30=1,71=1,74=-5,116=-2/1,2,3;
 4/5=1/1;
 5/5=2,38=6/2;
 6/7=2,8=2,9=2,10=2,15=8,20=3,27=100,28=1,40=-1,79=1/1,2,7;
 7//1,2,3,16;
 1/14=-1,18=20,19=15,26=3/3(2);
 2/9=110/2;
 99//99;
 2/9=110/2;
 3/5=4,6=6,7=111,11=2,14=-2,16=1,25=1,30=1,71=1,74=-5/1,2,3;
 4/5=5,16=3,69=1/1;
 5/5=2,38=5/2;
 7//1,2,3,16;
 1/14=-1,18=20,19=15,26=3/3(-5);
 2/9=110/2;
 6/7=2,8=2,9=2,10=2,15=8,19=2,20=3,27=100,28=1,40=-1,79=1/1,2,7;
 99/9=1/99;
 Structure from the checkpoint file:  "Kopsifoline8-11_Movassaghi_fixed.chk"
 -------------------
 Title Card Required
 -------------------
 Charge =  0 Multiplicity = 1
 Redundant internal coordinates found in file.
 N,0,-1.0788340301,-2.7930103608,6.6765860464
 C,0,-2.4194227732,-3.7689870199,5.0329478221
 C,0,-2.1175744989,-2.4999341916,5.819062105
 H,0,-0.6687941366,-2.062608816,7.240360815
 C,0,-3.5738868088,-4.5916034614,5.7362224063
 H,0,-4.2364518536,-3.9107739822,6.273623139
 H,0,-3.1722576632,-5.3217807212,6.4387639308
 C,0,-4.3269342817,-5.2078403235,4.5585839946
 H,0,-3.8080424022,-6.1093041492,4.178754121
 H,0,-5.3504768345,-5.4967846052,4.8150101132
 N,0,-4.3208613183,-4.1049024407,3.6218111375
 C,0,-2.9790985307,-3.5231880535,3.5949522196
 H,0,-2.3322356088,-4.0523583151,2.8722860812
 C,0,-3.0815618974,-2.0384349181,3.167952092
 C,0,-2.7440195479,-1.3154717123,5.5811249243
 C,0,-3.6583155284,-1.2371259466,4.3714862785
 H,0,-3.8052176256,-0.1900025328,4.1080693821
 H,0,-4.6497408394,-1.6455505383,4.5889846384
 C,0,-4.0182341642,-1.9644881562,1.9709789608
 H,0,-3.9771027366,-1.0423740745,1.4035501061
 C,0,-4.8027305463,-2.9638832383,1.5652008339
 H,0,-5.399610123,-2.8588733992,0.6639102696
 C,0,-4.9212626865,-4.2618954192,2.3171672796
 H,0,-4.4596493694,-5.0857941617,1.731649866
 H,0,-5.9781767594,-4.5266063256,2.4404700724
 C,0,-2.4795595344,-0.0818788531,6.3138624073
 O,0,-2.9400392256,1.011127377,6.0467374496
 O,0,-1.6213381335,-0.2439266626,7.379268309
 C,0,-1.3479778037,0.9450606934,8.1407139231
 H,0,-0.8698122752,1.7017420127,7.5170947621
 H,0,-2.2704343846,1.3553783806,8.5530698816
 H,0,-0.6798380272,0.6328336157,8.9417082176
 C,0,-1.6694078338,-1.5411585047,2.7375861926
 H,0,-1.4164883713,-2.0133854353,1.782234063
 H,0,-0.9267309975,-1.8975346853,3.4597307618
 C,0,-1.4424897154,-0.0354022073,2.6089988461
 H,0,-0.3718886554,0.122829435,2.4223658996
 H,0,-1.6858154304,0.4713803046,3.549548529
 O,0,-2.1955059365,0.5233759236,1.5362382261
 Si,0,-2.5288011476,2.1459749968,1.234734772
 C,0,-3.4602634017,2.8882262747,2.695041261
 H,0,-4.4491335878,2.4281896532,2.7830866869
 H,0,-2.9477605048,2.7321532032,3.6479310949
 H,0,-3.6090116618,3.9651826502,2.5682294066
 C,0,-3.633417416,2.0857029066,-0.2854135578
 H,0,-4.0001399917,3.0790685331,-0.5593276627
 H,0,-3.1108709472,1.666693153,-1.1494161772
 H,0,-4.50448655,1.4542891528,-0.0875702016
 C,0,-0.9126020222,3.1288194551,0.8792000091
 C,0,-0.0429079612,2.3602131653,-0.1375766286
 H,0,0.8756054793,2.92142813,-0.3529286314
 H,0,0.2506603316,1.3754871996,0.236605935
 H,0,-0.5623387906,2.2086309406,-1.0886587942
 C,0,-0.1008888578,3.3489968139,2.1741155264
 H,0,0.8123143392,3.9174857447,1.954678468
 H,0,-0.6661179439,3.9147634632,2.9203115679
 H,0,0.2082693642,2.407045524,2.6358221317
 C,0,-1.2707864832,4.5102256147,0.2876053308
 H,0,-0.3566160863,5.0856238243,0.092940014
 H,0,-1.8090034711,4.4241319836,-0.6606832888
 H,0,-1.8867567125,5.104805657,0.9700319783
 C,0,0.5940410866,-6.216926402,5.0311101884
 C,0,1.2873441952,-5.6197319851,6.0823686787
 C,0,0.7986713628,-4.4677955461,6.7085956616
 C,0,-1.1133030411,-4.532644806,5.1906631765
 C,0,-0.6203629351,-5.6759374287,4.5843258336
 H,0,0.9958848758,-7.1031219144,4.5543299075
 H,0,2.2245635055,-6.0480360788,6.4193359533
 H,0,1.3437424395,-4.0019691337,7.5217808883
 H,0,-1.1551136672,-6.147951196,3.7676028454
 C,0,-0.3973754793,-3.9387448596,6.2420436027
 Recover connectivity data from disk.

 GradGradGradGradGradGradGradGradGradGradGradGradGradGradGradGradGradGrad
 Berny optimization.
 Initialization pass.
 Cartesian force constants read from checkpoint file:
 "Kopsifoline8-11_Movassaghi_fixed.chk"
 FormGI is forming the generalized inverse of G from B-inverse, IUseBI=4.
                           ----------------------------
                           !    Initial Parameters    !
                           ! (Angstroms and Degrees)  !
 --------------------------                            --------------------------
 ! Name  Definition              Value          Derivative Info.                !
 --------------------------------------------------------------------------------
 ! R1    R(1,3)                  1.3785         D2E/DX2 =    0.3344             !
 ! R2    R(1,4)                  1.0097         D2E/DX2 =    0.4644             !
 ! R3    R(1,71)                 1.4021         D2E/DX2 =    0.2914             !
 ! R4    R(2,3)                  1.523          D2E/DX2 =    0.1766             !
 ! R5    R(2,5)                  1.5824         D2E/DX2 =    0.1799             !
 ! R6    R(2,12)                 1.5625         D2E/DX2 =    0.1631             !
 ! R7    R(2,65)                 1.5212         D2E/DX2 =    0.2257             !
 ! R8    R(3,15)                 1.3609         D2E/DX2 =    0.4606             !
 ! R9    R(5,6)                  1.0915         D2E/DX2 =    0.3361             !
 ! R10   R(5,7)                  1.09           D2E/DX2 =    0.3405             !
 ! R11   R(5,8)                  1.5276         D2E/DX2 =    0.2175             !
 ! R12   R(8,9)                  1.1073         D2E/DX2 =    0.2976             !
 ! R13   R(8,10)                 1.094          D2E/DX2 =    0.3299             !
 ! R14   R(8,11)                 1.4471         D2E/DX2 =    0.2505             !
 ! R15   R(11,12)                1.4627         D2E/DX2 =    0.1725             !
 ! R16   R(11,23)                1.4447         D2E/DX2 =    0.2911             !
 ! R17   R(12,13)                1.1049         D2E/DX2 =    0.3015             !
 ! R18   R(12,14)                1.5483         D2E/DX2 =    0.1726             !
 ! R19   R(14,16)                1.5567         D2E/DX2 =    0.202              !
 ! R20   R(14,19)                1.5217         D2E/DX2 =    0.2364             !
 ! R21   R(14,33)                1.5578         D2E/DX2 =    0.2544             !
 ! R22   R(15,16)                1.5183         D2E/DX2 =    0.2395             !
 ! R23   R(15,26)                1.459          D2E/DX2 =    0.3426             !
 ! R24   R(16,17)                1.0897         D2E/DX2 =    0.3424             !
 ! R25   R(16,18)                1.0941         D2E/DX2 =    0.3288             !
 ! R26   R(19,20)                1.0835         D2E/DX2 =    0.3587             !
 ! R27   R(19,21)                1.3337         D2E/DX2 =    0.5117             !
 ! R28   R(21,22)                1.0861         D2E/DX2 =    0.3504             !
 ! R29   R(21,23)                1.5048         D2E/DX2 =    0.2471             !
 ! R30   R(23,24)                1.1112         D2E/DX2 =    0.2896             !
 ! R31   R(23,25)                1.0965         D2E/DX2 =    0.3238             !
 ! R32   R(26,27)                1.2158         D2E/DX2 =    0.7804             !
 ! R33   R(26,28)                1.3776         D2E/DX2 =    0.3242             !
 ! R34   R(28,29)                1.4381         D2E/DX2 =    0.314              !
 ! R35   R(29,30)                1.0909         D2E/DX2 =    0.3392             !
 ! R36   R(29,31)                1.0906         D2E/DX2 =    0.3403             !
 ! R37   R(29,32)                1.0888         D2E/DX2 =    0.3454             !
 ! R38   R(33,34)                1.0953         D2E/DX2 =    0.3285             !
 ! R39   R(33,35)                1.0955         D2E/DX2 =    0.3288             !
 ! R40   R(33,36)                1.5282         D2E/DX2 =    0.2766             !
 ! R41   R(36,37)                1.0982         D2E/DX2 =    0.3171             !
 ! R42   R(36,38)                1.0958         D2E/DX2 =    0.3272             !
 ! R43   R(36,39)                1.4248         D2E/DX2 =    0.3231             !
 ! R44   R(39,40)                1.6837         D2E/DX2 =    0.2746             !
 ! R45   R(40,41)                1.8844         D2E/DX2 =    0.1795             !
 ! R46   R(40,45)                1.8801         D2E/DX2 =    0.1837             !
 ! R47   R(40,49)                1.9247         D2E/DX2 =    0.1612             !
 ! R48   R(41,42)                1.0942         D2E/DX2 =    0.3339             !
 ! R49   R(41,43)                1.0932         D2E/DX2 =    0.3368             !
 ! R50   R(41,44)                1.0946         D2E/DX2 =    0.3334             !
 ! R51   R(45,46)                1.0938         D2E/DX2 =    0.3353             !
 ! R52   R(45,47)                1.0932         D2E/DX2 =    0.3362             !
 ! R53   R(45,48)                1.0939         D2E/DX2 =    0.3347             !
 ! R54   R(49,50)                1.543          D2E/DX2 =    0.2603             !
 ! R55   R(49,54)                1.5441         D2E/DX2 =    0.2592             !
 ! R56   R(49,58)                1.5449         D2E/DX2 =    0.2576             !
 ! R57   R(50,51)                1.0977         D2E/DX2 =    0.3231             !
 ! R58   R(50,52)                1.0936         D2E/DX2 =    0.3337             !
 ! R59   R(50,53)                1.0942         D2E/DX2 =    0.332              !
 ! R60   R(54,55)                1.0978         D2E/DX2 =    0.3226             !
 ! R61   R(54,56)                1.0938         D2E/DX2 =    0.3334             !
 ! R62   R(54,57)                1.0936         D2E/DX2 =    0.3339             !
 ! R63   R(58,59)                1.0976         D2E/DX2 =    0.3233             !
 ! R64   R(58,60)                1.0938         D2E/DX2 =    0.3331             !
 ! R65   R(58,61)                1.0948         D2E/DX2 =    0.3307             !
 ! R66   R(62,63)                1.3937         D2E/DX2 =    0.3862             !
 ! R67   R(62,66)                1.4025         D2E/DX2 =    0.3739             !
 ! R68   R(62,67)                1.0836         D2E/DX2 =    0.3567             !
 ! R69   R(63,64)                1.3993         D2E/DX2 =    0.3813             !
 ! R70   R(63,68)                1.0841         D2E/DX2 =    0.3559             !
 ! R71   R(64,69)                1.0841         D2E/DX2 =    0.3556             !
 ! R72   R(64,71)                1.3886         D2E/DX2 =    0.3986             !
 ! R73   R(65,66)                1.3848         D2E/DX2 =    0.4035             !
 ! R74   R(65,71)                1.4038         D2E/DX2 =    0.287              !
 ! R75   R(66,70)                1.0843         D2E/DX2 =    0.3548             !
 ! A1    A(3,1,4)              119.9712         D2E/DX2 =    0.0666             !
 ! A2    A(3,1,71)             110.3146         D2E/DX2 =    0.0805             !
 ! A3    A(4,1,71)             124.527          D2E/DX2 =    0.0626             !
 ! A4    A(3,2,5)              110.3868         D2E/DX2 =    0.0144             !
 ! A5    A(3,2,12)             114.515          D2E/DX2 =    0.0204             !
 ! A6    A(3,2,65)             101.2224         D2E/DX2 =    0.0277             !
 ! A7    A(5,2,12)             103.2657         D2E/DX2 =    0.0283             !
 ! A8    A(5,2,65)             108.6243         D2E/DX2 =    0.0196             !
 ! A9    A(12,2,65)            118.8118         D2E/DX2 =    0.0179             !
 ! A10   A(1,3,2)              107.0543         D2E/DX2 =    0.0631             !
 ! A11   A(1,3,15)             129.8426         D2E/DX2 =    0.0847             !
 ! A12   A(2,3,15)             122.9395         D2E/DX2 =    0.0569             !
 ! A13   A(2,5,6)              109.7198         D2E/DX2 =    0.0274             !
 ! A14   A(2,5,7)              111.4618         D2E/DX2 =    0.0293             !
 ! A15   A(2,5,8)              103.1046         D2E/DX2 =    0.0522             !
 ! A16   A(6,5,7)              108.9168         D2E/DX2 =    0.0158             !
 ! A17   A(6,5,8)              109.3867         D2E/DX2 =    0.0257             !
 ! A18   A(7,5,8)              114.0972         D2E/DX2 =    0.0309             !
 ! A19   A(5,8,9)              111.2128         D2E/DX2 =    0.0333             !
 ! A20   A(5,8,10)             112.7709         D2E/DX2 =    0.0366             !
 ! A21   A(5,8,11)             100.9243         D2E/DX2 =    0.0583             !
 ! A22   A(9,8,10)             107.686          D2E/DX2 =    0.0203             !
 ! A23   A(9,8,11)             113.3575         D2E/DX2 =    0.0297             !
 ! A24   A(10,8,11)            110.9136         D2E/DX2 =    0.0333             !
 ! A25   A(8,11,12)            108.5939         D2E/DX2 =    0.0457             !
 ! A26   A(8,11,23)            120.0012         D2E/DX2 =    0.052              !
 ! A27   A(12,11,23)           114.0705         D2E/DX2 =    0.0398             !
 ! A28   A(2,12,11)            104.4251         D2E/DX2 =    0.0282             !
 ! A29   A(2,12,13)            108.4757         D2E/DX2 =    0.0178             !
 ! A30   A(2,12,14)            115.3632         D2E/DX2 =    0.0255             !
 ! A31   A(11,12,13)           111.0145         D2E/DX2 =    0.0127             !
 ! A32   A(11,12,14)           109.0099         D2E/DX2 =    0.023              !
 ! A33   A(13,12,14)           108.5206         D2E/DX2 =    0.0181             !
 ! A34   A(12,14,16)           107.7534         D2E/DX2 =    0.0235             !
 ! A35   A(12,14,19)           107.7139         D2E/DX2 =    0.0216             !
 ! A36   A(12,14,33)           108.8029         D2E/DX2 =    0.0241             !
 ! A37   A(16,14,19)           110.7985         D2E/DX2 =    0.0198             !
 ! A38   A(16,14,33)           112.6526         D2E/DX2 =    0.0324             !
 ! A39   A(19,14,33)           108.9762         D2E/DX2 =    0.0277             !
 ! A40   A(3,15,16)            117.4775         D2E/DX2 =    0.0637             !
 ! A41   A(3,15,26)            124.3789         D2E/DX2 =    0.1975             !
 ! A42   A(16,15,26)           117.7521         D2E/DX2 =    0.1872             !
 ! A43   A(14,16,15)           111.487          D2E/DX2 =    0.0523             !
 ! A44   A(14,16,17)           110.9589         D2E/DX2 =    0.04               !
 ! A45   A(14,16,18)           107.2939         D2E/DX2 =    0.0412             !
 ! A46   A(15,16,17)           108.8658         D2E/DX2 =    0.0403             !
 ! A47   A(15,16,18)           111.5941         D2E/DX2 =    0.0336             !
 ! A48   A(17,16,18)           106.5356         D2E/DX2 =    0.0181             !
 ! A49   A(14,19,20)           115.4635         D2E/DX2 =    0.0763             !
 ! A50   A(14,19,21)           124.3995         D2E/DX2 =    0.0575             !
 ! A51   A(20,19,21)           120.0467         D2E/DX2 =    0.0751             !
 ! A52   A(19,21,22)           120.2165         D2E/DX2 =    0.0785             !
 ! A53   A(19,21,23)           122.7281         D2E/DX2 =    0.0757             !
 ! A54   A(22,21,23)           117.052          D2E/DX2 =    0.0787             !
 ! A55   A(11,23,21)           108.9533         D2E/DX2 =    0.0634             !
 ! A56   A(11,23,24)           112.5674         D2E/DX2 =    0.0439             !
 ! A57   A(11,23,25)           108.9814         D2E/DX2 =    0.0459             !
 ! A58   A(21,23,24)           110.0927         D2E/DX2 =    0.0394             !
 ! A59   A(21,23,25)           109.8988         D2E/DX2 =    0.041              !
 ! A60   A(24,23,25)           106.3007         D2E/DX2 =    0.0225             !
 ! A61   A(15,26,27)           125.5314         D2E/DX2 =    0.1867             !
 ! A62   A(15,26,28)           113.6949         D2E/DX2 =    0.2359             !
 ! A63   A(27,26,28)           120.7722         D2E/DX2 =    0.236              !
 ! A64   A(26,28,29)           115.5077         D2E/DX2 =    0.3146             !
 ! A65   A(28,29,30)           110.7383         D2E/DX2 =    0.1409             !
 ! A66   A(28,29,31)           110.5168         D2E/DX2 =    0.1406             !
 ! A67   A(28,29,32)           105.609          D2E/DX2 =    0.1415             !
 ! A68   A(30,29,31)           109.0217         D2E/DX2 =    0.0707             !
 ! A69   A(30,29,32)           110.5162         D2E/DX2 =    0.0687             !
 ! A70   A(31,29,32)           110.4129         D2E/DX2 =    0.0685             !
 ! A71   A(14,33,34)           108.2202         D2E/DX2 =    0.0572             !
 ! A72   A(14,33,35)           109.1842         D2E/DX2 =    0.0545             !
 ! A73   A(14,33,36)           118.1897         D2E/DX2 =    0.1814             !
 ! A74   A(34,33,35)           106.1514         D2E/DX2 =    0.0175             !
 ! A75   A(34,33,36)           108.4897         D2E/DX2 =    0.0569             !
 ! A76   A(35,33,36)           105.9825         D2E/DX2 =    0.0597             !
 ! A77   A(33,36,37)           107.5192         D2E/DX2 =    0.0755             !
 ! A78   A(33,36,38)           110.5186         D2E/DX2 =    0.078              !
 ! A79   A(33,36,39)           111.7958         D2E/DX2 =    0.19               !
 ! A80   A(37,36,38)           107.2005         D2E/DX2 =    0.028              !
 ! A81   A(37,36,39)           109.3149         D2E/DX2 =    0.0642             !
 ! A82   A(38,36,39)           110.3364         D2E/DX2 =    0.0712             !
 ! A83   A(36,39,40)           128.1261         D2E/DX2 =    0.1415             !
 ! A84   A(39,40,41)           109.7961         D2E/DX2 =    0.0212             !
 ! A85   A(39,40,45)           103.309          D2E/DX2 =    0.0212             !
 ! A86   A(39,40,49)           111.037          D2E/DX2 =    0.0226             !
 ! A87   A(41,40,45)           110.4133         D2E/DX2 =    0.0284             !
 ! A88   A(41,40,49)           110.9207         D2E/DX2 =    0.0328             !
 ! A89   A(45,40,49)           111.1234         D2E/DX2 =    0.0322             !
 ! A90   A(40,41,42)           110.0884         D2E/DX2 =    0.0693             !
 ! A91   A(40,41,43)           112.8003         D2E/DX2 =    0.0727             !
 ! A92   A(40,41,44)           111.4044         D2E/DX2 =    0.0675             !
 ! A93   A(42,41,43)           107.0695         D2E/DX2 =    0.0446             !
 ! A94   A(42,41,44)           107.4685         D2E/DX2 =    0.0433             !
 ! A95   A(43,41,44)           107.7689         D2E/DX2 =    0.0463             !
 ! A96   A(40,45,46)           111.7386         D2E/DX2 =    0.0697             !
 ! A97   A(40,45,47)           111.7451         D2E/DX2 =    0.0698             !
 ! A98   A(40,45,48)           109.8847         D2E/DX2 =    0.07               !
 ! A99   A(46,45,47)           108.0858         D2E/DX2 =    0.0451             !
 ! A100  A(46,45,48)           107.6105         D2E/DX2 =    0.0436             !
 ! A101  A(47,45,48)           107.5976         D2E/DX2 =    0.0437             !
 ! A102  A(40,49,50)           109.9162         D2E/DX2 =    0.0245             !
 ! A103  A(40,49,54)           111.0594         D2E/DX2 =    0.0251             !
 ! A104  A(40,49,58)           109.4307         D2E/DX2 =    0.024              !
 ! A105  A(50,49,54)           109.1079         D2E/DX2 =    0.0292             !
 ! A106  A(50,49,58)           108.89           D2E/DX2 =    0.0289             !
 ! A107  A(54,49,58)           108.3928         D2E/DX2 =    0.0298             !
 ! A108  A(49,50,51)           110.2562         D2E/DX2 =    0.1013             !
 ! A109  A(49,50,52)           111.9856         D2E/DX2 =    0.1012             !
 ! A110  A(49,50,53)           111.9744         D2E/DX2 =    0.1013             !
 ! A111  A(51,50,52)           107.6302         D2E/DX2 =    0.0507             !
 ! A112  A(51,50,53)           107.308          D2E/DX2 =    0.0508             !
 ! A113  A(52,50,53)           107.4634         D2E/DX2 =    0.0523             !
 ! A114  A(49,54,55)           110.0898         D2E/DX2 =    0.1017             !
 ! A115  A(49,54,56)           111.9764         D2E/DX2 =    0.1014             !
 ! A116  A(49,54,57)           112.3241         D2E/DX2 =    0.101              !
 ! A117  A(55,54,56)           107.3593         D2E/DX2 =    0.0507             !
 ! A118  A(55,54,57)           107.1721         D2E/DX2 =    0.051              !
 ! A119  A(56,54,57)           107.6729         D2E/DX2 =    0.0527             !
 ! A120  A(49,58,59)           110.0954         D2E/DX2 =    0.1008             !
 ! A121  A(49,58,60)           112.0686         D2E/DX2 =    0.101              !
 ! A122  A(49,58,61)           112.171          D2E/DX2 =    0.1021             !
 ! A123  A(59,58,60)           107.298          D2E/DX2 =    0.0506             !
 ! A124  A(59,58,61)           107.1244         D2E/DX2 =    0.0508             !
 ! A125  A(60,58,61)           107.8368         D2E/DX2 =    0.0529             !
 ! A126  A(63,62,66)           120.3798         D2E/DX2 =    0.0824             !
 ! A127  A(63,62,67)           119.8577         D2E/DX2 =    0.0815             !
 ! A128  A(66,62,67)           119.7624         D2E/DX2 =    0.0815             !
 ! A129  A(62,63,64)           121.1044         D2E/DX2 =    0.0822             !
 ! A130  A(62,63,68)           119.6826         D2E/DX2 =    0.0818             !
 ! A131  A(64,63,68)           119.2118         D2E/DX2 =    0.0819             !
 ! A132  A(63,64,69)           120.9194         D2E/DX2 =    0.0788             !
 ! A133  A(63,64,71)           117.6526         D2E/DX2 =    0.0799             !
 ! A134  A(69,64,71)           121.4246         D2E/DX2 =    0.0784             !
 ! A135  A(2,65,66)            132.4303         D2E/DX2 =    0.0798             !
 ! A136  A(2,65,71)            107.6472         D2E/DX2 =    0.0601             !
 ! A137  A(66,65,71)           119.7134         D2E/DX2 =    0.0733             !
 ! A138  A(62,66,65)           119.1557         D2E/DX2 =    0.0804             !
 ! A139  A(62,66,70)           119.9367         D2E/DX2 =    0.0804             !
 ! A140  A(65,66,70)           120.905          D2E/DX2 =    0.0799             !
 ! A141  A(1,71,64)            128.7444         D2E/DX2 =    0.0944             !
 ! A142  A(1,71,65)            109.266          D2E/DX2 =    0.0779             !
 ! A143  A(64,71,65)           121.9879         D2E/DX2 =    0.0754             !
 ! D1    D(4,1,3,2)            174.9346         D2E/DX2 =    0.0081             !
 ! D2    D(4,1,3,15)            -0.4364         D2E/DX2 =    0.0078             !
 ! D3    D(71,1,3,2)            19.2669         D2E/DX2 =    0.0067             !
 ! D4    D(71,1,3,15)         -156.1041         D2E/DX2 =    0.0082             !
 ! D5    D(3,1,71,64)          170.6951         D2E/DX2 =    0.0051             !
 ! D6    D(3,1,71,65)           -8.8227         D2E/DX2 =    0.006              !
 ! D7    D(4,1,71,64)           16.3686         D2E/DX2 =    0.0062             !
 ! D8    D(4,1,71,65)         -163.1492         D2E/DX2 =    0.0081             !
 ! D9    D(5,2,3,1)             93.8768         D2E/DX2 =    0.0142             !
 ! D10   D(5,2,3,15)           -90.3575         D2E/DX2 =    0.015              !
 ! D11   D(12,2,3,1)          -150.1126         D2E/DX2 =    0.0082             !
 ! D12   D(12,2,3,15)           25.6531         D2E/DX2 =    0.0077             !
 ! D13   D(65,2,3,1)           -21.026          D2E/DX2 =    0.0076             !
 ! D14   D(65,2,3,15)          154.7397         D2E/DX2 =    0.0079             !
 ! D15   D(3,2,5,6)             29.0845         D2E/DX2 =    0.0168             !
 ! D16   D(3,2,5,7)            -91.6438         D2E/DX2 =    0.017              !
 ! D17   D(3,2,5,8)            145.5394         D2E/DX2 =    0.0187             !
 ! D18   D(12,2,5,6)           -93.7634         D2E/DX2 =    0.0143             !
 ! D19   D(12,2,5,7)           145.5084         D2E/DX2 =    0.0135             !
 ! D20   D(12,2,5,8)            22.6916         D2E/DX2 =    0.0103             !
 ! D21   D(65,2,5,6)           139.2261         D2E/DX2 =    0.0179             !
 ! D22   D(65,2,5,7)            18.4978         D2E/DX2 =    0.0157             !
 ! D23   D(65,2,5,8)          -104.319          D2E/DX2 =    0.0181             !
 ! D24   D(3,2,12,11)         -117.0224         D2E/DX2 =    0.0137             !
 ! D25   D(3,2,12,13)          124.5308         D2E/DX2 =    0.0128             !
 ! D26   D(3,2,12,14)            2.5912         D2E/DX2 =    0.0099             !
 ! D27   D(5,2,12,11)            3.0361         D2E/DX2 =    0.0082             !
 ! D28   D(5,2,12,13)         -115.4108         D2E/DX2 =    0.0118             !
 ! D29   D(5,2,12,14)          122.6497         D2E/DX2 =    0.0116             !
 ! D30   D(65,2,12,11)         123.3108         D2E/DX2 =    0.0157             !
 ! D31   D(65,2,12,13)           4.8639         D2E/DX2 =    0.0131             !
 ! D32   D(65,2,12,14)        -117.0756         D2E/DX2 =    0.0146             !
 ! D33   D(3,2,65,66)         -169.5848         D2E/DX2 =    0.0054             !
 ! D34   D(3,2,65,71)           15.8533         D2E/DX2 =    0.0075             !
 ! D35   D(5,2,65,66)           74.2067         D2E/DX2 =    0.0107             !
 ! D36   D(5,2,65,71)         -100.3553         D2E/DX2 =    0.0132             !
 ! D37   D(12,2,65,66)         -43.2916         D2E/DX2 =    0.0105             !
 ! D38   D(12,2,65,71)         142.1464         D2E/DX2 =    0.0133             !
 ! D39   D(1,3,15,16)          167.3768         D2E/DX2 =    0.0121             !
 ! D40   D(1,3,15,26)           -5.2612         D2E/DX2 =    0.0097             !
 ! D41   D(2,3,15,16)           -7.3484         D2E/DX2 =    0.0089             !
 ! D42   D(2,3,15,26)         -179.9863         D2E/DX2 =    0.0098             !
 ! D43   D(2,5,8,9)             80.2892         D2E/DX2 =    0.0173             !
 ! D44   D(2,5,8,10)          -158.623          D2E/DX2 =    0.0166             !
 ! D45   D(2,5,8,11)           -40.2445         D2E/DX2 =    0.0101             !
 ! D46   D(6,5,8,9)           -163.0194         D2E/DX2 =    0.0177             !
 ! D47   D(6,5,8,10)           -41.9316         D2E/DX2 =    0.0158             !
 ! D48   D(6,5,8,11)            76.4469         D2E/DX2 =    0.0184             !
 ! D49   D(7,5,8,9)            -40.7514         D2E/DX2 =    0.0161             !
 ! D50   D(7,5,8,10)            80.3364         D2E/DX2 =    0.0153             !
 ! D51   D(7,5,8,11)          -161.2851         D2E/DX2 =    0.017              !
 ! D52   D(5,8,11,12)           44.9261         D2E/DX2 =    0.013              !
 ! D53   D(5,8,11,23)          178.6465         D2E/DX2 =    0.0162             !
 ! D54   D(9,8,11,12)          -74.0706         D2E/DX2 =    0.0201             !
 ! D55   D(9,8,11,23)           59.6499         D2E/DX2 =    0.018              !
 ! D56   D(10,8,11,12)         164.645          D2E/DX2 =    0.018              !
 ! D57   D(10,8,11,23)         -61.6345         D2E/DX2 =    0.0172             !
 ! D58   D(8,11,12,2)          -30.1691         D2E/DX2 =    0.012              !
 ! D59   D(8,11,12,13)          86.5326         D2E/DX2 =    0.0163             !
 ! D60   D(8,11,12,14)        -153.9785         D2E/DX2 =    0.0191             !
 ! D61   D(23,11,12,2)        -166.8946         D2E/DX2 =    0.0206             !
 ! D62   D(23,11,12,13)        -50.1929         D2E/DX2 =    0.0171             !
 ! D63   D(23,11,12,14)         69.296          D2E/DX2 =    0.0174             !
 ! D64   D(8,11,23,21)         178.7746         D2E/DX2 =    0.0138             !
 ! D65   D(8,11,23,24)         -58.8087         D2E/DX2 =    0.017              !
 ! D66   D(8,11,23,25)          58.8614         D2E/DX2 =    0.0174             !
 ! D67   D(12,11,23,21)        -49.836          D2E/DX2 =    0.0117             !
 ! D68   D(12,11,23,24)         72.5808         D2E/DX2 =    0.0184             !
 ! D69   D(12,11,23,25)       -169.7492         D2E/DX2 =    0.0178             !
 ! D70   D(2,12,14,16)         -43.0908         D2E/DX2 =    0.0139             !
 ! D71   D(2,12,14,19)        -162.6722         D2E/DX2 =    0.0137             !
 ! D72   D(2,12,14,33)          79.3352         D2E/DX2 =    0.0215             !
 ! D73   D(11,12,14,16)         73.9683         D2E/DX2 =    0.0185             !
 ! D74   D(11,12,14,19)        -45.613          D2E/DX2 =    0.0133             !
 ! D75   D(11,12,14,33)       -163.6056         D2E/DX2 =    0.0229             !
 ! D76   D(13,12,14,16)       -165.0063         D2E/DX2 =    0.0148             !
 ! D77   D(13,12,14,19)         75.4124         D2E/DX2 =    0.013              !
 ! D78   D(13,12,14,33)        -42.5802         D2E/DX2 =    0.0167             !
 ! D79   D(12,14,16,15)         61.6557         D2E/DX2 =    0.0143             !
 ! D80   D(12,14,16,17)       -176.8168         D2E/DX2 =    0.0149             !
 ! D81   D(12,14,16,18)        -60.8107         D2E/DX2 =    0.015              !
 ! D82   D(19,14,16,15)        179.2598         D2E/DX2 =    0.021              !
 ! D83   D(19,14,16,17)        -59.2127         D2E/DX2 =    0.0164             !
 ! D84   D(19,14,16,18)         56.7934         D2E/DX2 =    0.0168             !
 ! D85   D(33,14,16,15)        -58.3667         D2E/DX2 =    0.0183             !
 ! D86   D(33,14,16,17)         63.1609         D2E/DX2 =    0.0152             !
 ! D87   D(33,14,16,18)        179.1669         D2E/DX2 =    0.0165             !
 ! D88   D(12,14,19,20)       -164.1154         D2E/DX2 =    0.008              !
 ! D89   D(12,14,19,21)         12.4157         D2E/DX2 =    0.0085             !
 ! D90   D(16,14,19,20)         78.2564         D2E/DX2 =    0.0127             !
 ! D91   D(16,14,19,21)       -105.2125         D2E/DX2 =    0.0146             !
 ! D92   D(33,14,19,20)        -46.2346         D2E/DX2 =    0.0136             !
 ! D93   D(33,14,19,21)        130.2965         D2E/DX2 =    0.0162             !
 ! D94   D(12,14,33,34)         71.2552         D2E/DX2 =    0.0135             !
 ! D95   D(12,14,33,35)        -43.8708         D2E/DX2 =    0.0136             !
 ! D96   D(12,14,33,36)       -165.0182         D2E/DX2 =    0.0165             !
 ! D97   D(16,14,33,34)       -169.3298         D2E/DX2 =    0.0137             !
 ! D98   D(16,14,33,35)         75.5443         D2E/DX2 =    0.0132             !
 ! D99   D(16,14,33,36)        -45.6032         D2E/DX2 =    0.0154             !
 ! D100  D(19,14,33,34)        -45.9365         D2E/DX2 =    0.0122             !
 ! D101  D(19,14,33,35)       -161.0625         D2E/DX2 =    0.0139             !
 ! D102  D(19,14,33,36)         77.7901         D2E/DX2 =    0.0155             !
 ! D103  D(3,15,16,14)         -37.7878         D2E/DX2 =    0.0096             !
 ! D104  D(3,15,16,17)        -160.5226         D2E/DX2 =    0.0162             !
 ! D105  D(3,15,16,18)          82.1726         D2E/DX2 =    0.0162             !
 ! D106  D(26,15,16,14)        135.3489         D2E/DX2 =    0.0096             !
 ! D107  D(26,15,16,17)         12.6141         D2E/DX2 =    0.0141             !
 ! D108  D(26,15,16,18)       -104.6907         D2E/DX2 =    0.0152             !
 ! D109  D(3,15,26,27)         173.3329         D2E/DX2 =    0.0151             !
 ! D110  D(3,15,26,28)          -6.2343         D2E/DX2 =    0.0159             !
 ! D111  D(16,15,26,27)          0.7135         D2E/DX2 =    0.0162             !
 ! D112  D(16,15,26,28)       -178.8537         D2E/DX2 =    0.0178             !
 ! D113  D(14,19,21,22)       -176.156          D2E/DX2 =    0.0103             !
 ! D114  D(14,19,21,23)          4.5287         D2E/DX2 =    0.0083             !
 ! D115  D(20,19,21,22)          0.2257         D2E/DX2 =    0.0096             !
 ! D116  D(20,19,21,23)       -179.0896         D2E/DX2 =    0.0107             !
 ! D117  D(19,21,23,11)         12.6871         D2E/DX2 =    0.0109             !
 ! D118  D(19,21,23,24)       -111.209          D2E/DX2 =    0.0184             !
 ! D119  D(19,21,23,25)        132.0309         D2E/DX2 =    0.0181             !
 ! D120  D(22,21,23,11)       -166.6486         D2E/DX2 =    0.0098             !
 ! D121  D(22,21,23,24)         69.4553         D2E/DX2 =    0.0165             !
 ! D122  D(22,21,23,25)        -47.3048         D2E/DX2 =    0.0162             !
 ! D123  D(15,26,28,29)       -179.1761         D2E/DX2 =    0.0204             !
 ! D124  D(27,26,28,29)          1.2338         D2E/DX2 =    0.0199             !
 ! D125  D(26,28,29,30)        -61.4722         D2E/DX2 =    0.0241             !
 ! D126  D(26,28,29,31)         59.4453         D2E/DX2 =    0.0238             !
 ! D127  D(26,28,29,32)        178.8656         D2E/DX2 =    0.0241             !
 ! D128  D(14,33,36,37)        173.1309         D2E/DX2 =    0.0169             !
 ! D129  D(14,33,36,38)         56.4356         D2E/DX2 =    0.0153             !
 ! D130  D(14,33,36,39)        -66.8835         D2E/DX2 =    0.0184             !
 ! D131  D(34,33,36,37)        -63.2768         D2E/DX2 =    0.0161             !
 ! D132  D(34,33,36,38)       -179.9721         D2E/DX2 =    0.0169             !
 ! D133  D(34,33,36,39)         56.7088         D2E/DX2 =    0.0179             !
 ! D134  D(35,33,36,37)         50.3569         D2E/DX2 =    0.0162             !
 ! D135  D(35,33,36,38)        -66.3385         D2E/DX2 =    0.0162             !
 ! D136  D(35,33,36,39)        170.3425         D2E/DX2 =    0.0186             !
 ! D137  D(33,36,39,40)        165.1463         D2E/DX2 =    0.0195             !
 ! D138  D(37,36,39,40)        -75.9269         D2E/DX2 =    0.0271             !
 ! D139  D(38,36,39,40)         41.7242         D2E/DX2 =    0.025              !
 ! D140  D(36,39,40,41)        -59.3937         D2E/DX2 =    0.0119             !
 ! D141  D(36,39,40,45)       -177.1735         D2E/DX2 =    0.0118             !
 ! D142  D(36,39,40,49)         63.6338         D2E/DX2 =    0.0132             !
 ! D143  D(39,40,41,42)        -66.1706         D2E/DX2 =    0.0121             !
 ! D144  D(39,40,41,43)         53.3524         D2E/DX2 =    0.0122             !
 ! D145  D(39,40,41,44)        174.708          D2E/DX2 =    0.0116             !
 ! D146  D(45,40,41,42)         47.0962         D2E/DX2 =    0.0118             !
 ! D147  D(45,40,41,43)        166.6192         D2E/DX2 =    0.0116             !
 ! D148  D(45,40,41,44)        -72.0252         D2E/DX2 =    0.0116             !
 ! D149  D(49,40,41,42)        170.7334         D2E/DX2 =    0.0119             !
 ! D150  D(49,40,41,43)        -69.7436         D2E/DX2 =    0.0118             !
 ! D151  D(49,40,41,44)         51.612          D2E/DX2 =    0.0118             !
 ! D152  D(39,40,45,46)        175.5595         D2E/DX2 =    0.0116             !
 ! D153  D(39,40,45,47)        -63.1853         D2E/DX2 =    0.0118             !
 ! D154  D(39,40,45,48)         56.1811         D2E/DX2 =    0.012              !
 ! D155  D(41,40,45,46)         58.2126         D2E/DX2 =    0.0117             !
 ! D156  D(41,40,45,47)        179.4677         D2E/DX2 =    0.0115             !
 ! D157  D(41,40,45,48)        -61.1658         D2E/DX2 =    0.0116             !
 ! D158  D(49,40,45,46)        -65.3074         D2E/DX2 =    0.0118             !
 ! D159  D(49,40,45,47)         55.9478         D2E/DX2 =    0.0117             !
 ! D160  D(49,40,45,48)        175.3142         D2E/DX2 =    0.0119             !
 ! D161  D(39,40,49,50)         47.2297         D2E/DX2 =    0.0135             !
 ! D162  D(39,40,49,54)        -73.6076         D2E/DX2 =    0.0141             !
 ! D163  D(39,40,49,58)        166.7646         D2E/DX2 =    0.0137             !
 ! D164  D(41,40,49,50)        169.6072         D2E/DX2 =    0.0119             !
 ! D165  D(41,40,49,54)         48.7699         D2E/DX2 =    0.0122             !
 ! D166  D(41,40,49,58)        -70.8579         D2E/DX2 =    0.0121             !
 ! D167  D(45,40,49,50)        -67.1634         D2E/DX2 =    0.012              !
 ! D168  D(45,40,49,54)        171.9993         D2E/DX2 =    0.0121             !
 ! D169  D(45,40,49,58)         52.3715         D2E/DX2 =    0.012              !
 ! D170  D(40,49,50,51)        179.3741         D2E/DX2 =    0.0122             !
 ! D171  D(40,49,50,52)        -60.8142         D2E/DX2 =    0.0116             !
 ! D172  D(40,49,50,53)         59.976          D2E/DX2 =    0.0118             !
 ! D173  D(54,49,50,51)        -58.6206         D2E/DX2 =    0.0138             !
 ! D174  D(54,49,50,52)         61.1911         D2E/DX2 =    0.0135             !
 ! D175  D(54,49,50,53)       -178.0187         D2E/DX2 =    0.0137             !
 ! D176  D(58,49,50,51)         59.5098         D2E/DX2 =    0.0138             !
 ! D177  D(58,49,50,52)        179.3216         D2E/DX2 =    0.0137             !
 ! D178  D(58,49,50,53)        -59.8882         D2E/DX2 =    0.0137             !
 ! D179  D(40,49,54,55)       -179.5367         D2E/DX2 =    0.0121             !
 ! D180  D(40,49,54,56)        -60.1842         D2E/DX2 =    0.0117             !
 ! D181  D(40,49,54,57)         61.1211         D2E/DX2 =    0.0116             !
 ! D182  D(50,49,54,55)         59.1507         D2E/DX2 =    0.0134             !
 ! D183  D(50,49,54,56)        178.5032         D2E/DX2 =    0.0135             !
 ! D184  D(50,49,54,57)        -60.1915         D2E/DX2 =    0.0133             !
 ! D185  D(58,49,54,55)        -59.2915         D2E/DX2 =    0.0136             !
 ! D186  D(58,49,54,56)         60.061          D2E/DX2 =    0.0134             !
 ! D187  D(58,49,54,57)       -178.6337         D2E/DX2 =    0.0136             !
 ! D188  D(40,49,58,59)        179.252          D2E/DX2 =    0.0124             !
 ! D189  D(40,49,58,60)        -61.4092         D2E/DX2 =    0.0122             !
 ! D190  D(40,49,58,61)         60.0655         D2E/DX2 =    0.0121             !
 ! D191  D(50,49,58,59)        -60.5833         D2E/DX2 =    0.0136             !
 ! D192  D(50,49,58,60)         58.7555         D2E/DX2 =    0.0136             !
 ! D193  D(50,49,58,61)       -179.7698         D2E/DX2 =    0.0137             !
 ! D194  D(54,49,58,59)         57.997          D2E/DX2 =    0.0137             !
 ! D195  D(54,49,58,60)        177.3358         D2E/DX2 =    0.0139             !
 ! D196  D(54,49,58,61)        -61.1895         D2E/DX2 =    0.0136             !
 ! D197  D(66,62,63,64)         -0.4667         D2E/DX2 =    0.0095             !
 ! D198  D(66,62,63,68)        179.9347         D2E/DX2 =    0.0082             !
 ! D199  D(67,62,63,64)        179.4067         D2E/DX2 =    0.0082             !
 ! D200  D(67,62,63,68)         -0.1919         D2E/DX2 =    0.0086             !
 ! D201  D(63,62,66,65)          0.7423         D2E/DX2 =    0.0092             !
 ! D202  D(63,62,66,70)       -179.8356         D2E/DX2 =    0.0077             !
 ! D203  D(67,62,66,65)       -179.1313         D2E/DX2 =    0.0082             !
 ! D204  D(67,62,66,70)          0.2909         D2E/DX2 =    0.0084             !
 ! D205  D(62,63,64,69)       -179.5934         D2E/DX2 =    0.0075             !
 ! D206  D(62,63,64,71)         -0.2552         D2E/DX2 =    0.0091             !
 ! D207  D(68,63,64,69)          0.007          D2E/DX2 =    0.0083             !
 ! D208  D(68,63,64,71)        179.3453         D2E/DX2 =    0.0081             !
 ! D209  D(63,64,71,1)        -178.7517         D2E/DX2 =    0.0075             !
 ! D210  D(63,64,71,65)          0.7115         D2E/DX2 =    0.0067             !
 ! D211  D(69,64,71,1)           0.583          D2E/DX2 =    0.0074             !
 ! D212  D(69,64,71,65)       -179.9538         D2E/DX2 =    0.0065             !
 ! D213  D(2,65,66,62)        -174.3288         D2E/DX2 =    0.0071             !
 ! D214  D(2,65,66,70)           6.2548         D2E/DX2 =    0.007              !
 ! D215  D(71,65,66,62)         -0.2973         D2E/DX2 =    0.007              !
 ! D216  D(71,65,66,70)       -179.7137         D2E/DX2 =    0.007              !
 ! D217  D(2,65,71,1)           -5.5045         D2E/DX2 =    0.005              !
 ! D218  D(2,65,71,64)         174.9389         D2E/DX2 =    0.004              !
 ! D219  D(66,65,71,1)         179.115          D2E/DX2 =    0.0042             !
 ! D220  D(66,65,71,64)         -0.4415         D2E/DX2 =    0.0047             !
 --------------------------------------------------------------------------------
 Trust Radius=3.00D-01 FncErr=1.00D-07 GrdErr=1.00D-06
 Number of steps in this run=    426 maximum allowed number of steps=    426.
 GradGradGradGradGradGradGradGradGradGradGradGradGradGradGradGradGradGrad

 Stoichiometry    C27H38N2O3Si
 Framework group  C1[X(C27H38N2O3Si)]
 Deg. of freedom   207
 Full point group                 C1      NOp   1
 Largest Abelian subgroup         C1      NOp   1
 Largest concise Abelian subgroup C1      NOp   1
                         Standard orientation:                         
 ---------------------------------------------------------------------
 Center     Atomic      Atomic             Coordinates (Angstroms)
 Number     Number       Type             X           Y           Z
 ---------------------------------------------------------------------
      1          7           0       -2.904911    1.915586   -0.148534
      2          6           0       -2.842246   -0.417224   -0.221533
      3          6           0       -2.172772    0.873238   -0.675513
      4          1           0       -2.585893    2.866277   -0.266325
      5          6           0       -3.865642   -0.922496   -1.317636
      6          1           0       -3.535131   -0.599948   -2.306598
      7          1           0       -4.868035   -0.534788   -1.136196
      8          6           0       -3.757471   -2.443016   -1.217750
      9          1           0       -4.352691   -2.832140   -0.368955
     10          1           0       -4.098553   -2.952231   -2.123976
     11          7           0       -2.330549   -2.605348   -1.040002
     12          6           0       -1.869227   -1.628293   -0.054109
     13          1           0       -1.973793   -2.022069    0.972880
     14          6           0       -0.374311   -1.318617   -0.312269
     15          6           0       -1.012690    0.894556   -1.386677
     16          6           0       -0.287436   -0.424715   -1.583736
     17          1           0        0.750206   -0.220550   -1.846516
     18          1           0       -0.711918   -0.997515   -2.413648
     19          6           0        0.341488   -2.643174   -0.533058
     20          1           0        1.421843   -2.606843   -0.459067
     21          6           0       -0.275176   -3.808225   -0.736196
     22          1           0        0.301951   -4.724061   -0.824436
     23          6           0       -1.769534   -3.925581   -0.868327
     24          1           0       -2.190135   -4.456407    0.012608
     25          1           0       -2.019967   -4.536151   -1.744016
     26          6           0       -0.344636    2.110933   -1.836925
     27          8           0        0.745979    2.161415   -2.371781
     28          8           0       -1.065043    3.260074   -1.595302
     29          6           0       -0.450308    4.481546   -2.040638
     30          1           0        0.500996    4.643146   -1.531702
     31          1           0       -0.277081    4.451974   -3.116947
     32          1           0       -1.155754    5.272479   -1.791122
     33          6           0        0.220185   -0.625807    0.949978
     34          1           0        0.299167   -1.373934    1.746050
     35          1           0       -0.485188    0.130435    1.311380
     36          6           0        1.566801    0.084296    0.816910
     37          1           0        1.758239    0.609805    1.762028
     38          1           0        1.524670    0.842755    0.027204
     39          8           0        2.626623   -0.834159    0.565317
     40         14           0        4.183484   -0.500330    0.017996
     41          6           0        4.100723    0.354090   -1.659552
     42          1           0        3.698729   -0.331887   -2.411274
     43          1           0        3.456452    1.237209   -1.653838
     44          1           0        5.093520    0.667082   -1.997832
     45          6           0        4.957378   -2.205284   -0.151945
     46          1           0        5.962684   -2.153038   -0.579638
     47          1           0        5.024665   -2.717392    0.811560
     48          1           0        4.347644   -2.826269   -0.814658
     49          6           0        5.147333    0.575217    1.290270
     50          6           0        4.981124   -0.011771    2.707584
     51          1           0        5.538019    0.591285    3.436417
     52          1           0        3.934254   -0.029406    3.023231
     53          1           0        5.361390   -1.035657    2.773903
     54          6           0        4.637474    2.032668    1.283804
     55          1           0        5.202901    2.633201    2.008320
     56          1           0        4.758161    2.504193    0.304272
     57          1           0        3.581493    2.104575    1.559047
     58          6           0        6.648287    0.582255    0.924688
     59          1           0        7.206817    1.203910    1.636218
     60          1           0        7.083873   -0.420516    0.957193
     61          1           0        6.828431    0.993932   -0.073672
     62          6           0       -5.049864    0.131321    2.924718
     63          6           0       -5.106913    1.521361    2.841119
     64          6           0       -4.425510    2.213519    1.833881
     65          6           0       -3.626325    0.066045    0.989114
     66          6           0       -4.310747   -0.605852    1.988051
     67          1           0       -5.577617   -0.383464    3.718830
     68          1           0       -5.682525    2.079891    3.570561
     69          1           0       -4.466652    3.295310    1.775560
     70          1           0       -4.273465   -1.687271    2.058300
     71          6           0       -3.687107    1.467078    0.925212
 ---------------------------------------------------------------------
 Rotational constants (GHZ):      0.1821221      0.0793095      0.0706215
 Standard basis: 6-311+G(d,p) (5D, 7F)
 There are   995 symmetry adapted cartesian basis functions of A   symmetry.
 There are   962 symmetry adapted basis functions of A   symmetry.
   962 basis functions,  1506 primitive gaussians,   995 cartesian basis functions
   126 alpha electrons      126 beta electrons
       nuclear repulsion energy      3849.8999294930 Hartrees.
 NAtoms=   71 NActive=   71 NUniq=   71 SFac= 1.00D+00 NAtFMM=   60 NAOKFM=T Big=T
 Integral buffers will be    131072 words long.
 Raffenetti 2 integral format.
 Two-electron integral symmetry is turned on.
 One-electron integrals computed using PRISM.
 NBasis=   962 RedAO= T EigKep=  1.16D-06  NBF=   962
 NBsUse=   955 1.00D-06 EigRej=  8.57D-07 NBFU=   955
 Initial guess from the checkpoint file:  "Kopsifoline8-11_Movassaghi_fixed.chk"
 B after Tr=     0.000000    0.000000    0.000000
         Rot=    1.000000    0.000000    0.000000    0.000000 Ang=   0.00 deg.
 Requested convergence on RMS density matrix=1.00D-08 within 128 cycles.
 Requested convergence on MAX density matrix=1.00D-06.
 Requested convergence on             energy=1.00D-06.
 No special actions if energy rises.
 SCF Done:  E(RB3LYP) =  -1676.88140391     A.U. after    1 cycles
            NFock=  1  Conv=0.37D-08     -V/T= 2.0040

 **********************************************************************

            Population analysis using the SCF density.

 **********************************************************************

 Orbital symmetries:
       Occupied  (A) (A) (A) (A) (A) (A) (A) (A) (A) (A) (A) (A)
                 (A) (A) (A) (A) (A) (A) (A) (A) (A) (A) (A) (A)
                 (A) (A) (A) (A) (A) (A) (A) (A) (A) (A) (A) (A)
                 (A) (A) (A) (A) (A) (A) (A) (A) (A) (A) (A) (A)
                 (A) (A) (A) (A) (A) (A) (A) (A) (A) (A) (A) (A)
                 (A) (A) (A) (A) (A) (A) (A) (A) (A) (A) (A) (A)
                 (A) (A) (A) (A) (A) (A) (A) (A) (A) (A) (A) (A)
                 (A) (A) (A) (A) (A) (A) (A) (A) (A) (A) (A) (A)
                 (A) (A) (A) (A) (A) (A) (A) (A) (A) (A) (A) (A)
                 (A) (A) (A) (A) (A) (A) (A) (A) (A) (A) (A) (A)
                 (A) (A) (A) (A) (A) (A)
       Virtual   (A) (A) (A) (A) (A) (A) (A) (A) (A) (A) (A) (A)
                 (A) (A) (A) (A) (A) (A) (A) (A) (A) (A) (A) (A)
                 (A) (A) (A) (A) (A) (A) (A) (A) (A) (A) (A) (A)
                 (A) (A) (A) (A) (A) (A) (A) (A) (A) (A) (A) (A)
                 (A) (A) (A) (A) (A) (A) (A) (A) (A) (A) (A) (A)
                 (A) (A) (A) (A) (A) (A) (A) (A) (A) (A) (A) (A)
                 (A) (A) (A) (A) (A) (A) (A) (A) (A) (A) (A) (A)
                 (A) (A) (A) (A) (A) (A) (A) (A) (A) (A) (A) (A)
                 (A) (A) (A) (A) (A) (A) (A) (A) (A) (A) (A) (A)
                 (A) (A) (A) (A) (A) (A) (A) (A) (A) (A) (A) (A)
                 (A) (A) (A) (A) (A) (A) (A) (A) (A) (A) (A) (A)
                 (A) (A) (A) (A) (A) (A) (A) (A) (A) (A) (A) (A)
                 (A) (A) (A) (A) (A) (A) (A) (A) (A) (A) (A) (A)
                 (A) (A) (A) (A) (A) (A) (A) (A) (A) (A) (A) (A)
                 (A) (A) (A) (A) (A) (A) (A) (A) (A) (A) (A) (A)
                 (A) (A) (A) (A) (A) (A) (A) (A) (A) (A) (A) (A)
                 (A) (A) (A) (A) (A) (A) (A) (A) (A) (A) (A) (A)
                 (A) (A) (A) (A) (A) (A) (A) (A) (A) (A) (A) (A)
                 (A) (A) (A) (A) (A) (A) (A) (A) (A) (A) (A) (A)
                 (A) (A) (A) (A) (A) (A) (A) (A) (A) (A) (A) (A)
                 (A) (A) (A) (A) (A) (A) (A) (A) (A) (A) (A) (A)
                 (A) (A) (A) (A) (A) (A) (A) (A) (A) (A) (A) (A)
                 (A) (A) (A) (A) (A) (A) (A) (A) (A) (A) (A) (A)
                 (A) (A) (A) (A) (A) (A) (A) (A) (A) (A) (A) (A)
                 (A) (A) (A) (A) (A) (A) (A) (A) (A) (A) (A) (A)
                 (A) (A) (A) (A) (A) (A) (A) (A) (A) (A) (A) (A)
                 (A) (A) (A) (A) (A) (A) (A) (A) (A) (A) (A) (A)
                 (A) (A) (A) (A) (A) (A) (A) (A) (A) (A) (A) (A)
                 (A) (A) (A) (A) (A) (A) (A) (A) (A) (A) (A) (A)
                 (A) (A) (A) (A) (A) (A) (A) (A) (A) (A) (A) (A)
                 (A) (A) (A) (A) (A) (A) (A) (A) (A) (A) (A) (A)
                 (A) (A) (A) (A) (A) (A) (A) (A) (A) (A) (A) (A)
                 (A) (A) (A) (A) (A) (A) (A) (A) (A) (A) (A) (A)
                 (A) (A) (A) (A) (A) (A) (A) (A) (A) (A) (A) (A)
                 (A) (A) (A) (A) (A) (A) (A) (A) (A) (A) (A) (A)
                 (A) (A) (A) (A) (A) (A) (A) (A) (A) (A) (A) (A)
                 (A) (A) (A) (A) (A) (A) (A) (A) (A) (A) (A) (A)
                 (A) (A) (A) (A) (A) (A) (A) (A) (A) (A) (A) (A)
                 (A) (A) (A) (A) (A) (A) (A) (A) (A) (A) (A) (A)
                 (A) (A) (A) (A) (A) (A) (A) (A) (A) (A) (A) (A)
                 (A) (A) (A) (A) (A) (A) (A) (A) (A) (A) (A) (A)
                 (A) (A) (A) (A) (A) (A) (A) (A) (A) (A) (A) (A)
                 (A) (A) (A) (A) (A) (A) (A) (A) (A) (A) (A) (A)
                 (A) (A) (A) (A) (A) (A) (A) (A) (A) (A) (A) (A)
                 (A) (A) (A) (A) (A) (A) (A) (A) (A) (A) (A) (A)
                 (A) (A) (A) (A) (A) (A) (A) (A) (A) (A) (A) (A)
                 (A) (A) (A) (A) (A) (A) (A) (A) (A) (A) (A) (A)
                 (A) (A) (A) (A) (A) (A) (A) (A) (A) (A) (A) (A)
                 (A) (A) (A) (A) (A) (A) (A) (A) (A) (A) (A) (A)
                 (A) (A) (A) (A) (A) (A) (A) (A) (A) (A) (A) (A)
                 (A) (A) (A) (A) (A) (A) (A) (A) (A) (A) (A) (A)
                 (A) (A) (A) (A) (A) (A) (A) (A) (A) (A) (A) (A)
                 (A) (A) (A) (A) (A) (A) (A) (A) (A) (A) (A) (A)
                 (A) (A) (A) (A) (A) (A) (A) (A) (A) (A) (A) (A)
                 (A) (A) (A) (A) (A) (A) (A) (A) (A) (A) (A) (A)
                 (A) (A) (A) (A) (A) (A) (A) (A) (A) (A) (A) (A)
                 (A) (A) (A) (A) (A) (A) (A) (A) (A) (A) (A) (A)
                 (A) (A) (A) (A) (A) (A) (A) (A) (A) (A) (A) (A)
                 (A) (A) (A) (A) (A) (A) (A) (A) (A) (A) (A) (A)
                 (A) (A) (A) (A) (A) (A) (A) (A) (A) (A) (A) (A)
                 (A) (A) (A) (A) (A) (A) (A) (A) (A) (A) (A) (A)
                 (A) (A) (A) (A) (A) (A) (A) (A) (A) (A) (A) (A)
                 (A) (A) (A) (A) (A) (A) (A) (A) (A) (A) (A) (A)
                 (A) (A) (A) (A) (A) (A) (A) (A) (A) (A) (A) (A)
                 (A) (A) (A) (A) (A) (A) (A) (A) (A) (A) (A) (A)
                 (A) (A) (A) (A) (A) (A) (A) (A) (A) (A) (A) (A)
                 (A) (A) (A) (A) (A) (A) (A) (A) (A) (A) (A) (A)
                 (A) (A) (A) (A) (A) (A) (A) (A) (A) (A) (A) (A)
                 (A) (A) (A) (A) (A) (A) (A) (A) (A) (A) (A) (A)
                 (A)
 The electronic state is 1-A.
 Alpha  occ. eigenvalues --  -66.09317 -19.16822 -19.10225 -19.10089 -14.35642
 Alpha  occ. eigenvalues --  -14.30504 -10.29507 -10.23430 -10.22762 -10.22395
 Alpha  occ. eigenvalues --  -10.21562 -10.21053 -10.20704 -10.20057 -10.19954
 Alpha  occ. eigenvalues --  -10.18742 -10.18624 -10.18561 -10.18489 -10.18410
 Alpha  occ. eigenvalues --  -10.18231 -10.17764 -10.17547 -10.16532 -10.16450
 Alpha  occ. eigenvalues --  -10.16367 -10.16330 -10.15880 -10.15690 -10.15598
 Alpha  occ. eigenvalues --  -10.15415 -10.13926 -10.13538  -5.26343  -3.62355
 Alpha  occ. eigenvalues --   -3.62081  -3.62050  -1.10170  -1.01392  -0.99499
 Alpha  occ. eigenvalues --   -0.98989  -0.95051  -0.86173  -0.84083  -0.82514
 Alpha  occ. eigenvalues --   -0.79800  -0.79067  -0.77208  -0.74954  -0.74026
 Alpha  occ. eigenvalues --   -0.73757  -0.72390  -0.71990  -0.69607  -0.68337
 Alpha  occ. eigenvalues --   -0.68072  -0.67141  -0.66299  -0.65285  -0.63761
 Alpha  occ. eigenvalues --   -0.62029  -0.60859  -0.60194  -0.57860  -0.57260
 Alpha  occ. eigenvalues --   -0.55601  -0.55040  -0.54557  -0.52805  -0.51098
 Alpha  occ. eigenvalues --   -0.50950  -0.50056  -0.49323  -0.48581  -0.47784
 Alpha  occ. eigenvalues --   -0.47694  -0.47008  -0.46180  -0.45672  -0.45078
 Alpha  occ. eigenvalues --   -0.44757  -0.44656  -0.44380  -0.43687  -0.43386
 Alpha  occ. eigenvalues --   -0.42958  -0.42471  -0.42381  -0.41292  -0.41139
 Alpha  occ. eigenvalues --   -0.40801  -0.40229  -0.39758  -0.39634  -0.39237
 Alpha  occ. eigenvalues --   -0.38779  -0.38594  -0.38273  -0.38199  -0.37957
 Alpha  occ. eigenvalues --   -0.37539  -0.37286  -0.37231  -0.36708  -0.36257
 Alpha  occ. eigenvalues --   -0.36116  -0.35797  -0.35418  -0.34962  -0.34393
 Alpha  occ. eigenvalues --   -0.33483  -0.33097  -0.32867  -0.32467  -0.31570
 Alpha  occ. eigenvalues --   -0.31058  -0.30573  -0.29294  -0.27978  -0.27696
 Alpha  occ. eigenvalues --   -0.26663  -0.25996  -0.25058  -0.24639  -0.21962
 Alpha  occ. eigenvalues --   -0.20661
 Alpha virt. eigenvalues --   -0.04516  -0.02460  -0.00881  -0.00316  -0.00157
 Alpha virt. eigenvalues --    0.00146   0.00839   0.01019   0.01440   0.01637
 Alpha virt. eigenvalues --    0.01718   0.02178   0.02346   0.02769   0.03184
 Alpha virt. eigenvalues --    0.03503   0.03646   0.03862   0.04244   0.04427
 Alpha virt. eigenvalues --    0.04936   0.05169   0.05546   0.05577   0.05919
 Alpha virt. eigenvalues --    0.05999   0.06542   0.06675   0.06850   0.06949
 Alpha virt. eigenvalues --    0.07199   0.07528   0.07676   0.07912   0.08034
 Alpha virt. eigenvalues --    0.08439   0.08704   0.08750   0.08839   0.09071
 Alpha virt. eigenvalues --    0.09359   0.09490   0.09909   0.10098   0.10394
 Alpha virt. eigenvalues --    0.10541   0.10898   0.11120   0.11199   0.11372
 Alpha virt. eigenvalues --    0.11500   0.11917   0.12086   0.12170   0.12404
 Alpha virt. eigenvalues --    0.12656   0.12768   0.12837   0.13121   0.13338
 Alpha virt. eigenvalues --    0.13564   0.13819   0.14082   0.14382   0.14573
 Alpha virt. eigenvalues --    0.14873   0.15134   0.15225   0.15305   0.15639
 Alpha virt. eigenvalues --    0.15685   0.16121   0.16295   0.16345   0.16493
 Alpha virt. eigenvalues --    0.16744   0.17132   0.17192   0.17392   0.17457
 Alpha virt. eigenvalues --    0.17527   0.17928   0.18152   0.18287   0.18573
 Alpha virt. eigenvalues --    0.18886   0.19023   0.19201   0.19262   0.19522
 Alpha virt. eigenvalues --    0.19600   0.19680   0.19909   0.20093   0.20218
 Alpha virt. eigenvalues --    0.20402   0.20596   0.20664   0.20872   0.20950
 Alpha virt. eigenvalues --    0.21116   0.21253   0.21298   0.21551   0.21645
 Alpha virt. eigenvalues --    0.21929   0.22226   0.22323   0.22790   0.22858
 Alpha virt. eigenvalues --    0.22888   0.23056   0.23225   0.23324   0.23675
 Alpha virt. eigenvalues --    0.23728   0.23975   0.24130   0.24358   0.24460
 Alpha virt. eigenvalues --    0.24522   0.24715   0.24798   0.25054   0.25322
 Alpha virt. eigenvalues --    0.25471   0.25821   0.25886   0.26313   0.26619
 Alpha virt. eigenvalues --    0.26785   0.27003   0.27065   0.27168   0.27446
 Alpha virt. eigenvalues --    0.27626   0.27976   0.28074   0.28183   0.28238
 Alpha virt. eigenvalues --    0.28521   0.28617   0.29040   0.29462   0.29777
 Alpha virt. eigenvalues --    0.29978   0.30214   0.30344   0.30442   0.30885
 Alpha virt. eigenvalues --    0.31079   0.31315   0.31626   0.31660   0.32213
 Alpha virt. eigenvalues --    0.32395   0.32664   0.32813   0.33125   0.33354
 Alpha virt. eigenvalues --    0.33412   0.33486   0.33928   0.34364   0.34842
 Alpha virt. eigenvalues --    0.35032   0.35240   0.35403   0.35773   0.35873
 Alpha virt. eigenvalues --    0.36118   0.36170   0.36606   0.36973   0.37229
 Alpha virt. eigenvalues --    0.37612   0.37954   0.38071   0.38487   0.38846
 Alpha virt. eigenvalues --    0.39096   0.39475   0.39699   0.39861   0.40230
 Alpha virt. eigenvalues --    0.40595   0.40808   0.41162   0.41718   0.42322
 Alpha virt. eigenvalues --    0.42660   0.42807   0.42995   0.43675   0.44211
 Alpha virt. eigenvalues --    0.44666   0.45149   0.45542   0.45729   0.46401
 Alpha virt. eigenvalues --    0.46620   0.47100   0.47988   0.48348   0.48467
 Alpha virt. eigenvalues --    0.49186   0.49924   0.50207   0.50396   0.51181
 Alpha virt. eigenvalues --    0.51890   0.52288   0.52622   0.52993   0.53415
 Alpha virt. eigenvalues --    0.53575   0.53918   0.53938   0.54711   0.54961
 Alpha virt. eigenvalues --    0.55139   0.55311   0.55802   0.56145   0.56456
 Alpha virt. eigenvalues --    0.56742   0.57046   0.57677   0.58073   0.58424
 Alpha virt. eigenvalues --    0.58563   0.58867   0.59371   0.59703   0.60102
 Alpha virt. eigenvalues --    0.60497   0.60756   0.61456   0.61521   0.61986
 Alpha virt. eigenvalues --    0.62201   0.62669   0.63083   0.63367   0.63865
 Alpha virt. eigenvalues --    0.64097   0.64317   0.64524   0.64967   0.65198
 Alpha virt. eigenvalues --    0.65443   0.65666   0.65930   0.66299   0.66575
 Alpha virt. eigenvalues --    0.67006   0.67577   0.68032   0.68160   0.68297
 Alpha virt. eigenvalues --    0.68563   0.68837   0.68952   0.69261   0.69905
 Alpha virt. eigenvalues --    0.70090   0.70223   0.70361   0.70448   0.70861
 Alpha virt. eigenvalues --    0.71314   0.71782   0.72208   0.72244   0.72495
 Alpha virt. eigenvalues --    0.72954   0.73409   0.73562   0.73604   0.73890
 Alpha virt. eigenvalues --    0.74162   0.74336   0.74605   0.74987   0.75416
 Alpha virt. eigenvalues --    0.75839   0.76072   0.76354   0.76889   0.77255
 Alpha virt. eigenvalues --    0.77569   0.77582   0.77994   0.78291   0.78474
 Alpha virt. eigenvalues --    0.78666   0.78975   0.79167   0.79386   0.79670
 Alpha virt. eigenvalues --    0.80297   0.80506   0.81313   0.81766   0.82172
 Alpha virt. eigenvalues --    0.82326   0.82423   0.82889   0.83380   0.83466
 Alpha virt. eigenvalues --    0.83856   0.84229   0.84978   0.85302   0.85577
 Alpha virt. eigenvalues --    0.85752   0.86189   0.86651   0.86872   0.87936
 Alpha virt. eigenvalues --    0.88498   0.88889   0.89424   0.89700   0.90139
 Alpha virt. eigenvalues --    0.91040   0.92149   0.92573   0.93538   0.94148
 Alpha virt. eigenvalues --    0.94640   0.95004   0.95548   0.96239   0.97215
 Alpha virt. eigenvalues --    0.97615   0.98096   0.98696   0.99111   0.99895
 Alpha virt. eigenvalues --    1.00741   1.01043   1.01922   1.02517   1.02948
 Alpha virt. eigenvalues --    1.03499   1.04038   1.04589   1.05258   1.05644
 Alpha virt. eigenvalues --    1.06136   1.06333   1.07485   1.07944   1.08106
 Alpha virt. eigenvalues --    1.08187   1.08830   1.09737   1.09967   1.10858
 Alpha virt. eigenvalues --    1.12196   1.12460   1.13385   1.13877   1.14278
 Alpha virt. eigenvalues --    1.14777   1.16078   1.16645   1.17357   1.17943
 Alpha virt. eigenvalues --    1.18959   1.19385   1.20922   1.22065   1.22388
 Alpha virt. eigenvalues --    1.23320   1.23762   1.23995   1.25501   1.26143
 Alpha virt. eigenvalues --    1.27090   1.27797   1.28340   1.28974   1.30102
 Alpha virt. eigenvalues --    1.31180   1.32111   1.32375   1.33405   1.34125
 Alpha virt. eigenvalues --    1.34526   1.35579   1.36048   1.36687   1.37255
 Alpha virt. eigenvalues --    1.38017   1.39210   1.39614   1.40328   1.40569
 Alpha virt. eigenvalues --    1.41718   1.42557   1.43191   1.43718   1.44319
 Alpha virt. eigenvalues --    1.44706   1.45030   1.46242   1.46366   1.47074
 Alpha virt. eigenvalues --    1.47540   1.48077   1.48415   1.49050   1.49989
 Alpha virt. eigenvalues --    1.50561   1.50873   1.50923   1.51195   1.51667
 Alpha virt. eigenvalues --    1.51917   1.52702   1.53081   1.53775   1.53860
 Alpha virt. eigenvalues --    1.54018   1.54659   1.55118   1.55765   1.56113
 Alpha virt. eigenvalues --    1.56337   1.56787   1.57171   1.57570   1.57909
 Alpha virt. eigenvalues --    1.58057   1.58756   1.59101   1.59530   1.59709
 Alpha virt. eigenvalues --    1.59839   1.60755   1.61763   1.61863   1.62047
 Alpha virt. eigenvalues --    1.62502   1.63034   1.63335   1.63440   1.64683
 Alpha virt. eigenvalues --    1.64770   1.64912   1.65754   1.65968   1.66153
 Alpha virt. eigenvalues --    1.66538   1.66723   1.67826   1.68164   1.68673
 Alpha virt. eigenvalues --    1.69043   1.69526   1.69615   1.70344   1.70579
 Alpha virt. eigenvalues --    1.70999   1.71332   1.71632   1.71861   1.72068
 Alpha virt. eigenvalues --    1.72450   1.72785   1.73536   1.73797   1.74111
 Alpha virt. eigenvalues --    1.74838   1.75010   1.75533   1.75907   1.76200
 Alpha virt. eigenvalues --    1.76874   1.77164   1.77397   1.78518   1.78724
 Alpha virt. eigenvalues --    1.79282   1.79550   1.80034   1.80776   1.80888
 Alpha virt. eigenvalues --    1.81862   1.82092   1.82691   1.83365   1.83651
 Alpha virt. eigenvalues --    1.83872   1.84433   1.85061   1.85558   1.85756
 Alpha virt. eigenvalues --    1.86013   1.86711   1.87089   1.87182   1.88415
 Alpha virt. eigenvalues --    1.88660   1.89757   1.90535   1.90891   1.91265
 Alpha virt. eigenvalues --    1.91570   1.92326   1.93106   1.94021   1.94168
 Alpha virt. eigenvalues --    1.95104   1.95606   1.96185   1.96449   1.97322
 Alpha virt. eigenvalues --    1.97919   1.98527   1.98903   1.99505   1.99631
 Alpha virt. eigenvalues --    2.00038   2.00231   2.00930   2.02538   2.02852
 Alpha virt. eigenvalues --    2.03349   2.04228   2.04798   2.05457   2.06577
 Alpha virt. eigenvalues --    2.07013   2.07488   2.08392   2.09013   2.09766
 Alpha virt. eigenvalues --    2.10490   2.11434   2.11558   2.11987   2.13114
 Alpha virt. eigenvalues --    2.13698   2.14399   2.14707   2.15605   2.16337
 Alpha virt. eigenvalues --    2.16993   2.17236   2.19949   2.20675   2.21267
 Alpha virt. eigenvalues --    2.21545   2.21981   2.22643   2.22869   2.23520
 Alpha virt. eigenvalues --    2.23705   2.24328   2.25282   2.25393   2.26489
 Alpha virt. eigenvalues --    2.27962   2.28668   2.29792   2.29971   2.30353
 Alpha virt. eigenvalues --    2.31318   2.32026   2.32724   2.32980   2.33650
 Alpha virt. eigenvalues --    2.34324   2.35454   2.37154   2.38274   2.39533
 Alpha virt. eigenvalues --    2.40864   2.41899   2.42708   2.42959   2.43795
 Alpha virt. eigenvalues --    2.44002   2.44661   2.44919   2.45419   2.46109
 Alpha virt. eigenvalues --    2.46482   2.48039   2.48502   2.49028   2.49597
 Alpha virt. eigenvalues --    2.50258   2.51368   2.51692   2.52288   2.52683
 Alpha virt. eigenvalues --    2.53187   2.53317   2.54133   2.54624   2.54821
 Alpha virt. eigenvalues --    2.55228   2.55486   2.55985   2.56139   2.56594
 Alpha virt. eigenvalues --    2.57044   2.57552   2.57799   2.58524   2.59303
 Alpha virt. eigenvalues --    2.59597   2.60974   2.61462   2.61702   2.62623
 Alpha virt. eigenvalues --    2.62786   2.62937   2.63922   2.64459   2.64915
 Alpha virt. eigenvalues --    2.65795   2.66088   2.66734   2.66892   2.67578
 Alpha virt. eigenvalues --    2.68312   2.68797   2.69881   2.70370   2.70846
 Alpha virt. eigenvalues --    2.70921   2.71628   2.72125   2.72576   2.73068
 Alpha virt. eigenvalues --    2.73319   2.73684   2.74199   2.75233   2.75640
 Alpha virt. eigenvalues --    2.76606   2.77725   2.78094   2.78487   2.79391
 Alpha virt. eigenvalues --    2.79504   2.80072   2.80997   2.81475   2.81923
 Alpha virt. eigenvalues --    2.82771   2.83050   2.83747   2.84607   2.85414
 Alpha virt. eigenvalues --    2.86162   2.87910   2.88756   2.89710   2.90062
 Alpha virt. eigenvalues --    2.90264   2.91051   2.92311   2.92757   2.93491
 Alpha virt. eigenvalues --    2.94334   2.95102   2.96620   2.97475   2.98194
 Alpha virt. eigenvalues --    2.98413   2.99079   3.00061   3.00235   3.01488
 Alpha virt. eigenvalues --    3.01687   3.02187   3.02687   3.03561   3.04124
 Alpha virt. eigenvalues --    3.04888   3.06062   3.06291   3.07079   3.07714
 Alpha virt. eigenvalues --    3.09739   3.11128   3.11687   3.12510   3.12759
 Alpha virt. eigenvalues --    3.14739   3.15479   3.16597   3.17131   3.18647
 Alpha virt. eigenvalues --    3.19662   3.20631   3.22295   3.23367   3.23611
 Alpha virt. eigenvalues --    3.25665   3.26200   3.27978   3.29033   3.29855
 Alpha virt. eigenvalues --    3.30449   3.32782   3.32910   3.34623   3.36030
 Alpha virt. eigenvalues --    3.37009   3.37350   3.38054   3.39258   3.39991
 Alpha virt. eigenvalues --    3.43201   3.44062   3.46397   3.48184   3.53627
 Alpha virt. eigenvalues --    3.55303   3.60389   3.62335   3.62672   3.63930
 Alpha virt. eigenvalues --    3.65251   3.68141   3.68843   3.71796   3.72899
 Alpha virt. eigenvalues --    3.75466   3.76426   3.76550   3.77327   3.77800
 Alpha virt. eigenvalues --    3.77945   3.79150   3.79336   3.79689   3.79975
 Alpha virt. eigenvalues --    3.80915   3.83006   3.83240   3.84221   3.84946
 Alpha virt. eigenvalues --    3.85668   3.87131   3.88104   3.89173   3.90879
 Alpha virt. eigenvalues --    3.93444   4.01389   4.02863   4.03551   4.05661
 Alpha virt. eigenvalues --    4.06599   4.08791   4.09138   4.14209   4.15697
 Alpha virt. eigenvalues --    4.17092   4.19175   4.20609   4.21674   4.24657
 Alpha virt. eigenvalues --    4.25522   4.25937   4.32024   4.36623   4.39994
 Alpha virt. eigenvalues --    4.40780   4.47079   4.55504   4.84443   4.91301
 Alpha virt. eigenvalues --    4.94434   5.01842   5.03471   5.11742   5.13623
 Alpha virt. eigenvalues --    5.20335   5.28197   5.29590   5.43749   5.61111
 Alpha virt. eigenvalues --    5.68218   5.89510   5.98307  11.59151  11.59984
 Alpha virt. eigenvalues --   11.64091  23.61626  23.74844  23.77394  23.77866
 Alpha virt. eigenvalues --   23.84313  23.87198  23.87842  23.89562  23.91901
 Alpha virt. eigenvalues --   23.92220  23.92535  23.93896  23.96122  23.96360
 Alpha virt. eigenvalues --   23.96935  23.97812  23.98567  23.99100  24.00288
 Alpha virt. eigenvalues --   24.00936  24.01656  24.01890  24.08047  24.10208
 Alpha virt. eigenvalues --   24.18684  24.19400  24.30282  35.64156  35.69142
 Alpha virt. eigenvalues --   49.93336  50.00158  50.06446 141.43587
          Condensed to atoms (all electrons):
 Mulliken charges:
               1
     1  N   -0.072663
     2  C    0.690709
     3  C    0.304596
     4  H    0.339821
     5  C   -0.570623
     6  H    0.173764
     7  H    0.157760
     8  C   -0.069306
     9  H    0.120088
    10  H    0.149723
    11  N    0.160984
    12  C   -0.593549
    13  H    0.136085
    14  C    1.177434
    15  C   -0.375781
    16  C   -0.723454
    17  H    0.195288
    18  H    0.177873
    19  C    0.086007
    20  H    0.175699
    21  C   -0.447243
    22  H    0.123955
    23  C   -0.117073
    24  H    0.131269
    25  H    0.147665
    26  C    0.086857
    27  O   -0.249584
    28  O   -0.174187
    29  C   -0.178831
    30  H    0.166542
    31  H    0.165571
    32  H    0.146648
    33  C   -0.622245
    34  H    0.170472
    35  H    0.140963
    36  C   -0.719719
    37  H    0.156018
    38  H    0.151705
    39  O   -0.126172
    40  Si   1.408987
    41  C   -1.006991
    42  H    0.183947
    43  H    0.211585
    44  H    0.170987
    45  C   -0.902723
    46  H    0.173237
    47  H    0.182087
    48  H    0.172375
    49  C    0.020792
    50  C   -0.530636
    51  H    0.132852
    52  H    0.151213
    53  H    0.140238
    54  C   -0.506924
    55  H    0.135919
    56  H    0.148733
    57  H    0.140566
    58  C   -0.569125
    59  H    0.135968
    60  H    0.145636
    61  H    0.140672
    62  C   -0.557805
    63  C   -0.184022
    64  C   -0.602586
    65  C    0.707022
    66  C   -0.549081
    67  H    0.124867
    68  H    0.126812
    69  H    0.110208
    70  H    0.123250
    71  C   -0.171122
 Sum of Mulliken charges =   0.00000
 Mulliken charges with hydrogens summed into heavy atoms:
               1
     1  N    0.267158
     2  C    0.690709
     3  C    0.304596
     5  C   -0.239099
     8  C    0.200505
    11  N    0.160984
    12  C   -0.457465
    14  C    1.177434
    15  C   -0.375781
    16  C   -0.350293
    19  C    0.261706
    21  C   -0.323288
    23  C    0.161860
    26  C    0.086857
    27  O   -0.249584
    28  O   -0.174187
    29  C    0.299930
    33  C   -0.310810
    36  C   -0.411996
    39  O   -0.126172
    40  Si   1.408987
    41  C   -0.440472
    45  C   -0.375025
    49  C    0.020792
    50  C   -0.106333
    54  C   -0.081706
    58  C   -0.146849
    62  C   -0.432938
    63  C   -0.057211
    64  C   -0.492378
    65  C    0.707022
    66  C   -0.425831
    71  C   -0.171122
 Electronic spatial extent (au):  <R**2>=          16769.9624
 Charge=              0.0000 electrons
 Dipole moment (field-independent basis, Debye):
    X=             -2.5571    Y=              1.3370    Z=              1.1278  Tot=              3.0981
 Quadrupole moment (field-independent basis, Debye-Ang):
   XX=           -203.7603   YY=           -192.0496   ZZ=           -214.1135
   XY=             -0.4854   XZ=             -0.2964   YZ=              2.5284
 Traceless Quadrupole moment (field-independent basis, Debye-Ang):
   XX=             -0.4525   YY=             11.2582   ZZ=            -10.8057
   XY=             -0.4854   XZ=             -0.2964   YZ=              2.5284
 Octapole moment (field-independent basis, Debye-Ang**2):
  XXX=              9.3642  YYY=             79.2694  ZZZ=             -6.8586  XYY=            -45.5978
  XXY=              0.0133  XXZ=              4.4940  XZZ=            -28.6957  YZZ=              4.5699
  YYZ=            -24.1391  XYZ=             -0.7607
 Hexadecapole moment (field-independent basis, Debye-Ang**3):
 XXXX=         -15516.5983 YYYY=          -4616.6218 ZZZZ=          -3068.5655 XXXY=             -3.9693
 XXXZ=           -131.9869 YYYX=            -94.3865 YYYZ=           -102.0539 ZZZX=            -15.2928
 ZZZY=            -41.5562 XXYY=          -3333.4478 XXZZ=          -2961.4444 YYZZ=          -1306.6107
 XXYZ=             51.5991 YYXZ=              1.1659 ZZXY=            -21.9581
 N-N= 3.849899929493D+03 E-N=-1.161798096036D+04  KE= 1.670150342033D+03
 There are a total of      594054 grid points.
 ElSum from          density=      252.0004515173
 ElSum from atomic densities=      252.0004467767

 Hirshfeld populations at iteration   1 (CX, CA, CB, DipXYZ):
               1          2          3          4          5          6
     1  N    0.000000   3.551716   3.551716   0.020363   0.044917   0.028808
     2  C    0.000000   2.988427   2.988427   0.012487  -0.018347  -0.003224
     3  C    0.000000   2.963951   2.963951  -0.072607   0.015464   0.031291
     4  H    0.000000   0.439610   0.439610   0.015481   0.167407   0.019606
     5  C    0.000000   3.026112   3.026112  -0.005515  -0.010143   0.000961
     6  H    0.000001   0.480423   0.480423   0.032040   0.034030  -0.138707
     7  H    0.000001   0.480525   0.480525  -0.140106   0.045804   0.009554
     8  C    0.000000   3.006425   3.006425   0.007829  -0.016105  -0.011890
     9  H    0.000001   0.489019   0.489019  -0.067354  -0.043483   0.087379
    10  H    0.000001   0.478370   0.478370  -0.046209  -0.063741  -0.123456
    11  N    0.000000   3.567169   3.567169  -0.026703  -0.042912   0.094625
    12  C    0.000000   2.987656   2.987656  -0.003904  -0.001952  -0.027160
    13  H    0.000000   0.487152   0.487152  -0.010701  -0.046738   0.112172
    14  C    0.000000   2.992358   2.992358   0.014062   0.004614  -0.003102
    15  C    0.000000   3.028078   3.028078   0.057798  -0.011108  -0.036194
    16  C    0.000000   3.032328   3.032328  -0.006133   0.005132   0.017284
    17  H    0.000000   0.481357   0.481357   0.129576   0.002833  -0.034576
    18  H    0.000001   0.483990   0.483990  -0.041731  -0.059100  -0.115069
    19  C    0.000000   3.024088   3.024088   0.031419   0.111064   0.008094
    20  H    0.000000   0.481145   0.481145   0.132366  -0.015607  -0.002798
    21  C    0.000000   3.029007   3.029007  -0.072413  -0.095861  -0.023061
    22  H    0.000001   0.479118   0.479118   0.080381  -0.132708  -0.014224
    23  C    0.000000   3.005554   3.005554  -0.010284   0.021771  -0.008370
    24  H    0.000001   0.487937   0.487937  -0.045075  -0.060732   0.090449
    25  H    0.000001   0.478311   0.478311  -0.029863  -0.082397  -0.116038
    26  C    0.000000   2.901236   2.901236  -0.024588   0.083763   0.000161
    27  O    0.000001   4.143895   4.143895  -0.082140  -0.015269   0.057404
    28  O    0.000000   4.065223   4.065223   0.091455   0.015726  -0.033514
    29  C    0.000000   3.007100   3.007100  -0.032136  -0.038648   0.018342
    30  H    0.000000   0.476875   0.476875   0.129688   0.044219   0.070687
    31  H    0.000001   0.475822   0.475822   0.019104   0.017663  -0.152981
    32  H    0.000000   0.476409   0.476409  -0.094878   0.120662   0.031127
    33  C    0.000000   3.031912   3.031912   0.021585  -0.003988  -0.027724
    34  H    0.000001   0.482091   0.482091   0.014409  -0.089680   0.109576
    35  H    0.000000   0.484818   0.484818  -0.073790   0.092817   0.057453
    36  C    0.000000   2.988440   2.988440   0.054202  -0.063764  -0.016714
    37  H    0.000001   0.484066   0.484066   0.014440   0.063792   0.120526
    38  H    0.000000   0.483759   0.483759   0.000336   0.089453  -0.081153
[...]
 0.00000351,-0.00000895,0.00000069,-0.00000084,-0.00004314,0.00002885,-
 0.00009466,-0.00001648,0.00011049,0.00018818,0.00001828,-0.00001871,0.
 00000454,-0.00004554,-0.00006780,-0.00002051,0.00000019,-0.00000720,0.
 00001484,-0.00004242,0.00000828,0.00002691,-0.00000729,0.00000811,0.00
 000352,0.00000437,-0.00000523,-0.00001093,0.00001447,0.00004806,0.0000
 0030,-0.00001417,-0.00000206,-0.00001328,-0.00000240,-0.00001444,0.000
 00499,-0.00000031,0.00000436,-0.00000571,0.00001720,-0.00000364,0.0000
 3947,-0.00000145,0.00000047,-0.00001040,-0.00000686,-0.00000126,-0.000
 00638,-0.00006765,-0.00004710,-0.00016825,0.00002916,0.00003634,0.0000
 4206,0.00009795,0.00004888,0.00010479,-0.00003054,-0.00000248,-0.00001
 601,-0.00000578,0.00001875,-0.00000150,0.00001200,0.00000378,0.0000031
 3,-0.00000617,0.00000053,0.00002370,-0.00002017,0.00001564,-0.00001051
 ,0.00000180,-0.00000115,0.00000642,-0.00000441,-0.00002059,0.00000736,
 -0.00003092,-0.00001495,-0.00000975,0.00001970,0.00001328,-0.00001442,
 -0.00000803,0.00000627,0.00000331,0.00003369,0.00002307,0.00000999,-0.
 00003355,-0.00002910,0.00000034,0.00000583,0.00000650,-0.00000128,0.00
 000470,-0.00000161,-0.00000093,-0.00000253,-0.00000160,0.00000167,-0.0
 0000095,0.00000166,0.00000034,0.00000594,0.00000584,0.00000129,-0.0000
 0066,0.00000077,-0.00000083,-0.00000135,-0.00000111,-0.00000034,0.0000
 0452,-0.00000016,0.00000184,0.00000393,-0.00000090,-0.00000141,0.00000
 048,0.00000303,0.00000120,0.00000212,0.00000302,-0.00000249,-0.0000033
 2,-0.00000340,-0.00000054,0.00000158,-0.00000088,0.00000356,0.00000091
 ,0.00000850,-0.00000185,0.00000331,0.00000438,-0.00000158,-0.00000056,
 -0.00000076,-0.00000008,-0.00000394,-0.00000720,-0.00000074,0.00000287
 ,0.00000103,0.00000234,0.00000105,0.00000178,-0.00000135,0.00000092,-0
 .00000129,0.00000303,-0.00000044,-0.00000111,-0.00000096,0.00012242,-0
 .00406999,0.00332324,-0.00762399,-0.00383561,-0.00695200,-0.11356171,-
 0.09713491,-0.20261134,-0.00321515,-0.00085089,0.00353605,0.00028938,0
 .00065719,-0.00001982,-0.00053130,-0.00030958,-0.00023956,0.00167640,0
 .00169289,-0.00119947,0.12473549,0.10789733,0.21019986,0.00039788,0.00
 040938,0.00044376,-0.00075941,-0.00151676,0.00080470,0.00033500,0.0000
 1132,0.00009915,-0.00019855,0.00005476,0.00014985,-0.00015141,0.000187
 68,0.00012928,-0.00008366,-0.00007555,0.00001555,-0.00000018,0.0000183
 5,0.00003838,-0.00042221,0.00038985,-0.00000688,-0.00019504,-0.0000854
 2,0.00004154,0.00002401,-0.00010140,-0.00007895,-0.00024020,-0.0001899
 0,0.00011101,0.00036234,-0.00000577,-0.00002865,-0.00014333,0.00028345
 ,0.00008531,0.00002786,0.00011365,0.00009250,-0.00004141,-0.00012589,-
 0.00006270,-0.00002530,-0.00001328,-0.00002950,0.00000100,-0.00000707,
 0.00000073,-0.00000918,0.00001754,0.00001305,-0.00001575,-0.00006620,0
 .00001783,0.00001437,-0.00000229,0.00001368,0.00000485,0.00003007,-0.0
 0000515,0.00000610,-0.00001305,0.00001153,-0.00002675,-0.00003659,-0.0
 0007207,-0.00001694,0.00000631,-0.00003098,0.00001237,-0.00000468,0.00
 000444,0.00004367,0.00009535,0.00009561,0.00000225,-0.00007531,-0.0000
 1499,-0.00004279,0.00000692,-0.00004503,0.00000226,0.00001768,0.000005
 46,-0.00000038,-0.00000294,-0.00000009,0.00000046,-0.00000113,-0.00000
 004,-0.00000152,-0.00000095,-0.00000215,0.00004320,-0.00002066,-0.0000
 2902,0.00001216,-0.00000739,0.00003644,-0.00000039,-0.00001238,-0.0000
 3475,-0.00001404,-0.00000376,-0.00000057,-0.00001096,-0.00001431,0.000
 00315,0.00000142,0.00001385,0.00000221,-0.00002094,-0.00000993,0.00001
 694,0.00002134,0.00001783,-0.00002695,-0.00000443,-0.00000470,0.000006
 51,-0.00000397,0.00000205,-0.00000022,0.00000204,0.00000312,-0.0000001
 2,0.00000037,-0.00000237,0.00000006,-0.00000044,-0.00000153,0.00000484
 ,-0.00000030,-0.00000087,0.00000063,0.00000027,0.00000027,0.00000267,-
 0.00000331,0.00000037,-0.00000259,-0.00000170,-0.00000078,0.00000110,-
 0.00000113,-0.00000447,0.00000157,-0.00000246,-0.00000122,0.00000092,0
 .00000119,0.00000132,-0.00000365,0.00000164,-0.00000040,0.00000112,-0.
 00000039,0.00000056,0.00000117,-0.00000154,-0.00000198,0.00000056,-0.0
 0000055,0.00000251,0.00000118,0.00000213,-0.00000060,-0.00000103,-0.00
 000228,0.00000077,0.00000126,-0.00000123,-0.00000166,0.00000013,0.0000
 0108,0.00000001,0.00000012,-0.00000064,0.00000212,0.00000045,-0.008272
 49,-0.01367759,-0.02045009,-0.00245926,0.00458991,-0.00290067,-0.00064
 123,0.00050497,0.00064620,0.01007574,0.00421745,0.00844280,-0.11980379
 ,-0.05207500,-0.10812786,-0.00009849,-0.00111819,0.00180185,-0.0005104
 9,-0.00056886,-0.00107638,-0.00022964,-0.00037653,0.00031445,0.1212718
 7,-0.00056714,-0.00080492,-0.00072101,-0.00128360,-0.00025644,0.001916
 10,-0.00050683,0.00008346,-0.00037046,0.00026791,-0.00018071,0.0000510
 6,-0.00017333,0.00012091,-0.00010944,-0.00005400,-0.00003655,0.0000594
 3,-0.00000339,-0.00002373,0.00002607,-0.00007937,-0.00034572,-0.000261
 58,-0.00001540,0.00039502,0.00014308,-0.00011032,0.00009978,0.00002722
 ,-0.00038055,-0.00000063,0.00034246,0.00123107,-0.00030010,-0.00120583
 ,-0.00008935,-0.00004793,0.00085487,-0.00015712,-0.00007247,0.00036136
 ,0.00006746,-0.00017548,-0.00002816,-0.00003347,0.00014538,-0.00011322
 ,-0.00001503,0.00002073,0.00006106,0.00001772,-0.00002418,0.00001594,-
 0.00001607,0.00002708,0.00003869,-0.00000036,-0.00000318,-0.00001985,-
 0.00001410,-0.00003039,0.00003689,0.00000016,0.00000632,-0.00001690,0.
 00012860,-0.00005565,0.00003072,0.00000432,0.00004659,-0.00000676,-0.0
 0003425,0.00001636,0.00000986,-0.00008294,0.00017146,-0.00005113,0.000
 07453,-0.00012923,0.00007394,0.00007648,-0.00009330,0.00003310,0.00002
 183,0.00002223,0.00002203,-0.00000258,-0.00000637,-0.00000174,-0.00000
 024,-0.00000848,-0.00000582,-0.00000010,0.00000407,0.00000319,-0.00003
 415,0.00001688,-0.00003635,0.00000326,-0.00002314,0.00006625,0.0000118
 1,-0.00002852,-0.00003874,0.00000734,-0.00007009,0.00002364,0.00000852
 ,0.00001317,-0.00000764,-0.00000573,0.00003057,0.00000180,-0.00001315,
 0.00011434,-0.00002711,0.00000935,-0.00012135,0.00000989,-0.00000703,0
 .00002072,0.00000530,0.00000352,-0.00000392,-0.00000309,0.00000261,-0.
 00000231,-0.00000384,-0.00000190,0.00000531,0.00000265,-0.00000554,0.0
 0001723,-0.00000315,-0.00000244,0.00000438,-0.00000418,0.00000101,-0.0
 0000243,0.00000340,0.00000684,-0.00000273,0.00000329,-0.00000085,0.000
 01322,-0.00000246,0.00000045,-0.00000549,0.00000491,0.00000318,0.00000
 467,-0.00000092,-0.00000561,0.00000215,-0.00000135,-0.00000091,-0.0000
 0098,0.00000178,0.00000243,-0.00000314,-0.00000017,0.00000396,0.000004
 02,-0.00000161,-0.00000283,0.00000219,0.00000090,-0.00000434,-0.000001
 18,-0.00000392,0.00000567,-0.00000024,0.00000144,0.00000338,0.00000365
 ,-0.00000166,-0.00000074,-0.00000138,0.00000050,-0.00000201,0.00000073
 ,0.00000106,0.00651633,0.00895231,0.00973957,0.00411209,0.00185305,-0.
 00117858,0.00034738,-0.00083577,0.00034351,-0.01416904,-0.00661457,-0.
 01990011,-0.05299798,-0.10427658,-0.09864255,-0.00161699,-0.00076242,0
 .00144349,0.00040466,0.00027851,0.00044526,-0.00041423,-0.00031047,0.0
 0038403,0.05484395,0.10349406,-0.00006343,-0.00070500,-0.00037992,0.00
 034338,0.00241253,-0.00150350,-0.00049222,0.00010350,-0.00043889,0.000
 23980,0.00002072,-0.00005913,0.00040803,-0.00057677,-0.00011028,0.0001
 6876,0.00017213,-0.00003235,-0.00000284,-0.00006585,-0.00012932,0.0002
 3478,-0.00107451,-0.00004735,-0.00010505,0.00061319,0.00038458,-0.0001
 1159,0.00021269,0.00015169,-0.00009646,0.00040442,-0.00027307,0.000145
 31,0.00000820,0.00015359,-0.00014508,0.00009224,0.00031168,0.00003396,
 -0.00000017,0.00013968,0.00008407,-0.00018132,-0.00002775,-0.00000515,
 0.00005855,-0.00007842,-0.00000838,0.00000732,0.00002523,0.00002539,-0
 .00001725,0.00001141,0.00000316,0.00001471,-0.00000999,-0.00000388,0.0
 0000410,-0.00000041,-0.00000623,-0.00004596,0.00000518,0.00000078,0.00
 001803,-0.00001304,0.00015594,-0.00001384,0.00013471,-0.00004335,-0.00
 002108,-0.00006051,0.00000836,-0.00001479,-0.00000267,-0.00004806,0.00
 018393,0.00003201,0.00006128,-0.00012875,0.00003536,0.00002235,-0.0000
 7311,-0.00001253,0.00001510,0.00003293,0.00003171,-0.00000217,-0.00000
 624,-0.00000218,0.00000246,-0.00000794,-0.00000367,-0.00000281,0.00000
 278,0.00000079,-0.00004728,0.00002716,0.00000660,-0.00000469,0.0000038
 4,-0.00000501,0.00001668,0.00000431,0.00001050,0.00000868,0.00000461,-
 0.00003158,0.00000894,0.00001347,-0.00000089,-0.00000130,0.00000296,0.
 00000170,0.00002875,-0.00000899,0.00002479,-0.00001782,-0.00000024,-0.
 00001396,0.00000048,-0.00000061,0.00000202,0.00000182,-0.00000041,-0.0
 0000162,0.00000065,0.00000260,0.00000035,0.00000039,-0.00000049,0.0000
 0067,0.00000237,0.00000111,0.00000524,0.00000032,0.00000016,-0.0000001
 7,-0.00000057,-0.00000026,-0.00000012,0.00000257,0.00000011,0.00000013
 ,0.00000060,-0.00000135,0.00000271,0.00000039,0.00000256,-0.00000071,0
 .00000036,0.00000038,-0.00000054,-0.00000047,-0.00000204,0.00000084,0.
 00000035,-0.00000002,0.00000137,0.00000111,0.00000300,-0.00000199,0.00
 000058,0.00000086,0.00000072,-0.00000021,0.00000064,-0.00000025,0.0000
 0033,-0.00000262,-0.00000002,0.00000087,0.00000008,-0.00000045,-0.0000
 0026,0.00000021,0.,0.00000040,-0.00000020,0.00000161,0.00000001,-0.000
 00039,-0.00000070,-0.00320313,-0.00535597,-0.00381994,-0.00328161,-0.0
 0064382,0.00369118,0.00082550,0.00018899,-0.00010773,-0.00762615,-0.00
 490984,-0.00666846,-0.10854628,-0.09898545,-0.20542852,0.00133405,0.00
 183727,-0.00114913,-0.00015488,-0.00031233,-0.00025871,0.00029980,0.00
 038668,-0.00052603,0.12063673,0.11008187,0.21217728,-0.13043596,0.0734
 9755,-0.01024084,-0.02808013,0.00034052,-0.02653079,-0.04377031,0.0331
 1785,-0.00519339,0.01229783,-0.01157537,0.00288325,-0.00125483,0.00217
 962,-0.00052406,-0.00111365,-0.00039610,0.00005774,0.00019331,-0.00014
 733,-0.00020897,-0.00019117,-0.00001565,0.00004816,-0.00004372,0.00013
 062,0.00011964,-0.00007699,-0.00005211,-0.00014607,-0.00055818,0.00039
 829,-0.00123505,-0.00260084,0.00292138,0.00337886,0.00030835,-0.000098
 18,0.00019790,-0.00034467,-0.00100552,-0.00102066,0.00129125,-0.004350
 37,-0.00248539,0.00135797,0.00169215,-0.00116096,-0.00021206,-0.000002
 25,-0.00028980,0.00050994,-0.00029447,0.00062298,-0.00010089,0.0007389
 3,-0.00000197,-0.00010022,-0.00002812,-0.00013515,0.00003100,-0.000136
 86,0.00013408,0.00005417,0.00002421,-0.00003173,-0.00008472,-0.0002205
 1,0.00022874,-0.00004460,0.00004727,-0.00007074,-0.00005943,-0.0000211
 7,-0.00011003,-0.00211627,0.00324904,-0.00050587,0.00106848,-0.0022868
 3,0.00100614,0.00181120,-0.00308125,-0.00033947,0.00065116,0.00086400,
 0.00110295,-0.00005250,-0.00026034,-0.00006846,0.00003360,-0.00026110,
 -0.00014150,-0.00005792,0.00009746,-0.00004864,-0.00014822,0.00013386,
 -0.00009574,0.00000334,0.00000274,0.00017224,0.00013931,-0.00011729,-0
 .00016017,0.00008020,-0.00009292,-0.00040423,-0.00002088,0.00002856,0.
 00003513,-0.00000735,0.00015493,0.00003666,0.00005401,-0.00002274,0.00
 032897,0.00008750,0.00003513,-0.00035457,-0.00006875,-0.00002611,0.000
 09252,-0.00001806,0.00000774,-0.00002286,0.00003646,0.00006217,-0.0000
 1574,0.00001351,-0.00002355,0.00001452,-0.00001136,0.00001166,0.000080
 27,0.00000355,-0.00000173,-0.00000255,0.00000350,0.00000255,0.00002527
 ,0.00000139,-0.00000490,-0.00001325,-0.00002959,-0.00000509,0.00003624
 ,-0.00000063,-0.00002047,0.00000274,-0.00001996,-0.00001119,0.00000738
 ,0.00000914,0.00000428,-0.00001619,0.00000727,0.00000208,0.00001480,0.
 00001865,0.00001768,-0.00000716,-0.00001281,-0.00001647,0.00001920,-0.
 00001357,0.00003763,0.00000485,0.00002921,-0.00002180,-0.00001630,-0.0
 0000531,0.00000751,0.00000508,-0.00001342,-0.00001087,0.00000187,0.000
 00984,-0.00000142,0.00001189,-0.00000480,0.00001532,-0.00000063,-0.043
 41094,-0.00690619,-0.03378713,-0.01430029,0.06370680,0.03976906,-0.265
 09741,0.05640812,-0.10814503,-0.15214840,-0.00412444,-0.06277343,0.047
 63194,-0.03666116,0.00312221,-0.00102058,-0.00039527,-0.00072077,0.002
 63743,0.00261306,-0.00054545,-0.00827016,0.00643117,-0.00319639,0.0017
 9126,0.00471717,-0.00110431,0.62375577,0.05843954,-0.19724115,-0.06834
 637,0.00066809,0.00844893,0.00582611,0.05438900,-0.02157303,0.02456191
 ,0.01025436,-0.01029073,-0.00288225,0.00199589,-0.00226102,-0.00254978
 ,0.00158691,0.00061660,-0.00028312,-0.00062723,0.00007716,0.00026528,-
 0.00085607,0.00041261,0.00030357,-0.00006405,-0.00048340,-0.00034118,0
 .00003912,-0.00006577,-0.00013535,0.00094592,-0.00142736,0.00059715,0.
 00278059,-0.00214356,0.00029258,0.00010664,-0.00045277,-0.00120898,-0.
 00042041,0.00178419,0.00041318,-0.00499216,0.01129489,-0.00088105,0.00
 017753,-0.00025742,0.00070591,-0.00006637,0.00002008,-0.00050855,-0.00
 070476,0.00038266,-0.00084362,0.00070216,-0.00108078,0.00001644,0.0000
 1623,0.00004519,0.00017628,-0.00006294,0.00029051,-0.00039642,-0.00018
 585,-0.00006215,0.00006385,-0.00014254,0.00031489,-0.00005572,0.000104
 20,-0.00021147,0.00006728,0.00002811,-0.00001476,0.00012027,-0.0009943
 4,-0.01129363,-0.00487130,-0.00159834,0.00584419,-0.00039216,0.0017780
 0,0.00151952,0.00220867,-0.00071776,-0.00157504,-0.00137126,0.00003733
 ,0.00033088,0.00006636,-0.00001835,0.00030700,0.00015190,0.00013449,-0
 .00003445,0.00019376,-0.00008767,-0.00045105,-0.00011302,0.00001049,0.
 00003041,-0.00050514,-0.00014250,0.00045975,0.00058829,-0.00005309,0.0
 0028864,0.00106561,0.00011098,-0.00002520,-0.00013160,-0.00003864,-0.0
 0047418,-0.00007618,-0.00001608,0.00018690,-0.00086556,-0.00028533,-0.
 00038750,0.00093065,0.00015298,0.00013180,-0.00021649,0.00008250,-0.00
 004724,0.00005402,-0.00009708,-0.00016238,0.00002252,-0.00002652,0.000
 08138,-0.00004161,0.00002394,0.00000919,-0.00020717,-0.00001044,0.0000
 1630,-0.00000326,-0.00000583,-0.00001073,-0.00005985,0.00002257,0.0000
 0371,0.00005094,0.00007169,0.00003065,-0.00009251,0.00000836,0.0000508
 3,0.00000070,0.00005904,0.00003588,-0.00002216,-0.00003494,-0.00000639
 ,0.00003827,-0.00002117,-0.00000634,-0.00002823,-0.00002656,-0.0000397
 7,0.00001093,0.00004589,0.00005234,-0.00005209,0.00001326,-0.00008553,
 -0.00001184,-0.00008028,0.00004051,0.00002677,0.00003009,-0.00001897,-
 0.00000512,0.00004258,0.00003615,-0.00001032,-0.00002427,-0.00000089,-
 0.00002389,0.00000463,-0.00003881,0.00000266,-0.00579245,0.00194952,0.
 00202122,0.03302847,-0.01803878,0.00632889,0.09525112,-0.12726514,0.01
 607566,-0.05046150,-0.12551843,-0.07777321,-0.00607053,-0.02135880,-0.
 02875139,-0.00048679,0.00007176,0.00076717,0.00284077,-0.00144644,-0.0
 0487747,-0.01415483,0.00862896,-0.00626462,0.00438600,-0.00032843,-0.0
 0376724,-0.18100192,0.50238551,-0.00548544,-0.07943815,-0.09295906,-0.
 01976531,0.00175384,-0.00451582,-0.00371048,0.01920845,0.01041917,0.01
 479833,-0.00676889,-0.00721809,0.00169916,0.00108118,-0.00198949,0.000
 70442,-0.00053804,0.00002240,0.00014479,-0.00028247,0.00069013,-0.0007
 3030,0.00012475,0.00007265,-0.00008357,-0.00028906,-0.00023920,-0.0000
 4321,-0.00008534,-0.00020625,0.00022991,-0.00057147,-0.00028154,-0.000
 26634,-0.00037518,0.00036205,-0.00011278,-0.00020375,-0.00073318,-0.00
 029152,0.00049823,0.00036968,-0.00477876,-0.00027905,-0.00328499,-0.00
 101620,0.00079699,0.00087541,-0.00023880,0.00000375,-0.00039386,-0.000
 33557,0.00023305,-0.00047145,0.00029722,-0.00030363,0.00003639,-0.0000
 3653,0.00001608,0.00003732,0.00000129,0.00011041,-0.00015388,-0.000067
 29,-0.00001978,0.00001081,-0.00018539,0.00010780,0.00010916,0.00004477
 ,-0.00010370,-0.00000003,-0.00000998,-0.00002138,-0.00000497,-0.000157
 10,-0.00358490,-0.00178235,-0.00011354,0.00173639,-0.00003684,0.000344
 35,-0.00043468,0.00118572,0.00005450,-0.00042959,-0.00038158,0.0000124
 8,0.00011159,0.00004274,-0.00003468,0.00002898,-0.00001231,0.00003097,
 0.00000567,0.00006034,-0.00010129,-0.00020365,-0.00002504,0.00001539,0
 .00001341,-0.00022225,-0.00007068,0.00029699,0.00013010,0.00001839,0.0
 0014197,0.00032564,0.00005528,0.00002038,-0.00005752,-0.00003043,-0.00
 017050,-0.00003317,0.00007186,0.00001454,-0.00024477,-0.00014579,-0.00
 013433,0.00032933,0.00005145,0.00005452,-0.00007704,0.00003724,-0.0000
 2056,0.00001828,-0.00003452,-0.00006225,0.00000811,-0.00000706,0.00003
 063,-0.00001461,0.00001302,0.00000157,-0.00007075,-0.00000192,0.000006
 92,-0.00000112,-0.00000386,-0.00000343,-0.00002201,0.00001313,0.000001
 58,0.00001995,0.00002998,0.00000864,-0.00003523,0.00000339,0.00002098,
 -0.00000046,0.00002206,0.00001290,-0.00000887,-0.00001244,-0.00000449,
 0.00001423,-0.00000718,-0.00000215,-0.00000817,-0.00001135,-0.00001069
 ,0.00000188,0.00001617,0.00001791,-0.00001581,0.00000655,-0.00002887,-
 0.00000506,-0.00002655,0.00001222,0.00000978,0.00001082,-0.00000610,-0
 .00000195,0.00001542,0.00001349,-0.00000393,-0.00000854,-0.00000091,-0
 .00000648,0.00000164,-0.00001473,0.00000038,-0.03582253,0.00130945,-0.
 03160744,0.01460120,0.03119212,0.04167733,-0.07350411,-0.01541676,-0.1
 3186371,-0.10038565,-0.04190227,-0.18662295,0.02939712,-0.05278996,-0.
 01678340,-0.00059865,0.00040197,-0.00072289,-0.00058510,-0.00521356,0.
 00202900,-0.02116464,0.00927498,-0.00411162,-0.00106732,-0.00390229,0.
 00385620,0.20831008,0.14495231,0.42451690\\0.00000059,-0.00000029,-0.0
 0000034,0.00000017,-0.00000027,-0.00000012,0.00000062,-0.00000026,-0.0
 0000013,0.00000074,-0.00000046,-0.00000040,0.00000039,-0.00000021,-0.0
 0000021,0.00000051,-0.00000035,0.00000012,0.00000057,-0.00000028,-0.00
 000027,0.00000018,-0.00000010,0.00000003,0.00000017,0.00000002,-0.0000
 0020,0.00000022,-0.00000010,0.00000009,-0.00000002,-0.00000010,0.00000
 004,0.00000012,-0.00000010,-0.00000008,-0.00000010,0.00000012,-0.00000
 022,0.00000004,0.,0.00000013,0.00000038,-0.00000012,0.00000002,-0.0000
 0002,-0.00000022,-0.00000006,0.00000015,0.00000005,0.00000044,0.000000
 19,0.,0.00000030,-0.00000039,0.00000025,0.00000032,-0.00000038,0.00000
 024,0.00000026,-0.00000039,0.00000013,0.00000031,-0.00000055,0.0000003
 3,0.00000043,-0.00000022,0.00000019,0.00000022,-0.00000037,0.00000019,
 0.,-0.00000025,0.00000015,0.00000033,0.00000058,-0.00000027,0.00000018
 ,0.00000048,-0.00000030,0.00000034,0.00000076,-0.00000041,-0.00000005,
 0.00000091,-0.00000052,0.00000008,0.00000080,-0.00000044,0.00000010,0.
 00000102,-0.00000056,0.00000030,0.00000108,-0.00000063,-0.00000011,-0.
 00000002,0.00000012,-0.00000022,-0.00000033,0.00000024,-0.00000021,-0.
 00000017,-0.00000002,-0.00000012,-0.00000014,0.00000024,0.,-0.00000024
 ,0.00000006,-0.00000020,-0.00000001,-0.00000008,0.00000023,-0.00000047
 ,0.00000019,0.00000019,-0.00000028,0.00000024,0.00000042,-0.00000026,0
 .00000005,0.00000063,-0.00000003,0.00000006,0.00000083,0.00000006,-0.0
 0000001,0.00000056,-0.00000015,0.00000007,0.00000084,-0.00000078,0.000
 00039,0.00000066,-0.00000076,0.00000048,0.00000079,-0.00000091,0.00000
 052,0.00000053,-0.00000071,0.00000044,0.00000076,-0.00000046,0.0000003
 6,0.00000030,-0.00000064,0.00000040,-0.00000008,-0.00000068,0.00000043
 ,-0.00000012,-0.00000053,0.00000034,-0.00000018,-0.00000085,0.00000053
 ,0.00000009,-0.00000033,-0.00000002,0.00000005,-0.00000030,0.00000019,
 0.,-0.00000013,0.00000022,0.00000039,-0.00000022,0.00000012,-0.0000001
 0,-0.00000058,0.00000038,0.00000045,-0.00000065,0.00000037,0.00000034,
 -0.00000078,0.00000039,0.00000055,-0.00000048,0.00000029,0.00000060,0.
 00000026,-0.00000024,-0.00000111,0.00000047,-0.00000031,-0.00000117,0.
 00000066,-0.00000045,-0.00000096,0.00000036,-0.00000020,-0.00000066,0.
 00000011,-0.00000005,-0.00000074,0.00000016,-0.00000014,-0.00000130,0.
 00000054,-0.00000036,-0.00000141,0.00000077,-0.00000048,-0.00000101,-0
 .00000002,-0.00000012,-0.00000084,0.00000050,-0.00000031,-0.00000065\\
 \@


 "TIGER, TIGER BURNING BRIGHT
 IN THE FOREST OF THE NIGHT.
 WHAT IMMORTAL HAND OR EYE
 CAN FRAME THY FEARFUL SYMMETRYE?"
                     - WILLIAM BLAKE
 Job cpu time:       6 days 13 hours 48 minutes  4.1 seconds.
 File lengths (MBytes):  RWF=  10038 Int=      0 D2E=      0 Chk=     73 Scr=      1
 Normal termination of Gaussian 09 at Thu Feb  9 18:37:54 2023.
