 Entering Gaussian System, Link 0=g09
 Initial command:
 /cm/shared/apps/gaussian/g09revD.01/g09/l1.exe "//home/sweav003/CHB/validation/thioanisole/G09-MeO_methylthioethercharges.com.o9819633.tmp/Gau-181168.inp" -scrdir="//home/sweav003/CHB/validation/thioanisole/G09-MeO_methylthioethercharges.com.o9819633.tmp/"
 Entering Link 1 = /cm/shared/apps/gaussian/g09revD.01/g09/l1.exe PID=    181169.
  
 Copyright (c) 1988,1990,1992,1993,1995,1998,2003,2009,2013,
            Gaussian, Inc.  All Rights Reserved.
  
 This is part of the Gaussian(R) 09 program.  It is based on
 the Gaussian(R) 03 system (copyright 2003, Gaussian, Inc.),
 the Gaussian(R) 98 system (copyright 1998, Gaussian, Inc.),
 the Gaussian(R) 94 system (copyright 1995, Gaussian, Inc.),
 the Gaussian 92(TM) system (copyright 1992, Gaussian, Inc.),
 the Gaussian 90(TM) system (copyright 1990, Gaussian, Inc.),
 the Gaussian 88(TM) system (copyright 1988, Gaussian, Inc.),
 the Gaussian 86(TM) system (copyright 1986, Carnegie Mellon
 University), and the Gaussian 82(TM) system (copyright 1983,
 Carnegie Mellon University). Gaussian is a federally registered
 trademark of Gaussian, Inc.
  
 This software contains proprietary and confidential information,
 including trade secrets, belonging to Gaussian, Inc.
  
 This software is provided under written license and may be
 used, copied, transmitted, or stored only in accord with that
 written license.
  
 The following legend is applicable only to US Government
 contracts under FAR:
  
                    RESTRICTED RIGHTS LEGEND
  
 Use, reproduction and disclosure by the US Government is
 subject to restrictions as set forth in subparagraphs (a)
 and (c) of the Commercial Computer Software - Restricted
 Rights clause in FAR 52.227-19.
  
 Gaussian, Inc.
 340 Quinnipiac St., Bldg. 40, Wallingford CT 06492
  
  
 ---------------------------------------------------------------
 Warning -- This program may not be used in any manner that
 competes with the business of Gaussian, Inc. or will provide
 assistance to any competitor of Gaussian, Inc.  The licensee
 of this program is prohibited from giving any competitor of
 Gaussian, Inc. access to this program.  By using this program,
 the user acknowledges that Gaussian, Inc. is engaged in the
 business of creating and licensing software in the field of
 computational chemistry and represents and warrants to the
 licensee that it is not a competitor of Gaussian, Inc. and that
 it will not use this program in any manner prohibited above.
 ---------------------------------------------------------------
  

 Cite this work as:
 Gaussian 09, Revision D.01,
 M. J. Frisch, G. W. Trucks, H. B. Schlegel, G. E. Scuseria, 
 M. A. Robb, J. R. Cheeseman, G. Scalmani, V. Barone, B. Mennucci, 
 G. A. Petersson, H. Nakatsuji, M. Caricato, X. Li, H. P. Hratchian, 
 A. F. Izmaylov, J. Bloino, G. Zheng, J. L. Sonnenberg, M. Hada, 
 M. Ehara, K. Toyota, R. Fukuda, J. Hasegawa, M. Ishida, T. Nakajima, 
 Y. Honda, O. Kitao, H. Nakai, T. Vreven, J. A. Montgomery, Jr., 
 J. E. Peralta, F. Ogliaro, M. Bearpark, J. J. Heyd, E. Brothers, 
 K. N. Kudin, V. N. Staroverov, T. Keith, R. Kobayashi, J. Normand, 
 K. Raghavachari, A. Rendell, J. C. Burant, S. S. Iyengar, J. Tomasi, 
 M. Cossi, N. Rega, J. M. Millam, M. Klene, J. E. Knox, J. B. Cross, 
 V. Bakken, C. Adamo, J. Jaramillo, R. Gomperts, R. E. Stratmann, 
 O. Yazyev, A. J. Austin, R. Cammi, C. Pomelli, J. W. Ochterski, 
 R. L. Martin, K. Morokuma, V. G. Zakrzewski, G. A. Voth, 
 P. Salvador, J. J. Dannenberg, S. Dapprich, A. D. Daniels, 
 O. Farkas, J. B. Foresman, J. V. Ortiz, J. Cioslowski, 
 and D. J. Fox, Gaussian, Inc., Wallingford CT, 2013.
 
 ******************************************
 Gaussian 09:  ES64L-G09RevD.01 24-Apr-2013
                20-Dec-2022 
 ******************************************
 %nprocshared=20
 Will use up to   20 processors via shared memory.
 %mem=4GB
 %chk=MeO_methylthioethercharges.chk
 ----------------------------------------------------------------------
 # opt freq=noraman b3lyp/6-311+g(d,p) geom=connectivity pop=(hirshfeld
 ,chelpg,mbs,npa)
 ----------------------------------------------------------------------
 1/14=-1,18=20,19=15,26=3,38=1,57=2/1,3;
 2/9=110,12=2,17=6,18=5,40=1/2;
 3/5=4,6=6,7=111,11=2,16=1,25=1,30=1,71=1,74=-5/1,2,3;
 4//1;
 5/5=2,38=5/2;
 6/7=2,8=2,9=2,10=2,15=8,20=3,27=100,28=1,40=-1,79=1/1,2,7;
 7//1,2,3,16;
 1/14=-1,18=20,19=15,26=3/3(2);
 2/9=110/2;
 99//99;
 2/9=110/2;
 3/5=4,6=6,7=111,11=2,16=1,25=1,30=1,71=1,74=-5/1,2,3;
 4/5=5,16=3,69=1/1;
 5/5=2,38=5/2;
 7//1,2,3,16;
 1/14=-1,18=20,19=15,26=3/3(-5);
 2/9=110/2;
 6/7=2,8=2,9=2,10=2,15=8,19=2,20=3,27=100,28=1,40=-1,79=1/1,2,7;
 99/9=1/99;
 -------------------
 Title Card Required
 -------------------
 Symbolic Z-matrix:
 Charge =  0 Multiplicity = 1
 C                     1.32161   1.20447  -0.00011 
 C                    -0.06348   1.02334  -0.00017 
 C                    -0.60319  -0.26379  -0.00007 
 C                     0.27303  -1.35982   0.0001 
 C                     1.64659  -1.16324   0.00014 
 C                     2.20265   0.12401   0.00004 
 H                     1.71601   2.21587  -0.00018 
 H                    -0.70456   1.89525  -0.00027 
 H                    -0.12595  -2.36863   0.00023 
 H                     2.30158  -2.02926   0.00027 
 S                    -2.34825  -0.63444  -0.0002 
 C                    -3.13283   1.00788   0.00033 
 H                    -2.8762    1.5749   -0.89548 
 H                    -4.20606   0.81532   0.00044 
 H                    -2.87592   1.57442   0.89636 
 O                     3.61902   0.32094   0.00008 
 C                     4.10888   0.26424  -1.34221 
 H                     5.15729   0.47799  -1.3486 
 H                     3.94192  -0.71421  -1.74178 
 H                     3.59397   0.98651  -1.94061 
 

 GradGradGradGradGradGradGradGradGradGradGradGradGradGradGradGradGradGrad
 Berny optimization.
 Initialization pass.
                           ----------------------------
                           !    Initial Parameters    !
                           ! (Angstroms and Degrees)  !
 --------------------------                            --------------------------
 ! Name  Definition              Value          Derivative Info.                !
 --------------------------------------------------------------------------------
 ! R1    R(1,2)                  1.3969         estimate D2E/DX2                !
 ! R2    R(1,6)                  1.3941         estimate D2E/DX2                !
 ! R3    R(1,7)                  1.0856         estimate D2E/DX2                !
 ! R4    R(2,3)                  1.3957         estimate D2E/DX2                !
 ! R5    R(2,8)                  1.0822         estimate D2E/DX2                !
 ! R6    R(3,4)                  1.4032         estimate D2E/DX2                !
 ! R7    R(3,11)                 1.784          estimate D2E/DX2                !
 ! R8    R(4,5)                  1.3876         estimate D2E/DX2                !
 ! R9    R(4,9)                  1.0848         estimate D2E/DX2                !
 ! R10   R(5,6)                  1.4022         estimate D2E/DX2                !
 ! R11   R(5,10)                 1.0858         estimate D2E/DX2                !
 ! R12   R(6,16)                 1.43           estimate D2E/DX2                !
 ! R13   R(11,12)                1.8201         estimate D2E/DX2                !
 ! R14   R(12,13)                1.0908         estimate D2E/DX2                !
 ! R15   R(12,14)                1.0904         estimate D2E/DX2                !
 ! R16   R(12,15)                1.0908         estimate D2E/DX2                !
 ! R17   R(16,17)                1.43           estimate D2E/DX2                !
 ! R18   R(17,18)                1.07           estimate D2E/DX2                !
 ! R19   R(17,19)                1.07           estimate D2E/DX2                !
 ! R20   R(17,20)                1.07           estimate D2E/DX2                !
 ! A1    A(2,1,6)              121.7443         estimate D2E/DX2                !
 ! A2    A(2,1,7)              118.7538         estimate D2E/DX2                !
 ! A3    A(6,1,7)              119.5019         estimate D2E/DX2                !
 ! A4    A(1,2,3)              120.1995         estimate D2E/DX2                !
 ! A5    A(1,2,8)              118.8752         estimate D2E/DX2                !
 ! A6    A(3,2,8)              120.9254         estimate D2E/DX2                !
 ! A7    A(2,3,4)              118.6101         estimate D2E/DX2                !
 ! A8    A(2,3,11)             124.7403         estimate D2E/DX2                !
 ! A9    A(4,3,11)             116.6497         estimate D2E/DX2                !
 ! A10   A(3,4,5)              120.4962         estimate D2E/DX2                !
 ! A11   A(3,4,9)              119.7803         estimate D2E/DX2                !
 ! A12   A(5,4,9)              119.7235         estimate D2E/DX2                !
 ! A13   A(4,5,6)              121.5078         estimate D2E/DX2                !
 ! A14   A(4,5,10)             118.9562         estimate D2E/DX2                !
 ! A15   A(6,5,10)             119.536          estimate D2E/DX2                !
 ! A16   A(1,6,5)              117.4422         estimate D2E/DX2                !
 ! A17   A(1,6,16)             121.2789         estimate D2E/DX2                !
 ! A18   A(5,6,16)             121.2789         estimate D2E/DX2                !
 ! A19   A(3,11,12)            103.5439         estimate D2E/DX2                !
 ! A20   A(11,12,13)           111.5543         estimate D2E/DX2                !
 ! A21   A(11,12,14)           105.3629         estimate D2E/DX2                !
 ! A22   A(11,12,15)           111.5527         estimate D2E/DX2                !
 ! A23   A(13,12,14)           108.8724         estimate D2E/DX2                !
 ! A24   A(13,12,15)           110.4392         estimate D2E/DX2                !
 ! A25   A(14,12,15)           108.8728         estimate D2E/DX2                !
 ! A26   A(6,16,17)            109.5            estimate D2E/DX2                !
 ! A27   A(16,17,18)           109.4712         estimate D2E/DX2                !
 ! A28   A(16,17,19)           109.4712         estimate D2E/DX2                !
 ! A29   A(16,17,20)           109.4712         estimate D2E/DX2                !
 ! A30   A(18,17,19)           109.4713         estimate D2E/DX2                !
 ! A31   A(18,17,20)           109.4712         estimate D2E/DX2                !
 ! A32   A(19,17,20)           109.4712         estimate D2E/DX2                !
 ! D1    D(6,1,2,3)              0.0006         estimate D2E/DX2                !
 ! D2    D(6,1,2,8)            179.9993         estimate D2E/DX2                !
 ! D3    D(7,1,2,3)           -179.9999         estimate D2E/DX2                !
 ! D4    D(7,1,2,8)             -0.0012         estimate D2E/DX2                !
 ! D5    D(2,1,6,5)             -0.0008         estimate D2E/DX2                !
 ! D6    D(2,1,6,16)           179.9992         estimate D2E/DX2                !
 ! D7    D(7,1,6,5)            179.9997         estimate D2E/DX2                !
 ! D8    D(7,1,6,16)            -0.0003         estimate D2E/DX2                !
 ! D9    D(1,2,3,4)              0.0005         estimate D2E/DX2                !
 ! D10   D(1,2,3,11)          -179.9971         estimate D2E/DX2                !
 ! D11   D(8,2,3,4)           -179.9981         estimate D2E/DX2                !
 ! D12   D(8,2,3,11)             0.0043         estimate D2E/DX2                !
 ! D13   D(2,3,4,5)             -0.0014         estimate D2E/DX2                !
 ! D14   D(2,3,4,9)            179.997          estimate D2E/DX2                !
 ! D15   D(11,3,4,5)           179.9964         estimate D2E/DX2                !
 ! D16   D(11,3,4,9)            -0.0052         estimate D2E/DX2                !
 ! D17   D(2,3,11,12)           -0.0261         estimate D2E/DX2                !
 ! D18   D(4,3,11,12)          179.9762         estimate D2E/DX2                !
 ! D19   D(3,4,5,6)              0.0012         estimate D2E/DX2                !
 ! D20   D(3,4,5,10)           179.9998         estimate D2E/DX2                !
 ! D21   D(9,4,5,6)           -179.9972         estimate D2E/DX2                !
 ! D22   D(9,4,5,10)             0.0014         estimate D2E/DX2                !
 ! D23   D(4,5,6,1)             -0.0001         estimate D2E/DX2                !
 ! D24   D(4,5,6,16)           179.9999         estimate D2E/DX2                !
 ! D25   D(10,5,6,1)          -179.9987         estimate D2E/DX2                !
 ! D26   D(10,5,6,16)            0.0013         estimate D2E/DX2                !
 ! D27   D(1,6,16,17)          -95.2561         estimate D2E/DX2                !
 ! D28   D(5,6,16,17)           84.7439         estimate D2E/DX2                !
 ! D29   D(3,11,12,13)          62.0278         estimate D2E/DX2                !
 ! D30   D(3,11,12,14)        -179.9901         estimate D2E/DX2                !
 ! D31   D(3,11,12,15)         -62.0082         estimate D2E/DX2                !
 ! D32   D(6,16,17,18)         176.1558         estimate D2E/DX2                !
 ! D33   D(6,16,17,19)         -63.8442         estimate D2E/DX2                !
 ! D34   D(6,16,17,20)          56.1558         estimate D2E/DX2                !
 --------------------------------------------------------------------------------
 Trust Radius=3.00D-01 FncErr=1.00D-07 GrdErr=1.00D-06
 Number of steps in this run=     96 maximum allowed number of steps=    120.
 GradGradGradGradGradGradGradGradGradGradGradGradGradGradGradGradGradGrad

                          Input orientation:                          
 ---------------------------------------------------------------------
 Center     Atomic      Atomic             Coordinates (Angstroms)
 Number     Number       Type             X           Y           Z
 ---------------------------------------------------------------------
      1          6           0        1.321608    1.204472   -0.000107
      2          6           0       -0.063476    1.023342   -0.000165
      3          6           0       -0.603192   -0.263793   -0.000067
      4          6           0        0.273033   -1.359817    0.000101
      5          6           0        1.646591   -1.163238    0.000138
      6          6           0        2.202647    0.124006    0.000036
      7          1           0        1.716007    2.215873   -0.000184
      8          1           0       -0.704555    1.895250   -0.000265
      9          1           0       -0.125952   -2.368625    0.000229
     10          1           0        2.301577   -2.029257    0.000272
     11         16           0       -2.348249   -0.634436   -0.000201
     12          6           0       -3.132831    1.007885    0.000331
     13          1           0       -2.876196    1.574898   -0.895479
     14          1           0       -4.206055    0.815319    0.000442
     15          1           0       -2.875917    1.574421    0.896363
     16          8           0        3.619021    0.320942    0.000077
     17          6           0        4.108880    0.264240   -1.342206
     18          1           0        5.157293    0.477990   -1.348597
     19          1           0        3.941919   -0.714210   -1.741779
     20          1           0        3.593965    0.986514   -1.940607
 ---------------------------------------------------------------------
                    Distance matrix (angstroms):
                    1          2          3          4          5
     1  C    0.000000
     2  C    1.396877   0.000000
     3  C    2.420879   1.395711   0.000000
     4  C    2.770395   2.406800   1.403224   0.000000
     5  C    2.389909   2.775871   2.422917   1.387554   0.000000
     6  C    1.394144   2.438056   2.832511   2.434161   1.402211
     7  H    1.085579   2.142123   3.395207   3.855870   3.379824
     8  H    2.140680   1.082223   2.161421   3.398697   3.857750
     9  H    3.855185   3.392542   2.158258   1.084842   2.143564
    10  H    3.378956   3.861585   3.399198   2.136151   1.085816
    11  S    4.104806   2.822838   1.783984   2.719797   4.029687
    12  C    4.458775   3.069394   2.831296   4.148002   5.249443
    13  H    4.308186   3.002864   3.057629   4.396846   5.362380
    14  H    5.541344   4.147799   3.760998   4.979302   6.178038
    15  H    4.308101   3.002878   3.057433   4.396467   5.362003
    16  O    2.461449   3.748887   4.262511   3.744408   2.468455
    17  C    3.233288   4.448130   4.927857   4.376422   3.146816
    18  H    4.130216   5.419604   5.962547   5.390039   4.103382
    19  H    3.685213   4.700585   4.888197   4.112381   2.916236
    20  H    2.996106   4.140477   4.790103   4.505575   3.490013
                    6          7          8          9         10
     6  C    0.000000
     7  H    2.147726   0.000000
     8  H    3.404281   2.441704   0.000000
     9  H    3.411097   4.940692   4.302954   0.000000
    10  H    2.155534   4.285326   4.943540   2.451136   0.000000
    11  S    4.613663   4.964115   3.016793   2.818868   4.854524
    12  C    5.408194   4.997046   2.585332   4.521299   6.225514
    13  H    5.357395   4.722365   2.370666   4.890553   6.371941
    14  H    6.445880   6.085423   3.664254   5.175398   7.102175
    15  H    5.357137   4.722396   2.371009   4.890090   6.371493
    16  O    1.430000   2.685559   4.601278   4.610704   2.694271
    17  C    2.335595   3.366858   5.256439   5.164099   3.213833
    18  H    3.267116   4.084226   6.179635   6.151035   4.032474
    19  H    2.600306   4.071023   5.606414   4.724326   2.730350
    20  H    2.538854   2.967034   4.802916   5.372298   3.812106
                   11         12         13         14         15
    11  S    0.000000
    12  C    1.820106   0.000000
    13  H    2.441599   1.090798   0.000000
    14  H    2.356530   1.090363   1.774305   0.000000
    15  H    2.441579   1.090798   1.791842   1.774310   0.000000
    16  O    6.043266   6.786708   6.675498   7.840678   6.675235
    17  C    6.656058   7.402553   7.121003   8.440648   7.450849
    18  H    7.706415   8.415851   8.120682   9.466044   8.412757
    19  H    6.527302   7.486832   7.241749   8.471380   7.660321
    20  H    6.457752   7.001249   6.580386   8.039732   7.088964
                   16         17         18         19         20
    16  O    0.000000
    17  C    1.430000   0.000000
    18  H    2.051796   1.070000   0.000000
    19  H    2.051796   1.070000   1.747303   0.000000
    20  H    2.051796   1.070000   1.747303   1.747303   0.000000
 Stoichiometry    C8H10OS
 Framework group  C1[X(C8H10OS)]
 Deg. of freedom    54
 Full point group                 C1      NOp   1
 Largest Abelian subgroup         C1      NOp   1
 Largest concise Abelian subgroup C1      NOp   1
                         Standard orientation:                         
 ---------------------------------------------------------------------
 Center     Atomic      Atomic             Coordinates (Angstroms)
 Number     Number       Type             X           Y           Z
 ---------------------------------------------------------------------
      1          6           0        0.932213   -1.155177   -0.299794
      2          6           0       -0.448657   -1.002690   -0.154148
      3          6           0       -1.006882    0.272113   -0.047980
      4          6           0       -0.153378    1.385092   -0.090955
      5          6           0        1.216283    1.216933   -0.236059
      6          6           0        1.790766   -0.057643   -0.343858
      7          1           0        1.341311   -2.157498   -0.380255
      8          1           0       -1.071956   -1.886934   -0.125579
      9          1           0       -0.567000    2.384730   -0.010192
     10          1           0        1.853511    2.095582   -0.266289
     11         16           0       -2.748982    0.606529    0.141379
     12          6           0       -3.502346   -1.050308    0.152270
     13          1           0       -3.147607   -1.646305    0.994166
     14          1           0       -4.573185   -0.879981    0.267094
     15          1           0       -3.327466   -1.576203   -0.787248
     16          8           0        3.203026   -0.225278   -0.493254
     17          6           0        3.824334   -0.210717    0.794638
     18          1           0        4.871473   -0.402962    0.687670
     19          1           0        3.682212    0.747832    1.248385
     20          1           0        3.384211   -0.966125    1.411526
 ---------------------------------------------------------------------
 Rotational constants (GHZ):      3.5171498      0.5433521      0.4905296
 Standard basis: 6-311+G(d,p) (5D, 7F)
 There are   298 symmetry adapted cartesian basis functions of A   symmetry.
 There are   288 symmetry adapted basis functions of A   symmetry.
   288 basis functions,   454 primitive gaussians,   298 cartesian basis functions
    41 alpha electrons       41 beta electrons
       nuclear repulsion energy       572.5419785331 Hartrees.
 NAtoms=   20 NActive=   20 NUniq=   20 SFac= 1.00D+00 NAtFMM=   60 NAOKFM=F Big=F
 Integral buffers will be    131072 words long.
 Raffenetti 2 integral format.
 Two-electron integral symmetry is turned on.
 One-electron integrals computed using PRISM.
 NBasis=   288 RedAO= T EigKep=  1.83D-06  NBF=   288
 NBsUse=   288 1.00D-06 EigRej= -1.00D+00 NBFU=   288
 ExpMin= 4.05D-02 ExpMax= 9.34D+04 ExpMxC= 3.17D+03 IAcc=2 IRadAn=         4 AccDes= 0.00D+00
 Harris functional with IExCor=  402 and IRadAn=       4 diagonalized for initial guess.
 HarFok:  IExCor=  402 AccDes= 0.00D+00 IRadAn=         4 IDoV= 1 UseB2=F ITyADJ=14
 ICtDFT=  3500011 ScaDFX=  1.000000  1.000000  1.000000  1.000000
 FoFCou: FMM=F IPFlag=           0 FMFlag=      100000 FMFlg1=           0
         NFxFlg=           0 DoJE=T BraDBF=F KetDBF=T FulRan=T
         wScrn=  0.000000 ICntrl=     500 IOpCl=  0 I1Cent=   200000004 NGrid=           0
         NMat0=    1 NMatS0=      1 NMatT0=    0 NMatD0=    1 NMtDS0=    0 NMtDT0=    0
 Petite list used in FoFCou.
 Requested convergence on RMS density matrix=1.00D-08 within 128 cycles.
 Requested convergence on MAX density matrix=1.00D-06.
 Requested convergence on             energy=1.00D-06.
 No special actions if energy rises.
 SCF Done:  E(RB3LYP) =  -784.394828721     A.U. after   15 cycles
            NFock= 15  Conv=0.20D-08     -V/T= 2.0029

 **********************************************************************

            Population analysis using the SCF density.

 **********************************************************************

 Orbital symmetries:
       Occupied  (A) (A) (A) (A) (A) (A) (A) (A) (A) (A) (A) (A)
                 (A) (A) (A) (A) (A) (A) (A) (A) (A) (A) (A) (A)
                 (A) (A) (A) (A) (A) (A) (A) (A) (A) (A) (A) (A)
                 (A) (A) (A) (A) (A)
       Virtual   (A) (A) (A) (A) (A) (A) (A) (A) (A) (A) (A) (A)
                 (A) (A) (A) (A) (A) (A) (A) (A) (A) (A) (A) (A)
                 (A) (A) (A) (A) (A) (A) (A) (A) (A) (A) (A) (A)
                 (A) (A) (A) (A) (A) (A) (A) (A) (A) (A) (A) (A)
                 (A) (A) (A) (A) (A) (A) (A) (A) (A) (A) (A) (A)
                 (A) (A) (A) (A) (A) (A) (A) (A) (A) (A) (A) (A)
                 (A) (A) (A) (A) (A) (A) (A) (A) (A) (A) (A) (A)
                 (A) (A) (A) (A) (A) (A) (A) (A) (A) (A) (A) (A)
                 (A) (A) (A) (A) (A) (A) (A) (A) (A) (A) (A) (A)
                 (A) (A) (A) (A) (A) (A) (A) (A) (A) (A) (A) (A)
                 (A) (A) (A) (A) (A) (A) (A) (A) (A) (A) (A) (A)
                 (A) (A) (A) (A) (A) (A) (A) (A) (A) (A) (A) (A)
                 (A) (A) (A) (A) (A) (A) (A) (A) (A) (A) (A) (A)
                 (A) (A) (A) (A) (A) (A) (A) (A) (A) (A) (A) (A)
                 (A) (A) (A) (A) (A) (A) (A) (A) (A) (A) (A) (A)
                 (A) (A) (A) (A) (A) (A) (A) (A) (A) (A) (A) (A)
                 (A) (A) (A) (A) (A) (A) (A) (A) (A) (A) (A) (A)
                 (A) (A) (A) (A) (A) (A) (A) (A) (A) (A) (A) (A)
                 (A) (A) (A) (A) (A) (A) (A) (A) (A) (A) (A) (A)
                 (A) (A) (A) (A) (A) (A) (A) (A) (A) (A) (A) (A)
                 (A) (A) (A) (A) (A) (A) (A)
 The electronic state is 1-A.
 Alpha  occ. eigenvalues --  -88.85752 -19.14135 -10.23359 -10.21534 -10.21213
 Alpha  occ. eigenvalues --  -10.20750 -10.18706 -10.18629 -10.18479 -10.18477
 Alpha  occ. eigenvalues --   -7.94352  -5.90764  -5.90354  -5.89726  -1.04354
 Alpha  occ. eigenvalues --   -0.87320  -0.80723  -0.76138  -0.74788  -0.69838
 Alpha  occ. eigenvalues --   -0.65402  -0.62331  -0.58783  -0.52974  -0.49044
 Alpha  occ. eigenvalues --   -0.47733  -0.46217  -0.45978  -0.44470  -0.44424
 Alpha  occ. eigenvalues --   -0.43617  -0.42247  -0.38708  -0.38143  -0.36409
 Alpha  occ. eigenvalues --   -0.35126  -0.32933  -0.29024  -0.28063  -0.26677
 Alpha  occ. eigenvalues --   -0.21627
 Alpha virt. eigenvalues --   -0.02419  -0.01760  -0.00790   0.00434   0.01749
 Alpha virt. eigenvalues --    0.02111   0.03020   0.03663   0.04204   0.04574
 Alpha virt. eigenvalues --    0.04776   0.05508   0.06261   0.07035   0.07410
 Alpha virt. eigenvalues --    0.07564   0.08869   0.09262   0.09604   0.10096
 Alpha virt. eigenvalues --    0.10599   0.11152   0.12864   0.13111   0.13639
 Alpha virt. eigenvalues --    0.13786   0.14316   0.14512   0.14987   0.15321
 Alpha virt. eigenvalues --    0.15769   0.16961   0.17534   0.18182   0.18937
 Alpha virt. eigenvalues --    0.19076   0.19482   0.20029   0.20835   0.21404
 Alpha virt. eigenvalues --    0.21608   0.22241   0.22530   0.23045   0.23559
 Alpha virt. eigenvalues --    0.24282   0.24404   0.24596   0.26032   0.26730
 Alpha virt. eigenvalues --    0.27722   0.28020   0.29039   0.29685   0.31574
 Alpha virt. eigenvalues --    0.33218   0.34276   0.34443   0.35250   0.35480
 Alpha virt. eigenvalues --    0.35873   0.36614   0.37768   0.39060   0.41179
 Alpha virt. eigenvalues --    0.44689   0.46534   0.47174   0.48636   0.50189
 Alpha virt. eigenvalues --    0.50999   0.53042   0.53176   0.55136   0.56247
 Alpha virt. eigenvalues --    0.57346   0.58425   0.60038   0.60155   0.60983
 Alpha virt. eigenvalues --    0.61787   0.63040   0.64170   0.66047   0.66567
 Alpha virt. eigenvalues --    0.67051   0.68140   0.68611   0.69446   0.70397
 Alpha virt. eigenvalues --    0.71818   0.72955   0.73993   0.76999   0.77905
 Alpha virt. eigenvalues --    0.79193   0.81270   0.81966   0.82552   0.83119
 Alpha virt. eigenvalues --    0.85383   0.86199   0.88008   0.88538   0.90465
 Alpha virt. eigenvalues --    0.91705   0.94075   0.97640   0.99419   1.00239
 Alpha virt. eigenvalues --    1.00733   1.01640   1.04757   1.06164   1.07104
 Alpha virt. eigenvalues --    1.07254   1.08448   1.09781   1.13475   1.14754
 Alpha virt. eigenvalues --    1.16440   1.20753   1.27039   1.27821   1.28546
 Alpha virt. eigenvalues --    1.30632   1.36445   1.38632   1.42804   1.45134
 Alpha virt. eigenvalues --    1.48846   1.49706   1.51968   1.52783   1.53922
 Alpha virt. eigenvalues --    1.54270   1.57296   1.58026   1.59402   1.60959
 Alpha virt. eigenvalues --    1.61553   1.64866   1.65076   1.66784   1.67877
 Alpha virt. eigenvalues --    1.71206   1.71591   1.72610   1.73959   1.76229
 Alpha virt. eigenvalues --    1.77030   1.77084   1.79975   1.81019   1.87678
 Alpha virt. eigenvalues --    1.89888   1.92161   1.93076   1.93410   1.95247
 Alpha virt. eigenvalues --    1.96476   1.99940   2.00959   2.04096   2.04862
 Alpha virt. eigenvalues --    2.06271   2.07067   2.09532   2.10608   2.14125
 Alpha virt. eigenvalues --    2.16195   2.18482   2.20756   2.22898   2.25035
 Alpha virt. eigenvalues --    2.32466   2.35794   2.38302   2.40580   2.44488
 Alpha virt. eigenvalues --    2.44998   2.47697   2.51725   2.53093   2.54528
 Alpha virt. eigenvalues --    2.54805   2.55619   2.60338   2.61444   2.64059
 Alpha virt. eigenvalues --    2.66525   2.67354   2.68545   2.69386   2.71783
 Alpha virt. eigenvalues --    2.73739   2.76204   2.78158   2.78475   2.81182
 Alpha virt. eigenvalues --    2.83622   2.87801   2.89716   2.93658   2.94865
 Alpha virt. eigenvalues --    2.96818   3.02151   3.08296   3.11746   3.17045
 Alpha virt. eigenvalues --    3.18028   3.23422   3.28225   3.28863   3.34702
 Alpha virt. eigenvalues --    3.41101   3.48461   3.58803   3.62253   3.72621
 Alpha virt. eigenvalues --    3.72935   3.79877   3.85432   3.85746   3.98018
 Alpha virt. eigenvalues --    4.04198   4.12798   4.14051   4.16770   4.82829
 Alpha virt. eigenvalues --    5.14534   5.37957   5.67468   7.96820  17.31590
 Alpha virt. eigenvalues --   17.50005  17.52838  23.52098  23.89371  23.89847
 Alpha virt. eigenvalues --   23.94117  23.96279  24.03211  24.09239  24.17431
 Alpha virt. eigenvalues --   49.93594 189.13977
          Condensed to atoms (all electrons):
               1          2          3          4          5          6
     1  C   11.807779  -2.617598  -0.239708  -0.416370  -1.091134  -1.383832
     2  C   -2.617598   8.109539   0.761725  -0.451476  -0.181018   0.269196
     3  C   -0.239708   0.761725   7.745707  -1.259898  -0.312346  -0.577498
     4  C   -0.416370  -0.451476  -1.259898   8.777085  -1.330643   0.263269
     5  C   -1.091134  -0.181018  -0.312346  -1.330643   8.945254  -0.197485
     6  C   -1.383832   0.269196  -0.577498   0.263269  -0.197485   7.505613
     7  H    0.375838  -0.005118   0.019594  -0.013926  -0.013131  -0.010110
     8  H    0.101035   0.354802  -0.049982  -0.092671   0.029194  -0.004080
     9  H   -0.007241  -0.036827  -0.008623   0.352268   0.030154  -0.000982
    10  H   -0.038127   0.010551   0.009378  -0.034953   0.414436  -0.006536
    11  S    0.485162  -0.703710  -1.255667   0.521265   0.232417   0.048375
    12  C   -0.292506   0.042021   0.311542  -0.021466  -0.090383  -0.006533
    13  H   -0.018190   0.013475   0.021490  -0.011251  -0.000744  -0.000617
    14  H    0.015740   0.032531  -0.039932  -0.008117   0.001672  -0.000050
    15  H   -0.004936   0.002413   0.016288  -0.007588  -0.000364  -0.000957
    16  O   -0.316298   0.048446  -0.015156   0.058716  -0.301155   0.676833
    17  C    0.110014  -0.017142  -0.000838   0.007554   0.066101  -0.316329
    18  H    0.000759  -0.001734   0.000061   0.000633  -0.000358   0.016754
    19  H   -0.029784   0.013886  -0.004858  -0.016507   0.023884   0.011402
    20  H    0.048871  -0.019130   0.002528   0.014607  -0.010571  -0.038056
               7          8          9         10         11         12
     1  C    0.375838   0.101035  -0.007241  -0.038127   0.485162  -0.292506
     2  C   -0.005118   0.354802  -0.036827   0.010551  -0.703710   0.042021
     3  C    0.019594  -0.049982  -0.008623   0.009378  -1.255667   0.311542
     4  C   -0.013926  -0.092671   0.352268  -0.034953   0.521265  -0.021466
     5  C   -0.013131   0.029194   0.030154   0.414436   0.232417  -0.090383
     6  C   -0.010110  -0.004080  -0.000982  -0.006536   0.048375  -0.006533
     7  H    0.531425  -0.008785   0.000059  -0.000219  -0.000300   0.001493
     8  H   -0.008785   0.552964  -0.000169   0.000067  -0.007939  -0.002377
     9  H    0.000059  -0.000169   0.530438  -0.008244   0.014763   0.000236
    10  H   -0.000219   0.000067  -0.008244   0.532168  -0.000685   0.000241
    11  S   -0.000300  -0.007939   0.014763  -0.000685  17.666339  -0.262575
    12  C    0.001493  -0.002377   0.000236   0.000241  -0.262575   5.510031
    13  H    0.000022  -0.000782   0.000014   0.000000  -0.078996   0.424776
    14  H   -0.000003   0.000451  -0.000007   0.000000   0.008115   0.362427
    15  H    0.000024  -0.000408   0.000017   0.000000  -0.075907   0.422265
    16  O   -0.005133  -0.000541  -0.000490  -0.005339  -0.000005  -0.000348
    17  C   -0.001082  -0.000044  -0.000116  -0.001193  -0.002732  -0.000201
    18  H   -0.000263  -0.000002  -0.000002  -0.000275  -0.000004  -0.000001
    19  H    0.000082  -0.000008   0.000046   0.000927   0.000003  -0.000018
    20  H    0.000771   0.000050  -0.000005   0.000172  -0.000032   0.000046
              13         14         15         16         17         18
     1  C   -0.018190   0.015740  -0.004936  -0.316298   0.110014   0.000759
     2  C    0.013475   0.032531   0.002413   0.048446  -0.017142  -0.001734
     3  C    0.021490  -0.039932   0.016288  -0.015156  -0.000838   0.000061
     4  C   -0.011251  -0.008117  -0.007588   0.058716   0.007554   0.000633
     5  C   -0.000744   0.001672  -0.000364  -0.301155   0.066101  -0.000358
     6  C   -0.000617  -0.000050  -0.000957   0.676833  -0.316329   0.016754
     7  H    0.000022  -0.000003   0.000024  -0.005133  -0.001082  -0.000263
     8  H   -0.000782   0.000451  -0.000408  -0.000541  -0.000044  -0.000002
     9  H    0.000014  -0.000007   0.000017  -0.000490  -0.000116  -0.000002
    10  H    0.000000   0.000000   0.000000  -0.005339  -0.001193  -0.000275
    11  S   -0.078996   0.008115  -0.075907  -0.000005  -0.002732  -0.000004
    12  C    0.424776   0.362427   0.422265  -0.000348  -0.000201  -0.000001
    13  H    0.543926  -0.019466  -0.050883   0.000003   0.000027   0.000000
    14  H   -0.019466   0.485802  -0.019203   0.000000   0.000000   0.000000
    15  H   -0.050883  -0.019203   0.540792  -0.000004  -0.000018   0.000000
    16  O    0.000003   0.000000  -0.000004   8.023114   0.180240  -0.049386
    17  C    0.000027   0.000000  -0.000018   0.180240   4.990434   0.407936
    18  H    0.000000   0.000000   0.000000  -0.049386   0.407936   0.536128
    19  H    0.000000   0.000000   0.000000  -0.046849   0.415818  -0.030208
    20  H    0.000000   0.000000   0.000000  -0.048632   0.415928  -0.028478
              19         20
     1  C   -0.029784   0.048871
     2  C    0.013886  -0.019130
     3  C   -0.004858   0.002528
     4  C   -0.016507   0.014607
     5  C    0.023884  -0.010571
     6  C    0.011402  -0.038056
     7  H    0.000082   0.000771
     8  H   -0.000008   0.000050
     9  H    0.000046  -0.000005
    10  H    0.000927   0.000172
    11  S    0.000003  -0.000032
    12  C   -0.000018   0.000046
    13  H    0.000000   0.000000
    14  H    0.000000   0.000000
    15  H    0.000000   0.000000
    16  O   -0.046849  -0.048632
    17  C    0.415818   0.415928
    18  H   -0.030208  -0.028478
    19  H    0.581404  -0.050878
    20  H   -0.050878   0.579197
 Mulliken charges:
               1
     1  C   -0.489476
     2  C    0.375168
     3  C    0.876194
     4  C   -0.330531
     5  C   -0.213780
     6  C   -0.248379
     7  H    0.128761
     8  H    0.129224
     9  H    0.134709
    10  H    0.127632
    11  S   -0.587889
    12  C   -0.398670
    13  H    0.177195
    14  H    0.180039
    15  H    0.178469
    16  O   -0.198017
    17  C   -0.254357
    18  H    0.148439
    19  H    0.131657
    20  H    0.133611
 Sum of Mulliken charges =   0.00000
 Mulliken charges with hydrogens summed into heavy atoms:
               1
     1  C   -0.360715
     2  C    0.504393
     3  C    0.876194
     4  C   -0.195822
     5  C   -0.086147
     6  C   -0.248379
    11  S   -0.587889
    12  C    0.137032
    16  O   -0.198017
    17  C    0.159350
 Electronic spatial extent (au):  <R**2>=           2254.8145
 Charge=              0.0000 electrons
 Dipole moment (field-independent basis, Debye):
    X=             -0.6059    Y=             -1.2309    Z=              1.5023  Tot=              2.0345
 Quadrupole moment (field-independent basis, Debye-Ang):
   XX=            -62.5486   YY=            -62.5399   ZZ=            -72.1227
   XY=              5.8517   XZ=              5.5558   YZ=             -0.4402
 Traceless Quadrupole moment (field-independent basis, Debye-Ang):
   XX=              3.1884   YY=              3.1972   ZZ=             -6.3856
   XY=              5.8517   XZ=              5.5558   YZ=             -0.4402
 Octapole moment (field-independent basis, Debye-Ang**2):
  XXX=             -2.7083  YYY=              0.4649  ZZZ=              1.2257  XYY=              4.9436
  XXY=            -16.5899  XXZ=             23.8601  XZZ=              3.4034  YZZ=             -3.1942
  YYZ=             -0.3724  XYZ=             -1.0823
 Hexadecapole moment (field-independent basis, Debye-Ang**3):
 XXXX=          -2249.7219 YYYY=           -406.3451 ZZZZ=           -154.1697 XXXY=             51.2156
 XXXZ=             68.5736 YYYX=              3.2449 YYYZ=              1.5675 ZZZX=              2.5896
 ZZZY=             -1.2084 XXYY=           -480.3617 XXZZ=           -455.5998 YYZZ=           -103.1756
 XXYZ=             -6.4301 YYXZ=             -1.0049 ZZXY=              5.8771
 N-N= 5.725419785331D+02 E-N=-2.990631603357D+03  KE= 7.821397707225D+02
 There are a total of      164816 grid points.
 ElSum from          density=       82.0000336823
 ElSum from atomic densities=       81.9998361678

 Hirshfeld populations at iteration   1 (CX, CA, CB, DipXYZ):
               1          2          3          4          5          6
     1  C    0.000000   3.025593   3.025593   0.012975  -0.052658  -0.008507
     2  C    0.000000   3.028641   3.028641  -0.023188  -0.049877  -0.002896
     3  C    0.000001   3.011048   3.011048  -0.052943   0.001801   0.003115
     4  C    0.000000   3.026209   3.026209  -0.014063   0.056142   0.000077
     5  C    0.000000   3.024851   3.024851   0.033074   0.045818  -0.005534
     6  C    0.000000   2.967742   2.967742   0.153885  -0.013325  -0.012368
     7  H    0.000001   0.474187   0.474187   0.052161  -0.153457  -0.011226
     8  H    0.000000   0.477182   0.477182  -0.074936  -0.136087   0.001789
     9  H    0.000002   0.474437   0.474437  -0.047846   0.154714   0.010352
    10  H    0.000001   0.473705   0.473705   0.087838   0.137162  -0.003858
    11  S    0.000002   8.004084   8.004084   0.050071  -0.170379  -0.013932
    12  C    0.000000   3.048470   3.048470  -0.003396  -0.010816  -0.000590
    13  H    0.000002   0.477024   0.477024   0.040714  -0.094688   0.121483
    14  H    0.000001   0.472921   0.472921  -0.166559   0.014492   0.017240
    15  H    0.000002   0.476765   0.476765   0.014929  -0.084690  -0.134674
    16  O    0.000005   4.088134   4.088134  -0.078648   0.020621   0.173142
    17  C    0.000000   3.009225   3.009225  -0.000543  -0.003458  -0.050125
    18  H    0.000001   0.475049   0.475049   0.155828  -0.027608  -0.005572
    19  H    0.000000   0.482368   0.482368  -0.003678   0.127661   0.067712
    20  H    0.000000   0.482381   0.482381  -0.042362  -0.102897   0.090910
       Tot   0.000020  41.000017  41.000017   0.093315  -0.341530   0.236536

 Dip from Atomic Chgs             -0.332132  -0.142666   0.354659
         Total Dipole             -0.238817  -0.484197   0.591195

 Hirshfeld charges, spin densities, dipoles, and CM5 charges using IRadAn=      4:
              Q-H        S-H        Dx         Dy         Dz        Q-CM5   
     1  C   -0.051187   0.000000   0.012975  -0.052658  -0.008507  -0.102209
     2  C   -0.057282   0.000000  -0.023188  -0.049877  -0.002896  -0.111490
     3  C   -0.022097   0.000000  -0.052943   0.001801   0.003115  -0.042055
     4  C   -0.052417   0.000000  -0.014063   0.056142   0.000077  -0.105799
     5  C   -0.049702   0.000000   0.033074   0.045818  -0.005534  -0.100819
     6  C    0.064515   0.000000   0.153885  -0.013325  -0.012368   0.075792
     7  H    0.051626   0.000000   0.052161  -0.153457  -0.011226   0.109835
     8  H    0.045635   0.000000  -0.074936  -0.136087   0.001789   0.101802
     9  H    0.051126   0.000000  -0.047846   0.154714   0.010352   0.105157
    10  H    0.052589   0.000000   0.087838   0.137162  -0.003858   0.110778
    11  S   -0.008168   0.000000   0.050071  -0.170379  -0.013932  -0.016019
    12  C   -0.096940   0.000000  -0.003396  -0.010816  -0.000590  -0.230187
    13  H    0.045953   0.000000   0.040714  -0.094688   0.121483   0.098731
    14  H    0.054158   0.000000  -0.166559   0.014492   0.017240   0.107262
    15  H    0.046470   0.000000   0.014929  -0.084690  -0.134674   0.099248
    16  O   -0.176267   0.000000  -0.078648   0.020621   0.173142  -0.260412
    17  C   -0.018449   0.000000  -0.000543  -0.003458  -0.050125  -0.148278
    18  H    0.049902   0.000000   0.155828  -0.027608  -0.005572   0.111595
    19  H    0.035264   0.000000  -0.003678   0.127661   0.067712   0.098457
    20  H    0.035237   0.000000  -0.042362  -0.102897   0.090910   0.098575
       Tot  -0.000034   0.000000   0.093315  -0.341530   0.236536  -0.000034
 Hirshfeld charges with hydrogens summed into heavy atoms:
              Q-H       Q-CM5   
     1  C    0.000439   0.007626
     2  C   -0.011646  -0.009688
     3  C   -0.022097  -0.042055
     4  C   -0.001291  -0.000642
     5  C    0.002887   0.009960
     6  C    0.064515   0.075792
    11  S   -0.008168  -0.016019
    12  C    0.049640   0.075054
    16  O   -0.176267  -0.260412
    17  C    0.101954   0.160349
 
 EQQ= 0.000000000000E+00 EQD= 0.000000000000E+00 EDD= 0.340109933741E-02
 EQQ+QD+DD= 0.340109933741E-02
 
          MBS Condensed to atoms (all electrons):
               1          2          3          4          5          6
     1  C    4.848050   0.500926  -0.028803  -0.011093  -0.041155   0.499278
     2  C    0.500926   4.847695   0.497191  -0.031467  -0.010759  -0.026760
     3  C   -0.028803   0.497191   4.831549   0.490291  -0.028861  -0.010524
     4  C   -0.011093  -0.031467   0.490291   4.835386   0.511197  -0.026779
     5  C   -0.041155  -0.010759  -0.028861   0.511197   4.846610   0.489908
     6  C    0.499278  -0.026760  -0.010524  -0.026779   0.489908   4.722713
     7  H    0.385461  -0.024643   0.001453   0.000071   0.001568  -0.025705
     8  H   -0.025600   0.390310  -0.026192   0.001485   0.000028   0.001344
     9  H    0.000022   0.001528  -0.026954   0.388819  -0.024838   0.001348
    10  H    0.001533   0.000070   0.001485  -0.024767   0.385753  -0.025527
    11  S    0.000535  -0.019263   0.322219  -0.026346   0.000604   0.000017
    12  C    0.000022  -0.003478  -0.009250   0.000301  -0.000003   0.000000
    13  H   -0.000004  -0.000038  -0.001000   0.000005   0.000000   0.000000
    14  H    0.000000   0.000069   0.000562  -0.000006   0.000000   0.000000
    15  H   -0.000004  -0.000035  -0.001003   0.000005   0.000000   0.000000
    16  O   -0.021085   0.000295   0.000004   0.000294  -0.020653   0.287246
    17  C   -0.000955  -0.000012   0.000002  -0.000005  -0.001673  -0.037726
    18  H    0.000000   0.000000   0.000000   0.000000   0.000004   0.002596
    19  H   -0.000156   0.000003   0.000000  -0.000044   0.001472  -0.003312
    20  H    0.001500  -0.000040  -0.000001   0.000002  -0.000190  -0.004024
               7          8          9         10         11         12
     1  C    0.385461  -0.025600   0.000022   0.001533   0.000535   0.000022
     2  C   -0.024643   0.390310   0.001528   0.000070  -0.019263  -0.003478
     3  C    0.001453  -0.026192  -0.026954   0.001485   0.322219  -0.009250
     4  C    0.000071   0.001485   0.388819  -0.024767  -0.026346   0.000301
     5  C    0.001568   0.000028  -0.024838   0.385753   0.000604  -0.000003
     6  C   -0.025705   0.001344   0.001348  -0.025527   0.000017   0.000000
     7  H    0.551269  -0.004381   0.000002  -0.000050  -0.000010   0.000000
     8  H   -0.004381   0.557450  -0.000045   0.000002  -0.002828  -0.000370
     9  H    0.000002  -0.000045   0.552677  -0.004422  -0.001527   0.000003
    10  H   -0.000050   0.000002  -0.004422   0.551391  -0.000012   0.000000
    11  S   -0.000010  -0.002828  -0.001527  -0.000012  15.552288   0.289957
    12  C    0.000000  -0.000370   0.000003   0.000000   0.289957   4.878495
    13  H    0.000002   0.000257   0.000001   0.000000  -0.017628   0.371188
    14  H    0.000000  -0.000016  -0.000001   0.000000  -0.017400   0.372580
    15  H    0.000002   0.000275   0.000001   0.000000  -0.017615   0.371228
    16  O   -0.000553  -0.000005  -0.000005  -0.000621   0.000000   0.000000
    17  C    0.000023   0.000000   0.000000  -0.000048   0.000000   0.000000
    18  H   -0.000018   0.000000   0.000000  -0.000018   0.000000   0.000000
    19  H    0.000017   0.000000   0.000002   0.000119   0.000000   0.000000
    20  H    0.000079   0.000002   0.000000   0.000035   0.000000   0.000000
              13         14         15         16         17         18
     1  C   -0.000004   0.000000  -0.000004  -0.021085  -0.000955   0.000000
     2  C   -0.000038   0.000069  -0.000035   0.000295  -0.000012   0.000000
     3  C   -0.001000   0.000562  -0.001003   0.000004   0.000002   0.000000
     4  C    0.000005  -0.000006   0.000005   0.000294  -0.000005   0.000000
     5  C    0.000000   0.000000   0.000000  -0.020653  -0.001673   0.000004
     6  C    0.000000   0.000000   0.000000   0.287246  -0.037726   0.002596
     7  H    0.000002   0.000000   0.000002  -0.000553   0.000023  -0.000018
     8  H    0.000257  -0.000016   0.000275  -0.000005   0.000000   0.000000
     9  H    0.000001  -0.000001   0.000001  -0.000005   0.000000   0.000000
    10  H    0.000000   0.000000   0.000000  -0.000621  -0.000048  -0.000018
    11  S   -0.017628  -0.017400  -0.017615   0.000000   0.000000   0.000000
    12  C    0.371188   0.372580   0.371228   0.000000   0.000000   0.000000
    13  H    0.576662  -0.020543  -0.024335   0.000000   0.000000   0.000000
    14  H   -0.020543   0.561596  -0.020510   0.000000   0.000000   0.000000
    15  H   -0.024335  -0.020510   0.575724   0.000000   0.000000   0.000000
    16  O    0.000000   0.000000   0.000000   7.948940   0.267967  -0.017442
    17  C    0.000000   0.000000   0.000000   0.267967   4.726385   0.379653
    18  H    0.000000   0.000000   0.000000  -0.017442   0.379653   0.567216
    19  H    0.000000   0.000000   0.000000  -0.019503   0.374074  -0.024611
    20  H    0.000000   0.000000   0.000000  -0.019017   0.373577  -0.023933
              19         20
     1  C   -0.000156   0.001500
     2  C    0.000003  -0.000040
     3  C    0.000000  -0.000001
     4  C   -0.000044   0.000002
     5  C    0.001472  -0.000190
     6  C   -0.003312  -0.004024
     7  H    0.000017   0.000079
     8  H    0.000000   0.000002
     9  H    0.000002   0.000000
    10  H    0.000119   0.000035
    11  S    0.000000   0.000000
    12  C    0.000000   0.000000
    13  H    0.000000   0.000000
    14  H    0.000000   0.000000
    15  H    0.000000   0.000000
    16  O   -0.019503  -0.019017
    17  C    0.374074   0.373577
    18  H   -0.024611  -0.023933
    19  H    0.600220  -0.027529
    20  H   -0.027529   0.599403
 MBS Mulliken charges:
               1
     1  C   -0.108473
     2  C   -0.121593
     3  C   -0.012166
     4  C   -0.107349
     5  C   -0.109009
     6  C    0.155906
     7  H    0.115413
     8  H    0.108284
     9  H    0.113389
    10  H    0.115077
    11  S   -0.062991
    12  C   -0.270672
    13  H    0.115435
    14  H    0.123670
    15  H    0.116266
    16  O   -0.405862
    17  C   -0.081261
    18  H    0.116553
    19  H    0.099247
    20  H    0.100135
 Sum of MBS Mulliken charges =   0.00000
 MBS Mulliken charges with hydrogens summed into heavy atoms:
               1
     1  C    0.006940
     2  C   -0.013309
     3  C   -0.012166
     4  C    0.006041
     5  C    0.006068
     6  C    0.155906
    11  S   -0.062991
    12  C    0.084699
    16  O   -0.405862
    17  C    0.234674
 Breneman (CHELPG) radii used.
 Generate Potential Derived Charges using the Breneman model, NDens= 1.
 Grid spacing= 0.300 Box extension= 2.800
 NStep X,Y,Z=   52     35     26   Total possible points=       47320
 Number of Points to Fit=   13555

 **********************************************************************

            Electrostatic Properties Using The SCF Density

 **********************************************************************

       Atomic Center    1 is at   0.932213 -1.155177 -0.299794
       Atomic Center    2 is at  -0.448657 -1.002690 -0.154148
       Atomic Center    3 is at  -1.006882  0.272113 -0.047980
       Atomic Center    4 is at  -0.153378  1.385092 -0.090955
       Atomic Center    5 is at   1.216283  1.216933 -0.236059
       Atomic Center    6 is at   1.790766 -0.057643 -0.343858
       Atomic Center    7 is at   1.341311 -2.157498 -0.380255
       Atomic Center    8 is at  -1.071956 -1.886934 -0.125579
       Atomic Center    9 is at  -0.567000  2.384730 -0.010192
       Atomic Center   10 is at   1.853511  2.095582 -0.266289
       Atomic Center   11 is at  -2.748982  0.606529  0.141379
       Atomic Center   12 is at  -3.502346 -1.050308  0.152270
       Atomic Center   13 is at  -3.147607 -1.646305  0.994166
       Atomic Center   14 is at  -4.573185 -0.879981  0.267094
       Atomic Center   15 is at  -3.327466 -1.576203 -0.787248
       Atomic Center   16 is at   3.203026 -0.225278 -0.493254
       Atomic Center   17 is at   3.824334 -0.210717  0.794638
       Atomic Center   18 is at   4.871473 -0.402962  0.687670
       Atomic Center   19 is at   3.682212  0.747832  1.248385
       Atomic Center   20 is at   3.384211 -0.966125  1.411526
   13555 points will be used for fitting atomic charges
 Fitting point charges to electrostatic potential
 Charges from ESP fit, RMS=   0.00450 RRMS=   0.36577:
 ESP charges:
               1
     1  C   -0.220011
     2  C   -0.146048
     3  C    0.168611
     4  C   -0.157391
     5  C   -0.227488
     6  C    0.398420
     7  H    0.135614
     8  H    0.133136
     9  H    0.137839
    10  H    0.148339
    11  S   -0.255696
    12  C   -0.007694
    13  H    0.024274
    14  H    0.103456
    15  H    0.025032
    16  O   -0.514117
    17  C    0.352797
    18  H    0.014025
    19  H   -0.053708
    20  H   -0.059389
 Sum of ESP charges =   0.00000
 ESP charges with hydrogens summed into heavy atoms:
               1
     1  C   -0.084397
     2  C   -0.012912
     3  C    0.168611
     4  C   -0.019552
     5  C   -0.079149
     6  C    0.398420
    11  S   -0.255696
    12  C    0.145068
    16  O   -0.514117
    17  C    0.253725
 Charge=   0.00000 Dipole=    -0.6885    -1.1527     1.3912 Tot=     1.9335
 -----------------------------------------------------------------

              Electrostatic Properties (Atomic Units)

 -----------------------------------------------------------------
    Center     Electric         -------- Electric Field --------
               Potential          X             Y             Z
 -----------------------------------------------------------------
    1 Atom    -14.766700
    2 Atom    -14.763537
    3 Atom    -14.735413
    4 Atom    -14.764710
    5 Atom    -14.766719
    6 Atom    -14.714778
    7 Atom     -1.099732
    8 Atom     -1.096336
    9 Atom     -1.098229
   10 Atom     -1.099283
   11 Atom    -59.236838
   12 Atom    -14.738969
   13 Atom     -1.094318
   14 Atom     -1.086746
   15 Atom     -1.094410
   16 Atom    -22.353443
   17 Atom    -14.735017
   18 Atom     -1.111441
   19 Atom     -1.117866
   20 Atom     -1.117265
 -----------------------------------------------------------------
 ******************************Gaussian NBO Version 3.1******************************
             N A T U R A L   A T O M I C   O R B I T A L   A N D
          N A T U R A L   B O N D   O R B I T A L   A N A L Y S I S
 ******************************Gaussian NBO Version 3.1******************************
       /RESON  / : Allow strongly delocalized NBO set

 Analyzing the SCF density

 Job title: Title Card Required                                             

 Storage needed:    250340 in NPA ( 536868712 available)


 NATURAL POPULATIONS:  Natural atomic orbital occupancies 
                                                          
   NAO  Atom  No  lang   Type(AO)    Occupancy      Energy
 ----------------------------------------------------------
     1    C    1  S      Cor( 1S)     1.99902     -10.03674
     2    C    1  S      Val( 2S)     0.95290      -0.16765
     3    C    1  S      Ryd( 3S)     0.00170       0.87074
     4    C    1  S      Ryd( 4S)     0.00021       0.91758
     5    C    1  S      Ryd( 5S)     0.00001      22.83354
     6    C    1  px     Val( 2p)     1.08030      -0.05415
     7    C    1  px     Ryd( 4p)     0.00483       0.92045
     8    C    1  px     Ryd( 3p)     0.00028       0.42186
     9    C    1  px     Ryd( 5p)     0.00016       3.11403
    10    C    1  py     Val( 2p)     1.16753      -0.06924
    11    C    1  py     Ryd( 4p)     0.00596       1.05084
    12    C    1  py     Ryd( 3p)     0.00024       0.32963
    13    C    1  py     Ryd( 5p)     0.00008       3.14232
    14    C    1  pz     Val( 2p)     1.00603      -0.11459
    15    C    1  pz     Ryd( 4p)     0.00114       0.54358
    16    C    1  pz     Ryd( 3p)     0.00035       0.33001
    17    C    1  pz     Ryd( 5p)     0.00002       2.69322
    18    C    1  dxy    Ryd( 3d)     0.00079       2.53536
    19    C    1  dxz    Ryd( 3d)     0.00055       1.68609
    20    C    1  dyz    Ryd( 3d)     0.00051       1.64286
    21    C    1  dx2y2  Ryd( 3d)     0.00060       2.54014
    22    C    1  dz2    Ryd( 3d)     0.00043       2.04177

    23    C    2  S      Cor( 1S)     1.99901     -10.03666
    24    C    2  S      Val( 2S)     0.93662      -0.16103
    25    C    2  S      Ryd( 3S)     0.00182       0.77415
    26    C    2  S      Ryd( 4S)     0.00020       0.80771
    27    C    2  S      Ryd( 5S)     0.00001      23.05181
    28    C    2  px     Val( 2p)     1.10303      -0.06356
    29    C    2  px     Ryd( 4p)     0.00466       0.93522
    30    C    2  px     Ryd( 3p)     0.00054       0.51615
    31    C    2  px     Ryd( 5p)     0.00012       3.18601
    32    C    2  py     Val( 2p)     1.14484      -0.06966
    33    C    2  py     Ryd( 4p)     0.00506       0.95803
    34    C    2  py     Ryd( 3p)     0.00023       0.38621
    35    C    2  py     Ryd( 5p)     0.00010       3.20186
    36    C    2  pz     Val( 2p)     1.03464      -0.11799
    37    C    2  pz     Ryd( 4p)     0.00169       0.52437
    38    C    2  pz     Ryd( 3p)     0.00055       0.32118
    39    C    2  pz     Ryd( 5p)     0.00002       2.71926
    40    C    2  dxy    Ryd( 3d)     0.00077       2.47708
    41    C    2  dxz    Ryd( 3d)     0.00048       1.66493
    42    C    2  dyz    Ryd( 3d)     0.00040       1.64291
    43    C    2  dx2y2  Ryd( 3d)     0.00063       2.58081
    44    C    2  dz2    Ryd( 3d)     0.00042       2.02428

    45    C    3  S      Cor( 1S)     1.99883     -10.08005
    46    C    3  S      Val( 2S)     0.95503      -0.21355
    47    C    3  S      Ryd( 4S)     0.00138       0.82678
    48    C    3  S      Ryd( 3S)     0.00043       0.63156
    49    C    3  S      Ryd( 5S)     0.00001      23.37841
    50    C    3  px     Val( 2p)     1.05249      -0.14531
    51    C    3  px     Ryd( 4p)     0.00704       1.03963
    52    C    3  px     Ryd( 3p)     0.00045       0.81665
    53    C    3  px     Ryd( 5p)     0.00026       3.04803
    54    C    3  py     Val( 2p)     1.09678      -0.08177
    55    C    3  py     Ryd( 4p)     0.00369       0.79223
    56    C    3  py     Ryd( 3p)     0.00028       0.48376
    57    C    3  py     Ryd( 5p)     0.00019       3.29314
    58    C    3  pz     Val( 2p)     1.05418      -0.13513
    59    C    3  pz     Ryd( 4p)     0.00133       0.57870
    60    C    3  pz     Ryd( 3p)     0.00039       0.38614
    61    C    3  pz     Ryd( 5p)     0.00001       2.64086
    62    C    3  dxy    Ryd( 3d)     0.00104       2.44985
    63    C    3  dxz    Ryd( 3d)     0.00113       1.52039
    64    C    3  dyz    Ryd( 3d)     0.00060       1.65201
    65    C    3  dx2y2  Ryd( 3d)     0.00157       2.17220
    66    C    3  dz2    Ryd( 3d)     0.00079       1.97665

    67    C    4  S      Cor( 1S)     1.99904     -10.03593
    68    C    4  S      Val( 2S)     0.93841      -0.16156
    69    C    4  S      Ryd( 3S)     0.00166       0.77695
    70    C    4  S      Ryd( 4S)     0.00020       0.78735
    71    C    4  S      Ryd( 5S)     0.00001      23.03981
    72    C    4  px     Val( 2p)     1.08156      -0.06023
    73    C    4  px     Ryd( 4p)     0.00509       0.84284
    74    C    4  px     Ryd( 3p)     0.00038       0.44841
    75    C    4  px     Ryd( 5p)     0.00014       3.12199
    76    C    4  py     Val( 2p)     1.16148      -0.07097
    77    C    4  py     Ryd( 4p)     0.00625       0.99140
    78    C    4  py     Ryd( 3p)     0.00023       0.32488
    79    C    4  py     Ryd( 5p)     0.00006       3.17899
    80    C    4  pz     Val( 2p)     1.01480      -0.11531
    81    C    4  pz     Ryd( 4p)     0.00111       0.51951
    82    C    4  pz     Ryd( 3p)     0.00065       0.31623
    83    C    4  pz     Ryd( 5p)     0.00002       2.70064
    84    C    4  dxy    Ryd( 3d)     0.00073       2.50521
    85    C    4  dxz    Ryd( 3d)     0.00053       1.68402
    86    C    4  dyz    Ryd( 3d)     0.00039       1.62263
    87    C    4  dx2y2  Ryd( 3d)     0.00066       2.52730
    88    C    4  dz2    Ryd( 3d)     0.00042       2.01577

    89    C    5  S      Cor( 1S)     1.99902     -10.03666
    90    C    5  S      Val( 2S)     0.95364      -0.16802
    91    C    5  S      Ryd( 4S)     0.00162       0.82017
    92    C    5  S      Ryd( 3S)     0.00019       0.80543
    93    C    5  S      Ryd( 5S)     0.00001      22.97429
    94    C    5  px     Val( 2p)     1.10597      -0.05716
    95    C    5  px     Ryd( 4p)     0.00518       0.97636
    96    C    5  px     Ryd( 3p)     0.00029       0.38727
    97    C    5  px     Ryd( 5p)     0.00013       3.11989
    98    C    5  py     Val( 2p)     1.14536      -0.06744
    99    C    5  py     Ryd( 4p)     0.00518       1.00057
   100    C    5  py     Ryd( 3p)     0.00031       0.35415
   101    C    5  py     Ryd( 5p)     0.00010       3.13722
   102    C    5  pz     Val( 2p)     1.00475      -0.11481
   103    C    5  pz     Ryd( 4p)     0.00105       0.54519
   104    C    5  pz     Ryd( 3p)     0.00039       0.32830
   105    C    5  pz     Ryd( 5p)     0.00002       2.68912
   106    C    5  dxy    Ryd( 3d)     0.00078       2.49653
   107    C    5  dxz    Ryd( 3d)     0.00055       1.67315
   108    C    5  dyz    Ryd( 3d)     0.00055       1.65762
   109    C    5  dx2y2  Ryd( 3d)     0.00062       2.57519
   110    C    5  dz2    Ryd( 3d)     0.00043       2.03488

   111    C    6  S      Cor( 1S)     1.99864     -10.10409
   112    C    6  S      Val( 2S)     0.84140      -0.14407
   113    C    6  S      Ryd( 4S)     0.00099       0.87999
   114    C    6  S      Ryd( 3S)     0.00036       0.83005
   115    C    6  S      Ryd( 5S)     0.00001      22.92035
   116    C    6  px     Val( 2p)     0.76657      -0.04327
   117    C    6  px     Ryd( 4p)     0.00718       1.16781
   118    C    6  px     Ryd( 3p)     0.00032       0.77829
   119    C    6  px     Ryd( 5p)     0.00019       2.84945
   120    C    6  py     Val( 2p)     1.06628      -0.05493
   121    C    6  py     Ryd( 4p)     0.00428       1.05903
   122    C    6  py     Ryd( 3p)     0.00031       0.78952
   123    C    6  py     Ryd( 5p)     0.00011       2.83904
   124    C    6  pz     Val( 2p)     1.01442      -0.11806
   125    C    6  pz     Ryd( 3p)     0.00326       0.67431
   126    C    6  pz     Ryd( 4p)     0.00029       0.68917
   127    C    6  pz     Ryd( 5p)     0.00009       2.38501
   128    C    6  dxy    Ryd( 3d)     0.00187       2.58084
   129    C    6  dxz    Ryd( 3d)     0.00185       1.67385
   130    C    6  dyz    Ryd( 3d)     0.00059       1.65662
   131    C    6  dx2y2  Ryd( 3d)     0.00188       2.39091
   132    C    6  dz2    Ryd( 3d)     0.00062       2.05528

   133    H    7  S      Val( 1S)     0.78123       0.04305
   134    H    7  S      Ryd( 2S)     0.00087       1.08539
   135    H    7  S      Ryd( 3S)     0.00019       1.67253
   136    H    7  px     Ryd( 2p)     0.00016       2.11891
   137    H    7  py     Ryd( 2p)     0.00036       2.60519
   138    H    7  pz     Ryd( 2p)     0.00018       1.61485

   139    H    8  S      Val( 1S)     0.78817       0.03809
   140    H    8  S      Ryd( 2S)     0.00105       0.78436
   141    H    8  S      Ryd( 3S)     0.00020       1.92842
   142    H    8  px     Ryd( 2p)     0.00025       2.23144
   143    H    8  py     Ryd( 2p)     0.00037       2.46520
   144    H    8  pz     Ryd( 2p)     0.00025       1.59866

   145    H    9  S      Val( 1S)     0.78373       0.03988
   146    H    9  S      Ryd( 2S)     0.00089       0.89784
   147    H    9  S      Ryd( 3S)     0.00021       1.85341
   148    H    9  px     Ryd( 2p)     0.00019       2.08510
   149    H    9  py     Ryd( 2p)     0.00040       2.58675
   150    H    9  pz     Ryd( 2p)     0.00020       1.60276

   151    H   10  S      Val( 1S)     0.78150       0.04283
   152    H   10  S      Ryd( 2S)     0.00078       1.04469
   153    H   10  S      Ryd( 3S)     0.00019       1.70569
   154    H   10  px     Ryd( 2p)     0.00022       2.24411
   155    H   10  py     Ryd( 2p)     0.00030       2.46627
   156    H   10  pz     Ryd( 2p)     0.00018       1.60847

   157    S   11  S      Cor( 1S)     2.00000     -87.71916
   158    S   11  S      Cor( 2S)     1.99935      -8.83102
   159    S   11  S      Val( 3S)     1.65318      -0.71075
   160    S   11  S      Ryd( 5S)     0.00748       0.85884
   161    S   11  S      Ryd( 4S)     0.00058       0.33742
   162    S   11  S      Ryd( 6S)     0.00000      13.86652
   163    S   11  S      Ryd( 7S)     0.00000     182.70396
   164    S   11  px     Cor( 2p)     1.99987      -5.89878
   165    S   11  px     Val( 3p)     0.97146      -0.16375
   166    S   11  px     Ryd( 5p)     0.00644       0.40254
   167    S   11  px     Ryd( 4p)     0.00041       0.20967
   168    S   11  px     Ryd( 6p)     0.00007       2.59382
   169    S   11  px     Ryd( 7p)     0.00000      16.47752
   170    S   11  py     Cor( 2p)     1.99993      -5.89771
   171    S   11  py     Val( 3p)     1.22879      -0.19617
   172    S   11  py     Ryd( 5p)     0.00261       0.43938
   173    S   11  py     Ryd( 4p)     0.00038       0.21748
   174    S   11  py     Ryd( 6p)     0.00017       2.49882
   175    S   11  py     Ryd( 7p)     0.00000      16.54909
   176    S   11  pz     Cor( 2p)     1.99998      -5.89225
   177    S   11  pz     Val( 3p)     1.83961      -0.23788
   178    S   11  pz     Ryd( 5p)     0.00711       0.35008
   179    S   11  pz     Ryd( 4p)     0.00018       0.18841
   180    S   11  pz     Ryd( 6p)     0.00003       2.26611
   181    S   11  pz     Ryd( 7p)     0.00000      16.63910
   182    S   11  dxy    Ryd( 3d)     0.00395       1.17493
   183    S   11  dxz    Ryd( 3d)     0.00257       0.89327
   184    S   11  dyz    Ryd( 3d)     0.00153       0.88919
   185    S   11  dx2y2  Ryd( 3d)     0.00687       1.25120
   186    S   11  dz2    Ryd( 3d)     0.00274       1.14815

   187    C   12  S      Cor( 1S)     1.99928     -10.08245
   188    C   12  S      Val( 2S)     1.18114      -0.35711
   189    C   12  S      Ryd( 3S)     0.00108       0.39534
   190    C   12  S      Ryd( 4S)     0.00056       0.88248
   191    C   12  S      Ryd( 5S)     0.00000      23.49171
   192    C   12  px     Val( 2p)     1.20828      -0.14435
   193    C   12  px     Ryd( 3p)     0.00179       0.70749
   194    C   12  px     Ryd( 4p)     0.00033       1.32925
   195    C   12  px     Ryd( 5p)     0.00007       1.93388
   196    C   12  py     Val( 2p)     1.07987      -0.16526
   197    C   12  py     Ryd( 3p)     0.00070       0.54791
   198    C   12  py     Ryd( 4p)     0.00041       1.12564
   199    C   12  py     Ryd( 5p)     0.00010       1.97380
   200    C   12  pz     Val( 2p)     1.23638      -0.13349
   201    C   12  pz     Ryd( 3p)     0.00070       0.49810
   202    C   12  pz     Ryd( 4p)     0.00005       1.22759
   203    C   12  pz     Ryd( 5p)     0.00010       2.01547
   204    C   12  dxy    Ryd( 3d)     0.00105       1.74385
   205    C   12  dxz    Ryd( 3d)     0.00045       1.74999
   206    C   12  dyz    Ryd( 3d)     0.00107       2.04856
   207    C   12  dx2y2  Ryd( 3d)     0.00122       1.96489
   208    C   12  dz2    Ryd( 3d)     0.00111       1.99906

   209    H   13  S      Val( 1S)     0.78750       0.01327
   210    H   13  S      Ryd( 2S)     0.00163       0.54503
   211    H   13  S      Ryd( 3S)     0.00014       2.23388
   212    H   13  px     Ryd( 2p)     0.00016       1.79624
   213    H   13  py     Ryd( 2p)     0.00012       1.94637
   214    H   13  pz     Ryd( 2p)     0.00029       2.28974

   215    H   14  S      Val( 1S)     0.77116       0.01644
   216    H   14  S      Ryd( 2S)     0.00064       0.54349
   217    H   14  S      Ryd( 3S)     0.00012       2.18161
   218    H   14  px     Ryd( 2p)     0.00033       2.60137
   219    H   14  py     Ryd( 2p)     0.00012       1.66122
   220    H   14  pz     Ryd( 2p)     0.00006       1.67474

   221    H   15  S      Val( 1S)     0.78675       0.01388
   222    H   15  S      Ryd( 2S)     0.00163       0.54576
   223    H   15  S      Ryd( 3S)     0.00014       2.23329
   224    H   15  px     Ryd( 2p)     0.00012       1.73617
   225    H   15  py     Ryd( 2p)     0.00011       1.88296
   226    H   15  pz     Ryd( 2p)     0.00034       2.41432

   227    O   16  S      Cor( 1S)     1.99976     -18.94644
   228    O   16  S      Val( 2S)     1.62918      -0.86770
   229    O   16  S      Ryd( 3S)     0.00370       0.98938
   230    O   16  S      Ryd( 4S)     0.00011       1.54373
   231    O   16  S      Ryd( 5S)     0.00000      49.57906
   232    O   16  px     Val( 2p)     1.42419      -0.29014
   233    O   16  px     Ryd( 3p)     0.00313       0.71789
   234    O   16  px     Ryd( 4p)     0.00072       0.83710
   235    O   16  px     Ryd( 5p)     0.00003       5.11525
   236    O   16  py     Val( 2p)     1.93100      -0.30025
   237    O   16  py     Ryd( 3p)     0.00602       0.60440
   238    O   16  py     Ryd( 4p)     0.00023       0.86376
   239    O   16  py     Ryd( 5p)     0.00001       4.99024
   240    O   16  pz     Val( 2p)     1.57912      -0.30418
   241    O   16  pz     Ryd( 3p)     0.00171       0.65081
   242    O   16  pz     Ryd( 4p)     0.00045       0.84524
   243    O   16  pz     Ryd( 5p)     0.00003       5.11286
   244    O   16  dxy    Ryd( 3d)     0.00028       3.07373
   245    O   16  dxz    Ryd( 3d)     0.00095       3.20154
   246    O   16  dyz    Ryd( 3d)     0.00069       2.96002
   247    O   16  dx2y2  Ryd( 3d)     0.00063       3.34251
   248    O   16  dz2    Ryd( 3d)     0.00118       3.31851

   249    C   17  S      Cor( 1S)     1.99919     -10.08214
   250    C   17  S      Val( 2S)     1.06695      -0.25376
   251    C   17  S      Ryd( 4S)     0.00217       0.88387
   252    C   17  S      Ryd( 3S)     0.00017       0.88196
   253    C   17  S      Ryd( 5S)     0.00000      23.05310
   254    C   17  px     Val( 2p)     1.11265      -0.09827
   255    C   17  px     Ryd( 3p)     0.00121       0.73820
   256    C   17  px     Ryd( 4p)     0.00033       1.29680
   257    C   17  px     Ryd( 5p)     0.00007       1.84395
   258    C   17  py     Val( 2p)     1.18307      -0.10103
   259    C   17  py     Ryd( 3p)     0.00036       0.60815
   260    C   17  py     Ryd( 4p)     0.00068       1.27346
   261    C   17  py     Ryd( 5p)     0.00003       1.95770
   262    C   17  pz     Val( 2p)     0.81057      -0.07790
   263    C   17  pz     Ryd( 3p)     0.00305       0.58465
   264    C   17  pz     Ryd( 4p)     0.00031       1.32769
   265    C   17  pz     Ryd( 5p)     0.00005       1.87642
   266    C   17  dxy    Ryd( 3d)     0.00076       1.88662
   267    C   17  dxz    Ryd( 3d)     0.00169       2.01949
   268    C   17  dyz    Ryd( 3d)     0.00199       2.11292
   269    C   17  dx2y2  Ryd( 3d)     0.00105       2.22275
   270    C   17  dz2    Ryd( 3d)     0.00174       2.03156

   271    H   18  S      Val( 1S)     0.81792       0.02316
   272    H   18  S      Ryd( 2S)     0.00050       0.49803
   273    H   18  S      Ryd( 3S)     0.00013       2.15801
   274    H   18  px     Ryd( 2p)     0.00039       2.68678
   275    H   18  py     Ryd( 2p)     0.00018       1.77548
   276    H   18  pz     Ryd( 2p)     0.00007       1.71478

   277    H   19  S      Val( 1S)     0.83667       0.01626
   278    H   19  S      Ryd( 2S)     0.00140       0.50542
   279    H   19  S      Ryd( 3S)     0.00016       2.21830
   280    H   19  px     Ryd( 2p)     0.00018       1.80085
   281    H   19  py     Ryd( 2p)     0.00037       2.55974
   282    H   19  pz     Ryd( 2p)     0.00010       1.90746

   283    H   20  S      Val( 1S)     0.83509       0.01628
   284    H   20  S      Ryd( 2S)     0.00145       0.52218
   285    H   20  S      Ryd( 3S)     0.00015       2.21804
   286    H   20  px     Ryd( 2p)     0.00022       1.90533
   287    H   20  py     Ryd( 2p)     0.00030       2.27405
   288    H   20  pz     Ryd( 2p)     0.00013       2.06717

 WARNING:  1 low occupancy (<1.9990e) core orbital  found on  C    3
           1 low occupancy (<1.9990e) core orbital  found on  C    6

 WARNING:  Population inversion found on atom  C    1
           Population inversion found on atom  C    2
           Population inversion found on atom  C    3
           Population inversion found on atom  C    4
           Population inversion found on atom  C    5
           Population inversion found on atom  C    6
           Population inversion found on atom  S   11
           Population inversion found on atom  C   12
           Population inversion found on atom  C   17


 Summary of Natural Population Analysis:                  
                                                          
                                       Natural Population 
                Natural  -----------------------------------------------
    Atom  No    Charge         Core      Valence    Rydberg      Total
 -----------------------------------------------------------------------
      C    1   -0.22364      1.99902     4.20676    0.01785     6.22364
      C    2   -0.23586      1.99901     4.21913    0.01772     6.23586
      C    3   -0.17792      1.99883     4.15848    0.02061     6.17792
      C    4   -0.21381      1.99904     4.19624    0.01853     6.21381
      C    5   -0.22612      1.99902     4.20972    0.01739     6.22612
      C    6    0.28847      1.99864     3.68868    0.02421     5.71153
      H    7    0.21702      0.00000     0.78123    0.00176     0.78298
      H    8    0.20971      0.00000     0.78817    0.00213     0.79029
      H    9    0.21438      0.00000     0.78373    0.00189     0.78562
      H   10    0.21684      0.00000     0.78150    0.00167     0.78316
      S   11    0.26469      9.99912     5.69304    0.04315    15.73531
      C   12   -0.71576      1.99928     4.70567    0.01081     6.71576
      H   13    0.21016      0.00000     0.78750    0.00235     0.78984
      H   14    0.22756      0.00000     0.77116    0.00128     0.77244
      H   15    0.21091      0.00000     0.78675    0.00235     0.78909
      O   16   -0.58311      1.99976     6.56349    0.01985     8.58311
      C   17   -0.18808      1.99919     4.17323    0.01566     6.18808
      H   18    0.18081      0.00000     0.81792    0.00127     0.81919
      H   19    0.16111      0.00000     0.83667    0.00221     0.83889
      H   20    0.16265      0.00000     0.83509    0.00226     0.83735
 =======================================================================
   * Total *    0.00000     27.99090    53.78417    0.22493    82.00000

                                 Natural Population      
 --------------------------------------------------------
   Core                      27.99090 ( 99.9675% of  28)
   Valence                   53.78417 ( 99.6003% of  54)
   Natural Minimal Basis     81.77507 ( 99.7257% of  82)
   Natural Rydberg Basis      0.22493 (  0.2743% of  82)
 --------------------------------------------------------

    Atom  No          Natural Electron Configuration
 ----------------------------------------------------------------------------
      C    1      [core]2S( 0.95)2p( 3.25)4p( 0.01)
      C    2      [core]2S( 0.94)2p( 3.28)4p( 0.01)
      C    3      [core]2S( 0.96)2p( 3.20)3d( 0.01)4p( 0.01)
      C    4      [core]2S( 0.94)2p( 3.26)4p( 0.01)
      C    5      [core]2S( 0.95)2p( 3.26)4p( 0.01)
      C    6      [core]2S( 0.84)2p( 2.85)3d( 0.01)4p( 0.01)
      H    7            1S( 0.78)
      H    8            1S( 0.79)
      H    9            1S( 0.78)
      H   10            1S( 0.78)
      S   11      [core]3S( 1.65)3p( 4.04)3d( 0.02)5S( 0.01)5p( 0.02)
      C   12      [core]2S( 1.18)2p( 3.52)
      H   13            1S( 0.79)
      H   14            1S( 0.77)
      H   15            1S( 0.79)
      O   16      [core]2S( 1.63)2p( 4.93)3p( 0.01)
      C   17      [core]2S( 1.07)2p( 3.11)3d( 0.01)
      H   18            1S( 0.82)
      H   19            1S( 0.84)
      H   20            1S( 0.84)


 NBO analysis skipped by request.
 Calling FoFJK, ICntrl=      2127 FMM=F ISym2X=0 I1Cent= 0 IOpClX= 0 NMat=1 NMatS=1 NMatT=0.
 ***** Axes restored to original set *****
 -------------------------------------------------------------------
 Center     Atomic                   Forces (Hartrees/Bohr)
 Number     Number              X              Y              Z
 -------------------------------------------------------------------
      1        6           0.007435366    0.005993110    0.000089376
      2        6           0.001614834   -0.002057437    0.000446533
      3        6          -0.000812256   -0.001154171   -0.000089276
      4        6          -0.000935411    0.002970240    0.000165246
      5        6           0.010205797   -0.002488271    0.000040503
      6        6           0.008279488   -0.000157868    0.002455990
      7        1           0.001169291   -0.000853255    0.000300766
      8        1           0.000776521    0.000070116    0.000182526
      9        1           0.000700060    0.000106630    0.000209266
     10        1           0.000623393    0.001138159    0.000468803
     11       16           0.000376236    0.000089905   -0.000059739
     12        6           0.000098452    0.000127421    0.000005591
     13        1          -0.000079234   -0.000024907   -0.000039507
     14        1           0.000041964   -0.000002120   -0.000008267
     15        1          -0.000047200   -0.000061394    0.000043678
     16        8          -0.031187170   -0.002840749    0.000645742
     17        6          -0.004479987   -0.000007816    0.011595322
     18        1           0.013761391    0.003050402    0.004574720
     19        1          -0.001143224   -0.015120091   -0.009182138
     20        1          -0.006398309    0.011222096   -0.011845133
 -------------------------------------------------------------------
 Cartesian Forces:  Max     0.031187170 RMS     0.006160465

 GradGradGradGradGradGradGradGradGradGradGradGradGradGradGradGradGradGrad
 Berny optimization.
 FormGI is forming the generalized inverse of G from B-inverse, IUseBI=4.
 Internal  Forces:  Max     0.029684610 RMS     0.005366805
 Search for a local minimum.
 Step number   1 out of a maximum of   96
 All quantities printed in internal units (Hartrees-Bohrs-Radians)
 Mixed Optimization -- RFO/linear search
 Second derivative matrix not updated -- first step.
 ITU=  0
     Eigenvalues ---    0.00230   0.00582   0.01295   0.01295   0.01815
     Eigenvalues ---    0.01963   0.02085   0.02125   0.02138   0.02148
     Eigenvalues ---    0.02149   0.02155   0.02185   0.09481   0.10298
     Eigenvalues ---    0.10344   0.10344   0.16000   0.16000   0.16000
     Eigenvalues ---    0.16000   0.16000   0.16000   0.16000   0.16000
     Eigenvalues ---    0.16000   0.16000   0.22000   0.22959   0.24000
     Eigenvalues ---    0.24595   0.25000   0.25000   0.25000   0.25000
     Eigenvalues ---    0.27420   0.34721   0.34721   0.34771   0.35301
     Eigenvalues ---    0.35329   0.35416   0.35727   0.37230   0.37230
     Eigenvalues ---    0.37230   0.40989   0.40989   0.41915   0.42002
     Eigenvalues ---    0.45461   0.45898   0.46379   0.47310
 RFO step:  Lambda=-7.75252302D-03 EMin= 2.30000000D-03
 Linear search not attempted -- first point.
 Iteration  1 RMS(Cart)=  0.05102297 RMS(Int)=  0.00242300
 Iteration  2 RMS(Cart)=  0.00430126 RMS(Int)=  0.00021475
 Iteration  3 RMS(Cart)=  0.00002218 RMS(Int)=  0.00021430
 Iteration  4 RMS(Cart)=  0.00000001 RMS(Int)=  0.00021430
 Variable       Old X    -DE/DX   Delta X   Delta X   Delta X     New X
                                 (Linear)    (Quad)   (Total)
    R1        2.63972  -0.00156   0.00000  -0.00337  -0.00337   2.63635
    R2        2.63455  -0.00577   0.00000  -0.01260  -0.01250   2.62205
    R3        2.05145  -0.00037   0.00000  -0.00102  -0.00102   2.05043
    R4        2.63751   0.00186   0.00000   0.00434   0.00424   2.64175
    R5        2.04510  -0.00040   0.00000  -0.00110  -0.00110   2.04400
    R6        2.65171   0.00074   0.00000   0.00206   0.00196   2.65367
    R7        3.37124  -0.00041   0.00000  -0.00145  -0.00145   3.36979
    R8        2.62210  -0.00022   0.00000  -0.00041  -0.00042   2.62168
    R9        2.05005  -0.00036   0.00000  -0.00099  -0.00099   2.04907
   R10        2.64979  -0.00654   0.00000  -0.01461  -0.01451   2.63529
   R11        2.05189  -0.00053   0.00000  -0.00148  -0.00148   2.05042
   R12        2.70231  -0.02968   0.00000  -0.07108  -0.07108   2.63123
   R13        3.43950   0.00003   0.00000   0.00011   0.00011   3.43962
   R14        2.06131   0.00000   0.00000   0.00000   0.00000   2.06131
   R15        2.06049  -0.00004   0.00000  -0.00012  -0.00012   2.06037
   R16        2.06131  -0.00001   0.00000  -0.00001  -0.00001   2.06130
   R17        2.70231   0.00521   0.00000   0.01247   0.01247   2.71478
   R18        2.02201   0.01406   0.00000   0.03700   0.03700   2.05901
   R19        2.02201   0.01744   0.00000   0.04588   0.04588   2.06789
   R20        2.02201   0.01728   0.00000   0.04547   0.04547   2.06747
    A1        2.12484  -0.00568   0.00000  -0.02490  -0.02478   2.10006
    A2        2.07265   0.00427   0.00000   0.02100   0.02091   2.09355
    A3        2.08570   0.00140   0.00000   0.00390   0.00380   2.08951
    A4        2.09788   0.00014   0.00000   0.00238   0.00233   2.10021
    A5        2.07476  -0.00075   0.00000  -0.00526  -0.00524   2.06953
    A6        2.11055   0.00061   0.00000   0.00288   0.00290   2.11345
    A7        2.07014   0.00042   0.00000   0.00407   0.00391   2.07405
    A8        2.17713  -0.00028   0.00000  -0.00231  -0.00224   2.17489
    A9        2.03592  -0.00014   0.00000  -0.00177  -0.00170   2.03422
   A10        2.10306   0.00000   0.00000   0.00197   0.00190   2.10496
   A11        2.09056   0.00063   0.00000   0.00276   0.00278   2.09334
   A12        2.08957  -0.00063   0.00000  -0.00473  -0.00471   2.08486
   A13        2.12071  -0.00567   0.00000  -0.02467  -0.02455   2.09616
   A14        2.07618   0.00405   0.00000   0.01959   0.01949   2.09567
   A15        2.08630   0.00162   0.00000   0.00508   0.00499   2.09128
   A16        2.04975   0.01079   0.00000   0.04115   0.04113   2.09088
   A17        2.11672  -0.00608   0.00000  -0.02323  -0.02360   2.09311
   A18        2.11672  -0.00471   0.00000  -0.01792  -0.01829   2.09842
[...]
 8543,-0.01441654,0.02463331,-0.00595166,-0.16129885,0.13195398,-0.0335
 1449,0.00874695,-0.01031791,0.00248859,-0.00012251,-0.00294524,0.00046
 882,-0.00053922,-0.00061491,0.00015191,-0.00372756,-0.00251067,0.00023
 907,0.00102224,-0.00027568,0.00021831,0.17002245,-0.00468809,0.0071362
 5,-0.00084846,0.13058263,-0.22045108,0.04564875,0.01872385,-0.01743804
 ,0.00504918,-0.00344409,-0.00393427,0.00210453,-0.00086597,0.00014747,
 -0.00026984,-0.00200009,0.00153941,0.00155295,0.00037833,0.00045939,-0
 .00118571,-0.14041315,0.23196808,0.00094065,-0.00023793,0.00414715,-0.
 03356218,0.04617183,-0.04919155,-0.00441701,0.00417150,0.00163822,0.00
 080321,0.00190841,0.00524362,0.00011341,-0.00030745,-0.00094285,0.0002
 3522,0.00153624,0.00780558,0.00003385,-0.00113603,-0.00431630,0.035758
 72,-0.05139535,0.03881592,-0.00082883,0.00039592,-0.00007458,-0.002165
 94,0.00341916,-0.00093547,0.00879835,0.01819288,-0.00376144,-0.0944081
 0,-0.09526115,0.01903554,-0.00767418,-0.02820615,0.00577479,-0.0049525
 0,0.00075430,-0.00038576,0.00004548,-0.00005374,0.00002433,0.00064355,
 0.00097956,-0.00020715,0.09892391,0.00064869,0.00046981,-0.00032357,0.
 00401879,-0.00195313,0.00174888,-0.01127969,-0.01800286,0.00421864,-0.
 09334778,-0.28854843,0.05093411,0.00078604,0.00039937,0.00068323,0.000
 14603,0.00226286,0.00097047,-0.00007876,-0.00006879,-0.00010785,-0.000
 52360,-0.00093556,0.00026017,0.10072209,0.30485288,-0.00004792,-0.0003
 9324,-0.00111032,-0.00098404,0.00185858,0.00562573,0.00200890,0.004775
 45,0.00207518,0.01889909,0.05039107,-0.04703138,-0.00033834,0.00029131
 ,0.00369998,-0.00018615,0.00115739,0.00708402,0.00002714,-0.00011991,-
 0.00058000,0.00013355,0.00022377,0.00018856,-0.02000519,-0.05637109,0.
 03697135,-0.00035136,-0.00259232,0.00048068,-0.00060042,-0.00087827,0.
 00017921,-0.00390750,-0.00198979,0.00031121,-0.01494558,0.02610649,-0.
 00578826,-0.15568258,0.13127061,-0.02937596,0.01142262,-0.00846610,0.0
 0194155,0.00038339,-0.00062746,0.00015169,0.00000515,0.00008866,-0.000
 01049,0.00104899,-0.00028013,0.00011386,0.16879102,-0.00353856,-0.0037
 8994,0.00189592,-0.00115399,-0.00015747,-0.00016468,-0.00158245,0.0019
 8267,0.00098437,-0.00410284,0.00679529,-0.00107482,0.13021636,-0.23169
 026,0.04407264,0.02070583,-0.01607247,0.00427985,0.00102323,-0.0008917
 4,0.00021215,0.00008271,-0.00003901,-0.00013894,0.00027207,0.00062349,
 -0.00098990,-0.14230654,0.24129285,0.00063549,0.00187435,0.00499510,0.
 00013510,-0.00019895,-0.00071462,-0.00006317,0.00115520,0.00655822,0.0
 0075789,-0.00071341,0.00218159,-0.02913075,0.04392130,-0.04088510,-0.0
 0418175,0.00398701,0.00232991,-0.00020038,0.00015034,-0.00009064,0.000
 00206,-0.00015350,-0.00067060,0.00004526,-0.00095539,-0.00393702,0.031
 98939,-0.04801751,0.03315570,0.00395743,-0.00443277,0.00193722,-0.0286
 1815,-0.00784060,-0.00002345,-0.14138808,-0.02249941,-0.02108380,-0.03
 439276,-0.00214941,-0.00154814,0.00143797,0.00557802,0.00106447,-0.001
 78530,0.00000085,-0.00050065,-0.00085680,0.00015808,0.00019136,0.00113
 383,0.00102378,-0.00043234,0.00140313,-0.00131974,-0.00051313,-0.00093
 058,-0.00023880,0.00036159,0.24148422,-0.00150735,-0.00237702,0.002494
 97,-0.02459483,-0.00059341,-0.00068776,-0.01524913,-0.04265946,-0.0054
 0149,0.01453033,0.00566795,-0.00070539,0.00264671,0.00016629,0.0001688
 1,-0.00005865,-0.00234929,0.00024842,-0.00091276,0.00000830,0.00006385
 ,-0.00022105,0.00119471,-0.00110070,0.00053819,0.00127659,-0.00020876,
 0.00055349,0.00011869,0.00019733,0.02517053,0.07241677,0.00030612,0.00
 080518,0.00401314,0.00464688,0.00053055,0.00169492,0.00107485,-0.00259
 638,-0.04016315,-0.00400155,-0.00074511,0.00175232,-0.00032984,0.00177
 392,0.00495548,-0.00043790,-0.00002640,-0.00043425,0.00009548,0.000071
 05,0.00023812,0.00024906,-0.00103050,-0.00192136,0.00011924,-0.0007301
 7,-0.00271085,-0.00016613,0.00002926,0.00034162,-0.00972653,0.04900341
 ,0.19959697,-0.00064827,0.00008499,-0.00147644,0.00055697,0.00223116,0
 .00095534,-0.01296016,0.00696708,0.02498408,0.00020993,-0.00191638,0.0
 0196484,-0.00073079,-0.00077078,-0.00187519,0.00112345,0.00042022,0.00
 016078,-0.00005434,-0.00006411,-0.00014089,0.00000217,-0.00021891,0.00
 047729,-0.00018157,0.00048149,0.00076257,-0.00014733,-0.00004297,-0.00
 022172,-0.04198511,-0.00559793,-0.01032689,0.53573784,0.00063930,-0.00
 039634,-0.00107393,-0.00195677,-0.00020107,0.00040181,0.00084083,0.001
 66567,0.00427833,0.00093207,-0.00006481,0.00002173,-0.00065168,-0.0005
 5804,0.00087460,0.00014458,0.00109671,-0.00012436,-0.00004346,-0.00004
 388,-0.00006927,-0.00018724,0.00011599,0.00075219,0.00003106,-0.000049
 28,-0.00055932,-0.00002750,-0.00000790,-0.00002751,0.00246921,-0.03950
 594,-0.03214556,0.01878078,0.53065920,-0.00026678,0.00011301,0.0002072
 6,-0.00161692,-0.00076504,0.00008633,0.00689036,0.00159574,0.00235958,
 -0.00288830,0.00036174,-0.00012520,0.00027324,0.00015543,-0.00045215,0
 .00025709,-0.00021505,0.00013449,-0.00010572,-0.00004128,-0.00003870,0
 .00006617,0.00025798,-0.00002649,0.00005563,-0.00016962,0.00036925,-0.
 00012740,0.00001679,-0.00002105,0.01509499,-0.02869723,-0.12319697,0.0
 6260258,-0.04804503,0.36730851,-0.00019228,-0.00000097,0.00000785,0.00
 043177,-0.00019246,-0.00025769,0.00099237,0.00121639,-0.00074951,-0.00
 053435,0.00010937,-0.00031018,0.00018981,0.00015551,-0.00000228,-0.000
 14688,-0.00020029,0.00004822,0.00002198,0.00001425,0.00004628,0.000074
 28,-0.00006894,0.00023001,0.00002463,-0.00007742,0.00001120,0.00000023
 ,0.00000033,0.00002973,0.00088607,0.00676034,0.00663194,-0.06227359,-0
 .05979362,-0.01309704,0.06173113,0.00036847,-0.00002064,0.00002164,0.0
 0051156,0.00016110,0.00010286,-0.00060226,0.00069707,0.00046867,0.0003
 6662,-0.00013891,-0.00007087,-0.00012412,-0.00005007,0.00004081,-0.000
 06057,0.00015905,-0.00007851,0.00003019,0.00000636,0.00001538,0.000038
 80,-0.00008346,-0.00008433,-0.00004502,0.00003817,-0.00000641,0.000015
 58,-0.00000847,-0.00000192,-0.00013028,-0.00087003,-0.00446675,-0.0624
 5938,-0.29829038,-0.03366546,0.06746071,0.31631981,0.00050223,0.000136
 68,-0.00027754,0.00014855,-0.00031407,0.00062512,-0.00215388,0.0010284
 6,0.00160452,0.00082223,-0.00000066,0.00032394,-0.00037223,-0.00021622
 ,0.00004177,-0.00013137,0.00043031,-0.00008500,0.00006410,-0.00000785,
 -0.00001982,0.00007212,0.00014841,-0.00036500,-0.00009360,0.00007210,-
 0.00014671,0.00003141,-0.00000853,-0.00002148,-0.00270697,-0.02421029,
 -0.01597235,-0.01223240,-0.04020876,-0.04589577,0.01020348,0.04002545,
 0.05501795,-0.00022513,0.00020010,-0.00009442,0.00049571,0.00050333,0.
 00004194,-0.00062063,0.00036955,0.00126915,0.00057476,-0.00032124,0.00
 028595,-0.00017870,-0.00027897,-0.00003420,0.00037655,0.00011181,-0.00
 002289,0.00000843,-0.00001284,-0.00002099,-0.00001276,0.00000292,0.000
 00273,-0.00001637,-0.00000958,0.00000767,0.00000060,0.00000425,-0.0000
 2135,-0.00449406,-0.00020718,0.00100943,-0.31189013,-0.03310849,0.0177
 4070,-0.00564072,-0.00011120,-0.00000677,0.33458636,0.00037307,-0.0000
 1884,0.00017563,-0.00013337,-0.00021124,-0.00005697,0.00028087,-0.0005
 5402,-0.00180367,0.00044558,0.00013226,-0.00005329,-0.00019062,-0.0000
 7742,0.00019748,-0.00016248,0.00023689,-0.00007188,0.00001820,0.000008
 12,0.00003866,-0.00001094,0.00002770,-0.00022985,0.00002021,-0.0000135
 6,-0.00001092,0.00003091,-0.00000931,-0.00001339,0.00738539,0.00052330
 ,-0.00060646,-0.03207533,-0.04994052,0.00355380,-0.03054030,-0.0017180
 1,0.00333263,0.03544043,0.04906696,0.00015886,0.00006294,0.00048402,0.
 00034041,-0.00046104,-0.00011243,0.00119412,-0.00200165,-0.00592637,0.
 00023818,0.00052900,-0.00046454,0.00039363,0.00030844,0.00054988,-0.00
 044776,-0.00031682,-0.00004427,0.00005721,0.00003013,0.00001921,-0.000
 01723,0.00005933,-0.00022851,0.00001121,-0.00015491,-0.00028899,0.0000
 8006,0.00001081,0.00006215,0.02430651,0.00294207,-0.00254031,0.0208257
 8,0.00395980,-0.04401393,-0.00521763,0.00030765,0.00038944,-0.02164976
 ,-0.00169693,0.04896090,0.00022905,-0.00012109,0.00004762,-0.00041786,
 -0.00037799,-0.00025704,0.00157645,-0.00112439,-0.00000819,0.00045813,
 0.00028341,-0.00031724,-0.00013632,-0.00007944,-0.00001246,-0.00022377
 ,0.00014274,-0.00001647,-0.00000261,0.00001011,0.00002599,-0.00000750,
 0.00005957,0.00000531,0.00002901,0.00015559,0.00011939,0.00003302,0.00
 000466,0.00003106,0.00248838,-0.00240717,0.01008596,-0.10551616,0.0724
 8112,-0.08416342,0.00426333,-0.00537672,0.00580080,-0.01255976,0.01894
 554,-0.02089189,0.10957541,-0.00013588,0.00003155,-0.00002154,0.000146
 69,-0.00006536,0.00020955,-0.00074745,-0.00016103,0.00049747,-0.000280
 91,0.00022051,0.00012506,0.00004757,-0.00007019,-0.00010273,-0.0000337
 3,-0.00011237,0.00004736,0.00000766,-0.00000178,0.00000632,0.00001914,
 0.00000294,-0.00008407,0.00006881,-0.00017019,-0.00002924,0.00001487,0
 .00000489,-0.00000784,-0.00360788,0.00625026,-0.00983937,0.07450864,-0
 .14420634,0.10569758,0.01512048,-0.01621278,0.01978951,-0.00246930,0.0
 0252458,-0.00375623,-0.08264836,0.15196357,-0.00034807,0.00010767,-0.0
 0004757,0.00078620,0.00037145,0.00019360,-0.00193553,-0.00037904,0.002
 23375,0.00030171,0.00023640,0.00039128,0.00051696,0.00004713,-0.000283
 10,0.00000088,-0.00043035,0.00005549,0.00003321,0.00001055,-0.00002088
 ,-0.00004462,-0.00008847,-0.00007094,0.00002346,-0.00009716,-0.0001098
 9,0.00005498,0.00000364,-0.00002435,-0.00627331,0.00606325,-0.02501397
 ,-0.08668036,0.11196078,-0.15669791,0.00242788,-0.00261029,0.00478131,
 0.00146587,-0.00273249,0.00323713,0.08954959,-0.11252939,0.17135970,-0
 .06083219,0.00539628,-0.00230659,0.00708256,0.00498034,-0.00129509,-0.
 00616427,-0.00477626,-0.00023915,0.00208874,-0.00023427,0.00005309,-0.
 03253443,-0.01617497,0.00286657,-0.26409064,-0.06156294,0.00916955,0.0
 0140976,-0.00114398,0.00028323,-0.00123533,0.00004407,-0.00002225,-0.0
 0105338,-0.00015746,0.00000943,-0.00030061,0.00017518,-0.00007543,0.00
 215545,0.00081939,0.00094918,-0.00157152,-0.00072257,-0.00086266,0.000
 23472,0.00012430,0.00005103,-0.00052178,0.00020260,0.00077883,0.000266
 26,0.00000122,0.00016648,0.52555348,0.03751945,0.01426562,-0.00097707,
 -0.00087870,-0.00762047,0.00249014,-0.00159405,0.00385229,-0.00117155,
 0.00602329,-0.00692696,0.00298187,-0.04316470,-0.00365318,0.00201852,-
 0.02409967,-0.11784183,0.01555090,-0.00068779,0.00163796,-0.00104044,0
 .00145060,0.00025915,-0.00000206,-0.00161534,-0.00009211,-0.00002958,0
 .00172754,0.00133836,-0.00081030,0.00015178,0.00059332,-0.00014754,-0.
 00009434,-0.00015210,-0.00001007,-0.00001091,0.00000738,0.00000676,-0.
 00002656,-0.00000125,0.00006031,0.00000568,-0.00001031,0.00002595,-0.0
 5978067,0.32088747,-0.00935839,-0.00151822,0.00675777,0.00020320,0.002
 64339,0.00371719,0.00019841,-0.00118604,-0.00090622,-0.00125972,0.0028
 6504,0.00599656,0.00835814,0.00231816,0.00849272,0.00122667,0.01497930
 ,-0.04609217,0.00022187,-0.00105646,-0.00283453,-0.00035096,0.00000595
 ,0.00019554,0.00032228,-0.00000913,-0.00013236,-0.00032478,-0.00083323
 ,-0.00248862,-0.00000821,-0.00006238,-0.00040389,0.00010158,-0.0000639
 0,-0.00004505,0.00000415,0.00000938,-0.00000701,0.00000525,-0.00000373
 ,-0.00002413,0.00000220,-0.00000980,0.00003456,0.02116850,-0.05525787,
 0.07991175,0.00016861,-0.00484438,0.00100409,-0.00135621,0.00133236,-0
 .00028943,0.00142845,0.00048751,0.00021395,-0.00087632,0.00198323,-0.0
 0046773,0.00314426,0.00037222,-0.00005848,-0.04808328,0.02775934,-0.00
 675001,-0.00008111,0.00044522,-0.00008332,-0.00016635,-0.00018571,0.00
 004867,0.00044346,0.00011905,-0.00001579,-0.00217515,0.00096906,-0.000
 25592,-0.00058408,-0.00020101,-0.00021996,0.00038462,0.00016504,0.0001
 8694,-0.00006934,-0.00001593,-0.00001027,0.00013717,-0.00004310,-0.000
 18461,-0.00007103,-0.00000672,-0.00004070,-0.12922753,0.04357380,-0.01
 063631,0.54778986,-0.00494078,0.00033844,0.00048821,-0.00003409,0.0001
 2405,0.00021923,-0.00151357,0.00025187,-0.00033554,0.00120509,-0.00117
 551,0.00034255,-0.00912326,0.00101095,-0.00052738,0.00786689,0.0096550
 8,-0.00312209,0.00005076,0.00009213,-0.00016149,-0.00036354,0.00004284
 ,-0.00008169,-0.00037458,-0.00014251,0.00001710,-0.00155734,-0.0007912
 4,0.00010080,0.00055417,0.00017301,0.00022981,-0.00040695,-0.00019519,
 -0.00023908,0.00007627,0.00001798,-0.00000297,-0.00014336,0.00004583,0
 .00020259,0.00007344,0.00000851,0.00005925,0.07407894,-0.16602881,0.02
 425834,0.08259583,0.51209734,0.00100951,0.00046023,0.00267930,-0.00006
 847,0.00034356,0.00158458,0.00035828,0.00000719,0.00031802,-0.00027269
 ,0.00033883,0.00016294,0.00201917,-0.00045129,-0.00092655,-0.00247994,
 -0.00276243,-0.00497307,-0.00000213,-0.00016190,-0.00059801,0.00007494
 ,-0.00007456,-0.00027146,0.00008917,0.00003442,-0.00001762,0.00026287,
 0.00013374,-0.00017631,-0.00020993,-0.00010836,-0.00029763,0.00016410,
 0.00007618,0.00008408,-0.00000872,-0.00001427,0.00000103,0.00003629,-0
 .00002770,-0.00008684,-0.00000203,0.00001354,-0.00002816,-0.01710441,0
 .02371699,-0.06408403,-0.01788635,0.01270723,0.56110331,-0.00114650,-0
 .00051145,0.00009436,-0.00004509,0.00038634,-0.00008901,-0.00004033,-0
 .00003100,-0.00003247,0.00001149,-0.00011873,0.00002470,0.00013264,0.0
 0032872,-0.00006568,0.00118114,0.00372404,-0.00081020,0.00000524,0.000
 04066,-0.00000979,-0.00010787,-0.00001615,0.00000193,-0.00004088,-0.00
 001609,0.00000062,0.00013461,-0.00003089,0.00001856,0.00004763,0.00001
 266,0.00003518,-0.00004835,-0.00002230,-0.00003393,0.00001238,0.000004
 14,0.00000111,-0.00002162,0.00000519,0.00002575,0.00001187,0.00000107,
 0.00000539,-0.03086034,-0.00173044,-0.00023824,-0.25913632,-0.10741611
 ,0.01846328,0.29171299,0.00135370,0.00054232,-0.00005100,-0.00014606,-
 0.00045868,0.00009858,-0.00007315,0.00016348,-0.00005446,0.00013981,0.
 00049475,-0.00005044,-0.00013530,-0.00119687,0.00029714,0.00231653,-0.
 00363373,0.00097150,-0.00002905,-0.00002708,0.00001013,0.00010722,0.00
 002175,-0.00001350,0.00005445,-0.00000302,0.00000801,-0.00046286,0.000
 71613,-0.00025067,-0.00005153,0.00003533,-0.00001640,0.00000520,-0.000
 00163,0.00000133,0.00000013,-0.00000091,0.00000156,0.00000023,-0.00000
 081,-0.00000060,0.00000246,0.00000142,0.00000004,0.03565474,0.00781046
 ,-0.00087769,-0.12051890,-0.10501410,0.00901492,0.11014331,0.11254425,
 -0.00031883,-0.00007480,0.00024082,0.00003763,0.00010888,-0.00002394,0
 .00002123,-0.00006135,-0.00007803,-0.00004014,-0.00005463,0.00024476,0
 .00003234,0.00032333,0.00022732,-0.00046184,0.00097594,0.00040600,0.00
 000586,0.00001089,0.00001663,-0.00002363,-0.00001580,-0.00004157,-0.00
 001364,0.00000694,0.00003214,0.00011065,-0.00025081,-0.00041164,-0.000
 00283,-0.00001107,-0.00001758,0.00000754,-0.00000164,0.00000201,0.0000
 0041,-0.00000106,0.00000070,-0.00000014,0.00000016,-0.00000166,-0.0000
 0126,0.00000091,0.00000170,-0.00818711,-0.00163147,0.00048928,0.021230
 16,0.00928551,-0.05234364,-0.01830420,-0.01165777,0.04885647,-0.001436
 43,0.00064943,0.00041043,0.00084606,0.00063446,0.00014503,0.00010787,-
 0.00092149,0.00023046,-0.00093270,0.00032408,0.00048825,0.00053914,-0.
 00097315,0.00015803,0.00549457,0.00122813,-0.00210555,0.00005923,-0.00
 014353,-0.00010693,-0.00000662,-0.00000346,-0.00005500,-0.00001800,-0.
 00000219,-0.00004507,-0.00132605,-0.00053884,-0.00117415,-0.00002742,-
 0.00005003,-0.00010445,0.00003769,0.00000914,-0.00000098,-0.00000288,0
 .00000263,0.00000611,0.00000377,0.00000079,-0.00001139,0.00000008,-0.0
 0000185,0.00000238,-0.00468896,0.01727181,-0.02512879,-0.05702663,-0.0
 1613731,0.03823347,-0.00138837,-0.00916418,0.02646494,0.05833604,0.001
 00228,-0.00042607,-0.00026519,-0.00029531,-0.00011312,-0.00020559,0.00
 031665,0.00021802,0.00007290,0.00001103,0.00000413,0.00003379,0.000542
 93,0.00073089,-0.00042246,-0.00526430,-0.00042763,0.00019479,-0.000068
 34,0.00013536,0.00013053,0.00004357,-0.00000945,0.00004538,0.00004390,
 0.00002618,-0.00001667,-0.00037088,0.00007833,-0.00021515,-0.00009430,
 -0.00002484,-0.00004434,0.00007345,0.00002533,0.00005364,-0.00001103,-
 0.00001026,-0.00000359,0.00002620,-0.00000993,-0.00004149,-0.00001197,
 0.00000472,-0.00000938,0.00990375,-0.01980487,0.02586298,-0.01360205,-
 0.08022222,0.07901983,-0.00252900,-0.00387204,0.01316851,0.00789803,0.
 09331155,-0.00080160,0.00004487,-0.00015380,0.00028958,0.00000841,0.00
 003200,-0.00020903,-0.00012160,-0.00009185,0.00015247,-0.00050344,0.00
 006258,-0.00048965,0.00091859,-0.00011112,0.00329665,0.00076022,0.0005
 2008,0.00007275,-0.00010498,-0.00001848,-0.00002992,0.00000144,-0.0000
 0228,-0.00005913,-0.00000213,0.00001118,0.00005489,-0.00079137,0.00007
 173,0.00013941,-0.00001122,0.00006836,-0.00005816,-0.00001561,-0.00003
 176,0.00000576,0.00000378,0.00000172,-0.00001815,0.00000832,0.00002858
 ,0.00000310,-0.00000149,0.00000948,-0.00852488,0.00784017,0.00078012,0
 .03382581,0.08141138,-0.26497553,0.00085865,-0.00066327,-0.00044130,-0
 .03318271,-0.09654183,0.28349336,-0.00143649,0.00039254,-0.00069348,0.
 00086187,0.00052719,-0.00035384,0.00008597,-0.00092032,0.00019338,-0.0
 0089559,0.00006208,-0.00062860,0.00054994,-0.00088657,0.00023147,0.005
 52283,0.00204406,0.00155969,0.00005848,-0.00008399,0.00015706,-0.00000
 952,0.00002120,0.00005542,-0.00002077,0.00001467,0.00004219,-0.0014524
 7,0.00008221,0.00131849,0.00006826,-0.00002456,0.00010993,-0.00004534,
 0.00002051,-0.00000455,-0.00000267,0.00000247,0.00000431,-0.00000169,0
 .00000736,0.00000974,0.00000403,-0.00000406,-0.00001241,-0.00571001,0.
 02595925,0.01549315,-0.05464308,-0.02449051,-0.02267641,-0.00041431,-0
 .01919675,-0.02055713,0.00142962,0.00238538,0.00467415,0.05605092,0.00
 122748,-0.00027389,0.00035877,-0.00039133,-0.00000404,0.00024519,0.000
 36703,0.00020950,-0.00005591,-0.00005291,0.00018317,-0.00010190,0.0006
 8981,0.00040733,0.00019502,-0.00615327,-0.00065598,0.00010662,-0.00008
 654,0.00009132,-0.00018451,0.00005460,-0.00002481,-0.00003383,0.000063
 37,0.00003008,0.00001236,-0.00024895,0.00050710,-0.00002082,-0.0001271
 0,-0.00004453,-0.00004821,0.00009408,0.00005052,0.00004084,-0.00001783
 ,-0.00000300,0.00000107,0.00002990,-0.00001072,-0.00004339,-0.00001719
 ,-0.00000259,-0.00000952,0.01317231,-0.02852012,-0.01206407,-0.0203848
 7,-0.17028845,-0.12226615,-0.00222395,-0.00812103,-0.01012067,-0.00008
 246,0.01038592,0.00775976,0.01408785,0.19608423,0.00028273,0.00003282,
 -0.00029453,-0.00010898,0.00003292,-0.00007474,0.00006113,-0.00002977,
 -0.00001864,-0.00017029,0.00045098,-0.00016026,0.00025287,-0.00118666,
 0.00019321,-0.00071207,-0.00019298,0.00074874,-0.00003652,0.00004900,0
 .00002178,0.00000919,0.00000990,0.00001431,0.00003503,-0.00000792,0.00
 000775,0.00003056,0.00063060,-0.00025459,-0.00006626,0.00002255,0.0000
 1138,0.00000557,0.00000946,-0.00000653,-0.00000387,0.00000425,0.000003
 19,0.00000367,0.00000061,0.00000067,-0.00000101,-0.00000563,-0.0000012
 4,0.00312166,0.00638634,0.01064254,-0.01961075,-0.12485175,-0.17715439
 ,0.00005397,0.00323260,0.00284154,-0.00422407,-0.02081666,-0.01925308,
 0.02107744,0.13622934,0.18273289\\-0.00000005,0.00000053,0.00000314,-0
 .00000084,0.00000095,0.00000140,-0.00000142,0.00000116,-0.00000091,0.0
 0000182,0.00000013,-0.00000071,0.00000013,0.00000102,-0.00000257,-0.00
 000298,0.00000028,0.00000073,-0.00000023,0.00000229,0.00000477,0.00000
 029,0.00000200,0.00000537,0.00000020,-0.00000017,-0.00000456,0.0000000
 8,-0.00000034,-0.00000419,0.00000045,0.00000203,0.00000132,0.00000031,
 -0.00000372,0.00000154,-0.00000017,-0.00000360,0.00000361,0.00000027,-
 0.00000293,0.00000106,0.00000072,-0.00000421,-0.00000031,0.00000170,0.
 00000282,-0.00000082,-0.00000089,-0.00000021,-0.00000176,0.00000034,0.
 00000096,-0.00000097,0.00000072,-0.00000139,-0.00000267,-0.00000045,0.
 00000239,-0.00000347\\\@


 THE RED LIGHT IS ALWAYS LONGER THAN THE GREEN LIGHT.

                     -- PETER'S THEORY OF RELATIVITY
 Job cpu time:       0 days  0 hours 44 minutes  1.1 seconds.
 File lengths (MBytes):  RWF=    211 Int=      0 D2E=      0 Chk=      7 Scr=      1
 Normal termination of Gaussian 09 at Tue Dec 20 17:55:04 2022.
