	You are loading a legacy vmd module, please load an up to date module instead.


	 module load container_env vmd

	Please run vmd command with crun.vmd prepend to it:
	
	 crun.vmd vmd

	 
module: Command not found.
module: Command not found.
 Entering Gaussian System, Link 0=g09
 Initial command:
 /opt/gaussian/g09/l1.exe "/tmp/G09-fig16_3.com.o10726579.tmp/Gau-92908.inp" -scrdir="/tmp/G09-fig16_3.com.o10726579.tmp/"
 Entering Link 1 = /opt/gaussian/g09/l1.exe PID=     92909.
  
 Copyright (c) 1988,1990,1992,1993,1995,1998,2003,2009,2013,
            Gaussian, Inc.  All Rights Reserved.
  
 This is part of the Gaussian(R) 09 program.  It is based on
 the Gaussian(R) 03 system (copyright 2003, Gaussian, Inc.),
 the Gaussian(R) 98 system (copyright 1998, Gaussian, Inc.),
 the Gaussian(R) 94 system (copyright 1995, Gaussian, Inc.),
 the Gaussian 92(TM) system (copyright 1992, Gaussian, Inc.),
 the Gaussian 90(TM) system (copyright 1990, Gaussian, Inc.),
 the Gaussian 88(TM) system (copyright 1988, Gaussian, Inc.),
 the Gaussian 86(TM) system (copyright 1986, Carnegie Mellon
 University), and the Gaussian 82(TM) system (copyright 1983,
 Carnegie Mellon University). Gaussian is a federally registered
 trademark of Gaussian, Inc.
  
 This software contains proprietary and confidential information,
 including trade secrets, belonging to Gaussian, Inc.
  
 This software is provided under written license and may be
 used, copied, transmitted, or stored only in accord with that
 written license.
  
 The following legend is applicable only to US Government
 contracts under FAR:
  
                    RESTRICTED RIGHTS LEGEND
  
 Use, reproduction and disclosure by the US Government is
 subject to restrictions as set forth in subparagraphs (a)
 and (c) of the Commercial Computer Software - Restricted
 Rights clause in FAR 52.227-19.
  
 Gaussian, Inc.
 340 Quinnipiac St., Bldg. 40, Wallingford CT 06492
  
  
 ---------------------------------------------------------------
 Warning -- This program may not be used in any manner that
 competes with the business of Gaussian, Inc. or will provide
 assistance to any competitor of Gaussian, Inc.  The licensee
 of this program is prohibited from giving any competitor of
 Gaussian, Inc. access to this program.  By using this program,
 the user acknowledges that Gaussian, Inc. is engaged in the
 business of creating and licensing software in the field of
 computational chemistry and represents and warrants to the
 licensee that it is not a competitor of Gaussian, Inc. and that
 it will not use this program in any manner prohibited above.
 ---------------------------------------------------------------
  

 Cite this work as:
 Gaussian 09, Revision D.01,
 M. J. Frisch, G. W. Trucks, H. B. Schlegel, G. E. Scuseria, 
 M. A. Robb, J. R. Cheeseman, G. Scalmani, V. Barone, B. Mennucci, 
 G. A. Petersson, H. Nakatsuji, M. Caricato, X. Li, H. P. Hratchian, 
 A. F. Izmaylov, J. Bloino, G. Zheng, J. L. Sonnenberg, M. Hada, 
 M. Ehara, K. Toyota, R. Fukuda, J. Hasegawa, M. Ishida, T. Nakajima, 
 Y. Honda, O. Kitao, H. Nakai, T. Vreven, J. A. Montgomery, Jr., 
 J. E. Peralta, F. Ogliaro, M. Bearpark, J. J. Heyd, E. Brothers, 
 K. N. Kudin, V. N. Staroverov, T. Keith, R. Kobayashi, J. Normand, 
 K. Raghavachari, A. Rendell, J. C. Burant, S. S. Iyengar, J. Tomasi, 
 M. Cossi, N. Rega, J. M. Millam, M. Klene, J. E. Knox, J. B. Cross, 
 V. Bakken, C. Adamo, J. Jaramillo, R. Gomperts, R. E. Stratmann, 
 O. Yazyev, A. J. Austin, R. Cammi, C. Pomelli, J. W. Ochterski, 
 R. L. Martin, K. Morokuma, V. G. Zakrzewski, G. A. Voth, 
 P. Salvador, J. J. Dannenberg, S. Dapprich, A. D. Daniels, 
 O. Farkas, J. B. Foresman, J. V. Ortiz, J. Cioslowski, 
 and D. J. Fox, Gaussian, Inc., Wallingford CT, 2013.
 
 ******************************************
 Gaussian 09:  ES64L-G09RevD.01 24-Apr-2013
                29-Mar-2025 
 ******************************************
 %nprocshared=20
 Will use up to   20 processors via shared memory.
 %mem=4GB
 %chk=fig16_3.chk
 ----------------------------------------------------------------------
 # opt freq=noraman b3lyp/6-311+g(d,p) pop=(npa,hirshfeld,chelpg,mbs) g
 eom=connectivity
 ----------------------------------------------------------------------
 1/14=-1,18=20,19=15,26=3,38=1,57=2/1,3;
 2/9=110,12=2,17=6,18=5,40=1/2;
 3/5=4,6=6,7=111,11=2,16=1,25=1,30=1,71=1,74=-5/1,2,3;
 4//1;
 5/5=2,38=5/2;
 6/7=2,8=2,9=2,10=2,15=8,20=3,27=100,28=1,40=-1,79=1/1,2,7;
 7//1,2,3,16;
 1/14=-1,18=20,19=15,26=3/3(2);
 2/9=110/2;
 99//99;
 2/9=110/2;
 3/5=4,6=6,7=111,11=2,16=1,25=1,30=1,71=1,74=-5/1,2,3;
 4/5=5,16=3,69=1/1;
 5/5=2,38=5/2;
 7//1,2,3,16;
 1/14=-1,18=20,19=15,26=3/3(-5);
 2/9=110/2;
 6/7=2,8=2,9=2,10=2,15=8,19=2,20=3,27=100,28=1,40=-1,79=1/1,2,7;
 99/9=1/99;
 -------------------
 Title Card Required
 -------------------
 Symbolic Z-matrix:
 Charge =  0 Multiplicity = 1
 C                    -5.02631  -3.39693  -0.31829 
 C                    -3.6252   -3.3819   -0.29693 
 C                    -2.93715  -2.16127  -0.32028 
 C                    -3.65027  -0.9557   -0.36505 
 C                    -5.05142  -0.97072  -0.38651 
 C                    -5.73947  -2.19138  -0.36316 
 H                    -0.99155  -3.06664  -0.26482 
 H                    -5.5516   -4.32886  -0.30034 
 H                    -3.08077  -4.30234  -0.26277 
 C                    -1.536    -2.14619  -0.29891 
 C                    -2.96227   0.2649   -0.38834 
 H                    -6.80928  -2.20294  -0.37954 
 C                    -1.56104   0.28002  -0.36699 
 C                    -0.84795  -0.92556  -0.32224 
 H                    -1.03566   1.21204  -0.38486 
 H                     0.22186  -0.91409  -0.30585 
 C                    -7.23609   0.33883  -0.45746 
 C                    -5.83503   0.35408  -0.43573 
 C                    -5.14706   1.5748   -0.45869 
 C                    -5.86017   2.78052  -0.50297 
 C                    -7.26159   2.76523  -0.52437 
 C                    -7.94942   1.54419  -0.50176 
 H                    -7.76129  -0.59325  -0.44023 
 C                    -3.7459    1.58968  -0.43732 
 C                    -5.17167   4.00119  -0.5258 
 H                    -7.80638   3.68556  -0.55801 
 C                    -3.77026   4.01574  -0.50456 
 C                    -3.05764   2.81001  -0.46045 
 H                    -5.71589   4.92181  -0.55948 
 H                    -1.98783   2.82111  -0.44438 
 C                    -3.01275   5.35635  -0.52974 
 C                    -9.48921   1.52644  -0.52565 
 C                    -10.00502   2.75756  -1.29357 
 H                    -11.07485   2.74511  -1.31016 
 H                    -9.66618   3.64865  -0.80772 
 H                    -9.63245   2.73432  -2.29634 
 C                    -10.02554   1.55989   0.91751 
 H                    -11.09533   1.54739   0.90084 
 H                    -9.66714   0.7045    1.45109 
 H                    -9.6868    2.45099   1.40333 
 C                    -9.97685   0.24382  -1.22478 
 H                    -9.60427   0.22048  -2.22754 
 H                    -9.61841  -0.6115   -0.69109 
 H                    -11.04666   0.23131  -1.2414 
 C                    -2.78235   5.84297   0.91311 
 H                    -2.20509   5.11689   1.44648 
 H                    -2.25586   6.77431   0.89566 
 H                    -3.72598   5.97578   1.39971 
 C                    -1.65448   5.16521  -1.23003 
 H                    -1.12794   6.09654  -1.24751 
 H                    -1.07727   4.43914  -0.69655 
 H                    -1.81448   4.82707  -2.23252 
 C                    -3.84362   6.40127  -1.29739 
 H                    -4.00367   6.06317  -2.29988 
 H                    -4.78729   6.534    -0.81078 
 H                    -3.31719   7.33268  -1.31485 
 

 GradGradGradGradGradGradGradGradGradGradGradGradGradGradGradGradGradGrad
 Berny optimization.
 Initialization pass.
                           ----------------------------
                           !    Initial Parameters    !
                           ! (Angstroms and Degrees)  !
 --------------------------                            --------------------------
 ! Name  Definition              Value          Derivative Info.                !
 --------------------------------------------------------------------------------
 ! R1    R(1,2)                  1.4014         estimate D2E/DX2                !
 ! R2    R(1,6)                  1.4014         estimate D2E/DX2                !
 ! R3    R(1,8)                  1.0699         estimate D2E/DX2                !
 ! R4    R(2,3)                  1.4014         estimate D2E/DX2                !
 ! R5    R(2,9)                  1.0699         estimate D2E/DX2                !
 ! R6    R(3,4)                  1.4014         estimate D2E/DX2                !
 ! R7    R(3,10)                 1.4014         estimate D2E/DX2                !
 ! R8    R(4,5)                  1.4014         estimate D2E/DX2                !
 ! R9    R(4,11)                 1.4013         estimate D2E/DX2                !
 ! R10   R(5,6)                  1.4014         estimate D2E/DX2                !
 ! R11   R(5,18)                 1.54           estimate D2E/DX2                !
 ! R12   R(6,12)                 1.07           estimate D2E/DX2                !
 ! R13   R(7,10)                 1.07           estimate D2E/DX2                !
 ! R14   R(10,14)                1.4014         estimate D2E/DX2                !
 ! R15   R(11,13)                1.4015         estimate D2E/DX2                !
 ! R16   R(11,24)                1.54           estimate D2E/DX2                !
 ! R17   R(13,14)                1.4014         estimate D2E/DX2                !
 ! R18   R(13,15)                1.07           estimate D2E/DX2                !
 ! R19   R(14,16)                1.07           estimate D2E/DX2                !
 ! R20   R(17,18)                1.4013         estimate D2E/DX2                !
 ! R21   R(17,22)                1.4013         estimate D2E/DX2                !
 ! R22   R(17,23)                1.07           estimate D2E/DX2                !
 ! R23   R(18,19)                1.4014         estimate D2E/DX2                !
 ! R24   R(19,20)                1.4015         estimate D2E/DX2                !
 ! R25   R(19,24)                1.4014         estimate D2E/DX2                !
 ! R26   R(20,21)                1.4017         estimate D2E/DX2                !
 ! R27   R(20,25)                1.4016         estimate D2E/DX2                !
 ! R28   R(21,22)                1.4016         estimate D2E/DX2                !
 ! R29   R(21,26)                1.07           estimate D2E/DX2                !
 ! R30   R(22,32)                1.5401         estimate D2E/DX2                !
 ! R31   R(24,28)                1.4012         estimate D2E/DX2                !
 ! R32   R(25,27)                1.4016         estimate D2E/DX2                !
 ! R33   R(25,29)                1.07           estimate D2E/DX2                !
 ! R34   R(27,28)                1.4013         estimate D2E/DX2                !
 ! R35   R(27,31)                1.54           estimate D2E/DX2                !
 ! R36   R(28,30)                1.07           estimate D2E/DX2                !
 ! R37   R(31,45)                1.54           estimate D2E/DX2                !
 ! R38   R(31,49)                1.5401         estimate D2E/DX2                !
 ! R39   R(31,53)                1.54           estimate D2E/DX2                !
 ! R40   R(32,33)                1.5399         estimate D2E/DX2                !
 ! R41   R(32,37)                1.54           estimate D2E/DX2                !
 ! R42   R(32,41)                1.54           estimate D2E/DX2                !
 ! R43   R(33,34)                1.07           estimate D2E/DX2                !
 ! R44   R(33,35)                1.07           estimate D2E/DX2                !
 ! R45   R(33,36)                1.07           estimate D2E/DX2                !
 ! R46   R(37,38)                1.07           estimate D2E/DX2                !
 ! R47   R(37,39)                1.07           estimate D2E/DX2                !
 ! R48   R(37,40)                1.07           estimate D2E/DX2                !
 ! R49   R(41,42)                1.07           estimate D2E/DX2                !
 ! R50   R(41,43)                1.07           estimate D2E/DX2                !
 ! R51   R(41,44)                1.07           estimate D2E/DX2                !
 ! R52   R(45,46)                1.07           estimate D2E/DX2                !
 ! R53   R(45,47)                1.07           estimate D2E/DX2                !
 ! R54   R(45,48)                1.07           estimate D2E/DX2                !
 ! R55   R(49,50)                1.07           estimate D2E/DX2                !
 ! R56   R(49,51)                1.07           estimate D2E/DX2                !
 ! R57   R(49,52)                1.07           estimate D2E/DX2                !
 ! R58   R(53,54)                1.07           estimate D2E/DX2                !
 ! R59   R(53,55)                1.07           estimate D2E/DX2                !
 ! R60   R(53,56)                1.07           estimate D2E/DX2                !
 ! A1    A(2,1,6)              120.0042         estimate D2E/DX2                !
 ! A2    A(2,1,8)              119.9972         estimate D2E/DX2                !
 ! A3    A(6,1,8)              119.9986         estimate D2E/DX2                !
 ! A4    A(1,2,3)              119.9982         estimate D2E/DX2                !
 ! A5    A(1,2,9)              120.0009         estimate D2E/DX2                !
 ! A6    A(3,2,9)              120.0009         estimate D2E/DX2                !
 ! A7    A(2,3,4)              119.9996         estimate D2E/DX2                !
 ! A8    A(2,3,10)             120.0002         estimate D2E/DX2                !
 ! A9    A(4,3,10)             120.0002         estimate D2E/DX2                !
 ! A10   A(3,4,5)              120.0026         estimate D2E/DX2                !
 ! A11   A(3,4,11)             120.0003         estimate D2E/DX2                !
 ! A12   A(5,4,11)             119.9971         estimate D2E/DX2                !
 ! A13   A(4,5,6)              119.9973         estimate D2E/DX2                !
 ! A14   A(4,5,18)             120.0015         estimate D2E/DX2                !
 ! A15   A(6,5,18)             120.0012         estimate D2E/DX2                !
 ! A16   A(1,6,5)              119.9982         estimate D2E/DX2                !
 ! A17   A(1,6,12)             119.9998         estimate D2E/DX2                !
 ! A18   A(5,6,12)             120.0021         estimate D2E/DX2                !
 ! A19   A(3,10,7)             119.9995         estimate D2E/DX2                !
 ! A20   A(3,10,14)            120.0005         estimate D2E/DX2                !
 ! A21   A(7,10,14)            120.0            estimate D2E/DX2                !
 ! A22   A(4,11,13)            120.0016         estimate D2E/DX2                !
 ! A23   A(4,11,24)            120.0002         estimate D2E/DX2                !
 ! A24   A(13,11,24)           119.9982         estimate D2E/DX2                !
 ! A25   A(11,13,14)           119.997          estimate D2E/DX2                !
 ! A26   A(11,13,15)           120.0034         estimate D2E/DX2                !
 ! A27   A(14,13,15)           119.9996         estimate D2E/DX2                !
 ! A28   A(10,14,13)           120.0004         estimate D2E/DX2                !
 ! A29   A(10,14,16)           119.9984         estimate D2E/DX2                !
 ! A30   A(13,14,16)           120.0012         estimate D2E/DX2                !
 ! A31   A(18,17,22)           120.0049         estimate D2E/DX2                !
 ! A32   A(18,17,23)           119.9996         estimate D2E/DX2                !
 ! A33   A(22,17,23)           119.9955         estimate D2E/DX2                !
 ! A34   A(5,18,17)            119.9921         estimate D2E/DX2                !
 ! A35   A(5,18,19)            120.0047         estimate D2E/DX2                !
 ! A36   A(17,18,19)           120.0033         estimate D2E/DX2                !
 ! A37   A(18,19,20)           120.0074         estimate D2E/DX2                !
 ! A38   A(18,19,24)           119.9881         estimate D2E/DX2                !
 ! A39   A(20,19,24)           120.0045         estimate D2E/DX2                !
 ! A40   A(19,20,21)           119.9878         estimate D2E/DX2                !
 ! A41   A(19,20,25)           119.9874         estimate D2E/DX2                !
 ! A42   A(21,20,25)           120.0248         estimate D2E/DX2                !
 ! A43   A(20,21,22)           119.994          estimate D2E/DX2                !
 ! A44   A(20,21,26)           120.0098         estimate D2E/DX2                !
 ! A45   A(22,21,26)           119.9962         estimate D2E/DX2                !
 ! A46   A(17,22,21)           120.0027         estimate D2E/DX2                !
 ! A47   A(17,22,32)           119.9684         estimate D2E/DX2                !
 ! A48   A(21,22,32)           120.029          estimate D2E/DX2                !
 ! A49   A(11,24,19)           120.0082         estimate D2E/DX2                !
 ! A50   A(11,24,28)           119.9856         estimate D2E/DX2                !
 ! A51   A(19,24,28)           120.0062         estimate D2E/DX2                !
 ! A52   A(20,25,27)           119.9944         estimate D2E/DX2                !
 ! A53   A(20,25,29)           119.999          estimate D2E/DX2                !
 ! A54   A(27,25,29)           120.0066         estimate D2E/DX2                !
 ! A55   A(25,27,28)           120.0011         estimate D2E/DX2                !
 ! A56   A(25,27,31)           120.0382         estimate D2E/DX2                !
 ! A57   A(28,27,31)           119.9607         estimate D2E/DX2                !
 ! A58   A(24,28,27)           120.0066         estimate D2E/DX2                !
 ! A59   A(24,28,30)           119.9927         estimate D2E/DX2                !
 ! A60   A(27,28,30)           120.0008         estimate D2E/DX2                !
 ! A61   A(27,31,45)           109.4713         estimate D2E/DX2                !
 ! A62   A(27,31,49)           109.4632         estimate D2E/DX2                !
 ! A63   A(27,31,53)           109.4772         estimate D2E/DX2                !
 ! A64   A(45,31,49)           109.4685         estimate D2E/DX2                !
 ! A65   A(45,31,53)           109.4721         estimate D2E/DX2                !
 ! A66   A(49,31,53)           109.475          estimate D2E/DX2                !
 ! A67   A(22,32,33)           109.476          estimate D2E/DX2                !
 ! A68   A(22,32,37)           109.4767         estimate D2E/DX2                !
 ! A69   A(22,32,41)           109.4646         estimate D2E/DX2                !
 ! A70   A(33,32,37)           109.4696         estimate D2E/DX2                !
 ! A71   A(33,32,41)           109.4743         estimate D2E/DX2                !
 ! A72   A(37,32,41)           109.466          estimate D2E/DX2                !
 ! A73   A(32,33,34)           109.471          estimate D2E/DX2                !
 ! A74   A(32,33,35)           109.468          estimate D2E/DX2                !
 ! A75   A(32,33,36)           109.4723         estimate D2E/DX2                !
 ! A76   A(34,33,35)           109.4715         estimate D2E/DX2                !
 ! A77   A(34,33,36)           109.4721         estimate D2E/DX2                !
 ! A78   A(35,33,36)           109.4725         estimate D2E/DX2                !
 ! A79   A(32,37,38)           109.4724         estimate D2E/DX2                !
 ! A80   A(32,37,39)           109.47           estimate D2E/DX2                !
 ! A81   A(32,37,40)           109.4718         estimate D2E/DX2                !
 ! A82   A(38,37,39)           109.4708         estimate D2E/DX2                !
 ! A83   A(38,37,40)           109.4707         estimate D2E/DX2                !
 ! A84   A(39,37,40)           109.4716         estimate D2E/DX2                !
 ! A85   A(32,41,42)           109.4727         estimate D2E/DX2                !
 ! A86   A(32,41,43)           109.4667         estimate D2E/DX2                !
 ! A87   A(32,41,44)           109.4742         estimate D2E/DX2                !
 ! A88   A(42,41,43)           109.472          estimate D2E/DX2                !
 ! A89   A(42,41,44)           109.4708         estimate D2E/DX2                !
 ! A90   A(43,41,44)           109.4709         estimate D2E/DX2                !
 ! A91   A(31,45,46)           109.4699         estimate D2E/DX2                !
 ! A92   A(31,45,47)           109.4731         estimate D2E/DX2                !
 ! A93   A(31,45,48)           109.4727         estimate D2E/DX2                !
 ! A94   A(46,45,47)           109.4701         estimate D2E/DX2                !
 ! A95   A(46,45,48)           109.4707         estimate D2E/DX2                !
 ! A96   A(47,45,48)           109.4707         estimate D2E/DX2                !
 ! A97   A(31,49,50)           109.4748         estimate D2E/DX2                !
 ! A98   A(31,49,51)           109.4675         estimate D2E/DX2                !
 ! A99   A(31,49,52)           109.4728         estimate D2E/DX2                !
 ! A100  A(50,49,51)           109.47           estimate D2E/DX2                !
 ! A101  A(50,49,52)           109.471          estimate D2E/DX2                !
 ! A102  A(51,49,52)           109.4712         estimate D2E/DX2                !
 ! A103  A(31,53,54)           109.4714         estimate D2E/DX2                !
 ! A104  A(31,53,55)           109.4696         estimate D2E/DX2                !
 ! A105  A(31,53,56)           109.4707         estimate D2E/DX2                !
 ! A106  A(54,53,55)           109.4721         estimate D2E/DX2                !
 ! A107  A(54,53,56)           109.4723         estimate D2E/DX2                !
 ! A108  A(55,53,56)           109.4712         estimate D2E/DX2                !
 ! D1    D(6,1,2,3)              0.0067         estimate D2E/DX2                !
 ! D2    D(6,1,2,9)           -179.9941         estimate D2E/DX2                !
 ! D3    D(8,1,2,3)           -179.9923         estimate D2E/DX2                !
 ! D4    D(8,1,2,9)              0.0068         estimate D2E/DX2                !
 ! D5    D(2,1,6,5)             -0.0067         estimate D2E/DX2                !
 ! D6    D(2,1,6,12)           179.9953         estimate D2E/DX2                !
 ! D7    D(8,1,6,5)            179.9924         estimate D2E/DX2                !
 ! D8    D(8,1,6,12)            -0.0056         estimate D2E/DX2                !
 ! D9    D(1,2,3,4)             -0.0021         estimate D2E/DX2                !
 ! D10   D(1,2,3,10)           179.9997         estimate D2E/DX2                !
 ! D11   D(9,2,3,4)            179.9988         estimate D2E/DX2                !
 ! D12   D(9,2,3,10)             0.0006         estimate D2E/DX2                !
 ! D13   D(2,3,4,5)             -0.0027         estimate D2E/DX2                !
 ! D14   D(2,3,4,11)           179.9971         estimate D2E/DX2                !
 ! D15   D(10,3,4,5)           179.9956         estimate D2E/DX2                !
 ! D16   D(10,3,4,11)           -0.0046         estimate D2E/DX2                !
 ! D17   D(2,3,10,7)             0.0033         estimate D2E/DX2                !
 ! D18   D(2,3,10,14)         -179.9986         estimate D2E/DX2                !
 ! D19   D(4,3,10,7)          -179.995          estimate D2E/DX2                !
 ! D20   D(4,3,10,14)            0.0031         estimate D2E/DX2                !
 ! D21   D(3,4,5,6)              0.0027         estimate D2E/DX2                !
 ! D22   D(3,4,5,18)          -179.9991         estimate D2E/DX2                !
 ! D23   D(11,4,5,6)          -179.9971         estimate D2E/DX2                !
 ! D24   D(11,4,5,18)            0.0011         estimate D2E/DX2                !
 ! D25   D(3,4,11,13)            0.0056         estimate D2E/DX2                !
 ! D26   D(3,4,11,24)         -179.9908         estimate D2E/DX2                !
 ! D27   D(5,4,11,13)         -179.9946         estimate D2E/DX2                !
 ! D28   D(5,4,11,24)            0.0089         estimate D2E/DX2                !
 ! D29   D(4,5,6,1)              0.0019         estimate D2E/DX2                !
 ! D30   D(4,5,6,12)           180.0            estimate D2E/DX2                !
 ! D31   D(18,5,6,1)          -179.9962         estimate D2E/DX2                !
 ! D32   D(18,5,6,12)            0.0018         estimate D2E/DX2                !
 ! D33   D(4,5,18,17)          179.9872         estimate D2E/DX2                !
 ! D34   D(4,5,18,19)           -0.0172         estimate D2E/DX2                !
 ! D35   D(6,5,18,17)           -0.0146         estimate D2E/DX2                !
 ! D36   D(6,5,18,19)          179.981          estimate D2E/DX2                !
 ! D37   D(3,10,14,13)          -0.0026         estimate D2E/DX2                !
 ! D38   D(3,10,14,16)         179.9953         estimate D2E/DX2                !
 ! D39   D(7,10,14,13)         179.9955         estimate D2E/DX2                !
 ! D40   D(7,10,14,16)          -0.0066         estimate D2E/DX2                !
 ! D41   D(4,11,13,14)          -0.005          estimate D2E/DX2                !
 ! D42   D(4,11,13,15)         179.9952         estimate D2E/DX2                !
 ! D43   D(24,11,13,14)        179.9914         estimate D2E/DX2                !
 ! D44   D(24,11,13,15)         -0.0083         estimate D2E/DX2                !
 ! D45   D(4,11,24,19)          -0.004          estimate D2E/DX2                !
 ! D46   D(4,11,24,28)         179.9926         estimate D2E/DX2                !
 ! D47   D(13,11,24,19)        179.9996         estimate D2E/DX2                !
 ! D48   D(13,11,24,28)         -0.0039         estimate D2E/DX2                !
 ! D49   D(11,13,14,10)          0.0035         estimate D2E/DX2                !
 ! D50   D(11,13,14,16)       -179.9944         estimate D2E/DX2                !
 ! D51   D(15,13,14,10)       -179.9968         estimate D2E/DX2                !
 ! D52   D(15,13,14,16)          0.0054         estimate D2E/DX2                !
 ! D53   D(22,17,18,5)         179.9776         estimate D2E/DX2                !
 ! D54   D(22,17,18,19)         -0.0181         estimate D2E/DX2                !
 ! D55   D(23,17,18,5)          -0.0231         estimate D2E/DX2                !
 ! D56   D(23,17,18,19)        179.9813         estimate D2E/DX2                !
 ! D57   D(18,17,22,21)          0.0008         estimate D2E/DX2                !
 ! D58   D(18,17,22,32)        179.9988         estimate D2E/DX2                !
 ! D59   D(23,17,22,21)       -179.9985         estimate D2E/DX2                !
 ! D60   D(23,17,22,32)         -0.0006         estimate D2E/DX2                !
 ! D61   D(5,18,19,20)        -179.976          estimate D2E/DX2                !
 ! D62   D(5,18,19,24)           0.0221         estimate D2E/DX2                !
 ! D63   D(17,18,19,20)          0.0197         estimate D2E/DX2                !
 ! D64   D(17,18,19,24)       -179.9822         estimate D2E/DX2                !
 ! D65   D(18,19,20,21)         -0.0039         estimate D2E/DX2                !
 ! D66   D(18,19,20,25)        179.9945         estimate D2E/DX2                !
 ! D67   D(24,19,20,21)        179.9979         estimate D2E/DX2                !
 ! D68   D(24,19,20,25)         -0.0037         estimate D2E/DX2                !
 ! D69   D(18,19,24,11)         -0.0121         estimate D2E/DX2                !
 ! D70   D(18,19,24,28)        179.9914         estimate D2E/DX2                !
 ! D71   D(20,19,24,11)        179.9861         estimate D2E/DX2                !
 ! D72   D(20,19,24,28)         -0.0105         estimate D2E/DX2                !
 ! D73   D(19,20,21,22)         -0.0133         estimate D2E/DX2                !
 ! D74   D(19,20,21,26)        179.9901         estimate D2E/DX2                !
 ! D75   D(25,20,21,22)        179.9883         estimate D2E/DX2                !
 ! D76   D(25,20,21,26)         -0.0084         estimate D2E/DX2                !
 ! D77   D(19,20,25,27)          0.0105         estimate D2E/DX2                !
 ! D78   D(19,20,25,29)       -179.9923         estimate D2E/DX2                !
 ! D79   D(21,20,25,27)       -179.9911         estimate D2E/DX2                !
 ! D80   D(21,20,25,29)          0.0061         estimate D2E/DX2                !
 ! D81   D(20,21,22,17)          0.0149         estimate D2E/DX2                !
 ! D82   D(20,21,22,32)       -179.983          estimate D2E/DX2                !
 ! D83   D(26,21,22,17)       -179.9885         estimate D2E/DX2                !
 ! D84   D(26,21,22,32)          0.0136         estimate D2E/DX2                !
 ! D85   D(17,22,32,33)       -150.0107         estimate D2E/DX2                !
 ! D86   D(17,22,32,37)         89.9849         estimate D2E/DX2                !
 ! D87   D(17,22,32,41)        -30.008          estimate D2E/DX2                !
 ! D88   D(21,22,32,33)         29.9872         estimate D2E/DX2                !
 ! D89   D(21,22,32,37)        -90.0172         estimate D2E/DX2                !
 ! D90   D(21,22,32,41)        149.9899         estimate D2E/DX2                !
 ! D91   D(11,24,28,27)       -179.9788         estimate D2E/DX2                !
 ! D92   D(11,24,28,30)          0.019          estimate D2E/DX2                !
 ! D93   D(19,24,28,27)          0.0177         estimate D2E/DX2                !
 ! D94   D(19,24,28,30)       -179.9845         estimate D2E/DX2                !
 ! D95   D(20,25,27,28)         -0.0032         estimate D2E/DX2                !
 ! D96   D(20,25,27,31)        179.9949         estimate D2E/DX2                !
 ! D97   D(29,25,27,28)        179.9996         estimate D2E/DX2                !
 ! D98   D(29,25,27,31)         -0.0023         estimate D2E/DX2                !
 ! D99   D(25,27,28,24)         -0.0109         estimate D2E/DX2                !
 ! D100  D(25,27,28,30)        179.9913         estimate D2E/DX2                !
 ! D101  D(31,27,28,24)        179.991          estimate D2E/DX2                !
 ! D102  D(31,27,28,30)         -0.0068         estimate D2E/DX2                !
 ! D103  D(25,27,31,45)         90.0135         estimate D2E/DX2                !
 ! D104  D(25,27,31,49)       -149.9948         estimate D2E/DX2                !
 ! D105  D(25,27,31,53)        -29.9914         estimate D2E/DX2                !
 ! D106  D(28,27,31,45)        -89.9885         estimate D2E/DX2                !
 ! D107  D(28,27,31,49)         30.0033         estimate D2E/DX2                !
 ! D108  D(28,27,31,53)        150.0067         estimate D2E/DX2                !
 ! D109  D(27,31,45,46)         59.9888         estimate D2E/DX2                !
 ! D110  D(27,31,45,47)        179.9878         estimate D2E/DX2                !
 ! D111  D(27,31,45,48)        -60.0107         estimate D2E/DX2                !
 ! D112  D(49,31,45,46)        -59.9997         estimate D2E/DX2                !
 ! D113  D(49,31,45,47)         59.9993         estimate D2E/DX2                !
 ! D114  D(49,31,45,48)       -179.9992         estimate D2E/DX2                !
 ! D115  D(53,31,45,46)        179.9968         estimate D2E/DX2                !
 ! D116  D(53,31,45,47)        -60.0042         estimate D2E/DX2                !
 ! D117  D(53,31,45,48)         59.9973         estimate D2E/DX2                !
 ! D118  D(27,31,49,50)       -179.9926         estimate D2E/DX2                !
 ! D119  D(27,31,49,51)        -59.9942         estimate D2E/DX2                !
 ! D120  D(27,31,49,52)         60.0044         estimate D2E/DX2                !
 ! D121  D(45,31,49,50)        -59.9991         estimate D2E/DX2                !
 ! D122  D(45,31,49,51)         59.9993         estimate D2E/DX2                !
 ! D123  D(45,31,49,52)        179.998          estimate D2E/DX2                !
 ! D124  D(53,31,49,50)         60.0026         estimate D2E/DX2                !
 ! D125  D(53,31,49,51)       -179.9989         estimate D2E/DX2                !
 ! D126  D(53,31,49,52)        -60.0003         estimate D2E/DX2                !
 ! D127  D(27,31,53,54)        -59.9969         estimate D2E/DX2                !
 ! D128  D(27,31,53,55)         60.0033         estimate D2E/DX2                !
 ! D129  D(27,31,53,56)       -179.9981         estimate D2E/DX2                !
 ! D130  D(45,31,53,54)        179.9987         estimate D2E/DX2                !
 ! D131  D(45,31,53,55)        -60.0011         estimate D2E/DX2                !
 ! D132  D(45,31,53,56)         59.9976         estimate D2E/DX2                !
 ! D133  D(49,31,53,54)         59.9992         estimate D2E/DX2                !
 ! D134  D(49,31,53,55)        179.9994         estimate D2E/DX2                !
 ! D135  D(49,31,53,56)        -60.0019         estimate D2E/DX2                !
 ! D136  D(22,32,33,34)        179.9969         estimate D2E/DX2                !
 ! D137  D(22,32,33,35)        -60.0048         estimate D2E/DX2                !
 ! D138  D(22,32,33,36)         59.9954         estimate D2E/DX2                !
 ! D139  D(37,32,33,34)        -59.9943         estimate D2E/DX2                !
 ! D140  D(37,32,33,35)         60.0039         estimate D2E/DX2                !
 ! D141  D(37,32,33,36)       -179.9959         estimate D2E/DX2                !
 ! D142  D(41,32,33,34)         60.0002         estimate D2E/DX2                !
 ! D143  D(41,32,33,35)        179.9985         estimate D2E/DX2                !
 ! D144  D(41,32,33,36)        -60.0013         estimate D2E/DX2                !
 ! D145  D(22,32,37,38)       -179.9908         estimate D2E/DX2                !
 ! D146  D(22,32,37,39)        -59.9914         estimate D2E/DX2                !
 ! D147  D(22,32,37,40)         60.0087         estimate D2E/DX2                !
 ! D148  D(33,32,37,38)         60.0009         estimate D2E/DX2                !
 ! D149  D(33,32,37,39)       -179.9997         estimate D2E/DX2                !
 ! D150  D(33,32,37,40)        -59.9995         estimate D2E/DX2                !
 ! D151  D(41,32,37,38)        -59.9988         estimate D2E/DX2                !
 ! D152  D(41,32,37,39)         60.0007         estimate D2E/DX2                !
 ! D153  D(41,32,37,40)       -179.9992         estimate D2E/DX2                !
 ! D154  D(22,32,41,42)        -60.0011         estimate D2E/DX2                !
 ! D155  D(22,32,41,43)         59.998          estimate D2E/DX2                !
 ! D156  D(22,32,41,44)        179.9967         estimate D2E/DX2                !
 ! D157  D(33,32,41,42)         60.0026         estimate D2E/DX2                !
 ! D158  D(33,32,41,43)       -179.9983         estimate D2E/DX2                !
 ! D159  D(33,32,41,44)        -59.9996         estimate D2E/DX2                !
 ! D160  D(37,32,41,42)        179.9994         estimate D2E/DX2                !
 ! D161  D(37,32,41,43)        -60.0015         estimate D2E/DX2                !
 ! D162  D(37,32,41,44)         59.9972         estimate D2E/DX2                !
 --------------------------------------------------------------------------------
 Trust Radius=3.00D-01 FncErr=1.00D-07 GrdErr=1.00D-06
 Number of steps in this run=    336 maximum allowed number of steps=    336.
 GradGradGradGradGradGradGradGradGradGradGradGradGradGradGradGradGradGrad

 Stoichiometry    C28H28
 Framework group  C1[X(C28H28)]
 Deg. of freedom   162
 Full point group                 C1      NOp   1
 Largest Abelian subgroup         C1      NOp   1
 Largest concise Abelian subgroup C1      NOp   1
                         Standard orientation:                         
 ---------------------------------------------------------------------
 Center     Atomic      Atomic             Coordinates (Angstroms)
 Number     Number       Type             X           Y           Z
 ---------------------------------------------------------------------
      1          6           0        2.420727    4.143060    0.000679
      2          6           0        1.206027    4.841846    0.000458
      3          6           0       -0.006497    4.139223    0.000116
      4          6           0       -0.004260    2.737816   -0.000049
      5          6           0        1.210466    2.039004    0.000072
      6          6           0        2.423013    2.741656    0.000416
      7          1           0       -1.222952    5.907945   -0.000054
      8          1           0        3.346453    4.679514    0.001065
      9          1           0        1.204344    5.911784    0.000565
     10          6           0       -1.221258    4.837989   -0.000099
     11          6           0       -1.216728    2.035206   -0.000331
     12          1           0        3.350532    2.208174    0.000508
     13          6           0       -2.431577    2.733963   -0.000566
     14          6           0       -2.433787    4.135372   -0.000413
     15          1           0       -3.357422    2.197486   -0.000858
     16          1           0       -3.361260    4.668927   -0.000501
     17          6           0        2.427666   -0.199551   -0.000281
     18          6           0        1.212897    0.499018   -0.000131
     19          6           0        0.000399   -0.203704   -0.000073
     20          6           0        0.002546   -1.605216    0.000251
     21          6           0        1.217645   -2.303931    0.000433
     22          6           0        2.430191   -1.600875    0.000009
     23          1           0        3.353387    0.337044   -0.000629
     24          6           0       -1.214268    0.495233   -0.000299
     25          6           0       -1.210391   -2.307627    0.000426
     26          1           0        1.219695   -3.373950    0.000841
     27          6           0       -2.425101   -1.608276    0.000055
     28          6           0       -2.426826   -0.207014   -0.000423
     29          1           0       -1.208970   -3.377601    0.000797
     30          1           0       -3.354119    0.326855   -0.000847
     31          6           0       -3.758391   -2.379022    0.000127
     32          6           0        3.765751   -2.367774   -0.000185
     33          6           0        3.584647   -3.714058   -0.725535
     34          1           0        4.512627   -4.246793   -0.725670
     35          1           0        2.840552   -4.293935   -0.220572
     36          1           0        3.274930   -3.536890   -1.734291
     37          6           0        4.211599   -2.622823    1.451588
     38          1           0        5.139583   -3.155500    1.451371
     39          1           0        4.337429   -1.687405    1.955582
     40          1           0        3.467599   -3.202760    1.956520
     41          6           0        4.836706   -1.533068   -0.726825
     42          1           0        4.527030   -1.355798   -1.735578
     43          1           0        4.962464   -0.597679   -0.222717
     44          1           0        5.764711   -2.065731   -0.726999
     45          6           0       -4.203175   -2.635189    1.452105
     46          1           0       -4.331558   -1.700053    1.956032
     47          1           0       -5.129634   -3.170508    1.452189
     48          1           0       -3.457394   -3.212938    1.956946
     49          6           0       -4.831889   -1.547418   -0.726417
     50          1           0       -5.758384   -2.082712   -0.726363
     51          1           0       -4.960227   -0.612317   -0.222381
     52          1           0       -4.522905   -1.369361   -1.735253
     53          6           0       -3.573527   -3.724856   -0.725160
     54          1           0       -3.264517   -3.546859   -1.733987
     55          1           0       -2.827665   -4.302559   -0.220312
     56          1           0       -4.499963   -4.260267   -0.725078
 ---------------------------------------------------------------------
 Rotational constants (GHZ):      0.1757514      0.1754662      0.0912944
 Standard basis: 6-311+G(d,p) (5D, 7F)
 There are   812 symmetry adapted cartesian basis functions of A   symmetry.
 There are   784 symmetry adapted basis functions of A   symmetry.
   784 basis functions,  1232 primitive gaussians,   812 cartesian basis functions
    98 alpha electrons       98 beta electrons
       nuclear repulsion energy      2490.4372409316 Hartrees.
 NAtoms=   56 NActive=   56 NUniq=   56 SFac= 1.00D+00 NAtFMM=   60 NAOKFM=F Big=F
 Integral buffers will be    131072 words long.
 Raffenetti 2 integral format.
 Two-electron integral symmetry is turned on.
 One-electron integrals computed using PRISM.
 NBasis=   784 RedAO= T EigKep=  1.18D-06  NBF=   784
 NBsUse=   766 1.00D-06 EigRej=  9.40D-07 NBFU=   766
 ExpMin= 4.38D-02 ExpMax= 4.56D+03 ExpMxC= 6.82D+02 IAcc=2 IRadAn=         4 AccDes= 0.00D+00
 Harris functional with IExCor=  402 and IRadAn=       4 diagonalized for initial guess.
 HarFok:  IExCor=  402 AccDes= 0.00D+00 IRadAn=         4 IDoV= 1 UseB2=F ITyADJ=14
 ICtDFT=  3500011 ScaDFX=  1.000000  1.000000  1.000000  1.000000
 FoFCou: FMM=F IPFlag=           0 FMFlag=      100000 FMFlg1=           0
         NFxFlg=           0 DoJE=T BraDBF=F KetDBF=T FulRan=T
         wScrn=  0.000000 ICntrl=     500 IOpCl=  0 I1Cent=   200000004 NGrid=           0
         NMat0=    1 NMatS0=      1 NMatT0=    0 NMatD0=    1 NMtDS0=    0 NMtDT0=    0
 Petite list used in FoFCou.
 Requested convergence on RMS density matrix=1.00D-08 within 128 cycles.
 Requested convergence on MAX density matrix=1.00D-06.
 Requested convergence on             energy=1.00D-06.
 No special actions if energy rises.
 SCF Done:  E(RB3LYP) =  -1084.14493427     A.U. after   14 cycles
            NFock= 14  Conv=0.79D-08     -V/T= 2.0039

 **********************************************************************

            Population analysis using the SCF density.

 **********************************************************************

 Orbital symmetries:
       Occupied  (A) (A) (A) (A) (A) (A) (A) (A) (A) (A) (A) (A)
                 (A) (A) (A) (A) (A) (A) (A) (A) (A) (A) (A) (A)
                 (A) (A) (A) (A) (A) (A) (A) (A) (A) (A) (A) (A)
                 (A) (A) (A) (A) (A) (A) (A) (A) (A) (A) (A) (A)
                 (A) (A) (A) (A) (A) (A) (A) (A) (A) (A) (A) (A)
                 (A) (A) (A) (A) (A) (A) (A) (A) (A) (A) (A) (A)
                 (A) (A) (A) (A) (A) (A) (A) (A) (A) (A) (A) (A)
                 (A) (A) (A) (A) (A) (A) (A) (A) (A) (A) (A) (A)
                 (A) (A)
       Virtual   (A) (A) (A) (A) (A) (A) (A) (A) (A) (A) (A) (A)
                 (A) (A) (A) (A) (A) (A) (A) (A) (A) (A) (A) (A)
                 (A) (A) (A) (A) (A) (A) (A) (A) (A) (A) (A) (A)
                 (A) (A) (A) (A) (A) (A) (A) (A) (A) (A) (A) (A)
                 (A) (A) (A) (A) (A) (A) (A) (A) (A) (A) (A) (A)
                 (A) (A) (A) (A) (A) (A) (A) (A) (A) (A) (A) (A)
                 (A) (A) (A) (A) (A) (A) (A) (A) (A) (A) (A) (A)
                 (A) (A) (A) (A) (A) (A) (A) (A) (A) (A) (A) (A)
                 (A) (A) (A) (A) (A) (A) (A) (A) (A) (A) (A) (A)
                 (A) (A) (A) (A) (A) (A) (A) (A) (A) (A) (A) (A)
                 (A) (A) (A) (A) (A) (A) (A) (A) (A) (A) (A) (A)
                 (A) (A) (A) (A) (A) (A) (A) (A) (A) (A) (A) (A)
                 (A) (A) (A) (A) (A) (A) (A) (A) (A) (A) (A) (A)
                 (A) (A) (A) (A) (A) (A) (A) (A) (A) (A) (A) (A)
                 (A) (A) (A) (A) (A) (A) (A) (A) (A) (A) (A) (A)
                 (A) (A) (A) (A) (A) (A) (A) (A) (A) (A) (A) (A)
                 (A) (A) (A) (A) (A) (A) (A) (A) (A) (A) (A) (A)
                 (A) (A) (A) (A) (A) (A) (A) (A) (A) (A) (A) (A)
                 (A) (A) (A) (A) (A) (A) (A) (A) (A) (A) (A) (A)
                 (A) (A) (A) (A) (A) (A) (A) (A) (A) (A) (A) (A)
                 (A) (A) (A) (A) (A) (A) (A) (A) (A) (A) (A) (A)
                 (A) (A) (A) (A) (A) (A) (A) (A) (A) (A) (A) (A)
                 (A) (A) (A) (A) (A) (A) (A) (A) (A) (A) (A) (A)
                 (A) (A) (A) (A) (A) (A) (A) (A) (A) (A) (A) (A)
                 (A) (A) (A) (A) (A) (A) (A) (A) (A) (A) (A) (A)
                 (A) (A) (A) (A) (A) (A) (A) (A) (A) (A) (A) (A)
                 (A) (A) (A) (A) (A) (A) (A) (A) (A) (A) (A) (A)
                 (A) (A) (A) (A) (A) (A) (A) (A) (A) (A) (A) (A)
                 (A) (A) (A) (A) (A) (A) (A) (A) (A) (A) (A) (A)
                 (A) (A) (A) (A) (A) (A) (A) (A) (A) (A) (A) (A)
                 (A) (A) (A) (A) (A) (A) (A) (A) (A) (A) (A) (A)
                 (A) (A) (A) (A) (A) (A) (A) (A) (A) (A) (A) (A)
                 (A) (A) (A) (A) (A) (A) (A) (A) (A) (A) (A) (A)
                 (A) (A) (A) (A) (A) (A) (A) (A) (A) (A) (A) (A)
                 (A) (A) (A) (A) (A) (A) (A) (A) (A) (A) (A) (A)
                 (A) (A) (A) (A) (A) (A) (A) (A) (A) (A) (A) (A)
                 (A) (A) (A) (A) (A) (A) (A) (A) (A) (A) (A) (A)
                 (A) (A) (A) (A) (A) (A) (A) (A) (A) (A) (A) (A)
                 (A) (A) (A) (A) (A) (A) (A) (A) (A) (A) (A) (A)
                 (A) (A) (A) (A) (A) (A) (A) (A) (A) (A) (A) (A)
                 (A) (A) (A) (A) (A) (A) (A) (A) (A) (A) (A) (A)
                 (A) (A) (A) (A) (A) (A) (A) (A) (A) (A) (A) (A)
                 (A) (A) (A) (A) (A) (A) (A) (A) (A) (A) (A) (A)
                 (A) (A) (A) (A) (A) (A) (A) (A) (A) (A) (A) (A)
                 (A) (A) (A) (A) (A) (A) (A) (A) (A) (A) (A) (A)
                 (A) (A) (A) (A) (A) (A) (A) (A) (A) (A) (A) (A)
                 (A) (A) (A) (A) (A) (A) (A) (A) (A) (A) (A) (A)
                 (A) (A) (A) (A) (A) (A) (A) (A) (A) (A) (A) (A)
                 (A) (A) (A) (A) (A) (A) (A) (A) (A) (A) (A) (A)
                 (A) (A) (A) (A) (A) (A) (A) (A) (A) (A) (A) (A)
                 (A) (A) (A) (A) (A) (A) (A) (A) (A) (A) (A) (A)
                 (A) (A) (A) (A) (A) (A) (A) (A) (A) (A) (A) (A)
                 (A) (A) (A) (A) (A) (A) (A) (A) (A) (A) (A) (A)
                 (A) (A) (A) (A) (A) (A) (A) (A) (A) (A) (A) (A)
                 (A) (A) (A) (A) (A) (A) (A) (A) (A) (A) (A) (A)
                 (A) (A) (A) (A) (A) (A) (A) (A)
 The electronic state is 1-A.
 Alpha  occ. eigenvalues --  -10.19308 -10.19308 -10.19132 -10.19130 -10.18775
 Alpha  occ. eigenvalues --  -10.18774 -10.18347 -10.18276 -10.18128 -10.18127
 Alpha  occ. eigenvalues --  -10.17971 -10.17965 -10.17964 -10.17779 -10.17747
 Alpha  occ. eigenvalues --  -10.17746 -10.17672 -10.17669 -10.17133 -10.17131
 Alpha  occ. eigenvalues --  -10.16863 -10.16861 -10.15325 -10.15324 -10.15267
 Alpha  occ. eigenvalues --  -10.15266 -10.15230 -10.15230  -0.90150  -0.87981
 Alpha  occ. eigenvalues --   -0.85339  -0.83203  -0.83091  -0.80488  -0.79681
 Alpha  occ. eigenvalues --   -0.75719  -0.75522  -0.74140  -0.73666  -0.70814
 Alpha  occ. eigenvalues --   -0.69848  -0.69528  -0.69521  -0.68674  -0.64672
 Alpha  occ. eigenvalues --   -0.63986  -0.62857  -0.62432  -0.60556  -0.56622
 Alpha  occ. eigenvalues --   -0.56285  -0.54283  -0.54019  -0.51635  -0.51328
 Alpha  occ. eigenvalues --   -0.49357  -0.49290  -0.48087  -0.47655  -0.45685
 Alpha  occ. eigenvalues --   -0.45633  -0.44754  -0.44656  -0.44576  -0.43505
 Alpha  occ. eigenvalues --   -0.43381  -0.42746  -0.42618  -0.42182  -0.41962
 Alpha  occ. eigenvalues --   -0.40916  -0.40645  -0.39956  -0.39855  -0.39373
 Alpha  occ. eigenvalues --   -0.38847  -0.38454  -0.38307  -0.38183  -0.37613
 Alpha  occ. eigenvalues --   -0.36910  -0.36839  -0.34963  -0.34728  -0.34109
 Alpha  occ. eigenvalues --   -0.33853  -0.33802  -0.33121  -0.32557  -0.31646
 Alpha  occ. eigenvalues --   -0.31245  -0.31240  -0.31068  -0.26252  -0.25758
 Alpha  occ. eigenvalues --   -0.24572  -0.24426  -0.18753
 Alpha virt. eigenvalues --   -0.08044  -0.02869  -0.01742  -0.01737  -0.00596
 Alpha virt. eigenvalues --   -0.00290   0.00245   0.00678   0.01641   0.01748
 Alpha virt. eigenvalues --    0.02624   0.02700   0.03032   0.03173   0.03252
 Alpha virt. eigenvalues --    0.03898   0.04223   0.04647   0.04681   0.05094
 Alpha virt. eigenvalues --    0.05129   0.05374   0.05718   0.06045   0.06262
 Alpha virt. eigenvalues --    0.06568   0.06762   0.07025   0.07392   0.07537
 Alpha virt. eigenvalues --    0.07968   0.08096   0.08665   0.08758   0.09075
 Alpha virt. eigenvalues --    0.09321   0.09616   0.10013   0.10368   0.10543
 Alpha virt. eigenvalues --    0.10814   0.11050   0.11267   0.11760   0.12022
 Alpha virt. eigenvalues --    0.12179   0.12651   0.13108   0.13173   0.13755
 Alpha virt. eigenvalues --    0.13756   0.13886   0.14333   0.14996   0.15222
 Alpha virt. eigenvalues --    0.15244   0.15539   0.15839   0.16364   0.16650
 Alpha virt. eigenvalues --    0.16710   0.17053   0.17058   0.17300   0.17696
 Alpha virt. eigenvalues --    0.17927   0.18257   0.18531   0.18620   0.18707
 Alpha virt. eigenvalues --    0.19071   0.19140   0.19409   0.19641   0.19680
 Alpha virt. eigenvalues --    0.20273   0.20411   0.20522   0.20822   0.20992
 Alpha virt. eigenvalues --    0.21000   0.21389   0.21501   0.21768   0.22139
 Alpha virt. eigenvalues --    0.22223   0.22631   0.22927   0.23002   0.23230
 Alpha virt. eigenvalues --    0.23563   0.23745   0.23761   0.23990   0.24128
 Alpha virt. eigenvalues --    0.24474   0.24623   0.24838   0.25274   0.25354
 Alpha virt. eigenvalues --    0.25607   0.25804   0.25843   0.26010   0.26128
 Alpha virt. eigenvalues --    0.26365   0.26404   0.26778   0.27066   0.27408
 Alpha virt. eigenvalues --    0.27470   0.27866   0.28092   0.28371   0.28774
 Alpha virt. eigenvalues --    0.28861   0.29189   0.29609   0.29942   0.30149
 Alpha virt. eigenvalues --    0.30409   0.31036   0.31221   0.31355   0.31652
 Alpha virt. eigenvalues --    0.32148   0.32516   0.33002   0.33392   0.33708
 Alpha virt. eigenvalues --    0.33792   0.33870   0.34456   0.34686   0.34692
 Alpha virt. eigenvalues --    0.35194   0.35236   0.35326   0.36276   0.36836
 Alpha virt. eigenvalues --    0.37364   0.37566   0.37615   0.37907   0.38108
 Alpha virt. eigenvalues --    0.40367   0.40977   0.41346   0.41629   0.41685
 Alpha virt. eigenvalues --    0.42134   0.43308   0.43487   0.44014   0.45262
 Alpha virt. eigenvalues --    0.45416   0.45464   0.46636   0.47047   0.47352
 Alpha virt. eigenvalues --    0.47381   0.48399   0.48872   0.49233   0.49778
 Alpha virt. eigenvalues --    0.51197   0.51277   0.51668   0.51763   0.52016
 Alpha virt. eigenvalues --    0.53240   0.53492   0.53961   0.54491   0.55128
 Alpha virt. eigenvalues --    0.55141   0.55675   0.55865   0.56673   0.57001
 Alpha virt. eigenvalues --    0.57024   0.57608   0.57796   0.58336   0.58871
 Alpha virt. eigenvalues --    0.59010   0.59326   0.59657   0.59953   0.60327
 Alpha virt. eigenvalues --    0.60731   0.60983   0.61400   0.61769   0.62650
 Alpha virt. eigenvalues --    0.62882   0.63197   0.63907   0.63994   0.64389
 Alpha virt. eigenvalues --    0.64682   0.65080   0.65191   0.65260   0.65594
 Alpha virt. eigenvalues --    0.65955   0.66805   0.66856   0.67238   0.67767
 Alpha virt. eigenvalues --    0.67776   0.68222   0.68260   0.68541   0.68902
 Alpha virt. eigenvalues --    0.69988   0.70026   0.70157   0.70909   0.71129
 Alpha virt. eigenvalues --    0.71779   0.71785   0.72242   0.72688   0.72990
 Alpha virt. eigenvalues --    0.73568   0.73601   0.74113   0.74360   0.74516
 Alpha virt. eigenvalues --    0.74836   0.74929   0.75224   0.75260   0.75918
 Alpha virt. eigenvalues --    0.76458   0.76927   0.77271   0.77304   0.77813
 Alpha virt. eigenvalues --    0.78873   0.78960   0.79071   0.80082   0.80317
 Alpha virt. eigenvalues --    0.80630   0.80904   0.81330   0.82599   0.83134
 Alpha virt. eigenvalues --    0.83887   0.84370   0.84984   0.85459   0.86711
 Alpha virt. eigenvalues --    0.87100   0.88023   0.89934   0.90410   0.91155
 Alpha virt. eigenvalues --    0.91357   0.92301   0.92731   0.93120   0.94692
 Alpha virt. eigenvalues --    0.94723   0.95030   0.95159   0.95706   0.95724
 Alpha virt. eigenvalues --    0.95890   0.96693   0.96776   0.96939   0.97259
 Alpha virt. eigenvalues --    0.97958   0.97978   0.99279   0.99793   1.00116
 Alpha virt. eigenvalues --    1.01905   1.02539   1.02647   1.03596   1.03997
 Alpha virt. eigenvalues --    1.04153   1.04156   1.04755   1.05124   1.05835
 Alpha virt. eigenvalues --    1.05918   1.07874   1.07879   1.09511   1.10134
 Alpha virt. eigenvalues --    1.10662   1.11523   1.11838   1.13242   1.13289
 Alpha virt. eigenvalues --    1.13601   1.15101   1.15633   1.16086   1.16948
 Alpha virt. eigenvalues --    1.17462   1.17987   1.18714   1.20212   1.21875
 Alpha virt. eigenvalues --    1.22305   1.23546   1.25409   1.26343   1.27448
 Alpha virt. eigenvalues --    1.28510   1.29909   1.31083   1.31672   1.33331
 Alpha virt. eigenvalues --    1.38072   1.38332   1.38359   1.39441   1.41510
 Alpha virt. eigenvalues --    1.42315   1.42395   1.44027   1.44121   1.45758
 Alpha virt. eigenvalues --    1.45964   1.46771   1.47333   1.47767   1.48270
 Alpha virt. eigenvalues --    1.48571   1.49262   1.49284   1.49586   1.49634
 Alpha virt. eigenvalues --    1.50515   1.50868   1.51171   1.51318   1.51720
 Alpha virt. eigenvalues --    1.51970   1.51994   1.52569   1.52895   1.53682
 Alpha virt. eigenvalues --    1.54580   1.54596   1.54787   1.55332   1.55849
 Alpha virt. eigenvalues --    1.56758   1.56993   1.57175   1.57972   1.58120
 Alpha virt. eigenvalues --    1.59533   1.59661   1.60079   1.60484   1.61344
 Alpha virt. eigenvalues --    1.61511   1.62455   1.62907   1.63240   1.64017
 Alpha virt. eigenvalues --    1.64592   1.64741   1.65370   1.66046   1.66406
 Alpha virt. eigenvalues --    1.67974   1.68122   1.68352   1.69434   1.69674
 Alpha virt. eigenvalues --    1.70513   1.70644   1.71029   1.71916   1.72440
 Alpha virt. eigenvalues --    1.72664   1.73691   1.74027   1.75130   1.75795
 Alpha virt. eigenvalues --    1.76348   1.76371   1.76856   1.77164   1.77274
 Alpha virt. eigenvalues --    1.77674   1.79004   1.79364   1.79475   1.80265
 Alpha virt. eigenvalues --    1.80824   1.82560   1.83403   1.84390   1.85661
 Alpha virt. eigenvalues --    1.86427   1.86853   1.87503   1.89134   1.89818
 Alpha virt. eigenvalues --    1.90462   1.91047   1.91569   1.92112   1.92900
 Alpha virt. eigenvalues --    1.93206   1.93300   1.94055   1.94340   1.94747
 Alpha virt. eigenvalues --    1.95343   1.95470   1.96035   1.96353   1.96519
 Alpha virt. eigenvalues --    1.97435   1.97981   1.99765   2.00445   2.01743
 Alpha virt. eigenvalues --    2.02422   2.02596   2.02621   2.03595   2.03729
 Alpha virt. eigenvalues --    2.04509   2.05954   2.06344   2.06419   2.07731
 Alpha virt. eigenvalues --    2.08464   2.08468   2.10105   2.11769   2.12517
 Alpha virt. eigenvalues --    2.13875   2.13973   2.14639   2.14910   2.15990
 Alpha virt. eigenvalues --    2.16590   2.17536   2.18355   2.19231   2.21434
 Alpha virt. eigenvalues --    2.21477   2.22448   2.22719   2.23267   2.23562
 Alpha virt. eigenvalues --    2.23742   2.24295   2.25896   2.26042   2.28398
 Alpha virt. eigenvalues --    2.30281   2.31230   2.31568   2.32648   2.34278
 Alpha virt. eigenvalues --    2.34475   2.37400   2.37449   2.38585   2.38989
 Alpha virt. eigenvalues --    2.44045   2.45134   2.45671   2.46420   2.46982
 Alpha virt. eigenvalues --    2.47994   2.48751   2.49081   2.49790   2.50694
 Alpha virt. eigenvalues --    2.52219   2.52576   2.53642   2.53938   2.55153
 Alpha virt. eigenvalues --    2.55343   2.56726   2.57035   2.57047   2.57438
 Alpha virt. eigenvalues --    2.57903   2.57950   2.59302   2.60003   2.60009
 Alpha virt. eigenvalues --    2.60631   2.60901   2.61141   2.61590   2.61654
 Alpha virt. eigenvalues --    2.61842   2.63026   2.63338   2.63425   2.63574
 Alpha virt. eigenvalues --    2.64255   2.65555   2.67444   2.67727   2.68256
 Alpha virt. eigenvalues --    2.69300   2.70770   2.71349   2.71486   2.71956
 Alpha virt. eigenvalues --    2.72542   2.72945   2.73031   2.73939   2.74240
 Alpha virt. eigenvalues --    2.74447   2.75685   2.75843   2.76014   2.76682
 Alpha virt. eigenvalues --    2.77102   2.77261   2.78547   2.78688   2.78997
 Alpha virt. eigenvalues --    2.79746   2.80073   2.80306   2.81443   2.84478
 Alpha virt. eigenvalues --    2.85037   2.86095   2.86133   2.86911   2.87105
 Alpha virt. eigenvalues --    2.88266   2.88471   2.88788   2.90760   2.93016
 Alpha virt. eigenvalues --    2.93247   2.94885   2.95107   2.96467   2.97844
 Alpha virt. eigenvalues --    2.98274   2.99806   3.00689   3.01940   3.04092
 Alpha virt. eigenvalues --    3.04270   3.05096   3.06113   3.07883   3.07958
 Alpha virt. eigenvalues --    3.09758   3.11439   3.11726   3.12745   3.13085
 Alpha virt. eigenvalues --    3.14002   3.16658   3.18545   3.20595   3.20927
 Alpha virt. eigenvalues --    3.23747   3.24151   3.24962   3.26105   3.26423
 Alpha virt. eigenvalues --    3.27364   3.28559   3.30550   3.31520   3.37814
 Alpha virt. eigenvalues --    3.40802   3.42678   3.43491   3.44735   3.45978
 Alpha virt. eigenvalues --    3.47952   3.48904   3.49608   3.51634   3.54021
 Alpha virt. eigenvalues --    3.55736   3.59716   3.60290   3.63799   3.63932
 Alpha virt. eigenvalues --    3.70000   3.70529   3.77546   3.78557   3.79047
 Alpha virt. eigenvalues --    3.82049   3.84735   3.84965   3.85034   3.85140
 Alpha virt. eigenvalues --    3.86236   3.86264   3.90216   3.90374   3.90444
 Alpha virt. eigenvalues --    3.90457   3.91490   3.93565   3.94263   3.99339
 Alpha virt. eigenvalues --    4.07598   4.08306   4.15304   4.18001   4.20144
 Alpha virt. eigenvalues --    4.22937   4.28941   4.29146   4.31689   4.31928
 Alpha virt. eigenvalues --    4.35807   4.39553   4.40817   4.54502   4.57964
 Alpha virt. eigenvalues --    4.85079   4.87006   4.90356   4.92237   4.92357
 Alpha virt. eigenvalues --   23.47213  23.62891  23.81595  23.81709  23.83287
 Alpha virt. eigenvalues --   23.84595  23.92998  23.93888  23.96623  24.00359
 Alpha virt. eigenvalues --   24.01598  24.01631  24.03422  24.03661  24.04296
 Alpha virt. eigenvalues --   24.04354  24.04492  24.04768  24.06549  24.08290
 Alpha virt. eigenvalues --   24.08583  24.09314  24.10471  24.11780  24.16386
 Alpha virt. eigenvalues --   24.16867  24.18215  24.18671
          Condensed to atoms (all electrons):
 Mulliken charges:
               1
     1  C   -0.724918
     2  C   -0.038429
     3  C    0.131950
     4  C   -0.055325
     5  C    0.480083
     6  C   -0.334032
     7  H    0.116360
     8  H    0.122715
     9  H    0.116358
    10  C   -0.038447
    11  C    0.479780
    12  H    0.121004
    13  C   -0.333938
    14  C   -0.725284
    15  H    0.121017
    16  H    0.122719
    17  C   -0.361915
    18  C    0.314623
    19  C    0.030501
    20  C    0.120116
    21  C   -0.332255
    22  C    0.365251
    23  H    0.081162
    24  C    0.314460
    25  C   -0.332374
    26  H    0.090974
    27  C    0.365723
    28  C   -0.361412
    29  H    0.090983
    30  H    0.081123
    31  C    0.366502
    32  C    0.366852
    33  C   -0.520829
    34  H    0.139271
    35  H    0.121072
    36  H    0.140608
    37  C   -0.575203
    38  H    0.134726
    39  H    0.140686
    40  H    0.142474
    41  C   -0.506166
    42  H    0.143508
    43  H    0.118870
    44  H    0.139975
    45  C   -0.575229
    46  H    0.140690
    47  H    0.134732
    48  H    0.142475
    49  C   -0.506135
    50  H    0.139983
    51  H    0.118875
    52  H    0.143519
    53  C   -0.520790
    54  H    0.140608
    55  H    0.121082
    56  H    0.139271
 Sum of Mulliken charges =   0.00000
 Mulliken charges with hydrogens summed into heavy atoms:
               1
     1  C   -0.602203
     2  C    0.077928
     3  C    0.131950
     4  C   -0.055325
     5  C    0.480083
     6  C   -0.213029
    10  C    0.077913
    11  C    0.479780
    13  C   -0.212920
    14  C   -0.602565
    17  C   -0.280753
    18  C    0.314623
    19  C    0.030501
    20  C    0.120116
    21  C   -0.241281
    22  C    0.365251
    24  C    0.314460
    25  C   -0.241391
    27  C    0.365723
    28  C   -0.280289
    31  C    0.366502
    32  C    0.366852
    33  C   -0.119878
    37  C   -0.157317
    41  C   -0.103813
    45  C   -0.157332
    49  C   -0.103759
    53  C   -0.119830
 Electronic spatial extent (au):  <R**2>=          11792.0449
 Charge=              0.0000 electrons
 Dipole moment (field-independent basis, Debye):
    X=              0.0008    Y=             -0.5733    Z=             -0.0119  Tot=              0.5734
 Quadrupole moment (field-independent basis, Debye-Ang):
   XX=           -152.6205   YY=           -155.8065   ZZ=           -177.0530
   XY=              0.0044   XZ=              0.0021   YZ=             -0.0018
 Traceless Quadrupole moment (field-independent basis, Debye-Ang):
   XX=              9.2061   YY=              6.0201   ZZ=            -15.2263
   XY=              0.0044   XZ=              0.0021   YZ=             -0.0018
 Octapole moment (field-independent basis, Debye-Ang**2):
  XXX=             -0.0096  YYY=             37.5056  ZZZ=             -4.2430  XYY=             -0.0467
  XXY=              1.7161  XXZ=              0.6087  XZZ=              0.0254  YZZ=            -17.1551
  YYZ=              2.9242  XYZ=              0.0103
 Hexadecapole moment (field-independent basis, Debye-Ang**3):
 XXXX=          -7950.6082 YYYY=          -7501.9059 ZZZZ=           -567.3974 XXXY=             -0.2599
 XXXZ=             -0.0224 YYYX=             -0.0353 YYYZ=            -21.8465 ZZZX=             -0.0276
 ZZZY=             10.1352 XXYY=          -2549.7668 XXZZ=          -1526.4549 YYZZ=          -1533.8379
 XXYZ=             12.0122 YYXZ=              0.1059 ZZXY=              0.0925
 N-N= 2.490437240932D+03 E-N=-7.494479276302D+03  KE= 1.079959776629D+03
 There are a total of      467570 grid points.
 ElSum from          density=      195.9997887589
 ElSum from atomic densities=      195.9982872376

 Hirshfeld populations at iteration   1 (CX, CA, CB, DipXYZ):
               1          2          3          4          5          6
     1  C    0.000000   3.023479   3.023479   0.063122   0.018141  -0.000143
     2  C    0.000000   3.022674   3.022674  -0.024548   0.054662  -0.000059
     3  C    0.000000   3.001636   3.001636   0.000033  -0.018132  -0.000058
     4  C    0.000000   3.002994   3.002994   0.000002   0.013080  -0.000033
     5  C    0.000000   2.998631   2.998631  -0.025000  -0.049671  -0.000106
     6  C    0.000000   3.024095   3.024095   0.057299  -0.021038  -0.000393
     7  H    0.000002   0.477055   0.477055  -0.004475   0.159993  -0.000018
     8  H    0.000002   0.476938   0.476938   0.140773   0.080028   0.000036
     9  H    0.000002   0.477054   0.477054   0.003972   0.160008  -0.000005
    10  C    0.000000   3.022676   3.022676   0.024371   0.054721  -0.000047
    11  C    0.000000   2.998632   2.998632   0.025125  -0.049583  -0.000091
    12  H    0.000001   0.477693   0.477693   0.140954  -0.063393  -0.000116
    13  C    0.000000   3.024095   3.024095  -0.057208  -0.021252  -0.000411
    14  C    0.000000   3.023480   3.023480  -0.063174   0.017957  -0.000181
    15  H    0.000001   0.477691   0.477691  -0.140747  -0.063838  -0.000179
    16  H    0.000002   0.476934   0.476934  -0.141022   0.079582  -0.000036
    17  C    0.000000   3.025869   3.025869   0.055618   0.016126   0.000346
    18  C    0.000000   2.999042   2.999042  -0.024736   0.050634  -0.000542
    19  C    0.000000   3.005604   3.005604   0.000023  -0.015001  -0.000295
    20  C    0.000000   3.001655   3.001655  -0.000020   0.018200  -0.001067
    21  C    0.000000   3.025328   3.025328  -0.019699  -0.053081   0.000617
    22  C    0.000000   2.997796   2.997796   0.067431  -0.022680   0.004469
    23  H    0.000000   0.479389   0.479389   0.124384   0.072188   0.002012
    24  C    0.000000   2.999045   2.999045   0.024600   0.050705  -0.000547
    25  C    0.000000   3.025326   3.025326   0.019813  -0.053018   0.000616
    26  H    0.000000   0.478678   0.478678  -0.010163  -0.150020   0.001531
    27  C    0.000000   2.997791   2.997791  -0.067333  -0.022922   0.004485
    28  C    0.000000   3.025871   3.025871  -0.055685   0.015948   0.000336
    29  H    0.000000   0.478680   0.478680   0.010648  -0.149998   0.001519
    30  H    0.000000   0.479391   0.479391  -0.124576   0.071812   0.002003
    31  C    0.000000   2.988223   2.988223  -0.000859  -0.000067   0.001628
    32  C    0.000000   2.988227   2.988227   0.000840  -0.000053   0.001632
    33  C    0.000000   3.051247   3.051247   0.007766   0.002746   0.003511
    34  H    0.000001   0.482838   0.482838   0.126803  -0.072717  -0.000835
    35  H    0.000000   0.483318   0.483318  -0.096062  -0.083709   0.068446
    36  H    0.000000   0.482465   0.482465  -0.036843   0.021611  -0.141006
    37  C    0.000000   3.051104   3.051104   0.006156  -0.003281  -0.004389
    38  H    0.000000   0.482974   0.482974   0.125867  -0.072503   0.000290
    39  H    0.000001   0.482850   0.482850   0.021090   0.125341   0.071051
    40  H    0.000000   0.482916   0.482916  -0.096386  -0.081765   0.071396
    41  C    0.000000   3.051181   3.051181   0.001291  -0.008501   0.002653
    42  H    0.000000   0.482112   0.482112  -0.038363   0.021222  -0.141358
    43  H    0.000000   0.483599   0.483599   0.023983   0.124332   0.068300
    44  H    0.000000   0.482507   0.482507   0.127079  -0.073140  -0.000842
    45  C    0.000000   3.051104   3.051104  -0.006141  -0.003303  -0.004399
    46  H    0.000001   0.482849   0.482849  -0.021432   0.125286   0.071045
    47  H    0.000000   0.482976   0.482976  -0.125662  -0.072863   0.000331
    48  H    0.000000   0.482915   0.482915   0.096634  -0.081481   0.071388
    49  C    0.000000   3.051180   3.051180  -0.001254  -0.008510   0.002655
    50  H    0.000000   0.482508   0.482508  -0.126873  -0.073501  -0.000809
    51  H    0.000000   0.483599   0.483599  -0.024332   0.124269   0.068288
    52  H    0.000000   0.482111   0.482111   0.038275   0.021320  -0.141368
    53  C    0.000000   3.051248   3.051248  -0.007766   0.002728   0.003515
    54  H    0.000000   0.482465   0.482465   0.036757   0.021709  -0.141012
    55  H    0.000000   0.483318   0.483318   0.096322  -0.083427   0.068431
    56  H    0.000001   0.482839   0.482839  -0.126594  -0.073084  -0.000804
       Tot   0.000020  97.999894  97.999894   0.000078  -0.021181   0.011382

 Dip from Atomic Chgs              0.000195  -0.203523  -0.015731
         Total Dipole              0.000273  -0.224705  -0.004349

 Hirshfeld charges, spin densities, dipoles, and CM5 charges using IRadAn=      4:
              Q-H        S-H        Dx         Dy         Dz        Q-CM5   
     1  C   -0.046957   0.000000   0.063122   0.018141  -0.000143  -0.104241
     2  C   -0.045347   0.000000  -0.024548   0.054662  -0.000059  -0.100227
     3  C   -0.003271   0.000000   0.000033  -0.018132  -0.000058  -0.010689
     4  C   -0.005988   0.000000   0.000002   0.013080  -0.000033  -0.006775
     5  C    0.002738   0.000000  -0.025000  -0.049671  -0.000106  -0.001818
     6  C   -0.048191   0.000000   0.057299  -0.021038  -0.000393  -0.103285
     7  H    0.045890   0.000000  -0.004475   0.159993  -0.000018   0.104506
     8  H    0.046124   0.000000   0.140773   0.080028   0.000036   0.103719
     9  H    0.045892   0.000000   0.003972   0.160008  -0.000005   0.104511
    10  C   -0.045352   0.000000   0.024371   0.054721  -0.000047  -0.100229
    11  C    0.002736   0.000000   0.025125  -0.049583  -0.000091  -0.001820
    12  H    0.044614   0.000000   0.140954  -0.063393  -0.000116   0.104321
    13  C   -0.048191   0.000000  -0.057208  -0.021252  -0.000411  -0.103279
    14  C   -0.046960   0.000000  -0.063174   0.017957  -0.000181  -0.104234
    15  H    0.044619   0.000000  -0.140747  -0.063838  -0.000179   0.104319
    16  H    0.046132   0.000000  -0.141022   0.079582  -0.000036   0.103717
    17  C   -0.051738   0.000000   0.055618   0.016126   0.000346  -0.105528
    18  C    0.001917   0.000000  -0.024736   0.050634  -0.000542  -0.002574
    19  C   -0.011208   0.000000   0.000023  -0.015001  -0.000295  -0.011935
    20  C   -0.003310   0.000000  -0.000020   0.018200  -0.001067  -0.010604
    21  C   -0.050655   0.000000  -0.019699  -0.053081   0.000617  -0.104243
    22  C    0.004408   0.000000   0.067431  -0.022680   0.004469  -0.008008
    23  H    0.041222   0.000000   0.124384   0.072188   0.002012   0.103366
    24  C    0.001911   0.000000   0.024600   0.050705  -0.000547  -0.002581
    25  C   -0.050653   0.000000   0.019813  -0.053018   0.000616  -0.104245
    26  H    0.042645   0.000000  -0.010163  -0.150020   0.001531   0.103713
    27  C    0.004417   0.000000  -0.067333  -0.022922   0.004485  -0.007999
    28  C   -0.051741   0.000000  -0.055685   0.015948   0.000336  -0.105534
    29  H    0.042641   0.000000   0.010648  -0.149998   0.001519   0.103714
    30  H    0.041218   0.000000  -0.124576   0.071812   0.002003   0.103367
    31  C    0.023554   0.000000  -0.000859  -0.000067   0.001628  -0.009441
    32  C    0.023546   0.000000   0.000840  -0.000053   0.001632  -0.009454
    33  C   -0.102495   0.000000   0.007766   0.002746   0.003511  -0.258154
    34  H    0.034324   0.000000   0.126803  -0.072717  -0.000835   0.089844
    35  H    0.033363   0.000000  -0.096062  -0.083709   0.068446   0.090121
    36  H    0.035069   0.000000  -0.036843   0.021611  -0.141006   0.091089
    37  C   -0.102209   0.000000   0.006156  -0.003281  -0.004389  -0.256692
    38  H    0.034051   0.000000   0.125867  -0.072503   0.000290   0.089557
    39  H    0.034300   0.000000   0.021090   0.125341   0.071051   0.090190
    40  H    0.034168   0.000000  -0.096386  -0.081765   0.071396   0.090057
    41  C   -0.102362   0.000000   0.001291  -0.008501   0.002653  -0.258057
    42  H    0.035776   0.000000  -0.038363   0.021222  -0.141358   0.091799
    43  H    0.032801   0.000000   0.023983   0.124332   0.068300   0.089588
    44  H    0.034986   0.000000   0.127079  -0.073140  -0.000842   0.090508
    45  C   -0.102207   0.000000  -0.006141  -0.003303  -0.004399  -0.256685
    46  H    0.034302   0.000000  -0.021432   0.125286   0.071045   0.090188
    47  H    0.034048   0.000000  -0.125662  -0.072863   0.000331   0.089553
    48  H    0.034170   0.000000   0.096634  -0.081481   0.071388   0.090057
    49  C   -0.102360   0.000000  -0.001254  -0.008510   0.002655  -0.258051
    50  H    0.034985   0.000000  -0.126873  -0.073501  -0.000809   0.090505
    51  H    0.032803   0.000000  -0.024332   0.124269   0.068288   0.089587
    52  H    0.035778   0.000000   0.038275   0.021320  -0.141368   0.091799
    53  C   -0.102496   0.000000  -0.007766   0.002728   0.003515  -0.258153
    54  H    0.035069   0.000000   0.036757   0.021709  -0.141012   0.091088
    55  H    0.033365   0.000000   0.096322  -0.083427   0.068431   0.090121
    56  H    0.034322   0.000000  -0.126594  -0.073084  -0.000804   0.089843
       Tot   0.000211   0.000000   0.000078  -0.021181   0.011382   0.000211
 Hirshfeld charges with hydrogens summed into heavy atoms:
              Q-H       Q-CM5   
     1  C   -0.000833  -0.000521
     2  C    0.000545   0.004284
     3  C   -0.003271  -0.010689
     4  C   -0.005988  -0.006775
     5  C    0.002738  -0.001818
     6  C   -0.003577   0.001036
    10  C    0.000538   0.004278
    11  C    0.002736  -0.001820
    13  C   -0.003572   0.001040
    14  C   -0.000828  -0.000517
    17  C   -0.010516  -0.002162
    18  C    0.001917  -0.002574
    19  C   -0.011208  -0.011935
    20  C   -0.003310  -0.010604
    21  C   -0.008011  -0.000530
    22  C    0.004408  -0.008008
    24  C    0.001911  -0.002581
    25  C   -0.008012  -0.000531
    27  C    0.004417  -0.007999
    28  C   -0.010524  -0.002167
    31  C    0.023554  -0.009441
    32  C    0.023546  -0.009454
    33  C    0.000262   0.012901
    37  C    0.000310   0.013112
    41  C    0.001201   0.013837
    45  C    0.000313   0.013113
    49  C    0.001205   0.013840
    53  C    0.000260   0.012899
 
 EQQ= 0.000000000000E+00 EQD= 0.000000000000E+00 EDD= 0.124010333920E-01
 EQQ+QD+DD= 0.124010333920E-01
 
          MBS Condensed to atoms (all electrons):
 MBS Mulliken charges:
               1
     1  C   -0.109845
     2  C   -0.111035
     3  C    0.007350
     4  C   -0.003713
     5  C   -0.001853
     6  C   -0.112250
     7  H    0.108839
     8  H    0.110910
     9  H    0.108845
    10  C   -0.111039
    11  C   -0.001851
    12  H    0.106803
    13  C   -0.112249
    14  C   -0.109830
    15  H    0.106791
    16  H    0.110898
    17  C   -0.124307
    18  C   -0.000950
    19  C   -0.008766
    20  C    0.010362
    21  C   -0.125903
    22  C   -0.004408
    23  H    0.104523
    24  C   -0.000946
    25  C   -0.125915
    26  H    0.104150
    27  C   -0.004395
    28  C   -0.124287
    29  H    0.104159
    30  H    0.104519
    31  C    0.057856
    32  C    0.057864
    33  C   -0.271434
    34  H    0.087623
    35  H    0.087193
    36  H    0.093948
    37  C   -0.270119
    38  H    0.087562
    39  H    0.091629
    40  H    0.092588
    41  C   -0.272389
    42  H    0.094052
    43  H    0.085396
    44  H    0.088784
    45  C   -0.270119
    46  H    0.091626
    47  H    0.087565
    48  H    0.092590
    49  C   -0.272385
    50  H    0.088785
    51  H    0.085393
    52  H    0.094052
    53  C   -0.271441
    54  H    0.093948
    55  H    0.087198
    56  H    0.087626
 Sum of MBS Mulliken charges =   0.00000
 MBS Mulliken charges with hydrogens summed into heavy atoms:
               1
     1  C    0.001066
     2  C   -0.002190
     3  C    0.007350
     4  C   -0.003713
     5  C   -0.001853
     6  C   -0.005447
    10  C   -0.002200
    11  C   -0.001851
    13  C   -0.005458
    14  C    0.001068
    17  C   -0.019784
    18  C   -0.000950
    19  C   -0.008766
    20  C    0.010362
    21  C   -0.021753
    22  C   -0.004408
    24  C   -0.000946
    25  C   -0.021756
    27  C   -0.004395
    28  C   -0.019768
    31  C    0.057856
    32  C    0.057864
    33  C   -0.002670
    37  C    0.001660
    41  C   -0.004156
    45  C    0.001662
    49  C   -0.004156
    53  C   -0.002669
 Breneman (CHELPG) radii used.
 Generate Potential Derived Charges using the Breneman model, NDens= 1.
 Grid spacing= 0.300 Box extension= 2.800
 NStep X,Y,Z=   59     54     32   Total possible points=      101952
 Number of Points to Fit=   27637

 **********************************************************************

            Electrostatic Properties Using The SCF Density

 **********************************************************************

       Atomic Center    1 is at   2.420727  4.143060  0.000679
       Atomic Center    2 is at   1.206027  4.841846  0.000458
       Atomic Center    3 is at  -0.006497  4.139223  0.000116
       Atomic Center    4 is at  -0.004260  2.737816 -0.000049
       Atomic Center    5 is at   1.210466  2.039004  0.000072
       Atomic Center    6 is at   2.423013  2.741656  0.000416
       Atomic Center    7 is at  -1.222952  5.907945 -0.000054
       Atomic Center    8 is at   3.346453  4.679514  0.001065
       Atomic Center    9 is at   1.204344  5.911784  0.000565
       Atomic Center   10 is at  -1.221258  4.837989 -0.000099
       Atomic Center   11 is at  -1.216728  2.035206 -0.000331
       Atomic Center   12 is at   3.350532  2.208174  0.000508
       Atomic Center   13 is at  -2.431577  2.733963 -0.000566
       Atomic Center   14 is at  -2.433787  4.135372 -0.000413
       Atomic Center   15 is at  -3.357422  2.197486 -0.000858
       Atomic Center   16 is at  -3.361260  4.668927 -0.000501
       Atomic Center   17 is at   2.427666 -0.199551 -0.000281
       Atomic Center   18 is at   1.212897  0.499018 -0.000131
       Atomic Center   19 is at   0.000399 -0.203704 -0.000073
       Atomic Center   20 is at   0.002546 -1.605216  0.000251
       Atomic Center   21 is at   1.217645 -2.303931  0.000433
       Atomic Center   22 is at   2.430191 -1.600875  0.000009
       Atomic Center   23 is at   3.353387  0.337044 -0.000629
       Atomic Center   24 is at  -1.214268  0.495233 -0.000299
       Atomic Center   25 is at  -1.210391 -2.307627  0.000426
       Atomic Center   26 is at   1.219695 -3.373950  0.000841
       Atomic Center   27 is at  -2.425101 -1.608276  0.000055
       Atomic Center   28 is at  -2.426826 -0.207014 -0.000423
       Atomic Center   29 is at  -1.208970 -3.377601  0.000797
       Atomic Center   30 is at  -3.354119  0.326855 -0.000847
       Atomic Center   31 is at  -3.758391 -2.379022  0.000127
       Atomic Center   32 is at   3.765751 -2.367774 -0.000185
       Atomic Center   33 is at   3.584647 -3.714058 -0.725535
       Atomic Center   34 is at   4.512627 -4.246793 -0.725670
       Atomic Center   35 is at   2.840552 -4.293935 -0.220572
       Atomic Center   36 is at   3.274930 -3.536890 -1.734291
       Atomic Center   37 is at   4.211599 -2.622823  1.451588
       Atomic Center   38 is at   5.139583 -3.155500  1.451371
       Atomic Center   39 is at   4.337429 -1.687405  1.955582
       Atomic Center   40 is at   3.467599 -3.202760  1.956520
       Atomic Center   41 is at   4.836706 -1.533068 -0.726825
       Atomic Center   42 is at   4.527030 -1.355798 -1.735578
       Atomic Center   43 is at   4.962464 -0.597679 -0.222717
       Atomic Center   44 is at   5.764711 -2.065731 -0.726999
       Atomic Center   45 is at  -4.203175 -2.635189  1.452105
       Atomic Center   46 is at  -4.331558 -1.700053  1.956032
       Atomic Center   47 is at  -5.129634 -3.170508  1.452189
       Atomic Center   48 is at  -3.457394 -3.212938  1.956946
       Atomic Center   49 is at  -4.831889 -1.547418 -0.726417
       Atomic Center   50 is at  -5.758384 -2.082712 -0.726363
       Atomic Center   51 is at  -4.960227 -0.612317 -0.222381
       Atomic Center   52 is at  -4.522905 -1.369361 -1.735253
       Atomic Center   53 is at  -3.573527 -3.724856 -0.725160
       Atomic Center   54 is at  -3.264517 -3.546859 -1.733987
       Atomic Center   55 is at  -2.827665 -4.302559 -0.220312
       Atomic Center   56 is at  -4.499963 -4.260267 -0.725078
   27637 points will be used for fitting atomic charges
 Fitting point charges to electrostatic potential
 Charges from ESP fit, RMS=   0.00455 RRMS=   0.49282:
 ESP charges:
               1
     1  C   -0.032908
     2  C   -0.262583
     3  C    0.249924
     4  C   -0.012303
     5  C    0.052223
     6  C   -0.201669
     7  H    0.124780
     8  H    0.083594
     9  H    0.123963
    10  C   -0.265841
    11  C    0.047495
    12  H    0.124218
    13  C   -0.201290
    14  C   -0.029143
    15  H    0.124159
    16  H    0.082382
    17  C   -0.250414
    18  C    0.029995
    19  C   -0.011688
    20  C    0.253616
    21  C   -0.337986
    22  C    0.030626
    23  H    0.135103
    24  C    0.033661
    25  C   -0.336140
    26  H    0.150710
    27  C    0.024627
    28  C   -0.250567
    29  H    0.149751
    30  H    0.135543
    31  C    0.555846
    32  C    0.547192
    33  C   -0.252654
    34  H    0.045249
    35  H    0.039824
    36  H    0.027138
    37  C   -0.197536
    38  H    0.035110
    39  H    0.006298
    40  H    0.012273
    41  C   -0.290657
    42  H    0.031665
    43  H    0.056880
    44  H    0.055306
    45  C   -0.191145
[...]
 .00084635,-0.00031924,0.00073063,0.00079420,0.01971609,-0.02168253,-0.
 00006959,-0.00053541,-0.00061760,0.00065084,0.00408042,-0.00104255,-0.
 00423458,0.00044433,-0.00064654,0.00068183,-0.00694889,0.01033806,0.57
 279888,-0.00000244,0.00000161,0.00000081,0.00000082,0.00000279,-0.0000
 0161,-0.00000051,0.00000432,0.00000490,-0.00000659,0.00000168,-0.00000
 449,0.00000742,0.00000055,-0.00000118,0.00000046,-0.00000028,0.0000037
 4,0.00000003,0.00000235,-0.00000212,0.00000082,0.00000172,-0.00000092,
 -0.00000094,0.00000133,-0.00000081,0.00000194,-0.00000016,0.00000045,0
 .00000675,0.00002113,-0.00001420,0.00000084,-0.00000158,-0.00000142,-0
 .00001163,-0.00001619,0.00001082,0.00000618,0.00000261,0.00000686,0.00
 000983,-0.00000253,-0.00001759,0.00000004,-0.00000197,-0.00000335,0.00
 003399,-0.00000052,0.00000611,-0.00001593,-0.00002717,-0.00001134,0.00
 009018,0.00000155,-0.00000509,0.00014860,0.00008092,0.00000883,-0.0000
 1151,-0.00000593,0.00001212,-0.00001054,0.00004083,-0.00000196,0.00000
 099,0.00000321,-0.00000164,-0.00007836,-0.00010056,-0.00001904,0.00009
 012,-0.00046758,0.00049861,-0.00001605,-0.00000536,0.00000353,0.000149
 31,-0.00091949,0.00042163,-0.00008165,0.00025622,0.00017140,0.00007787
 ,-0.00079185,0.00038838,0.00002044,-0.00005203,-0.00005222,-0.01107504
 ,-0.00264255,-0.01554550,-0.00000536,0.00000025,-0.00000349,0.00000231
 ,0.00000111,0.00000125,0.00000435,0.00000207,-0.00000056,-0.00000204,-
 0.00000008,0.00000508,-0.00000375,-0.00000282,-0.00000498,0.00000347,0
 .00000253,0.00000352,0.00000353,-0.00000004,-0.00000120,-0.00000134,-0
 .00000090,0.00000002,-0.00000105,0.00000008,0.00000159,0.00000443,0.00
 000121,-0.00000445,-0.00000145,-0.00000194,0.00000074,-0.00000136,-0.0
 0000006,-0.00000047,0.00000363,0.00000047,0.00000173,-0.00239783,0.003
 94310,0.00057703,-0.00045770,0.00014772,-0.00141082,0.00034400,0.00009
 214,0.00036396,0.00018518,-0.00000001,-0.00019398,0.00052192,-0.000773
 23,-0.00125085,-0.00014131,0.00003068,-0.00003155,0.00033350,-0.000054
 83,0.00029674,-0.00009242,0.00040207,0.00081036,-0.12127965,-0.0073576
 3,-0.11624983,0.13168800,0.00000501,-0.00001511,-0.00000069,-0.0000064
 2,0.00000444,0.00000137,0.00000049,0.00000514,-0.00000846,-0.00001246,
 0.00002250,-0.00000441,0.00001953,-0.00001735,0.00000285,0.00000207,0.
 00002678,0.00000193,-0.00000058,0.00000284,0.00000063,0.00000214,0.000
 00449,-0.00000024,-0.00000261,0.00000231,-0.00000033,-0.00002275,0.000
 01213,-0.00000053,0.00002863,-0.00005510,0.00003955,0.00000082,-0.0000
 0293,0.00000045,-0.00001672,0.00002267,-0.00000871,0.00001402,0.000001
 34,-0.00000484,-0.00000060,-0.00000222,0.00001099,-0.00000758,0.000003
 51,0.00000076,-0.00003616,0.00004006,-0.00000134,0.00001773,0.00001481
 ,-0.00001233,-0.00014191,0.00006996,0.00002080,-0.00026314,-0.00017964
 ,-0.00008765,0.00009103,0.00003797,0.00002400,-0.00001124,-0.00008290,
 0.00000493,0.00000142,0.00000806,-0.00000022,0.00010192,0.00018608,-0.
 00002824,-0.00040769,-0.00025564,0.00016406,-0.00002287,-0.00000046,0.
 00000818,0.00013428,0.00106356,0.00027998,0.00017808,-0.00012836,-0.00
 022978,-0.00068853,-0.00092861,0.00076894,-0.00005186,0.00008247,0.000
 05149,0.01343090,0.00234980,0.02227591,-0.00002346,0.00000794,-0.00000
 573,0.00000995,0.00000181,0.00000239,0.00000971,0.00000268,-0.00000064
 ,-0.00000498,0.00000182,-0.00000019,-0.00000822,0.00000229,-0.00000191
 ,0.00001217,-0.00000124,0.00000806,0.00000917,0.00000292,-0.00000348,-
 0.00000281,-0.00000242,0.00000142,-0.00000327,-0.00000103,0.00000100,0
 .00001075,-0.00000473,-0.00000324,-0.00000481,-0.00000080,-0.00000241,
 -0.00000303,-0.00000224,-0.00000114,0.00000945,0.00000342,0.00000260,0
 .00271612,-0.00436815,-0.00010985,0.00116149,0.00037787,0.00135456,0.0
 0029826,0.00025700,-0.00008983,-0.00016174,-0.00012205,-0.00012940,-0.
 00077010,0.00079108,0.00097181,-0.00002502,-0.00005946,-0.00019930,-0.
 00031807,-0.00003702,0.00004205,0.00002567,0.00004022,-0.00041300,-0.0
 0796069,-0.04771353,-0.01405722,0.00771882,0.05102703,0.00000213,0.000
 01277,0.00000299,0.00000222,-0.00001009,0.00000042,0.00000839,-0.00000
 284,0.00000394,0.00000228,-0.00001350,0.,-0.00003113,0.00000620,-0.000
 00779,0.00000104,-0.00002140,0.00000102,0.00000052,-0.00000100,-0.0000
 0106,-0.00000085,-0.00000325,-0.00000050,0.00000185,-0.00000094,-0.000
 00063,0.00001338,-0.00001314,0.00000159,0.00000951,0.00005835,-0.00000
 784,0.00000060,0.00000250,-0.00000198,0.00000766,-0.00003612,0.0000095
 3,-0.00000687,0.00000773,0.00000237,0.00000778,0.00000160,-0.00000810,
 0.00000744,-0.00000476,-0.00000123,0.00002972,0.00000817,0.00000238,0.
 00005266,-0.00005398,0.00000994,-0.00004762,-0.00008600,-0.00006284,0.
 00054255,-0.00025739,0.00011840,-0.00004014,0.00007358,0.00002714,-0.0
 0000101,0.00001996,0.00000525,-0.00000074,-0.00000924,-0.00000149,-0.0
 0005827,-0.00008751,0.00001346,-0.00102502,0.00032280,0.00040344,0.000
 04906,0.00000182,-0.00001811,-0.00044872,-0.00044961,0.00012022,0.0001
 1377,0.00028831,0.00000156,0.00077225,-0.00008005,-0.00029224,0.000084
 78,-0.00009073,-0.00000953,-0.00085902,-0.00028584,-0.00361901,-0.0000
 0047,0.00000488,0.00000032,0.00000474,0.00000034,-0.00001281,-0.000006
 73,-0.00000525,0.00000159,0.00000405,0.00000250,-0.00000990,0.00000410
 ,0.00000342,0.00001778,-0.00000208,-0.00000543,-0.00000910,-0.00000338
 ,-0.00000065,0.00000217,0.00000085,-0.00000633,0.00000236,0.00000059,0
 .00000385,0.00000046,-0.00000254,0.00000144,0.00000136,-0.00000019,0.0
 0000251,0.00000461,0.00000156,-0.00000643,0.00000011,-0.00000343,-0.00
 000091,-0.00000166,-0.00046489,0.00166135,0.00084780,-0.00048062,-0.00
 009275,-0.00005890,0.00016496,-0.00015198,0.00006975,0.00013597,-0.000
 15622,0.00043326,0.00076528,-0.00028332,0.00062480,0.00002427,0.000081
 51,-0.00003808,-0.00000168,0.00016188,0.00020053,-0.00006216,-0.000044
 77,0.00049699,-0.11649126,-0.01237870,-0.23096971,0.12942338,0.0141653
 2,0.24968034,-0.00000190,0.00000284,-0.00000138,0.00000128,0.00000193,
 0.00000090,0.00000092,0.00000321,-0.00000533,-0.00000698,0.00000118,0.
 00000379,0.00000455,0.00000166,0.00000222,0.00000046,-0.00000310,-0.00
 000365,-0.00000014,0.00000258,0.00000186,0.00000065,0.00000154,0.00000
 078,-0.00000083,0.00000128,0.00000061,0.00000278,-0.00000163,-0.000000
 39,0.00000605,0.00002875,0.00000984,0.00000082,-0.00000101,0.00000192,
 -0.00000963,-0.00002102,-0.00000891,0.00000643,0.00000200,-0.00000666,
 0.00000859,0.00000090,0.00001936,0.00000031,-0.00000181,0.00000394,0.0
 0003702,-0.00000030,-0.00000247,-0.00001157,-0.00003020,0.00001517,0.0
 0008181,-0.00000409,0.00002040,0.00020282,0.00004983,-0.00000785,-0.00
 001318,-0.00000085,-0.00001683,-0.00001064,0.00004140,-0.00000741,0.00
 000080,0.00000268,0.00000140,-0.00008511,-0.00010328,0.00002838,0.0000
 3184,-0.00052286,-0.00045370,-0.00001095,-0.00000545,-0.00000187,0.000
 13914,-0.00101181,-0.00024693,-0.00004771,0.00024858,-0.00022215,0.000
 17980,-0.00085475,-0.00019837,0.00002243,-0.00004991,0.00006490,-0.012
 55728,0.00005628,0.01463391,-0.00000574,0.00000137,0.00000275,0.000002
 97,0.00000123,0.00000008,0.00000367,0.00000160,0.00000050,-0.00000372,
 -0.00000185,0.00000321,-0.00000128,-0.00000057,-0.00000414,0.00000392,
 0.00000214,0.00000433,0.00000345,0.00000014,-0.00000128,-0.00000127,-0
 .00000069,0.00000047,-0.00000143,-0.00000185,-0.00000098,0.00000364,0.
 00000157,-0.00000250,-0.00000086,0.00000013,-0.00000184,-0.00000125,-0
 .00000159,-0.00000012,0.00000320,0.00000009,0.00000133,0.00045973,-0.0
 0056694,0.00134649,0.00035913,-0.00009025,-0.00026903,-0.00014084,0.00
 004314,0.00001529,-0.00000622,0.00023820,-0.00091525,-0.00228989,0.003
 85073,-0.00160849,0.00039865,0.00001559,-0.00033718,-0.00063398,0.0003
 8014,0.00129174,0.00018015,0.00001122,0.00016972,-0.14647028,0.0144672
 1,0.12453594,0.01197061,-0.00166070,-0.01386623,0.15964656,0.00000409,
 -0.00001682,0.00000462,-0.00000678,0.00000582,-0.00000303,-0.00000189,
 0.00000701,0.00000767,-0.00001281,0.00002490,-0.00000143,0.00002460,-0
 .00001857,0.00000169,0.00000269,0.00002954,-0.00000670,-0.00000054,0.0
 0000283,-0.00000138,0.00000229,0.00000499,-0.00000053,-0.00000290,0.00
 000252,-0.00000054,-0.00002425,0.00001404,-0.00000419,0.00003044,-0.00
 007021,-0.00002536,0.00000069,-0.00000343,-0.00000013,-0.00001879,0.00
 002936,0.00000300,0.00001434,0.00000120,0.00000662,-0.00000063,-0.0000
 0454,-0.00001155,-0.00000853,0.00000401,-0.00000262,-0.00004012,0.0000
 3748,-0.00000915,0.00000675,0.00002603,0.00001043,-0.00012578,0.000076
 10,-0.00005925,-0.00036352,-0.00011320,0.00009148,0.00009831,0.0000215
 7,-0.00001292,-0.00001107,-0.00008425,0.00000993,0.00000159,0.00000939
 ,-0.00000155,0.00010772,0.00020099,0.00000626,-0.00021193,-0.00032693,
 -0.00006067,-0.00002996,-0.00000309,-0.00001410,0.00024777,0.00105689,
 -0.00042776,0.00012914,-0.00013097,0.00026686,-0.00073341,-0.00104385,
 -0.00071884,-0.00005919,0.00008544,-0.00007460,0.01553158,-0.00152393,
 -0.02099359,-0.00002363,0.00000767,0.00000209,0.00000935,0.00000092,-0
 .00000396,0.00001068,0.00000380,0.00000137,-0.00000928,0.00000242,0.00
 000375,-0.00000543,0.00000100,-0.00000235,0.00001054,-0.00000415,0.000
 00544,0.00001019,0.00000309,-0.00000240,-0.00000338,-0.00000089,0.0000
 0098,-0.00000501,-0.00000071,0.00000280,0.00001321,-0.00000189,-0.0000
 0815,-0.00000320,-0.00000186,-0.00000092,-0.00000282,-0.00000143,-0.00
 000104,0.00000925,0.00000372,0.00000421,-0.00078973,0.00065316,-0.0010
 5362,-0.00030773,-0.00006879,-0.00002897,-0.00005022,-0.00003833,0.000
 19541,-0.00001432,0.00013630,0.00047093,0.00265129,-0.00441529,0.00133
 103,0.00025870,0.00029577,0.00007347,0.00135779,0.00016029,-0.00124539
 ,-0.00020252,-0.00005658,0.00019872,0.01374573,-0.04858131,-0.01613200
 ,0.00111476,-0.00129834,-0.00174887,-0.01644043,0.05200445,-0.00000350
 ,-0.00000919,0.00000354,-0.00000114,0.00000944,-0.00000063,-0.00000832
 ,0.00000254,-0.00000001,-0.00000043,0.00000910,-0.00000221,0.00002816,
 -0.00000394,-0.00000348,-0.00000117,0.00001620,-0.00000160,-0.00000032
 ,0.00000058,-0.00000089,0.00000060,0.00000248,-0.00000083,-0.00000134,
 0.00000047,-0.00000084,-0.00000894,0.00001090,-0.00000097,-0.00001394,
 -0.00004449,0.00000776,-0.00000054,-0.00000238,-0.00000140,-0.00000610
 ,0.00003010,0.00000042,0.00000467,-0.00000727,0.00000242,-0.00000600,-
 0.00000215,-0.00000449,-0.00000589,0.00000360,-0.00000203,-0.00001957,
 -0.00001469,0.00000209,-0.00005638,0.00004762,-0.00000598,0.00008699,0
 .00006171,-0.00005984,-0.00047473,0.00030067,-0.00000286,0.00001829,-0
 .00007264,0.00004537,0.00000123,0.00000035,0.00000662,0.00000078,0.000
 00760,-0.00000261,0.00003015,0.00004391,0.00000509,0.00103756,-0.00023
 862,0.00053276,-0.00004371,-0.00000560,-0.00002064,0.00041744,0.000181
 48,0.00013756,-0.00014669,-0.00024091,-0.00002970,-0.00060241,0.000118
 44,-0.00027950,-0.00007120,0.00006811,-0.00001450,-0.00285945,-0.00007
 589,0.00173719,0.00000400,-0.00000607,0.00000121,-0.00000491,-0.000002
 76,-0.00001244,0.00000521,0.00000513,0.00000115,-0.00000479,-0.0000009
 4,0.00001758,-0.00000223,-0.00000455,-0.00000993,0.00000093,-0.0000002
 0,0.00000134,0.00000221,0.00000012,-0.00000113,-0.00000108,0.00000655,
 -0.00000134,0.00000043,-0.00000176,0.00000448,0.00000114,0.00000425,-0
 .00000872,-0.00000017,-0.00000343,0.00000108,-0.00000067,0.00000689,0.
 00000128,0.00000181,0.00000043,0.00000180,-0.00064994,0.00021261,0.000
 82455,0.00007231,-0.00012373,0.00020672,-0.00002729,-0.00007751,-0.000
 05953,0.00001312,0.00013558,0.00031429,-0.00035010,-0.00031397,0.00078
 700,-0.00017826,0.00011220,-0.00002367,0.00018443,0.00009827,0.0003349
 6,-0.00012695,0.00024518,0.00037291,0.12489470,-0.01774160,-0.20490575
 ,0.01726559,-0.00164024,-0.01994548,-0.13814924,0.01836582,0.22074031,
 -0.00000126,0.00001344,-0.00000145,0.00000036,-0.00000507,0.00000068,0
 .00001313,-0.00000125,0.00000036,-0.00001001,0.00000060,-0.00000057,-0
 .00003513,0.00000639,-0.00000209,-0.00000028,-0.00002646,0.00000246,0.
 00000033,-0.00000404,0.00000033,-0.00000243,-0.00000599,0.00000038,0.0
 0000391,-0.00000194,0.00000026,0.00001802,-0.00001216,0.00000228,0.000
 05197,0.00010771,-0.00000351,-0.00000118,0.00000394,-0.00000037,0.0000
 2157,-0.00001459,0.00000236,-0.00001941,0.00000068,-0.00000124,-0.0000
 0033,0.00000441,-0.00000052,0.00000579,-0.00000005,0.00000016,0.000018
 70,-0.00000558,0.00000131,0.00004880,-0.00003662,0.00000628,-0.0000540
 4,-0.00010696,0.00000931,0.00052555,-0.00014035,0.00003054,-0.00004378
 ,0.00001223,-0.00000490,0.00000843,0.00003815,-0.00000268,-0.00000113,
 -0.00001204,0.00000104,-0.00024299,0.00010478,-0.00002049,-0.00107533,
 0.00007803,-0.00008170,0.00004557,0.00000602,0.00000241,-0.00279377,0.
 00270392,-0.00040277,0.00076019,0.00102093,-0.00006850,0.00063714,-0.0
 0050093,0.00010215,0.00006885,-0.00005051,0.00000554,0.00941128,0.0166
 7519,-0.00090925,0.00002127,-0.00000777,0.00000183,-0.00000733,0.00000
 037,-0.00000011,-0.00001325,-0.00000609,-0.00000022,0.00000896,-0.0000
 0131,-0.00000702,0.00000807,0.00000004,0.00000785,-0.00001183,0.000001
 81,-0.00000832,-0.00001152,-0.00000300,0.00000328,0.00000353,-0.000000
 39,-0.00000054,0.00000444,0.00000175,-0.00000252,-0.00001249,0.0000030
 8,0.00000674,0.00000413,0.00000218,0.00000254,0.00000343,-0.00000026,0
 .00000090,-0.00001116,-0.00000362,-0.00000388,0.00084685,0.00067966,0.
 00031612,0.00021322,-0.00003559,0.00021486,-0.00003278,0.00004521,-0.0
 0010522,-0.00010499,-0.00009603,-0.00009526,0.00092194,0.00071379,-0.0
 0034869,-0.00008386,0.00006890,0.00006899,0.00023725,-0.00009084,-0.00
 016993,-0.00010974,-0.00006602,0.00010261,-0.12979130,-0.12281842,0.00
 661206,-0.01001508,-0.01336961,0.00166573,-0.01145148,-0.01588370,-0.0
 0024437,0.14202520,0.00000090,0.00001780,-0.00000167,0.00000702,-0.000
 01509,0.00000158,-0.00000290,-0.00002158,0.00000204,0.00007107,-0.0000
 6293,0.00000918,-0.00003029,0.00002481,-0.00000430,-0.00000964,-0.0000
 2967,0.00000232,0.00000097,-0.00000864,0.00000093,-0.00000435,-0.00000
 903,0.00000066,0.00000444,-0.00000747,0.00000113,0.00002823,-0.0000298
 4,0.00000399,-0.00016629,-0.00000679,-0.00001349,-0.00000269,0.0000061
 6,-0.00000078,0.00004409,-0.00003874,0.00000558,-0.00003214,0.00000626
 ,-0.00000202,-0.00001795,0.00000415,-0.00000110,0.00001619,-0.00000734
 ,0.00000177,-0.00002924,-0.00004651,0.00000286,-0.00000601,0.00005851,
 -0.00000672,0.00008756,-0.00004833,0.00000504,-0.00000805,0.00016346,0
 .00000044,-0.00002595,-0.00009552,0.00000993,0.00000252,0.00001767,-0.
 00000174,-0.00000654,-0.00001135,0.00000065,0.00035853,-0.00036567,0.0
 0004821,0.00065843,0.00011684,0.00005616,0.00000380,0.00001183,-0.0000
 0189,0.00455366,-0.00248010,0.00048622,-0.00147642,-0.00093043,0.00003
 543,0.00006703,0.00018949,-0.00005519,0.00014401,0.00000671,0.00001126
 ,-0.01487020,-0.02322260,0.00114859,0.00004208,-0.00001571,0.00000357,
 -0.00001603,-0.00000866,-0.00000047,-0.00001556,-0.00000135,-0.0000005
 6,0.00000780,-0.00000147,-0.00000213,0.00000775,-0.00000100,0.00000337
 ,-0.00002206,0.00000113,-0.00001420,-0.00001807,-0.00000334,0.00000592
 ,0.00000647,0.00000556,-0.00000301,0.00000652,0.00000215,-0.00000194,-
 0.00002361,0.00000340,0.00001114,0.00000641,0.00000259,0.00000239,0.00
 000623,0.00000612,0.00000270,-0.00001743,-0.00000453,-0.00000702,-0.00
 157088,0.00044596,-0.00078949,0.00020986,0.00047930,-0.00021738,0.0007
 6338,0.00072060,0.00052005,0.00011022,0.00001589,0.00000063,-0.0017090
 7,0.00040456,0.00054395,0.00088909,0.00061395,-0.00051850,0.00018494,0
 .00054583,0.00012921,0.00010055,-0.00000492,0.00000244,-0.12058563,-0.
 22175628,0.00926781,-0.00065251,-0.00119769,-0.00050380,0.00191581,0.0
 0289667,0.00052619,0.13101396,0.24366517,-0.00000021,-0.00000067,0.000
 00180,-0.00000045,0.00000098,-0.00000152,0.00000061,0.00000234,0.00000
 552,-0.00000684,0.00000546,-0.00000222,0.00000129,-0.00000237,-0.00000
 567,0.00000081,0.00000113,-0.00000081,-0.00000007,0.00000055,-0.000000
 14,0.00000025,0.00000052,0.00000024,-0.00000027,0.00000068,0.00000135,
 -0.00000152,0.00000181,-0.00000222,0.00002060,0.00000081,-0.00006015,0
 .00000022,-0.00000041,-0.00000066,-0.00000279,0.00000279,-0.00000094,0
 .00000179,-0.00000045,0.00000186,0.00000148,0.00000001,0.00000191,-0.0
 0000120,0.00000079,0.00000153,0.00000344,0.00000406,0.00000286,0.00000
 362,-0.00000802,-0.00000972,-0.00000812,-0.00000549,-0.00004740,0.0000
 1891,-0.00000614,0.00017774,-0.00000160,0.00001186,0.00002962,0.000000
 39,0.00000008,-0.00000429,0.00000053,0.00000038,-0.00000008,-0.0000429
 5,0.00003534,-0.00003537,-0.00013337,0.00002597,0.00035296,0.00000262,
 -0.00000175,-0.00001104,-0.00056734,0.00039016,0.00025638,0.00015371,0
 .00016546,0.00032408,0.00005158,-0.00008469,-0.00045906,-0.00001181,0.
 00000115,0.00004847,0.00189736,0.00279186,-0.00176131,-0.00000257,0.00
 000091,-0.00000103,0.00000136,0.00000030,-0.00000554,0.00000061,-0.000
 00006,0.00000156,-0.00000145,0.00000023,0.00000118,0.00000080,0.000000
 18,0.00000157,0.00000192,-0.00000079,-0.00000036,0.00000133,0.00000038
 ,-0.00000013,-0.00000053,-0.00000028,0.00000079,-0.00000083,-0.0000004
 5,0.00000070,0.00000105,0.00000044,-0.00000197,0.00000005,0.00000034,0
 .00000054,-0.00000030,-0.00000069,0.00000039,0.00000062,0.00000001,0.0
 0000065,0.00057941,0.00089999,0.00003181,0.00003543,-0.00025458,-0.000
 04762,-0.00048583,0.00003332,0.00011382,0.00004143,0.00010872,-0.00005
 274,-0.00019623,-0.00090218,-0.00000192,0.00031277,-0.00011168,0.00027
 130,-0.00003682,0.00013936,-0.00013823,-0.00006712,-0.00012521,-0.0000
 2707,0.00641307,0.00915111,-0.04744826,-0.01545252,-0.02316067,0.00197
 009,0.01415893,0.02159298,-0.00068848,-0.00668525,-0.01070587,0.047215
 24\\-0.00000481,0.00000339,-0.00000069,0.00000271,0.00000564,-0.000001
 11,0.00000864,-0.00001455,0.00000266,-0.00000719,0.00001217,0.00000130
 ,0.00000328,0.00000153,-0.00000191,0.00000197,-0.00000546,0.00000049,0
 .00000112,0.00000026,0.00000073,0.00000121,-0.00000041,0.00000012,-0.0
 0000077,-0.00000086,0.00000072,-0.00000628,0.00000033,-0.00000113,-0.0
 0000288,-0.00000219,-0.00000192,-0.00000029,0.00000047,-0.00000169,0.0
 0000387,-0.00000440,0.00000049,-0.00000064,0.00000587,-0.00000066,-0.0
 0000025,0.00000049,-0.00000173,-0.00000022,-0.00000126,0.00000010,-0.0
 0000848,0.00000972,-0.00000149,0.00000558,0.00000240,0.00000267,0.0000
 0790,-0.00001353,-0.00000037,-0.00000821,0.00001374,0.00000025,0.00000
 393,0.00000081,-0.00000089,0.00000680,-0.00000988,0.00000063,0.0000008
 3,-0.00000136,0.00000119,-0.00000479,-0.00000368,0.00000258,-0.0000023
 8,-0.00000292,-0.00000108,-0.00000045,-0.00000036,0.00000020,0.0000053
 4,-0.00001047,0.00000117,-0.00000431,0.00001204,-0.00000180,0.00000048
 ,0.00000036,0.00000019,0.00000070,-0.00000134,0.00000110,-0.00000024,0
 .00000279,0.00000221,-0.00000231,0.00000175,0.00000190,0.00000038,0.00
 000171,-0.00000102,-0.00000121,-0.00000058,0.00000069,0.00000012,-0.00
 000003,0.00000047,-0.00000013,-0.00000183,0.00000094,0.00000260,0.0000
 0439,-0.00000546,-0.00000261,-0.00000149,0.00000198,0.00000002,-0.0000
 0146,0.00000045,0.00000009,-0.00000020,0.00000020,0.00000032,-0.000001
 47,0.00000096,0.00000078,0.00000013,-0.00000031,-0.00000016,-0.0000002
 8,-0.00000048,-0.00000035,0.00000050,-0.00000049,-0.00000514,-0.000000
 05,-0.00000559,0.00000131,-0.00000043,0.00000057,0.00000259,0.00000155
 ,0.00000199,0.00000017,-0.00000019,0.00000025,0.00000097,-0.00000107,0
 .00000075,-0.00000029,0.00000048,-0.00000043,0.00000034,-0.00000026,-0
 .00000037,-0.00000047,-0.00000062,-0.00000035,-0.00000187,0.00000019,-
 0.00000103,0.00000171,-0.00000063,0.00000090,-0.00000011,-0.00000025,0
 .00000047,0.00000109,0.00000078,0.00000066\\\@


 ABSOLUTISM, OBSOLETISM -- IF IT WORKS, IT'S OUT OF DATE

                          -- STAFFORD BEER
 Job cpu time:       2 days 23 hours 26 minutes  5.9 seconds.
 File lengths (MBytes):  RWF=   6888 Int=      0 D2E=      0 Chk=     48 Scr=      1
 Normal termination of Gaussian 09 at Sat Mar 29 20:11:52 2025.
