	You are loading a legacy vmd module, please load an up to date module instead.


	 module load container_env vmd

	Please run vmd command with crun.vmd prepend to it:
	
	 crun.vmd vmd

	 
module: Command not found.
module: Command not found.
 Entering Gaussian System, Link 0=g09
 Initial command:
 /opt/gaussian/g09/l1.exe "/tmp/G09-fig16_4.com.o10726580.tmp/Gau-4038392.inp" -scrdir="/tmp/G09-fig16_4.com.o10726580.tmp/"
 Entering Link 1 = /opt/gaussian/g09/l1.exe PID=   4038393.
  
 Copyright (c) 1988,1990,1992,1993,1995,1998,2003,2009,2013,
            Gaussian, Inc.  All Rights Reserved.
  
 This is part of the Gaussian(R) 09 program.  It is based on
 the Gaussian(R) 03 system (copyright 2003, Gaussian, Inc.),
 the Gaussian(R) 98 system (copyright 1998, Gaussian, Inc.),
 the Gaussian(R) 94 system (copyright 1995, Gaussian, Inc.),
 the Gaussian 92(TM) system (copyright 1992, Gaussian, Inc.),
 the Gaussian 90(TM) system (copyright 1990, Gaussian, Inc.),
 the Gaussian 88(TM) system (copyright 1988, Gaussian, Inc.),
 the Gaussian 86(TM) system (copyright 1986, Carnegie Mellon
 University), and the Gaussian 82(TM) system (copyright 1983,
 Carnegie Mellon University). Gaussian is a federally registered
 trademark of Gaussian, Inc.
  
 This software contains proprietary and confidential information,
 including trade secrets, belonging to Gaussian, Inc.
  
 This software is provided under written license and may be
 used, copied, transmitted, or stored only in accord with that
 written license.
  
 The following legend is applicable only to US Government
 contracts under FAR:
  
                    RESTRICTED RIGHTS LEGEND
  
 Use, reproduction and disclosure by the US Government is
 subject to restrictions as set forth in subparagraphs (a)
 and (c) of the Commercial Computer Software - Restricted
 Rights clause in FAR 52.227-19.
  
 Gaussian, Inc.
 340 Quinnipiac St., Bldg. 40, Wallingford CT 06492
  
  
 ---------------------------------------------------------------
 Warning -- This program may not be used in any manner that
 competes with the business of Gaussian, Inc. or will provide
 assistance to any competitor of Gaussian, Inc.  The licensee
 of this program is prohibited from giving any competitor of
 Gaussian, Inc. access to this program.  By using this program,
 the user acknowledges that Gaussian, Inc. is engaged in the
 business of creating and licensing software in the field of
 computational chemistry and represents and warrants to the
 licensee that it is not a competitor of Gaussian, Inc. and that
 it will not use this program in any manner prohibited above.
 ---------------------------------------------------------------
  

 Cite this work as:
 Gaussian 09, Revision D.01,
 M. J. Frisch, G. W. Trucks, H. B. Schlegel, G. E. Scuseria, 
 M. A. Robb, J. R. Cheeseman, G. Scalmani, V. Barone, B. Mennucci, 
 G. A. Petersson, H. Nakatsuji, M. Caricato, X. Li, H. P. Hratchian, 
 A. F. Izmaylov, J. Bloino, G. Zheng, J. L. Sonnenberg, M. Hada, 
 M. Ehara, K. Toyota, R. Fukuda, J. Hasegawa, M. Ishida, T. Nakajima, 
 Y. Honda, O. Kitao, H. Nakai, T. Vreven, J. A. Montgomery, Jr., 
 J. E. Peralta, F. Ogliaro, M. Bearpark, J. J. Heyd, E. Brothers, 
 K. N. Kudin, V. N. Staroverov, T. Keith, R. Kobayashi, J. Normand, 
 K. Raghavachari, A. Rendell, J. C. Burant, S. S. Iyengar, J. Tomasi, 
 M. Cossi, N. Rega, J. M. Millam, M. Klene, J. E. Knox, J. B. Cross, 
 V. Bakken, C. Adamo, J. Jaramillo, R. Gomperts, R. E. Stratmann, 
 O. Yazyev, A. J. Austin, R. Cammi, C. Pomelli, J. W. Ochterski, 
 R. L. Martin, K. Morokuma, V. G. Zakrzewski, G. A. Voth, 
 P. Salvador, J. J. Dannenberg, S. Dapprich, A. D. Daniels, 
 O. Farkas, J. B. Foresman, J. V. Ortiz, J. Cioslowski, 
 and D. J. Fox, Gaussian, Inc., Wallingford CT, 2013.
 
 ******************************************
 Gaussian 09:  ES64L-G09RevD.01 24-Apr-2013
                29-Mar-2025 
 ******************************************
 %nprocshared=20
 Will use up to   20 processors via shared memory.
 %mem=4GB
 %chk=fig16_4.chk
 ----------------------------------------------------------------------
 # opt freq=noraman b3lyp/6-311+g(d,p) pop=(npa,hirshfeld,chelpg,mbs) g
 eom=connectivity
 ----------------------------------------------------------------------
 1/14=-1,18=20,19=15,26=3,38=1,57=2/1,3;
 2/9=110,12=2,17=6,18=5,40=1/2;
 3/5=4,6=6,7=111,11=2,16=1,25=1,30=1,71=1,74=-5/1,2,3;
 4//1;
 5/5=2,38=5/2;
 6/7=2,8=2,9=2,10=2,15=8,20=3,27=100,28=1,40=-1,79=1/1,2,7;
 7//1,2,3,16;
 1/14=-1,18=20,19=15,26=3/3(2);
 2/9=110/2;
 99//99;
 2/9=110/2;
 3/5=4,6=6,7=111,11=2,16=1,25=1,30=1,71=1,74=-5/1,2,3;
 4/5=5,16=3,69=1/1;
 5/5=2,38=5/2;
 7//1,2,3,16;
 1/14=-1,18=20,19=15,26=3/3(-5);
 2/9=110/2;
 6/7=2,8=2,9=2,10=2,15=8,19=2,20=3,27=100,28=1,40=-1,79=1/1,2,7;
 99/9=1/99;
 -------------------
 Title Card Required
 -------------------
 Symbolic Z-matrix:
 Charge =  0 Multiplicity = 1
 C                     0.37311  -1.7884   -0.13319 
 C                     1.60654  -1.74386  -0.68079 
 C                     2.05029  -0.28666  -0.67243 
 C                     1.04929   0.43202  -0.12041 
 N                     0.04268  -0.4781    0.47788 
 H                     2.16177  -2.57438  -1.06401 
 H                     2.97538   0.09742  -1.0487 
 H                     0.98902   1.50032  -0.11898 
 Si                   -1.7174    0.05974   0.14664 
 C                    -2.02119   1.80334   0.94113 
 H                    -1.34473   2.51319   0.51285 
 C                    -2.01315   0.16114  -1.76801 
 H                    -3.02027   0.46886  -1.95754 
 C                    -2.94385  -1.22729   0.92317 
 H                    -2.7763   -2.18896   0.48496 
 C                    -1.03959   1.18282  -2.38441 
 H                    -0.03247   0.87511  -2.19486 
 H                    -1.20268   1.23874  -3.44043 
 H                    -1.20717   2.14449  -1.94622 
 C                    -1.77197  -1.22292  -2.39873 
 H                    -1.93511  -1.16698  -3.45474 
 H                    -0.76484  -1.53064  -2.20923 
 H                    -2.44839  -1.93281  -1.97046 
 C                    -3.47067   2.24626   0.66833 
 H                    -4.14712   1.5364    1.09661 
 H                    -3.63822   3.20793   1.10651 
 H                    -3.63377   2.30218  -0.38769 
 C                    -1.78645   1.72286   2.46101 
 H                    -0.77935   1.41513   2.65057 
 H                    -1.95403   2.68454   2.8992 
 H                    -2.4629    1.01301   2.88929 
 C                    -4.39334  -0.78438   0.65041 
 H                    -4.55647  -0.72845  -0.4056 
 H                    -5.06978  -1.49423   1.0787 
 H                    -4.56088   0.17729   1.08861 
 C                    -2.70908  -1.3078    2.44304 
 H                    -3.38552  -2.01765   2.87131 
 H                    -1.70197  -1.61554   2.63256 
 H                    -2.87663  -0.34613   2.88125 
 C                    -0.5558   -3.01662  -0.14674 
 O                    -1.6914   -2.9526    0.39168 
 O                    -0.12795  -4.22986  -0.77115 
 C                    -1.26559  -4.93057  -1.28077 
 H                    -0.94548  -5.83839  -1.74796 
 H                    -1.9332   -5.15948  -0.47653 
 H                    -1.76935  -4.31813  -1.99914 
 

 GradGradGradGradGradGradGradGradGradGradGradGradGradGradGradGradGradGrad
 Berny optimization.
 Initialization pass.
                           ----------------------------
                           !    Initial Parameters    !
                           ! (Angstroms and Degrees)  !
 --------------------------                            --------------------------
 ! Name  Definition              Value          Derivative Info.                !
 --------------------------------------------------------------------------------
 ! R1    R(1,2)                  1.3503         estimate D2E/DX2                !
 ! R2    R(1,5)                  1.4831         estimate D2E/DX2                !
 ! R3    R(1,40)                 1.54           estimate D2E/DX2                !
 ! R4    R(2,3)                  1.5233         estimate D2E/DX2                !
 ! R5    R(2,6)                  1.07           estimate D2E/DX2                !
 ! R6    R(3,4)                  1.3503         estimate D2E/DX2                !
 ! R7    R(3,7)                  1.07           estimate D2E/DX2                !
 ! R8    R(4,5)                  1.4831         estimate D2E/DX2                !
 ! R9    R(4,8)                  1.07           estimate D2E/DX2                !
 ! R10   R(5,9)                  1.87           estimate D2E/DX2                !
 ! R11   R(9,10)                 1.94           estimate D2E/DX2                !
 ! R12   R(9,12)                 1.94           estimate D2E/DX2                !
 ! R13   R(9,14)                 1.94           estimate D2E/DX2                !
 ! R14   R(10,11)                1.07           estimate D2E/DX2                !
 ! R15   R(10,24)                1.54           estimate D2E/DX2                !
 ! R16   R(10,28)                1.54           estimate D2E/DX2                !
 ! R17   R(12,13)                1.07           estimate D2E/DX2                !
 ! R18   R(12,16)                1.54           estimate D2E/DX2                !
 ! R19   R(12,20)                1.54           estimate D2E/DX2                !
 ! R20   R(14,15)                1.07           estimate D2E/DX2                !
 ! R21   R(14,32)                1.54           estimate D2E/DX2                !
 ! R22   R(14,36)                1.54           estimate D2E/DX2                !
 ! R23   R(16,17)                1.07           estimate D2E/DX2                !
 ! R24   R(16,18)                1.07           estimate D2E/DX2                !
 ! R25   R(16,19)                1.07           estimate D2E/DX2                !
 ! R26   R(20,21)                1.07           estimate D2E/DX2                !
 ! R27   R(20,22)                1.07           estimate D2E/DX2                !
 ! R28   R(20,23)                1.07           estimate D2E/DX2                !
 ! R29   R(24,25)                1.07           estimate D2E/DX2                !
 ! R30   R(24,26)                1.07           estimate D2E/DX2                !
 ! R31   R(24,27)                1.07           estimate D2E/DX2                !
 ! R32   R(28,29)                1.07           estimate D2E/DX2                !
 ! R33   R(28,30)                1.07           estimate D2E/DX2                !
 ! R34   R(28,31)                1.07           estimate D2E/DX2                !
 ! R35   R(32,33)                1.07           estimate D2E/DX2                !
 ! R36   R(32,34)                1.07           estimate D2E/DX2                !
 ! R37   R(32,35)                1.07           estimate D2E/DX2                !
 ! R38   R(36,37)                1.07           estimate D2E/DX2                !
 ! R39   R(36,38)                1.07           estimate D2E/DX2                !
 ! R40   R(36,39)                1.07           estimate D2E/DX2                !
 ! R41   R(40,41)                1.2584         estimate D2E/DX2                !
 ! R42   R(40,42)                1.43           estimate D2E/DX2                !
 ! R43   R(42,43)                1.43           estimate D2E/DX2                !
 ! R44   R(43,44)                1.07           estimate D2E/DX2                !
 ! R45   R(43,45)                1.07           estimate D2E/DX2                !
 ! R46   R(43,46)                1.07           estimate D2E/DX2                !
 ! A1    A(2,1,5)              109.9672         estimate D2E/DX2                !
 ! A2    A(2,1,40)             125.0114         estimate D2E/DX2                !
 ! A3    A(5,1,40)             125.0209         estimate D2E/DX2                !
 ! A4    A(1,2,3)              107.1834         estimate D2E/DX2                !
 ! A5    A(1,2,6)              126.4167         estimate D2E/DX2                !
 ! A6    A(3,2,6)              126.3926         estimate D2E/DX2                !
 ! A7    A(2,3,4)              107.1844         estimate D2E/DX2                !
 ! A8    A(2,3,7)              126.3921         estimate D2E/DX2                !
 ! A9    A(4,3,7)              126.4163         estimate D2E/DX2                !
 ! A10   A(3,4,5)              109.9659         estimate D2E/DX2                !
 ! A11   A(3,4,8)              125.0093         estimate D2E/DX2                !
 ! A12   A(5,4,8)              125.0242         estimate D2E/DX2                !
 ! A13   A(1,5,4)              102.9876         estimate D2E/DX2                !
 ! A14   A(1,5,9)              113.0062         estimate D2E/DX2                !
 ! A15   A(4,5,9)              113.0089         estimate D2E/DX2                !
 ! A16   A(5,9,10)             109.4718         estimate D2E/DX2                !
 ! A17   A(5,9,12)             109.4713         estimate D2E/DX2                !
 ! A18   A(5,9,14)             109.4704         estimate D2E/DX2                !
 ! A19   A(10,9,12)            109.471          estimate D2E/DX2                !
 ! A20   A(10,9,14)            109.4713         estimate D2E/DX2                !
 ! A21   A(12,9,14)            109.4715         estimate D2E/DX2                !
 ! A22   A(9,10,11)            109.4711         estimate D2E/DX2                !
 ! A23   A(9,10,24)            109.471          estimate D2E/DX2                !
 ! A24   A(9,10,28)            109.4718         estimate D2E/DX2                !
 ! A25   A(11,10,24)           109.4713         estimate D2E/DX2                !
 ! A26   A(11,10,28)           109.4713         estimate D2E/DX2                !
 ! A27   A(24,10,28)           109.4708         estimate D2E/DX2                !
 ! A28   A(9,12,13)            109.471          estimate D2E/DX2                !
 ! A29   A(9,12,16)            109.471          estimate D2E/DX2                !
 ! A30   A(9,12,20)            109.4726         estimate D2E/DX2                !
 ! A31   A(13,12,16)           109.4715         estimate D2E/DX2                !
 ! A32   A(13,12,20)           109.4709         estimate D2E/DX2                !
 ! A33   A(16,12,20)           109.4704         estimate D2E/DX2                !
 ! A34   A(9,14,15)            109.4709         estimate D2E/DX2                !
 ! A35   A(9,14,32)            109.4714         estimate D2E/DX2                !
 ! A36   A(9,14,36)            109.4717         estimate D2E/DX2                !
 ! A37   A(15,14,32)           109.4713         estimate D2E/DX2                !
 ! A38   A(15,14,36)           109.471          estimate D2E/DX2                !
 ! A39   A(32,14,36)           109.4709         estimate D2E/DX2                !
 ! A40   A(12,16,17)           109.4712         estimate D2E/DX2                !
 ! A41   A(12,16,18)           109.4713         estimate D2E/DX2                !
 ! A42   A(12,16,19)           109.4712         estimate D2E/DX2                !
 ! A43   A(17,16,18)           109.4712         estimate D2E/DX2                !
 ! A44   A(17,16,19)           109.4714         estimate D2E/DX2                !
 ! A45   A(18,16,19)           109.4711         estimate D2E/DX2                !
 ! A46   A(12,20,21)           109.4712         estimate D2E/DX2                !
 ! A47   A(12,20,22)           109.4713         estimate D2E/DX2                !
 ! A48   A(12,20,23)           109.4714         estimate D2E/DX2                !
 ! A49   A(21,20,22)           109.4709         estimate D2E/DX2                !
 ! A50   A(21,20,23)           109.4708         estimate D2E/DX2                !
 ! A51   A(22,20,23)           109.4717         estimate D2E/DX2                !
 ! A52   A(10,24,25)           109.4711         estimate D2E/DX2                !
 ! A53   A(10,24,26)           109.4714         estimate D2E/DX2                !
 ! A54   A(10,24,27)           109.4712         estimate D2E/DX2                !
 ! A55   A(25,24,26)           109.4712         estimate D2E/DX2                !
 ! A56   A(25,24,27)           109.4715         estimate D2E/DX2                !
 ! A57   A(26,24,27)           109.4709         estimate D2E/DX2                !
 ! A58   A(10,28,29)           109.4715         estimate D2E/DX2                !
 ! A59   A(10,28,30)           109.4709         estimate D2E/DX2                !
 ! A60   A(10,28,31)           109.4713         estimate D2E/DX2                !
 ! A61   A(29,28,30)           109.4714         estimate D2E/DX2                !
 ! A62   A(29,28,31)           109.4708         estimate D2E/DX2                !
 ! A63   A(30,28,31)           109.4714         estimate D2E/DX2                !
 ! A64   A(14,32,33)           109.4712         estimate D2E/DX2                !
 ! A65   A(14,32,34)           109.4714         estimate D2E/DX2                !
 ! A66   A(14,32,35)           109.4711         estimate D2E/DX2                !
 ! A67   A(33,32,34)           109.4713         estimate D2E/DX2                !
 ! A68   A(33,32,35)           109.4712         estimate D2E/DX2                !
 ! A69   A(34,32,35)           109.4712         estimate D2E/DX2                !
 ! A70   A(14,36,37)           109.4711         estimate D2E/DX2                !
 ! A71   A(14,36,38)           109.4713         estimate D2E/DX2                !
 ! A72   A(14,36,39)           109.4712         estimate D2E/DX2                !
 ! A73   A(37,36,38)           109.4712         estimate D2E/DX2                !
 ! A74   A(37,36,39)           109.4712         estimate D2E/DX2                !
 ! A75   A(38,36,39)           109.4714         estimate D2E/DX2                !
 ! A76   A(1,40,41)            119.9991         estimate D2E/DX2                !
 ! A77   A(1,40,42)            120.0017         estimate D2E/DX2                !
 ! A78   A(41,40,42)           119.9992         estimate D2E/DX2                !
 ! A79   A(40,42,43)           109.4701         estimate D2E/DX2                !
 ! A80   A(42,43,44)           109.4713         estimate D2E/DX2                !
 ! A81   A(42,43,45)           109.4711         estimate D2E/DX2                !
 ! A82   A(42,43,46)           109.4718         estimate D2E/DX2                !
 ! A83   A(44,43,45)           109.4712         estimate D2E/DX2                !
 ! A84   A(44,43,46)           109.471          estimate D2E/DX2                !
 ! A85   A(45,43,46)           109.4709         estimate D2E/DX2                !
 ! D1    D(5,1,2,3)            -10.3164         estimate D2E/DX2                !
 ! D2    D(5,1,2,6)            170.6172         estimate D2E/DX2                !
 ! D3    D(40,1,2,3)           169.4322         estimate D2E/DX2                !
 ! D4    D(40,1,2,6)            -9.6342         estimate D2E/DX2                !
 ! D5    D(2,1,5,4)             15.9485         estimate D2E/DX2                !
 ! D6    D(2,1,5,9)            138.2062         estimate D2E/DX2                !
 ! D7    D(40,1,5,4)          -163.8001         estimate D2E/DX2                !
 ! D8    D(40,1,5,9)           -41.5424         estimate D2E/DX2                !
 ! D9    D(2,1,40,41)         -179.8549         estimate D2E/DX2                !
 ! D10   D(2,1,40,42)            0.1453         estimate D2E/DX2                !
 ! D11   D(5,1,40,41)           -0.1434         estimate D2E/DX2                !
 ! D12   D(5,1,40,42)          179.8568         estimate D2E/DX2                !
 ! D13   D(1,2,3,4)              0.0016         estimate D2E/DX2                !
 ! D14   D(1,2,3,7)           -179.065          estimate D2E/DX2                !
 ! D15   D(6,2,3,4)            179.0683         estimate D2E/DX2                !
 ! D16   D(6,2,3,7)              0.0017         estimate D2E/DX2                !
 ! D17   D(2,3,4,5)             10.3136         estimate D2E/DX2                !
 ! D18   D(2,3,4,8)           -169.4195         estimate D2E/DX2                !
 ! D19   D(7,3,4,5)           -170.62           estimate D2E/DX2                !
 ! D20   D(7,3,4,8)              9.6469         estimate D2E/DX2                !
 ! D21   D(3,4,5,1)            -15.9472         estimate D2E/DX2                !
 ! D22   D(3,4,5,9)           -138.2031         estimate D2E/DX2                !
 ! D23   D(8,4,5,1)            163.7859         estimate D2E/DX2                !
 ! D24   D(8,4,5,9)             41.5299         estimate D2E/DX2                !
 ! D25   D(1,5,9,10)          -178.2404         estimate D2E/DX2                !
 ! D26   D(1,5,9,12)           -58.2403         estimate D2E/DX2                !
 ! D27   D(1,5,9,14)            61.7596         estimate D2E/DX2                !
 ! D28   D(4,5,9,10)           -61.7804         estimate D2E/DX2                !
 ! D29   D(4,5,9,12)            58.2198         estimate D2E/DX2                !
 ! D30   D(4,5,9,14)           178.2197         estimate D2E/DX2                !
 ! D31   D(5,9,10,11)           59.9996         estimate D2E/DX2                !
 ! D32   D(5,9,10,24)          179.9995         estimate D2E/DX2                !
 ! D33   D(5,9,10,28)          -60.0008         estimate D2E/DX2                !
 ! D34   D(12,9,10,11)         -60.0007         estimate D2E/DX2                !
 ! D35   D(12,9,10,24)          59.9992         estimate D2E/DX2                !
 ! D36   D(12,9,10,28)         179.9988         estimate D2E/DX2                !
 ! D37   D(14,9,10,11)         179.999          estimate D2E/DX2                !
 ! D38   D(14,9,10,24)         -60.0011         estimate D2E/DX2                !
 ! D39   D(14,9,10,28)          59.9986         estimate D2E/DX2                !
 ! D40   D(5,9,12,13)          179.9982         estimate D2E/DX2                !
 ! D41   D(5,9,12,16)          -60.0017         estimate D2E/DX2                !
 ! D42   D(5,9,12,20)           59.9979         estimate D2E/DX2                !
 ! D43   D(10,9,12,13)         -60.0012         estimate D2E/DX2                !
 ! D44   D(10,9,12,16)          59.9989         estimate D2E/DX2                !
 ! D45   D(10,9,12,20)         179.9985         estimate D2E/DX2                !
 ! D46   D(14,9,12,13)          59.999          estimate D2E/DX2                !
 ! D47   D(14,9,12,16)         179.999          estimate D2E/DX2                !
 ! D48   D(14,9,12,20)         -60.0013         estimate D2E/DX2                !
 ! D49   D(5,9,14,15)          -60.0004         estimate D2E/DX2                !
 ! D50   D(5,9,14,32)          179.9995         estimate D2E/DX2                !
 ! D51   D(5,9,14,36)           59.9995         estimate D2E/DX2                !
 ! D52   D(10,9,14,15)         179.9994         estimate D2E/DX2                !
 ! D53   D(10,9,14,32)          59.9993         estimate D2E/DX2                !
 ! D54   D(10,9,14,36)         -60.0008         estimate D2E/DX2                !
 ! D55   D(12,9,14,15)          59.9994         estimate D2E/DX2                !
 ! D56   D(12,9,14,32)         -60.0007         estimate D2E/DX2                !
 ! D57   D(12,9,14,36)         179.9993         estimate D2E/DX2                !
 ! D58   D(9,10,24,25)          60.0004         estimate D2E/DX2                !
 ! D59   D(9,10,24,26)        -179.9996         estimate D2E/DX2                !
 ! D60   D(9,10,24,27)         -59.9999         estimate D2E/DX2                !
 ! D61   D(11,10,24,25)       -179.9998         estimate D2E/DX2                !
 ! D62   D(11,10,24,26)        -59.9998         estimate D2E/DX2                !
 ! D63   D(11,10,24,27)         59.9999         estimate D2E/DX2                !
 ! D64   D(28,10,24,25)        -59.9999         estimate D2E/DX2                !
 ! D65   D(28,10,24,26)         60.0001         estimate D2E/DX2                !
 ! D66   D(28,10,24,27)        179.9998         estimate D2E/DX2                !
 ! D67   D(9,10,28,29)          60.0007         estimate D2E/DX2                !
 ! D68   D(9,10,28,30)        -179.9991         estimate D2E/DX2                !
 ! D69   D(9,10,28,31)         -59.999          estimate D2E/DX2                !
 ! D70   D(11,10,28,29)        -59.9996         estimate D2E/DX2                !
 ! D71   D(11,10,28,30)         60.0006         estimate D2E/DX2                !
 ! D72   D(11,10,28,31)       -179.9993         estimate D2E/DX2                !
 ! D73   D(24,10,28,29)       -179.9995         estimate D2E/DX2                !
 ! D74   D(24,10,28,30)        -59.9993         estimate D2E/DX2                !
 ! D75   D(24,10,28,31)         60.0008         estimate D2E/DX2                !
 ! D76   D(9,12,16,17)          59.9987         estimate D2E/DX2                !
 ! D77   D(9,12,16,18)         179.9987         estimate D2E/DX2                !
 ! D78   D(9,12,16,19)         -60.0014         estimate D2E/DX2                !
 ! D79   D(13,12,16,17)        179.9984         estimate D2E/DX2                !
 ! D80   D(13,12,16,18)        -60.0016         estimate D2E/DX2                !
 ! D81   D(13,12,16,19)         59.9983         estimate D2E/DX2                !
 ! D82   D(20,12,16,17)        -60.0023         estimate D2E/DX2                !
 ! D83   D(20,12,16,18)         59.9977         estimate D2E/DX2                !
 ! D84   D(20,12,16,19)        179.9976         estimate D2E/DX2                !
 ! D85   D(9,12,20,21)         179.9992         estimate D2E/DX2                !
 ! D86   D(9,12,20,22)         -60.0011         estimate D2E/DX2                !
 ! D87   D(9,12,20,23)          59.9996         estimate D2E/DX2                !
 ! D88   D(13,12,20,21)         59.9988         estimate D2E/DX2                !
 ! D89   D(13,12,20,22)        179.9985         estimate D2E/DX2                !
 ! D90   D(13,12,20,23)        -60.0007         estimate D2E/DX2                !
 ! D91   D(16,12,20,21)        -60.0008         estimate D2E/DX2                !
 ! D92   D(16,12,20,22)         59.9989         estimate D2E/DX2                !
 ! D93   D(16,12,20,23)        179.9996         estimate D2E/DX2                !
 ! D94   D(9,14,32,33)          60.0            estimate D2E/DX2                !
 ! D95   D(9,14,32,34)        -179.9998         estimate D2E/DX2                !
 ! D96   D(9,14,32,35)         -59.9998         estimate D2E/DX2                !
 ! D97   D(15,14,32,33)        -59.9997         estimate D2E/DX2                !
 ! D98   D(15,14,32,34)         60.0004         estimate D2E/DX2                !
 ! D99   D(15,14,32,35)       -179.9996         estimate D2E/DX2                !
 ! D100  D(36,14,32,33)       -179.9994         estimate D2E/DX2                !
 ! D101  D(36,14,32,34)        -59.9992         estimate D2E/DX2                !
 ! D102  D(36,14,32,35)         60.0007         estimate D2E/DX2                !
 ! D103  D(9,14,36,37)        -180.0            estimate D2E/DX2                !
 ! D104  D(9,14,36,38)         -60.0001         estimate D2E/DX2                !
 ! D105  D(9,14,36,39)          60.0001         estimate D2E/DX2                !
 ! D106  D(15,14,36,37)        -60.0002         estimate D2E/DX2                !
 ! D107  D(15,14,36,38)         59.9997         estimate D2E/DX2                !
 ! D108  D(15,14,36,39)        179.9999         estimate D2E/DX2                !
 ! D109  D(32,14,36,37)         59.9997         estimate D2E/DX2                !
 ! D110  D(32,14,36,38)        179.9995         estimate D2E/DX2                !
 ! D111  D(32,14,36,39)        -60.0002         estimate D2E/DX2                !
 ! D112  D(1,40,42,43)        -150.0053         estimate D2E/DX2                !
 ! D113  D(41,40,42,43)         29.9948         estimate D2E/DX2                !
 ! D114  D(40,42,43,44)       -179.998          estimate D2E/DX2                !
 ! D115  D(40,42,43,45)        -59.9981         estimate D2E/DX2                !
 ! D116  D(40,42,43,46)         60.0018         estimate D2E/DX2                !
 --------------------------------------------------------------------------------
 Trust Radius=3.00D-01 FncErr=1.00D-07 GrdErr=1.00D-06
 Number of steps in this run=    257 maximum allowed number of steps=    276.
 GradGradGradGradGradGradGradGradGradGradGradGradGradGradGradGradGradGrad

                          Input orientation:                          
 ---------------------------------------------------------------------
 Center     Atomic      Atomic             Coordinates (Angstroms)
 Number     Number       Type             X           Y           Z
 ---------------------------------------------------------------------
      1          6           0        0.373111   -1.788402   -0.133189
      2          6           0        1.606540   -1.743863   -0.680792
      3          6           0        2.050288   -0.286664   -0.672429
      4          6           0        1.049291    0.432018   -0.120411
      5          7           0        0.042684   -0.478099    0.477884
      6          1           0        2.161768   -2.574383   -1.064014
      7          1           0        2.975378    0.097415   -1.048703
      8          1           0        0.989020    1.500321   -0.118984
      9         14           0       -1.717402    0.059744    0.146644
     10          6           0       -2.021187    1.803340    0.941132
     11          1           0       -1.344731    2.513189    0.512854
     12          6           0       -2.013146    0.161141   -1.768012
     13          1           0       -3.020267    0.468861   -1.957539
     14          6           0       -2.943852   -1.227288    0.923169
     15          1           0       -2.776302   -2.188957    0.484960
     16          6           0       -1.039586    1.182823   -2.384411
     17          1           0       -0.032468    0.875112   -2.194858
     18          1           0       -1.202682    1.238735   -3.440429
     19          1           0       -1.207174    2.144491   -1.946225
     20          6           0       -1.771971   -1.222924   -2.398729
     21          1           0       -1.935105   -1.166977   -3.454736
     22          1           0       -0.764842   -1.530641   -2.209228
     23          1           0       -2.448394   -1.932809   -1.970458
     24          6           0       -3.470667    2.246257    0.668326
     25          1           0       -4.147123    1.536403    1.096610
     26          1           0       -3.638222    3.207926    1.106510
     27          1           0       -3.633767    2.302177   -0.387693
     28          6           0       -1.786455    1.722864    2.461011
     29          1           0       -0.779349    1.415133    2.650572
     30          1           0       -1.954025    2.684541    2.899196
     31          1           0       -2.462901    1.013007    2.889286
     32          6           0       -4.393343   -0.784375    0.650408
     33          1           0       -4.556472   -0.728447   -0.405602
     34          1           0       -5.069784   -1.494228    1.078699
     35          1           0       -4.560884    0.177291    1.088610
     36          6           0       -2.709080   -1.307795    2.443037
     37          1           0       -3.385523   -2.017651    2.871313
     38          1           0       -1.701966   -1.615543    2.632560
     39          1           0       -2.876627   -0.346129    2.881249
     40          6           0       -0.555803   -3.016623   -0.146743
     41          8           0       -1.691397   -2.952602    0.391682
     42          8           0       -0.127955   -4.229860   -0.771153
     43          6           0       -1.265595   -4.930566   -1.280774
     44          1           0       -0.945481   -5.838394   -1.747964
     45          1           0       -1.933196   -5.159476   -0.476534
     46          1           0       -1.769350   -4.318132   -1.999143
 ---------------------------------------------------------------------
                    Distance matrix (angstroms):
                    1          2          3          4          5
     1  C    0.000000
     2  C    1.350259   0.000000
     3  C    2.314933   1.523290   0.000000
     4  C    2.321131   2.314955   1.350268   0.000000
     5  N    1.483066   2.321709   2.321711   1.483081   0.000000
     6  H    2.164138   1.070000   2.323666   3.341623   3.355946
     7  H    3.341596   2.323658   1.069996   2.164138   3.355947
     8  H    3.345930   3.349880   2.150792   1.070003   2.272873
     9  Si   2.804317   3.871207   3.871223   2.804372   1.870000
    10  C    4.448307   5.326696   4.852690   3.526363   3.111130
    11  H    4.676755   5.315759   4.557437   3.234755   3.297568
    12  C    3.488207   4.232401   4.232296   3.488049   3.111128
    13  H    4.465255   5.285222   5.285154   4.465165   4.026126
    14  C    3.526045   4.852382   5.326551   4.448321   3.111103
    15  H    3.234403   4.557016   5.315472   4.676661   3.297540
    16  C    3.986463   4.297650   3.825911   3.170617   3.481768
    17  H    3.392533   3.440607   2.829379   2.381147   2.996728
    18  H    4.752317   4.939961   4.535470   4.092028   4.455518
    19  H    4.609994   4.963628   4.259593   3.370132   3.783706
    20  C    3.170775   3.825836   4.297250   3.986112   3.481759
    21  H    4.092274   4.535506   4.939590   4.751961   4.455526
    22  H    2.381452   2.829316   3.440085   3.392088   2.996750
    23  H    3.370059   4.259275   4.963145   4.609651   3.783653
    24  C    5.629878   6.596909   6.220471   4.933923   4.449946
    25  H    5.744498   6.857401   6.697834   5.450095   4.689939
    26  H    6.526174   7.431164   6.909120   5.584244   5.247002
    27  H    5.731726   6.627003   6.252332   5.049749   4.689931
    28  C    4.870584   5.779407   5.345769   4.046169   3.481779
    29  H    4.397741   5.173945   4.684580   3.462483   2.996771
    30  H    5.883718   6.716004   6.133440   4.817862   4.455546
    31  H    5.002621   6.075043   5.894390   4.661687   3.783678
    32  C    4.933678   6.220233   6.596817   5.629924   4.449933
    33  H    5.049604   6.252161   6.626888   5.731718   4.689932
    34  H    5.583935   6.908794   7.431022   6.526207   5.246983
    35  H    5.449867   6.697667   6.857413   5.744623   4.689922
    36  C    4.045717   5.345376   5.779310   4.870685   3.481728
    37  H    4.817356   6.132952   6.715837   5.883780   4.455483
    38  H    3.461964   4.684121   5.173807   4.397815   2.996700
    39  H    4.661308   5.894115   6.075085   5.002831   3.783644
    40  C    1.539998   2.565317   3.810608   3.803965   2.681874
    41  O    2.427560   3.672552   4.715905   4.385119   3.022852
    42  O    2.572699   3.032625   4.505916   4.852059   3.957893
    43  C    3.724984   4.331767   5.738552   5.955036   4.962754
    44  H    4.555065   4.941340   6.399462   6.778356   5.887582
    45  H    4.098912   4.923196   6.296889   6.347193   5.170136
    46  H    3.804137   4.445395   5.709863   5.834235   4.915789
                    6          7          8          9         10
     6  H    0.000000
     7  H    2.792974   0.000000
     8  H    4.344150   2.603486   0.000000
     9  Si   4.842755   4.842774   3.077425   0.000000
    10  C    6.378259   5.642277   3.205778   1.940006   0.000000
    11  H    6.376946   5.190161   2.621358   2.508463   1.070000
    12  C    5.040696   5.040520   3.677731   1.940014   3.168019
    13  H    6.075624   6.075501   4.529743   2.508469   3.343843
    14  C    5.641890   6.378120   4.898309   1.940006   3.168018
    15  H    5.189645   6.376633   5.305957   2.508463   4.088610
    16  C    5.109669   4.368314   3.057484   2.850786   3.522473
    17  H    4.241756   3.311438   2.396576   2.997743   3.827668
    18  H    5.613087   4.947641   3.987980   3.810781   4.492973
    19  H    5.864797   4.742342   2.928657   2.997767   3.019243
    20  C    4.368318   5.109128   4.498486   2.850814   4.513874
    21  H    4.947799   5.612534   5.176122   3.810798   5.306020
    22  H    3.311488   4.241065   4.078220   2.997804   4.755901
    23  H    4.742030   5.864192   5.199053   2.997789   4.755909
    24  C    7.613403   7.008367   4.589672   2.850777   1.539997
    25  H    7.833835   7.576482   5.278157   2.997750   2.148263
    26  H    8.472672   7.619707   5.082236   3.810767   2.148259
    27  H    7.604372   6.998479   4.699504   2.997745   2.148261
    28  C    6.817669   6.134756   3.795941   2.850795   1.540003
    29  H    6.193913   5.433138   3.287070   2.997779   2.148267
    30  H    7.765505   6.824818   4.378733   3.810786   2.148265
    31  H    7.062968   6.776500   4.604664   2.997760   2.148265
    32  C    7.008056   7.613316   5.897596   2.850785   3.522487
    33  H    6.998266   7.604235   5.983481   2.997755   3.827702
    34  H    7.619272   8.472533   6.863737   3.810777   4.492975
    35  H    7.576250   7.833884   5.831821   2.997751   3.019247
    36  C    6.134233   6.817619   5.303340   2.850791   3.522510
    37  H    6.824162   7.765378   6.360396   3.810776   4.492992
    38  H    5.432539   6.193826   4.951870   2.997766   3.827739
    39  H    6.776109   7.063089   5.230106   2.997766   3.019279
    40  C    2.902095   4.793747   4.773891   3.301427   5.153917
    41  O    4.136301   5.758134   5.222446   3.022407   4.798921
    42  O    2.840634   5.332262   5.874345   4.665768   6.551011
    43  C    4.164780   6.581816   6.912985   5.210071   7.131148
    44  H    4.558130   7.148142   7.762256   6.242870   8.172177
    45  H    4.878172   7.215011   7.281490   5.260720   7.106217
    46  H    4.401002   6.550789   6.708055   4.875746   6.795665
                   11         12         13         14         15
    11  H    0.000000
    12  C    3.343839   0.000000
    13  H    3.617946   1.070002   0.000000
    14  C    4.088608   3.168028   3.343836   0.000000
    15  H    4.915319   3.343837   3.617916   1.070004   0.000000
    16  C    3.202676   1.540001   2.148268   4.513862   4.755878
    17  H    3.425936   2.148265   3.024616   4.755875   4.909030
    18  H    4.156063   2.148265   2.468863   5.306028   5.443715
    19  H    2.490367   2.148262   2.468840   4.755878   5.210720
    20  C    4.755880   1.540002   2.148262   3.522547   3.202743
    21  H    5.443706   2.148261   2.468834   4.493024   4.156111
    22  H    4.909028   2.148269   3.024615   3.827796   3.426077
    23  H    5.210740   2.148267   2.468851   3.019324   2.490424
    24  C    2.148262   3.522473   3.202680   3.522498   4.492982
    25  H    3.024613   3.827696   3.425970   3.019260   4.016413
    26  H    2.468843   4.492955   4.156048   4.492982   5.500507
    27  H    2.468844   3.019226   2.490351   3.827723   4.654789
    28  C    2.148267   4.513868   4.755881   3.522488   4.492986
    29  H    2.468851   4.755905   5.210741   3.827713   4.654800
    30  H    2.468852   5.306022   5.443710   4.492977   5.500515
    31  H    3.024612   4.755878   4.909019   3.019247   4.016415
    32  C    4.492981   3.522512   3.202706   1.539998   2.148265
    33  H    4.654787   3.019276   2.490377   2.148259   2.468845
    34  H    5.500509   4.493000   4.156078   2.148263   2.468853
    35  H    4.016411   3.827730   3.426010   2.148256   3.024609
    36  C    4.492992   4.513871   4.755882   1.539999   2.148263
    37  H    5.500515   5.306023   5.443708   2.148257   2.468841
    38  H    4.654804   4.755888   5.210726   2.148264   2.468844
    39  H    4.016429   4.755896   4.909044   2.148264   3.024614
    40  C    5.624615   3.853640   4.636935   3.170049   2.452488
    41  O    5.478114   3.803050   4.357882   2.197232   1.329990
    42  O    6.971221   4.881451   5.643665   4.451454   3.571673
    43  C    7.657209   5.169305   5.717578   4.624736   3.593949
    44  H    8.661388   6.093827   6.643051   5.691286   4.653627
    45  H    7.758542   5.475698   5.920581   4.294496   3.234081
    46  H    7.290911   4.491853   4.947911   4.412786   3.423172
                   16         17         18         19         20
    16  C    0.000000
    17  H    1.070002   0.000000
    18  H    1.070001   1.747304   0.000000
    19  H    1.070000   1.747306   1.747301   0.000000
    20  C    2.514798   2.732982   2.732946   3.444306   0.000000
    21  H    2.732968   3.062263   2.514777   3.710973   1.069997
    22  H    2.732958   2.514801   3.062189   3.710987   1.070004
    23  H    3.444308   3.710994   3.710971   4.262111   1.070001
    24  C    4.044780   4.679645   4.800075   3.459716   4.932303
    25  H    4.679670   5.310504   5.416924   4.274566   5.047042
    26  H    4.800050   5.416873   5.521252   4.044759   5.949960
    27  H    3.459713   4.274543   4.044785   2.888294   4.465075
    28  C    4.932299   5.047006   5.949973   4.465094   5.682865
    29  H    5.047053   4.932306   6.108242   4.673921   5.782740
    30  H    5.568470   5.737229   6.545664   4.932296   6.585548
    31  H    5.465029   5.636891   6.457895   5.122428   5.782723
    32  C    4.932309   5.465040   5.568504   5.047022   4.044892
    33  H    4.465100   5.122446   4.932331   4.673873   3.459842
    34  H    5.949978   6.457903   6.545693   6.108208   4.800176
    35  H    5.047030   5.636903   5.737281   4.932289   4.679763
    36  C    5.682838   5.782682   6.585532   5.782700   4.932350
    37  H    6.585521   6.728829   7.430136   6.728841   5.568526
    38  H    5.782698   5.682830   6.728847   5.945414   5.047071
    39  H    5.782697   5.945379   6.728856   5.682848   5.465090
    40  C    4.782944   4.428799   5.419861   5.504500   3.125358
    41  O    5.023274   4.908526   5.700107   5.628555   3.284002
    42  O    5.721084   5.300641   6.179450   6.570986   3.793871
    43  C    6.216319   6.005169   6.536692   7.106523   3.905490
    44  H    7.050631   6.790027   7.281232   7.989634   4.733829
    45  H    6.683060   6.556040   7.089106   7.485656   4.383751
    46  H    5.562508   5.479494   5.768638   6.487245   3.120895
                   21         22         23         24         25
    21  H    0.000000
    22  H    1.747301   0.000000
    23  H    1.747296   1.747312   0.000000
    24  C    5.568461   5.465049   5.047060   0.000000
    25  H    5.737250   5.636945   4.932344   1.070006   0.000000
    26  H    6.545636   6.457898   6.108239   1.069994   1.747303
    27  H    4.932265   5.122423   4.673903   1.070001   1.747312
    28  C    6.585541   5.782743   5.782735   2.514803   2.732968
    29  H    6.728882   5.682908   5.945447   3.444309   3.710985
    30  H    7.430142   6.728886   6.728882   2.732962   3.062224
    31  H    6.728857   5.945452   5.682883   2.732977   2.514804
    32  C    4.800158   4.679791   3.459865   3.168024   2.376075
    33  H    4.044884   4.274697   2.888469   3.343823   2.748409
    34  H    5.521353   5.417040   4.044923   4.088620   3.168020
    35  H    5.416989   5.310622   4.274697   2.376096   1.420721
    36  C    5.950008   5.047107   4.465147   4.044861   3.459812
    37  H    6.545705   5.737337   4.932358   4.800136   4.044861
    38  H    6.108252   4.932375   4.673926   4.679745   4.274658
    39  H    6.457938   5.636991   5.122499   3.459823   2.888429
    40  C    4.033173   2.550624   2.842972   6.071134   5.930730
    41  O    4.247679   3.105673   2.681925   5.501860   5.165141
    42  O    4.455183   3.124014   3.478392   7.428722   7.272691
    43  C    4.397608   3.559814   3.295637   7.756811   7.468390
    44  H    5.070952   4.336142   4.190685   8.807758   8.528174
    45  H    4.980937   4.187568   3.592856   7.649797   7.225722
    46  H    3.475054   2.970401   2.480260   7.287048   7.036552
                   26         27         28         29         30
    26  H    0.000000
    27  H    1.747295   0.000000
    28  C    2.732970   3.444311   0.000000
    29  H    3.710983   4.262112   1.069997   0.000000
    30  H    2.514792   3.710980   1.070004   1.747305   0.000000
    31  H    3.062244   3.710994   1.069998   1.747294   1.747305
    32  C    4.088606   3.343862   4.044799   4.679684   4.800072
    33  H    4.315634   3.168026   4.679679   5.310536   5.416909
    34  H    4.915323   4.315686   4.800075   5.416918   5.521257
    35  H    3.168024   2.748484   3.459731   4.274575   4.044779
    36  C    4.800141   4.679741   3.168037   3.343841   4.088635
    37  H    5.521326   5.416978   4.088620   4.315654   4.915340
    38  H    5.416989   5.310584   3.343879   3.168050   4.315709
    39  H    4.044877   4.274665   2.376090   2.748423   3.168039
    40  C    7.058113   6.149923   5.547758   5.245513   6.613323
    41  O    6.500247   5.656229   5.113819   5.001152   6.175272
    42  O    8.436128   7.423292   6.973695   6.633133   8.038341
    43  C    8.807016   7.662794   7.651169   7.480629   8.714123
    44  H    9.860770   8.680214   8.694558   8.484596   9.759799
    45  H    8.684847   7.653503   7.484471   7.371271   8.539590
    46  H    8.353401   7.064086   7.509121   7.447837   8.547822
                   31         32         33         34         35
    31  H    0.000000
    32  C    3.459735   0.000000
    33  H    4.274575   1.069998   0.000000
    34  H    4.044786   1.069999   1.747301   0.000000
    35  H    2.888320   1.069996   1.747298   1.747299   0.000000
    36  C    2.376103   2.514802   3.444306   2.732965   2.732971
    37  H    3.168034   2.732963   3.710975   2.514790   3.062232
    38  H    2.748491   3.444310   4.262109   3.710983   3.710989
    39  H    1.420734   2.732972   3.710989   3.062231   2.514805
    40  C    5.393739   4.510553   4.616070   4.918884   5.269522
    41  O    4.749663   3.473997   3.713647   3.743307   4.303010
    42  O    6.807234   5.664427   5.657321   5.943678   6.521699
    43  C    7.358601   5.541044   5.408660   5.643349   6.524041
    44  H    8.411204   6.571381   6.399433   6.623570   7.570057
    45  H    7.050453   5.144301   5.149818   5.068627   6.151057
    46  H    7.266278   5.137402   4.815938   5.323571   6.126639
                   36         37         38         39         40
    36  C    0.000000
    37  H    1.069995   0.000000
    38  H    1.070002   1.747300   0.000000
    39  H    1.070002   1.747301   1.747308   0.000000
    40  C    3.776725   4.256045   3.316812   4.656877   0.000000
    41  O    2.819419   3.145277   2.609478   3.794262   1.258401
    42  O    5.052889   5.364063   4.571371   5.998217   1.429995
    43  C    5.392113   5.497181   5.147230   6.398041   2.335167
    44  H    6.418808   6.472218   6.131373   7.438005   3.267744
    45  H    4.895032   4.815434   4.720106   5.944164   2.568617
    46  H    5.447769   5.623662   5.362948   6.389140   2.568659
                   41         42         43         44         45
    41  O    0.000000
    42  O    2.329791   0.000000
    43  C    2.625025   1.430009   0.000000
    44  H    3.669097   2.051802   1.069996   0.000000
    45  H    2.383812   2.051800   1.069996   1.747296   0.000000
    46  H    2.754413   2.051812   1.070000   1.747297   1.747296
                   46
    46  H    0.000000
 Stoichiometry    C15H27NO2Si
 Framework group  C1[X(C15H27NO2Si)]
 Deg. of freedom   132
 Full point group                 C1      NOp   1
 Largest Abelian subgroup         C1      NOp   1
 Largest concise Abelian subgroup C1      NOp   1
                         Standard orientation:                         
 ---------------------------------------------------------------------
 Center     Atomic      Atomic             Coordinates (Angstroms)
 Number     Number       Type             X           Y           Z
 ---------------------------------------------------------------------
      1          6           0       -1.601005    0.789956   -0.826199
      2          6           0       -2.293677    1.946235   -0.906341
      3          6           0       -1.275624    3.078420   -0.952593
      4          6           0       -0.049734    2.515131   -0.896713
      5          7           0       -0.159575    1.045583   -1.063721
      6          1           0       -3.358642    2.049199   -0.918478
      7          1           0       -1.492029    4.125078   -1.003258
      8          1           0        0.865327    3.049713   -0.749091
      9         14           0        0.952927    0.092662    0.098682
     10          6           0        2.804689    0.543706   -0.263478
     11          1           0        2.951302    1.593447   -0.117020
     12          6           0        0.521138    0.556280    1.932331
     13          1           0        1.157686    0.010999    2.597447
     14          6           0        0.687089   -1.810606   -0.166887
     15          1           0       -0.334243   -2.059372    0.032874
     16          6           0        0.732190    2.067114    2.143137
     17          1           0        0.095660    2.612391    1.478000
     18          1           0        0.494019    2.322829    3.154465
     19          1           0        1.753530    2.315859    1.943414
     20          6           0       -0.948822    0.198284    2.219847
     21          1           0       -1.186942    0.453984    3.231187
     22          1           0       -1.585379    0.743583    1.554750
     23          1           0       -1.095481   -0.851449    2.073376
     24          6           0        3.720848   -0.241051    0.693811
     25          1           0        3.574233   -1.290796    0.547348
     26          1           0        4.742174    0.007720    0.494075
     27          1           0        3.482686    0.014666    1.705142
     28          6           0        3.147476    0.175662   -1.719036
     29          1           0        2.510937    0.720915   -2.384175
     30          1           0        4.168815    0.424424   -1.918764
     31          1           0        3.000851   -0.874074   -1.865495
     32          6           0        1.603265   -2.595387    0.790367
     33          1           0        1.365125   -2.339692    1.801705
     34          1           0        1.456646   -3.645123    0.643891
     35          1           0        2.624588   -2.346614    0.590608
     36          6           0        1.029829   -2.178632   -1.622457
     37          1           0        0.883204   -3.228366   -1.768918
     38          1           0        0.393260   -1.633369   -2.287568
     39          1           0        2.051159   -1.929866   -1.822221
     40          6           0       -2.216217   -0.589579   -0.526213
     41          8           0       -1.479621   -1.608361   -0.470684
     42          8           0       -3.624498   -0.712901   -0.310756
     43          6           0       -3.876612   -1.801242    0.581925
     44          1           0       -4.930359   -1.893557    0.743127
     45          1           0       -3.500403   -2.707316    0.154854
     46          1           0       -3.387716   -1.617209    1.515741
 ---------------------------------------------------------------------
 Rotational constants (GHZ):      0.4646631      0.3090706      0.2587114
 Standard basis: 6-311+G(d,p) (5D, 7F)
 There are   607 symmetry adapted cartesian basis functions of A   symmetry.
 There are   588 symmetry adapted basis functions of A   symmetry.
   588 basis functions,   914 primitive gaussians,   607 cartesian basis functions
    77 alpha electrons       77 beta electrons
       nuclear repulsion energy      1804.2043449213 Hartrees.
 NAtoms=   46 NActive=   46 NUniq=   46 SFac= 1.00D+00 NAtFMM=   60 NAOKFM=F Big=F
 Integral buffers will be    131072 words long.
 Raffenetti 2 integral format.
 Two-electron integral symmetry is turned on.
 One-electron integrals computed using PRISM.
 NBasis=   588 RedAO= T EigKep=  1.96D-06  NBF=   588
 NBsUse=   588 1.00D-06 EigRej= -1.00D+00 NBFU=   588
 ExpMin= 3.31D-02 ExpMax= 6.94D+04 ExpMxC= 2.33D+03 IAcc=3 IRadAn=         5 AccDes= 0.00D+00
 Harris functional with IExCor=  402 and IRadAn=       5 diagonalized for initial guess.
 HarFok:  IExCor=  402 AccDes= 0.00D+00 IRadAn=         5 IDoV= 1 UseB2=F ITyADJ=14
 ICtDFT=  3500011 ScaDFX=  1.000000  1.000000  1.000000  1.000000
 FoFCou: FMM=F IPFlag=           0 FMFlag=      100000 FMFlg1=           0
         NFxFlg=           0 DoJE=T BraDBF=F KetDBF=T FulRan=T
         wScrn=  0.000000 ICntrl=     500 IOpCl=  0 I1Cent=   200000004 NGrid=           0
         NMat0=    1 NMatS0=      1 NMatT0=    0 NMatD0=    1 NMtDS0=    0 NMtDT0=    0
 Petite list used in FoFCou.
 Requested convergence on RMS density matrix=1.00D-08 within 128 cycles.
 Requested convergence on MAX density matrix=1.00D-06.
 Requested convergence on             energy=1.00D-06.
 No special actions if energy rises.
 SCF Done:  E(RB3LYP) =  -1082.68440202     A.U. after   17 cycles
            NFock= 17  Conv=0.47D-08     -V/T= 2.0031

 **********************************************************************

            Population analysis using the SCF density.

 **********************************************************************

 Orbital symmetries:
       Occupied  (A) (A) (A) (A) (A) (A) (A) (A) (A) (A) (A) (A)
                 (A) (A) (A) (A) (A) (A) (A) (A) (A) (A) (A) (A)
                 (A) (A) (A) (A) (A) (A) (A) (A) (A) (A) (A) (A)
                 (A) (A) (A) (A) (A) (A) (A) (A) (A) (A) (A) (A)
                 (A) (A) (A) (A) (A) (A) (A) (A) (A) (A) (A) (A)
                 (A) (A) (A) (A) (A) (A) (A) (A) (A) (A) (A) (A)
                 (A) (A) (A) (A) (A)
       Virtual   (A) (A) (A) (A) (A) (A) (A) (A) (A) (A) (A) (A)
                 (A) (A) (A) (A) (A) (A) (A) (A) (A) (A) (A) (A)
                 (A) (A) (A) (A) (A) (A) (A) (A) (A) (A) (A) (A)
                 (A) (A) (A) (A) (A) (A) (A) (A) (A) (A) (A) (A)
                 (A) (A) (A) (A) (A) (A) (A) (A) (A) (A) (A) (A)
                 (A) (A) (A) (A) (A) (A) (A) (A) (A) (A) (A) (A)
                 (A) (A) (A) (A) (A) (A) (A) (A) (A) (A) (A) (A)
                 (A) (A) (A) (A) (A) (A) (A) (A) (A) (A) (A) (A)
                 (A) (A) (A) (A) (A) (A) (A) (A) (A) (A) (A) (A)
                 (A) (A) (A) (A) (A) (A) (A) (A) (A) (A) (A) (A)
                 (A) (A) (A) (A) (A) (A) (A) (A) (A) (A) (A) (A)
                 (A) (A) (A) (A) (A) (A) (A) (A) (A) (A) (A) (A)
                 (A) (A) (A) (A) (A) (A) (A) (A) (A) (A) (A) (A)
                 (A) (A) (A) (A) (A) (A) (A) (A) (A) (A) (A) (A)
                 (A) (A) (A) (A) (A) (A) (A) (A) (A) (A) (A) (A)
                 (A) (A) (A) (A) (A) (A) (A) (A) (A) (A) (A) (A)
                 (A) (A) (A) (A) (A) (A) (A) (A) (A) (A) (A) (A)
                 (A) (A) (A) (A) (A) (A) (A) (A) (A) (A) (A) (A)
                 (A) (A) (A) (A) (A) (A) (A) (A) (A) (A) (A) (A)
                 (A) (A) (A) (A) (A) (A) (A) (A) (A) (A) (A) (A)
                 (A) (A) (A) (A) (A) (A) (A) (A) (A) (A) (A) (A)
                 (A) (A) (A) (A) (A) (A) (A) (A) (A) (A) (A) (A)
                 (A) (A) (A) (A) (A) (A) (A) (A) (A) (A) (A) (A)
                 (A) (A) (A) (A) (A) (A) (A) (A) (A) (A) (A) (A)
                 (A) (A) (A) (A) (A) (A) (A) (A) (A) (A) (A) (A)
                 (A) (A) (A) (A) (A) (A) (A) (A) (A) (A) (A) (A)
                 (A) (A) (A) (A) (A) (A) (A) (A) (A) (A) (A) (A)
                 (A) (A) (A) (A) (A) (A) (A) (A) (A) (A) (A) (A)
                 (A) (A) (A) (A) (A) (A) (A) (A) (A) (A) (A) (A)
                 (A) (A) (A) (A) (A) (A) (A) (A) (A) (A) (A) (A)
                 (A) (A) (A) (A) (A) (A) (A) (A) (A) (A) (A) (A)
                 (A) (A) (A) (A) (A) (A) (A) (A) (A) (A) (A) (A)
                 (A) (A) (A) (A) (A) (A) (A) (A) (A) (A) (A) (A)
                 (A) (A) (A) (A) (A) (A) (A) (A) (A) (A) (A) (A)
                 (A) (A) (A) (A) (A) (A) (A) (A) (A) (A) (A) (A)
                 (A) (A) (A) (A) (A) (A) (A) (A) (A) (A) (A) (A)
                 (A) (A) (A) (A) (A) (A) (A) (A) (A) (A) (A) (A)
                 (A) (A) (A) (A) (A) (A) (A) (A) (A) (A) (A) (A)
                 (A) (A) (A) (A) (A) (A) (A) (A) (A) (A) (A) (A)
                 (A) (A) (A) (A) (A) (A) (A) (A) (A) (A) (A) (A)
                 (A) (A) (A) (A) (A) (A) (A) (A) (A) (A) (A) (A)
                 (A) (A) (A) (A) (A) (A) (A) (A) (A) (A) (A) (A)
                 (A) (A) (A) (A) (A) (A) (A)
 The electronic state is 1-A.
 Alpha  occ. eigenvalues --  -66.09628 -19.17812 -19.12649 -14.35722 -10.33518
 Alpha  occ. eigenvalues --  -10.23564 -10.22217 -10.22122 -10.19414 -10.18604
 Alpha  occ. eigenvalues --  -10.15963 -10.15789 -10.15181 -10.15138 -10.14984
 Alpha  occ. eigenvalues --  -10.14607 -10.13277 -10.13179 -10.11644  -5.26684
 Alpha  occ. eigenvalues --   -3.62695  -3.62413  -3.62348  -1.09994  -1.02828
 Alpha  occ. eigenvalues --   -0.94400  -0.79666  -0.78312  -0.77522  -0.76472
 Alpha  occ. eigenvalues --   -0.76186  -0.71972  -0.69512  -0.69128  -0.66918
 Alpha  occ. eigenvalues --   -0.63736  -0.60556  -0.59237  -0.58269  -0.57452
 Alpha  occ. eigenvalues --   -0.55612  -0.54461  -0.50918  -0.49247  -0.48645
 Alpha  occ. eigenvalues --   -0.47946  -0.47167  -0.45561  -0.44367  -0.43962
 Alpha  occ. eigenvalues --   -0.43242  -0.42916  -0.42424  -0.41752  -0.41174
 Alpha  occ. eigenvalues --   -0.41068  -0.40810  -0.40210  -0.40100  -0.39194
 Alpha  occ. eigenvalues --   -0.38605  -0.37692  -0.37343  -0.35388  -0.34565
 Alpha  occ. eigenvalues --   -0.34246  -0.34050  -0.33907  -0.33172  -0.32789
 Alpha  occ. eigenvalues --   -0.31776  -0.30752  -0.27617  -0.26227  -0.25453
 Alpha  occ. eigenvalues --   -0.24983  -0.23234
 Alpha virt. eigenvalues --   -0.07036  -0.00493   0.00249   0.00600   0.00811
 Alpha virt. eigenvalues --    0.01299   0.01860   0.02461   0.02744   0.03220
 Alpha virt. eigenvalues --    0.03503   0.03580   0.04419   0.04568   0.05053
 Alpha virt. eigenvalues --    0.05567   0.05760   0.06205   0.06509   0.07153
 Alpha virt. eigenvalues --    0.07251   0.07576   0.07674   0.08074   0.08874
 Alpha virt. eigenvalues --    0.09004   0.09529   0.09653   0.09936   0.10160
 Alpha virt. eigenvalues --    0.10526   0.10739   0.10777   0.10902   0.11476
 Alpha virt. eigenvalues --    0.11826   0.11971   0.12352   0.12466   0.13402
 Alpha virt. eigenvalues --    0.13635   0.13905   0.14216   0.14782   0.14984
 Alpha virt. eigenvalues --    0.15151   0.15514   0.15634   0.16157   0.16220
 Alpha virt. eigenvalues --    0.16426   0.16688   0.16739   0.17337   0.17589
 Alpha virt. eigenvalues --    0.18181   0.18318   0.18614   0.18730   0.19002
 Alpha virt. eigenvalues --    0.19250   0.19787   0.19921   0.20067   0.20311
 Alpha virt. eigenvalues --    0.20544   0.20905   0.21149   0.21350   0.21755
 Alpha virt. eigenvalues --    0.22056   0.22386   0.22600   0.23020   0.23150
 Alpha virt. eigenvalues --    0.23344   0.23573   0.23667   0.24168   0.24478
 Alpha virt. eigenvalues --    0.24879   0.25472   0.25591   0.25921   0.26357
 Alpha virt. eigenvalues --    0.26615   0.26951   0.27232   0.27425   0.28033
 Alpha virt. eigenvalues --    0.28192   0.28338   0.28990   0.29201   0.29856
 Alpha virt. eigenvalues --    0.30355   0.30646   0.30816   0.30915   0.31105
 Alpha virt. eigenvalues --    0.32500   0.32840   0.33295   0.33523   0.34031
 Alpha virt. eigenvalues --    0.34424   0.35079   0.35511   0.36454   0.36752
 Alpha virt. eigenvalues --    0.37216   0.37494   0.38159   0.38379   0.38918
 Alpha virt. eigenvalues --    0.39474   0.39977   0.40462   0.41935   0.42544
 Alpha virt. eigenvalues --    0.42721   0.43251   0.44075   0.44198   0.44683
 Alpha virt. eigenvalues --    0.45180   0.45653   0.46304   0.47332   0.47455
 Alpha virt. eigenvalues --    0.48144   0.48290   0.48923   0.49794   0.50420
 Alpha virt. eigenvalues --    0.51117   0.52685   0.52997   0.54508   0.54866
 Alpha virt. eigenvalues --    0.55551   0.56628   0.57108   0.57427   0.58276
 Alpha virt. eigenvalues --    0.59592   0.59924   0.60196   0.60984   0.61689
 Alpha virt. eigenvalues --    0.62245   0.62604   0.62943   0.63781   0.64055
 Alpha virt. eigenvalues --    0.64214   0.65458   0.65928   0.66527   0.67121
 Alpha virt. eigenvalues --    0.67300   0.68113   0.68428   0.68880   0.69436
 Alpha virt. eigenvalues --    0.70093   0.70540   0.71104   0.71265   0.71768
 Alpha virt. eigenvalues --    0.72344   0.72570   0.72814   0.73342   0.73610
 Alpha virt. eigenvalues --    0.74256   0.74858   0.75329   0.75550   0.75985
 Alpha virt. eigenvalues --    0.77157   0.77377   0.78223   0.78289   0.78880
 Alpha virt. eigenvalues --    0.79527   0.79894   0.80529   0.81226   0.81786
 Alpha virt. eigenvalues --    0.81933   0.82320   0.82991   0.84086   0.84710
 Alpha virt. eigenvalues --    0.85629   0.86483   0.86758   0.87215   0.88277
 Alpha virt. eigenvalues --    0.89518   0.90189   0.91146   0.91541   0.93039
 Alpha virt. eigenvalues --    0.93844   0.94891   0.95810   0.97633   0.98347
 Alpha virt. eigenvalues --    0.99035   0.99730   1.00333   1.01750   1.02993
 Alpha virt. eigenvalues --    1.03698   1.04023   1.05969   1.06677   1.07503
 Alpha virt. eigenvalues --    1.08514   1.09382   1.10242   1.11355   1.12685
 Alpha virt. eigenvalues --    1.13835   1.14627   1.15828   1.16374   1.16733
 Alpha virt. eigenvalues --    1.18702   1.20035   1.20222   1.21923   1.23886
 Alpha virt. eigenvalues --    1.24539   1.25457   1.28081   1.29076   1.29363
 Alpha virt. eigenvalues --    1.31382   1.33813   1.34017   1.34508   1.37523
 Alpha virt. eigenvalues --    1.38327   1.39388   1.40969   1.42306   1.43860
 Alpha virt. eigenvalues --    1.44881   1.45562   1.46721   1.47245   1.48603
 Alpha virt. eigenvalues --    1.49264   1.50825   1.50905   1.51759   1.52377
 Alpha virt. eigenvalues --    1.52917   1.52987   1.54023   1.54078   1.54892
 Alpha virt. eigenvalues --    1.55422   1.56134   1.56602   1.56826   1.56929
 Alpha virt. eigenvalues --    1.57949   1.58357   1.58517   1.59740   1.59903
 Alpha virt. eigenvalues --    1.60739   1.60832   1.62462   1.62910   1.64065
 Alpha virt. eigenvalues --    1.64415   1.64757   1.65701   1.65922   1.66687
 Alpha virt. eigenvalues --    1.67775   1.69120   1.69356   1.69744   1.71010
 Alpha virt. eigenvalues --    1.71253   1.71600   1.71875   1.72392   1.73797
 Alpha virt. eigenvalues --    1.74597   1.75718   1.76046   1.76611   1.77491
 Alpha virt. eigenvalues --    1.78780   1.79035   1.80344   1.81014   1.81715
 Alpha virt. eigenvalues --    1.82553   1.83708   1.84387   1.85256   1.85940
 Alpha virt. eigenvalues --    1.86337   1.87255   1.88043   1.89333   1.90120
 Alpha virt. eigenvalues --    1.90982   1.91249   1.91979   1.92415   1.93735
 Alpha virt. eigenvalues --    1.95072   1.97294   1.97918   1.98841   1.99247
 Alpha virt. eigenvalues --    2.00318   2.00402   2.02427   2.04023   2.05165
 Alpha virt. eigenvalues --    2.06175   2.06789   2.08503   2.09172   2.11326
 Alpha virt. eigenvalues --    2.11818   2.14419   2.14876   2.15784   2.16677
 Alpha virt. eigenvalues --    2.17212   2.18372   2.19267   2.20887   2.20955
 Alpha virt. eigenvalues --    2.22104   2.23451   2.24462   2.28558   2.31138
 Alpha virt. eigenvalues --    2.33052   2.33868   2.34030   2.34865   2.35677
 Alpha virt. eigenvalues --    2.37586   2.38758   2.40027   2.40703   2.43454
 Alpha virt. eigenvalues --    2.43779   2.44023   2.45186   2.45359   2.46066
 Alpha virt. eigenvalues --    2.46886   2.48024   2.48533   2.49014   2.50609
 Alpha virt. eigenvalues --    2.52338   2.53826   2.54152   2.55703   2.56306
 Alpha virt. eigenvalues --    2.56438   2.57157   2.57982   2.58985   2.59306
 Alpha virt. eigenvalues --    2.59951   2.61188   2.62119   2.63139   2.64672
 Alpha virt. eigenvalues --    2.65636   2.66127   2.66376   2.66705   2.67686
 Alpha virt. eigenvalues --    2.68143   2.68453   2.68551   2.69920   2.71727
 Alpha virt. eigenvalues --    2.71871   2.72180   2.73260   2.74221   2.74917
 Alpha virt. eigenvalues --    2.75185   2.76576   2.76853   2.78146   2.79162
 Alpha virt. eigenvalues --    2.80009   2.80397   2.81993   2.82787   2.83337
 Alpha virt. eigenvalues --    2.84066   2.86142   2.86730   2.87754   2.88982
 Alpha virt. eigenvalues --    2.91730   2.93355   2.95224   2.97061   2.97089
 Alpha virt. eigenvalues --    2.98278   3.00203   3.00547   3.02794   3.04999
 Alpha virt. eigenvalues --    3.06109   3.06666   3.06872   3.07872   3.08123
 Alpha virt. eigenvalues --    3.09338   3.10967   3.13593   3.15025   3.15925
 Alpha virt. eigenvalues --    3.18653   3.18968   3.20534   3.22423   3.24924
 Alpha virt. eigenvalues --    3.27380   3.28921   3.30447   3.32924   3.39408
 Alpha virt. eigenvalues --    3.46705   3.47529   3.50661   3.54056   3.58012
 Alpha virt. eigenvalues --    3.59807   3.64062   3.77057   3.80774   3.83381
 Alpha virt. eigenvalues --    3.84447   3.84575   3.85523   3.86135   3.86847
 Alpha virt. eigenvalues --    3.87152   3.89562   3.90607   3.91207   3.92399
 Alpha virt. eigenvalues --    3.94629   4.01363   4.02982   4.03844   4.04411
 Alpha virt. eigenvalues --    4.06554   4.11601   4.12404   4.14267   4.17417
 Alpha virt. eigenvalues --    4.24611   4.26776   4.27043   4.32195   4.37378
 Alpha virt. eigenvalues --    4.53151   4.89892   5.05527   5.17077   5.30764
 Alpha virt. eigenvalues --    5.37096   5.58997   5.86453   5.94906  11.59647
 Alpha virt. eigenvalues --   11.63914  11.71790  23.69596  23.72184  23.76996
 Alpha virt. eigenvalues --   23.87307  23.89913  23.95791  23.96625  24.04439
 Alpha virt. eigenvalues --   24.05136  24.07498  24.08935  24.10136  24.11792
 Alpha virt. eigenvalues --   24.16612  24.20182  35.55269  49.91263  50.00629
 Alpha virt. eigenvalues --  141.39780
          Condensed to atoms (all electrons):
               1          2          3          4          5          6
     1  C   24.984780  -8.232769   4.053818  -3.955834  -2.221604  -0.022542
     2  C   -8.232769  15.638773  -3.638382   3.716324  -0.129798   0.328846
     3  C    4.053818  -3.638382   8.840257  -2.964324  -0.010843   0.039286
     4  C   -3.955834   3.716324  -2.964324   9.546935  -0.396004  -0.056755
     5  N   -2.221604  -0.129798  -0.010843  -0.396004   8.797432   0.022330
     6  H   -0.022542   0.328846   0.039286  -0.056755   0.022330   0.507504
     7  H   -0.037344   0.013743   0.316149   0.016623   0.021523  -0.002039
     8  H    0.079032  -0.074710   0.026008   0.326486  -0.064301  -0.000146
     9  Si  -0.418189  -1.886259   0.235277  -1.057925   0.383860   0.007415
    10  C    0.373648  -0.101413   0.025889   0.006144  -0.192113   0.000047
    11  H   -0.015909   0.002537   0.002987   0.001106  -0.004867   0.000000
    12  C    0.436215   0.292491   0.065884   0.293976  -0.727026  -0.003109
    13  H   -0.010345   0.002702  -0.001804   0.001624   0.015499  -0.000002
    14  C    0.350150   0.526781  -0.152439   0.279890  -0.280094  -0.002430
    15  H   -0.022361  -0.025262   0.007461  -0.015894   0.013410   0.000015
    16  C   -0.029969   0.075871   0.079369  -0.202505   0.276586   0.000631
    17  H    0.025280  -0.001867   0.029148  -0.035883   0.007154   0.000034
    18  H   -0.001491  -0.001881  -0.006248   0.008186  -0.002776  -0.000001
    19  H    0.001431   0.004271  -0.000757  -0.000396  -0.015937   0.000001
    20  C   -0.507314   0.154842  -0.106086   0.092826   0.302408   0.002515
    21  H    0.026317  -0.014988   0.002775  -0.004524  -0.004320   0.000000
    22  H   -0.206740   0.163309  -0.049422   0.079993   0.015825  -0.000853
    23  H    0.029560   0.006186   0.000479  -0.000269  -0.010957  -0.000014
    24  C   -0.139522   0.015850  -0.038604  -0.037703   0.081941  -0.000083
    25  H   -0.000262  -0.000121   0.000396   0.001894  -0.001586   0.000000
    26  H    0.000616  -0.000069   0.000132   0.001288  -0.000619   0.000000
    27  H    0.000685   0.000895  -0.001075  -0.000297   0.001233   0.000000
    28  C   -0.169486   0.011075   0.017202   0.017575   0.110436   0.000024
    29  H    0.004938   0.002383   0.008182   0.005424   0.006922  -0.000002
    30  H    0.000057  -0.000634   0.001567   0.001256  -0.002128   0.000000
    31  H   -0.002777   0.005121  -0.005584   0.000272  -0.011712   0.000000
    32  C   -0.093298   0.166938  -0.041213   0.066871   0.076548  -0.000111
    33  H   -0.008737  -0.000462   0.000174   0.001080   0.001602   0.000000
    34  H   -0.002634  -0.000304   0.000026   0.000194  -0.001110   0.000000
    35  H    0.006874  -0.000439   0.000585  -0.001266  -0.003147   0.000000
    36  C    0.182533  -0.134991   0.048140  -0.070427   0.062429   0.000373
    37  H    0.001579   0.001082  -0.000432  -0.000027  -0.002021   0.000000
    38  H    0.012690   0.004934  -0.000963  -0.000044   0.014996   0.000001
    39  H    0.012448  -0.002388   0.002539  -0.006489  -0.010636   0.000000
    40  C   -8.451047  -0.560040  -0.372211   0.335609   0.843971   0.036069
    41  O    0.240013   0.048381  -0.014070   0.042638  -0.077612  -0.001020
    42  O   -0.364614   0.044315  -0.026006   0.026929   0.017811   0.002474
    43  C   -0.313862  -0.027935  -0.022628   0.014841   0.029645  -0.000785
    44  H    0.010392   0.008746  -0.000198   0.000138  -0.000248  -0.000008
    45  H   -0.080370  -0.004668  -0.000007  -0.000217   0.001381   0.000000
    46  H    0.121677  -0.014627   0.002256  -0.000978  -0.003406   0.000013
               7          8          9         10         11         12
     1  C   -0.037344   0.079032  -0.418189   0.373648  -0.015909   0.436215
     2  C    0.013743  -0.074710  -1.886259  -0.101413   0.002537   0.292491
     3  C    0.316149   0.026008   0.235277   0.025889   0.002987   0.065884
     4  C    0.016623   0.326486  -1.057925   0.006144   0.001106   0.293976
     5  N    0.021523  -0.064301   0.383860  -0.192113  -0.004867  -0.727026
     6  H   -0.002039  -0.000146   0.007415   0.000047   0.000000  -0.003109
     7  H    0.526338  -0.006017   0.004637   0.000363   0.000000  -0.003719
     8  H   -0.006017   0.505697   0.068832   0.003794   0.000721  -0.010523
     9  Si   0.004637   0.068832  20.619431   0.272577  -0.020266  -0.470957
    10  C    0.000363   0.003794   0.272577   7.207572   0.278963  -0.182593
    11  H    0.000000   0.000721  -0.020266   0.278963   0.557132  -0.019961
    12  C   -0.003719  -0.010523  -0.470957  -0.182593  -0.019961   7.704638
    13  H   -0.000002  -0.000066  -0.085306  -0.002667   0.000352   0.334614
    14  C   -0.000339  -0.003135  -0.801198  -0.610586   0.037907  -0.095783
    15  H    0.000001  -0.000014  -0.015298   0.017818  -0.000153  -0.000585
    16  C    0.003292   0.003443  -0.962161  -0.110356   0.012605  -0.341501
    17  H   -0.001102  -0.001211  -0.114663   0.006813  -0.000182  -0.031600
    18  H   -0.000004   0.000030   0.059601   0.002356  -0.000181  -0.049784
    19  H    0.000002   0.000549   0.068865   0.003555  -0.000844  -0.021621
    20  C    0.001128  -0.002168  -0.824325   0.169235  -0.004231  -0.715466
    21  H   -0.000001   0.000011   0.069881  -0.000528   0.000000  -0.046079
    22  H    0.000045  -0.000261  -0.222904  -0.003533   0.000009  -0.023278
    23  H    0.000000   0.000005   0.032725  -0.000992   0.000003  -0.025246
    24  C    0.000050   0.002004  -0.193384  -0.613980   0.022759  -0.098447
    25  H    0.000000   0.000000  -0.003988  -0.052628   0.008360  -0.002743
    26  H    0.000000   0.000002   0.052634  -0.031561  -0.009630   0.002521
    27  H    0.000000   0.000029  -0.007120  -0.018391  -0.002984   0.013453
    28  C   -0.000020  -0.011764  -0.534303  -0.545658   0.042967   0.132717
    29  H   -0.000001   0.000537  -0.036338  -0.025641  -0.002568   0.001788
    30  H    0.000000   0.000040   0.057473  -0.026496  -0.011041  -0.001812
    31  H    0.000000  -0.000018   0.022623  -0.057001   0.007819  -0.002928
    32  C   -0.000049  -0.001349  -0.804421   0.106313  -0.009507  -0.023266
    33  H    0.000000  -0.000001  -0.023671  -0.021629  -0.000018   0.012060
    34  H    0.000000   0.000000   0.062333  -0.005322   0.000028  -0.000025
    35  H    0.000000   0.000001   0.012257   0.051064  -0.000461   0.001040
    36  C   -0.000044   0.000135  -0.718208   0.408086  -0.020641   0.099410
    37  H    0.000000   0.000001   0.067508  -0.004042   0.000024  -0.002037
    38  H   -0.000001   0.000034  -0.079952  -0.021521  -0.000047   0.001917
    39  H    0.000000   0.000014   0.037568   0.045590  -0.000377  -0.001766
    40  C    0.018760  -0.005152   0.077153  -0.059077  -0.001520  -0.048023
    41  O   -0.000046   0.000182  -0.074583   0.022884  -0.000075  -0.077391
    42  O    0.000047   0.000017  -0.116760   0.002167   0.000003  -0.009882
    43  C    0.000063   0.000032  -0.005488   0.003135   0.000016  -0.045212
    44  H    0.000000   0.000000  -0.000314  -0.000029   0.000000   0.000411
    45  H    0.000000   0.000000   0.009134  -0.000077   0.000000   0.001694
    46  H    0.000000   0.000001  -0.001974   0.000431   0.000000  -0.002545
              13         14         15         16         17         18
     1  C   -0.010345   0.350150  -0.022361  -0.029969   0.025280  -0.001491
     2  C    0.002702   0.526781  -0.025262   0.075871  -0.001867  -0.001881
     3  C   -0.001804  -0.152439   0.007461   0.079369   0.029148  -0.006248
     4  C    0.001624   0.279890  -0.015894  -0.202505  -0.035883   0.008186
     5  N    0.015499  -0.280094   0.013410   0.276586   0.007154  -0.002776
     6  H   -0.000002  -0.002430   0.000015   0.000631   0.000034  -0.000001
     7  H   -0.000002  -0.000339   0.000001   0.003292  -0.001102  -0.000004
     8  H   -0.000066  -0.003135  -0.000014   0.003443  -0.001211   0.000030
     9  Si  -0.085306  -0.801198  -0.015298  -0.962161  -0.114663   0.059601
    10  C   -0.002667  -0.610586   0.017818  -0.110356   0.006813   0.002356
    11  H    0.000352   0.037907  -0.000153   0.012605  -0.000182  -0.000181
    12  C    0.334614  -0.095783  -0.000585  -0.341501  -0.031600  -0.049784
    13  H    0.520359  -0.006378   0.000298   0.026033   0.006820  -0.008316
    14  C   -0.006378   8.976932   0.445777   0.181425  -0.000217  -0.002408
    15  H    0.000298   0.445777   0.553211   0.002329   0.000006  -0.000012
    16  C    0.026033   0.181425   0.002329   6.201500   0.452183   0.398359
    17  H    0.006820  -0.000217   0.000006   0.452183   0.524703  -0.032769
    18  H   -0.008316  -0.002408  -0.000012   0.398359  -0.032769   0.548836
    19  H   -0.003585  -0.000373  -0.000003   0.353107  -0.026744  -0.025676
    20  C    0.029385  -0.009550  -0.004211   0.011526   0.028215  -0.030107
    21  H   -0.008217   0.000586  -0.000161  -0.035841  -0.001827   0.009168
    22  H    0.006972   0.028050  -0.000348   0.052454   0.002118  -0.002260
    23  H   -0.002927  -0.000432  -0.001816   0.001728   0.000093   0.000146
    24  C    0.004807   0.278588  -0.004930   0.124498  -0.002052  -0.000764
    25  H    0.000035   0.033234  -0.000102   0.002495   0.000012  -0.000003
    26  H   -0.000016  -0.008157   0.000022  -0.002128   0.000006  -0.000003
    27  H   -0.000266  -0.012082  -0.000093  -0.015789  -0.000034   0.000043
    28  C   -0.001563   0.308190  -0.012508  -0.028056  -0.002379   0.000288
    29  H    0.000014  -0.023965  -0.000034   0.001075   0.000037   0.000000
    30  H    0.000012  -0.010085   0.000035   0.000897   0.000006  -0.000001
    31  H    0.000012   0.047446  -0.000245   0.000185  -0.000004   0.000001
    32  C    0.016385  -0.512411   0.060325   0.068345   0.000380   0.000170
    33  H   -0.001004  -0.020864  -0.006139   0.004525  -0.000016   0.000003
    34  H   -0.000046  -0.073288  -0.010176   0.000092   0.000001  -0.000001
    35  H   -0.000229  -0.149088   0.015147  -0.001715  -0.000001   0.000001
    36  C    0.001394  -0.682361  -0.025015  -0.035617   0.001005   0.000283
    37  H    0.000004  -0.053412  -0.014304  -0.000181   0.000001   0.000000
    38  H    0.000001  -0.030942  -0.008676  -0.000247   0.000003   0.000001
    39  H    0.000012  -0.097547   0.009126   0.000301   0.000001   0.000000
    40  C    0.005224  -0.741164   0.053352  -0.000988  -0.005330   0.001482
    41  O   -0.000323  -0.240137  -0.240058  -0.018117   0.000134   0.000053
    42  O    0.000033   0.003738  -0.009737   0.001986   0.000027   0.000011
    43  C    0.000101  -0.038123  -0.007650   0.000264  -0.000108   0.000082
    44  H    0.000000   0.000746  -0.000121   0.000021   0.000000   0.000000
    45  H   -0.000003  -0.006340   0.001667  -0.000199   0.000000   0.000000
    46  H    0.000013   0.002002  -0.000846  -0.000016   0.000000   0.000003
              19         20         21         22         23         24
     1  C    0.001431  -0.507314   0.026317  -0.206740   0.029560  -0.139522
     2  C    0.004271   0.154842  -0.014988   0.163309   0.006186   0.015850
     3  C   -0.000757  -0.106086   0.002775  -0.049422   0.000479  -0.038604
     4  C   -0.000396   0.092826  -0.004524   0.079993  -0.000269  -0.037703
     5  N   -0.015937   0.302408  -0.004320   0.015825  -0.010957   0.081941
     6  H    0.000001   0.002515   0.000000  -0.000853  -0.000014  -0.000083
     7  H    0.000002   0.001128  -0.000001   0.000045   0.000000   0.000050
     8  H    0.000549  -0.002168   0.000011  -0.000261   0.000005   0.002004
     9  Si   0.068865  -0.824325   0.069881  -0.222904   0.032725  -0.193384
    10  C    0.003555   0.169235  -0.000528  -0.003533  -0.000992  -0.613980
    11  H   -0.000844  -0.004231   0.000000   0.000009   0.000003   0.022759
    12  C   -0.021621  -0.715466  -0.046079  -0.023278  -0.025246  -0.098447
    13  H   -0.003585   0.029385  -0.008217   0.006972  -0.002927   0.004807
    14  C   -0.000373  -0.009550   0.000586   0.028050  -0.000432   0.278588
    15  H   -0.000003  -0.004211  -0.000161  -0.000348  -0.001816  -0.004930
    16  C    0.353107   0.011526  -0.035841   0.052454   0.001728   0.124498
    17  H   -0.026744   0.028215  -0.001827   0.002118   0.000093  -0.002052
    18  H   -0.025676  -0.030107   0.009168  -0.002260   0.000146  -0.000764
    19  H    0.547381   0.000030   0.000125  -0.000006  -0.000580  -0.019894
    20  C    0.000030   6.391077   0.399186   0.457328   0.390273  -0.057962
    21  H    0.000125   0.399186   0.544183  -0.034897  -0.027679   0.001029
    22  H   -0.000006   0.457328  -0.034897   0.540339  -0.027079  -0.000394
    23  H   -0.000580   0.390273  -0.027679  -0.027079   0.538199   0.000981
    24  C   -0.019894  -0.057962   0.001029  -0.000394   0.000981   6.378431
    25  H   -0.000092  -0.002606   0.000003   0.000001  -0.000010   0.423418
    26  H    0.000083   0.000208  -0.000001   0.000002   0.000001   0.383095
    27  H    0.001256   0.006932  -0.000009   0.000003  -0.000003   0.369928
    28  C    0.000170  -0.040759   0.000148  -0.000540  -0.000295  -0.076748
    29  H    0.000022   0.000546   0.000000   0.000008   0.000000   0.009409
    30  H   -0.000006   0.000119   0.000000   0.000002   0.000001  -0.030478
    31  H   -0.000019  -0.000936   0.000001   0.000002  -0.000002   0.032716
    32  C   -0.000635   0.154835  -0.002831   0.013194  -0.011260  -0.137834
    33  H    0.000005  -0.006660  -0.000023  -0.000125   0.001378   0.027063
    34  H    0.000000  -0.002516  -0.000002  -0.000003   0.000052   0.006184
    35  H   -0.000003  -0.000483  -0.000002  -0.000002  -0.000026  -0.087034
    36  C   -0.000259   0.014956   0.000351  -0.001967  -0.002628  -0.115712
    37  H    0.000001  -0.000318  -0.000001   0.000000   0.000008  -0.000899
    38  H    0.000002   0.001765   0.000002  -0.000023   0.000015   0.001747
    39  H   -0.000003  -0.000377   0.000000  -0.000006  -0.000017  -0.007111
    40  C   -0.005180   0.016897  -0.010049   0.028447  -0.043177   0.006121
    41  O    0.000098   0.071788   0.000583  -0.005757   0.004587  -0.012895
    42  O    0.000009   0.042367  -0.000566   0.005813   0.000215  -0.000796
[...]
 81,0.00005156,-0.00002596,0.00000382,0.00000483,-0.00002061,0.00003122
 ,0.00000179,-0.00000166,-0.00000104,-0.00001360,0.00001960,-0.00002248
 ,-0.00000964,-0.00000317,0.00001044,-0.00005164,-0.00000281,0.00001978
 ,0.00001121,-0.00003798,0.00000631,0.00001563,0.00003586,-0.00004240,0
 .00007980,0.00000886,0.00001260,-0.00000617,-0.00007705,-0.00000305,0.
 00003735,-0.00002495,0.00000979,-0.00000063,0.00003475,0.00000783,-0.0
 0008125,-0.00011740,-0.00001446,0.00008903,0.00005070,0.00009066,-0.00
 006792,0.00000253,-0.00003609,0.00001480,0.02316018,0.01106705,0.00767
 265,-0.00653026,0.00363405,0.00082281,-0.11811782,-0.05823541,-0.02691
 623,0.57188402,0.00573522,0.00225715,0.00052387,-0.00133514,-0.0001046
 0,-0.00010482,-0.00073808,0.00119661,0.00007766,0.00138197,0.00106058,
 0.00047503,-0.00152895,-0.00020222,-0.00050467,-0.00075059,-0.00004483
 ,-0.00004497,0.00005952,0.00014908,0.00005242,-0.00001777,0.00000392,0
 .00008491,0.00189025,-0.00139560,-0.00017656,-0.00022324,0.00013922,-0
 .00004686,-0.00001621,-0.00012383,0.00003919,-0.00026547,0.00011348,0.
 00003238,-0.00007510,0.00007091,-0.00013028,-0.00053457,0.00018638,0.0
 0006229,0.00042437,0.00007206,-0.00010681,0.00002933,-0.00007851,-0.00
 001130,-0.00003479,0.00000175,0.00010598,-0.00006115,0.00003544,-0.000
 08242,0.00001583,-0.00001518,0.00002209,0.00006274,-0.00000096,-0.0001
 9303,-0.00011859,0.00017556,-0.00012602,-0.00001691,-0.00000227,0.0003
 1568,0.00008605,-0.00002205,0.00007245,0.00007351,0.00002769,0.0000954
 3,-0.00004877,-0.00000417,0.00000553,-0.00003228,0.00008359,0.00002116
 ,-0.00000075,-0.00001648,-0.00002726,0.00002030,-0.00003739,-0.0000105
 1,-0.00001444,0.00001359,-0.00011679,0.00000044,0.00007491,0.00003025,
 -0.00006914,-0.00000129,0.00001970,0.00009048,-0.00005570,0.00015966,0
 .00000443,0.00002271,-0.00003256,-0.00013152,-0.00002777,0.00006853,-0
 .00006781,0.00005678,0.00003019,0.00012504,0.00004818,-0.00012525,-0.0
 0016709,-0.00005374,0.00009902,-0.00000455,0.00009199,-0.00014659,-0.0
 0001843,0.00001015,0.00006114,0.00361630,-0.06257450,-0.01514583,-0.01
 488053,0.00406700,-0.00069418,-0.03348484,-0.14610941,-0.02845021,-0.0
 7651022,0.48994267,-0.00006412,0.00048818,0.00356835,-0.00034163,0.000
 08166,-0.00073418,-0.00023476,0.00022816,0.00059649,0.00028038,0.00032
 388,0.00013332,-0.00041835,0.00002136,0.00138082,-0.00015492,0.0000329
 7,-0.00034217,0.00001989,0.00005001,0.00001293,0.00008745,0.00013869,-
 0.00038322,0.00062001,-0.00066530,0.00035701,-0.00006988,0.00007800,-0
 .00008927,0.00000596,-0.00001816,0.00001733,0.00000241,0.00004979,-0.0
 0003175,-0.00002038,-0.00002365,-0.00006806,-0.00018602,0.00010775,-0.
 00003334,0.00014768,-0.00002531,0.00002352,-0.00003859,-0.00003618,-0.
 00004177,0.00001584,0.00000418,0.00005483,-0.00001575,0.00003821,-0.00
 004776,0.00000025,-0.00003673,0.00000222,-0.00016189,0.00008598,-0.000
 07348,-0.00003712,0.00005638,-0.00007325,0.00008896,0.00004200,0.00011
 890,0.00005105,-0.00000029,0.00004322,0.00002256,0.00000742,0.00004613
 ,-0.00001035,-0.00000460,0.00000159,-0.00001371,0.00002719,0.00000094,
 -0.00000561,0.00000722,-0.00002290,0.00000299,-0.00003417,-0.00000340,
 -0.00001824,-0.00000011,-0.00003866,0.00000090,0.00002836,-0.00000431,
 -0.00000556,-0.00000796,-0.00000249,0.00002142,-0.00001750,0.00004338,
 -0.00002914,0.00002798,-0.00002598,-0.00002249,-0.00000684,0.00001740,
 -0.00002498,0.00002158,0.00001416,0.00011888,0.00000935,-0.00001755,0.
 00001342,-0.00001822,-0.00004206,-0.00009572,-0.00001698,-0.00004194,-
 0.00003012,0.00005350,0.00001649,0.00593037,-0.01339416,-0.00177978,-0
 .00403447,0.00324958,-0.00571753,-0.02054559,-0.03410347,-0.07533752,-
 0.02133561,-0.03987916,0.56479427,0.00091098,-0.00041231,0.00003592,0.
 00001880,-0.00000758,0.00000256,-0.00003921,0.00006265,0.00001486,0.00
 010304,-0.00003296,0.00000777,-0.00015588,-0.00022046,-0.00008645,-0.0
 0004423,-0.00000220,-0.00001549,0.00000380,0.00000683,0.00000034,-0.00
 002166,-0.00000908,-0.00000377,-0.00004594,-0.00014410,-0.00004255,0.0
 0001205,0.00000929,0.00000092,0.00000080,0.00000503,0.00000201,-0.0000
 0283,0.00001702,-0.00000626,-0.00000292,0.00001108,0.00000007,-0.00001
 804,0.00001074,0.00000186,0.00002961,-0.00000489,-0.00000074,-0.000001
 70,0.00000151,0.00000474,-0.00000178,-0.00000292,0.00000094,-0.0000014
 8,0.00000016,-0.00000628,0.00000446,0.00000763,0.00000207,0.00001552,-
 0.00001109,0.00000500,-0.00000865,0.00001919,-0.00000879,-0.00002092,-
 0.00001518,0.00002273,0.00002129,-0.00000900,-0.00000282,0.00000329,-0
 .00000091,0.00000236,-0.00000038,-0.00000313,-0.00000092,0.00000020,0.
 00000700,0.00000363,0.00000070,-0.00000372,-0.00000028,-0.00000234,0.0
 0000349,-0.00000208,-0.00000134,-0.00000210,-0.00000290,0.00000158,0.0
 0000769,0.00000362,-0.00000010,-0.00000350,-0.00000187,0.00000868,0.00
 000223,0.00001210,-0.00000028,-0.00000106,-0.00000392,-0.00000243,-0.0
 0000497,-0.00000093,-0.00000644,0.00001019,0.00000758,0.00000910,0.000
 00949,0.00000199,0.00000332,-0.00000646,-0.00001086,-0.00001722,-0.000
 00813,-0.00001288,-0.00000319,0.00001434,0.00000910,-0.00453594,-0.002
 84343,-0.00173380,0.00192513,0.00219611,0.00082501,0.01351873,-0.02037
 362,-0.00232771,-0.19744965,0.14438632,0.00582876,0.20639066,0.0010443
 5,-0.00104348,-0.00010386,0.00027680,0.00005187,0.00006126,-0.00000374
 ,-0.00018810,-0.00004542,-0.00007575,-0.00025723,-0.00007819,-0.000291
 95,-0.00016255,-0.00009058,-0.00001555,-0.00004274,-0.00002360,-0.0000
 0920,-0.00002789,-0.00001066,-0.00005417,-0.00002018,-0.00001058,-0.00
 030313,0.00017523,0.00000112,0.00004117,-0.00001835,0.00000806,0.00000
 047,0.00001725,-0.00000482,0.00003712,-0.00001515,-0.00000398,0.000007
 82,-0.00001010,0.00001711,0.00005171,-0.00002454,-0.00000320,-0.000037
 53,-0.00000574,0.00000971,0.00000201,0.00000596,0.00000020,0.00000304,
 0.00000144,-0.00001550,0.00000867,-0.00000446,0.00001160,-0.00000332,0
 .00000194,-0.00000272,-0.00001566,-0.00000242,0.00001359,0.00001358,-0
 .00001660,0.00001413,0.00000610,0.00000883,-0.00003365,-0.00001040,0.0
 0000439,-0.00000363,-0.00001142,-0.00000625,-0.00001586,0.00000609,0.0
 0000039,-0.00000022,0.00000542,-0.00001238,-0.00000264,0.00000040,0.00
 000239,0.00000370,-0.00000199,0.00000429,0.00000310,0.00000112,-0.0000
 0109,0.00001622,-0.00000019,-0.00001038,-0.00000468,0.00000897,-0.0000
 0032,-0.00000256,-0.00000587,0.00001379,-0.00001490,-0.00000119,-0.000
 00242,0.00000350,0.00001561,0.00000220,-0.00000679,0.00000525,-0.00000
 653,-0.00000318,-0.00001057,-0.00000047,0.00001091,0.00001962,0.000005
 08,-0.00001113,0.00000130,-0.00001474,0.00002379,0.00000237,-0.0000031
 8,-0.00000729,-0.00599314,-0.00080175,-0.00161088,0.00085519,0.0010883
 6,0.00030240,0.01749209,-0.03498494,-0.00516116,0.13244548,-0.17003556
 ,-0.00180135,-0.14400245,0.19953444,0.00041941,-0.00040205,0.00015604,
 0.00007778,0.00003249,-0.00003269,-0.00000081,-0.00003476,-0.00003379,
 -0.00000344,-0.00007353,-0.00002502,-0.00010629,-0.00010018,0.00001365
 ,-0.00002161,-0.00002335,0.00005774,-0.00000294,-0.00000725,0.00000579
 ,-0.00001576,-0.00000324,-0.00001780,-0.00008844,0.00002283,-0.0000252
 7,0.00001023,-0.00000522,0.00000827,-0.00000003,0.00000470,-0.00000186
 ,-0.00000268,-0.00000043,-0.00000364,0.00000399,0.00000756,0.00000859,
 0.00000251,-0.00000214,0.00000801,-0.00000702,0.00001505,-0.00000950,-
 0.00000202,0.00000641,0.00000634,-0.00000019,-0.00000331,-0.00000313,0
 .00000052,-0.00000242,0.00000099,0.00000271,0.00000476,-0.00000089,0.0
 0003200,-0.00001033,0.00001035,-0.00000230,0.00000318,0.00000237,-0.00
 001872,-0.00002649,0.00000316,0.00000557,-0.00000372,-0.00000723,-0.00
 000200,-0.00000124,-0.00000506,0.00000136,-0.00000015,-0.00000031,0.00
 000164,-0.00000201,0.00000096,-0.00000001,-0.00000096,0.00000124,0.000
 00122,0.00000239,0.00000008,-0.00000038,-0.00000050,0.00000387,-0.0000
 0014,-0.00000166,0.00000051,0.00000202,-0.00000014,-0.00000044,-0.0000
 0068,0.00000395,-0.00000257,0.00000134,-0.00000209,0.00000044,0.000001
 40,0.00000094,0.00000023,0.00000066,-0.00000173,0.00000075,-0.00000428
 ,0.00000027,-0.00000652,0.00000035,0.00000265,0.00000726,0.00000658,0.
 00000099,0.00001246,0.00000240,-0.00000815,-0.00000054,-0.00254752,-0.
 00086555,-0.00056159,0.00049747,0.00058074,0.00089628,0.00734587,-0.01
 336062,-0.00172578,0.00279102,0.00078171,-0.05145722,-0.00268234,0.008
 23365,0.04835966,-0.00025342,-0.00040978,0.00006463,0.00012430,0.00002
 114,0.00005422,0.00007394,-0.00009001,-0.00009579,-0.00007102,-0.00014
 352,-0.00002965,0.00008945,-0.00004586,-0.00013658,0.00009632,0.000003
 41,0.00009020,-0.00000982,-0.00002242,-0.00000879,-0.00001090,-0.00001
 623,0.00001809,-0.00025131,0.00016826,0.00006402,0.00003111,-0.0000157
 1,0.00000297,0.00000297,0.00001607,-0.00000562,0.00003650,-0.00001306,
 -0.00000461,0.00001137,-0.00001051,0.00001687,0.00004001,-0.00001361,0
 .00000952,-0.00004656,0.00001234,0.00001611,-0.00000553,0.00000729,-0.
 00000427,0.00000482,0.00000075,-0.00001206,0.00000804,-0.00000236,0.00
 000844,-0.00000439,-0.00000185,-0.00000223,-0.00000024,0.00000129,0.00
 002308,0.00001573,-0.00002834,0.00001436,0.00001660,-0.00000483,-0.000
 04280,-0.00002334,0.00001188,-0.00000106,-0.00001022,-0.00000535,-0.00
 001406,0.00000657,0.00000074,0.,0.00000455,-0.00001212,-0.00000290,-0.
 00000110,0.00000395,0.00000132,-0.00000122,0.00000045,0.00000488,-0.00
 000198,-0.00000096,0.00001511,-0.00000010,-0.00000899,-0.00000700,0.00
 001175,-0.00000077,-0.00000356,-0.00001115,0.00001458,-0.00003105,-0.0
 0000755,0.00000353,0.00000100,0.00001656,0.00000430,-0.00000173,0.0000
 0689,-0.00001167,-0.00000440,0.00002728,-0.00000392,0.00001069,0.00003
 245,0.00000638,-0.00001146,-0.00002749,-0.00002877,0.00002778,-0.00000
 992,0.00000400,-0.00001100,-0.00199227,0.00425002,0.00011033,0.0015641
 8,-0.00011088,0.00017259,-0.01219959,-0.01516230,0.00286112,-0.1839160
 3,-0.04385858,0.12396271,-0.01369212,-0.00509504,0.01488040,0.20011343
 ,-0.00007967,-0.00044562,-0.00078956,0.00017819,0.00007392,0.00015839,
 0.00020215,-0.00011790,-0.00013394,-0.00022835,-0.00029713,-0.00010893
 ,0.00027135,0.00011345,-0.00020374,0.00011556,-0.00003402,0.00009792,-
 0.00000707,-0.00001725,-0.00000227,-0.00002181,-0.00002768,0.00007563,
 -0.00041806,-0.00000166,-0.00000057,0.00005995,-0.00001161,0.00000323,
 0.00000630,0.00003489,-0.00000419,0.00005714,-0.00000079,-0.00001571,0
 .00000956,-0.00000184,0.00001728,0.00005810,-0.00001992,-0.00000160,0.
 00000294,-0.00003945,0.00001558,-0.00001572,0.00001348,-0.00000025,0.0
 0000518,-0.00000316,-0.00001563,0.00001097,-0.00000177,0.00000419,0.00
 000107,0.00000982,-0.00000153,-0.00001637,-0.00001220,0.00001065,0.000
 00310,0.00000599,0.00000446,-0.00001204,0.00000197,-0.00000764,0.00001
 817,-0.00000357,-0.00000502,-0.00000813,-0.00000606,-0.00001348,0.0000
 0938,-0.00000434,-0.00000180,0.00000558,-0.00000538,0.00000050,0.00000
 057,-0.00000056,0.00000285,-0.00000717,0.00001118,-0.00000010,-0.00000
 243,-0.00000472,0.00001871,0.00000271,-0.00000190,-0.00000212,0.000015
 82,-0.00000628,-0.00000784,0.00000299,0.00002545,-0.00002105,-0.000009
 50,0.00000042,-0.00000216,0.00002051,-0.00000364,-0.00000992,-0.000001
 94,0.00000422,0.00000660,0.00003586,0.00000371,0.00001989,0.00003778,-
 0.00000082,-0.00003710,-0.00004990,-0.00004747,-0.00000502,-0.00001517
 ,0.00003074,0.00000638,-0.00762032,0.00439307,0.00101785,0.00328284,0.
 00034989,0.00060103,-0.02560794,-0.02312930,0.01384809,-0.03849250,-0.
 06177204,0.03690860,0.01497163,0.00815523,-0.01499295,0.05626186,0.072
 39629,-0.00019038,0.00004111,-0.00059631,0.00001707,0.00000365,0.00003
 147,0.00001855,-0.00007674,-0.00006318,-0.00009297,-0.00004738,-0.0000
 3084,0.00002685,0.00009972,-0.00005565,0.00001311,-0.00001725,0.000027
 29,-0.00000449,-0.00001072,0.00000197,-0.00000550,-0.00001128,0.000035
 21,-0.00000834,0.00010595,-0.00003288,-0.00000202,-0.00000787,0.000011
 94,-0.00000236,-0.00000385,-0.00000277,-0.00001787,-0.00000488,0.00001
 352,0.00000018,0.00000485,0.00000852,0.00001619,-0.00000319,0.00002497
 ,-0.00001532,0.00000224,-0.00000035,0.00001538,-0.00000696,-0.00000086
 ,-0.00000786,0.00000022,-0.00000703,0.00000207,-0.00000415,0.00000532,
 -0.00000539,0.00000253,0.00000241,0.00005260,-0.00001672,-0.00002885,-
 0.00000260,-0.00000324,0.00000864,-0.00001224,0.00000895,-0.00001618,-
 0.00003047,0.00001308,0.00001170,-0.00000007,0.00000028,-0.00000556,-0
 .00000057,0.00000087,0.00000112,0.00000078,-0.00000281,0.00000009,0.00
 000068,-0.00000030,0.00000143,0.00000231,0.00000202,0.00000145,-0.0000
 0159,0.00000123,0.00000287,-0.00000037,-0.00000206,-0.00000115,0.00000
 147,-0.00000027,0.00000141,-0.00000294,0.00000358,-0.00002481,-0.00000
 184,0.00000519,0.00000044,-0.00000014,-0.00000024,0.00000761,0.0000043
 4,-0.00000836,-0.00000403,0.00002172,-0.00001075,-0.00000294,0.0000104
 5,-0.00000039,0.00000278,-0.00001008,-0.00001962,0.00000688,-0.0000067
 2,0.00000408,-0.00000752,0.00101242,-0.00013636,0.00120834,-0.00069420
 ,-0.00136643,-0.00013474,-0.01242697,-0.00535184,0.01214507,0.12631392
 ,0.04247822,-0.16682275,-0.00161234,-0.00039430,0.00079593,-0.13397074
 ,-0.04140023,0.17126142,-0.00030597,-0.00035157,-0.00016940,0.00014006
 ,0.00003937,0.00000815,0.00003540,-0.00015605,0.00005693,-0.00009079,-
 0.00011793,-0.00006140,0.00001842,-0.00004730,0.00011753,0.00009161,0.
 00003588,-0.00006479,-0.00000970,-0.00002168,-0.00000771,-0.00000264,-
 0.00000112,-0.00003033,-0.00016919,0.00020249,0.00000153,0.00002163,-0
 .00001666,0.00000845,-0.00000140,0.00000711,-0.00000550,0.00001425,-0.
 00001460,0.00001252,0.00000428,-0.00001052,0.00001466,0.00007063,-0.00
 001838,0.00000769,-0.00005158,-0.00000604,0.00001601,0.00001978,-0.000
 00591,-0.00000679,-0.00000772,0.00000087,-0.00001552,0.00000799,-0.000
 00543,0.00001321,-0.00001056,0.00000034,0.00000105,0.00001522,-0.00002
 134,-0.00001413,0.00001233,-0.00002301,0.00001723,0.00002831,0.0000266
 1,-0.00004736,-0.00004866,0.00002381,0.00001593,-0.00000885,-0.0000035
 8,-0.00001284,0.00000368,0.00000162,0.00000063,0.00000354,-0.00001110,
 -0.00000293,0.00000103,0.00000248,0.00000340,-0.00000227,0.00000245,0.
 00000277,0.00000154,-0.00000035,0.00001204,-0.00000058,-0.00000973,-0.
 00000463,0.00000684,0.00000103,-0.00000027,-0.00001381,0.00000192,-0.0
 0002986,-0.00000135,0.00000258,0.00000341,0.00001305,0.00000280,-0.000
 00138,0.00001010,-0.00001160,-0.00000737,-0.00000454,-0.00001104,0.000
 01532,0.00002283,0.00000571,-0.00000810,-0.00000807,-0.00001623,0.0000
 1947,-0.00000224,0.00000207,-0.00001272,-0.00073770,0.00331995,0.00094
 917,0.00081370,-0.00060859,-0.00005455,-0.00872348,-0.00796755,-0.0162
 8860,-0.08700433,0.01700336,-0.08930691,-0.00690503,0.00359053,-0.0205
 7884,0.01021244,-0.00303318,0.02159628,0.09254182,-0.00052290,-0.00076
 589,0.00064371,0.00019839,0.00010328,-0.00003331,0.00014787,-0.0001926
 9,0.00009866,-0.00025015,-0.00028307,-0.00011277,0.00018278,0.00007523
 ,0.00029232,0.00010434,0.00000731,-0.00006735,-0.00000598,-0.00001508,
 -0.00001226,0.00000321,0.00001890,-0.00008238,-0.00033356,0.00004233,-
 0.00006047,0.00004408,-0.00001367,0.00001872,0.00000325,0.00002371,-0.
 00000618,0.00001133,0.00000103,-0.00000809,0.00000993,0.00001611,0.000
 02891,0.00001238,-0.00001205,0.00001425,0.00000196,0.00001676,0.000006
 01,0.00000754,0.00000872,0.00001297,-0.00000713,-0.00000721,-0.0000180
 6,0.00000678,-0.00000660,0.00000706,-0.00000046,0.00001817,-0.00000004
 ,0.00007030,-0.00004872,0.00002043,-0.00000373,0.00001328,0.00000633,-
 0.00003189,-0.00002900,-0.00000519,-0.00000058,0.00000183,-0.00000140,
 -0.00000600,-0.00000322,-0.00001476,0.00000653,-0.00000287,-0.00000079
 ,0.00000506,-0.00000526,0.00000211,0.00000208,-0.00000355,0.00000529,-
 0.00000468,0.00001276,-0.00000337,0.00000067,-0.00000473,0.00001755,0.
 00000162,-0.00000418,0.00000062,0.00001099,-0.00000367,-0.00000395,0.0
 0000393,0.00002353,-0.00000354,0.00000059,-0.00000300,-0.00000005,0.00
 000989,-0.00000041,-0.00000351,-0.00000324,0.00000141,0.00000464,-0.00
 000496,0.00000875,0.00000518,0.00002237,0.00000120,-0.00000903,-0.0000
 1742,-0.00001967,0.00000912,-0.00000324,0.00000504,0.00000385,-0.00534
 940,0.00433432,-0.00207171,0.00242979,-0.00039891,0.00046938,-0.015948
 93,-0.00805833,-0.03432493,0.02028834,-0.05722331,0.04792214,0.0063656
 1,-0.00135351,0.02023189,0.00432519,0.00039437,0.00613041,-0.01178251,
 0.06333059,0.00006642,-0.00036630,-0.00029292,0.00016589,0.00007235,0.
 00001392,0.00009889,-0.00007336,0.00004835,-0.00007457,-0.00015755,-0.
 00006330,0.00010113,-0.00007370,0.00010584,0.00008384,0.00002316,-0.00
 002775,-0.00000400,-0.00000852,-0.00000183,-0.00000564,-0.00000125,-0.
 00001787,-0.00023755,0.00004161,-0.00013146,0.00003276,-0.00001727,0.0
 0002428,0.00000094,0.00001387,-0.00000461,0.00000861,-0.00000808,-0.00
 000509,0.00000632,0.00001142,0.00001862,0.00003545,-0.00002234,0.00000
 911,-0.00001500,0.00000273,-0.00001760,0.00000378,0.00001601,0.0000170
 8,-0.00000169,-0.00000573,-0.00001416,0.00000450,-0.00000941,0.0000095
 8,0.00000391,0.00001580,-0.00000242,0.00003865,-0.00002721,0.00001738,
 -0.00000091,0.00000950,0.00001217,-0.00004546,-0.00001634,0.00000764,0
 .00001948,-0.00001382,-0.00001850,-0.00000556,-0.00000249,-0.00001198,
 0.00000429,-0.00000082,-0.00000147,0.00000397,-0.00000489,0.00000135,0
 .00000210,-0.00000404,0.00000708,-0.00000280,0.00001396,-0.00000301,0.
 00000585,-0.00000275,0.00001202,0.00000037,-0.00000541,0.00000346,0.00
 000338,0.00000004,-0.00000117,-0.00000207,0.00000861,0.00000292,0.0000
 0885,-0.00001156,0.00000609,0.00000499,0.00000092,-0.00000911,0.000002
 28,0.00000166,0.00000182,-0.00003469,0.00000671,0.00000260,-0.00000531
 ,0.00000296,0.00000700,0.00002400,0.00000226,-0.00000004,0.00000792,-0
 .00001142,0.00000532,-0.00519588,0.00366083,0.00016665,0.00249329,0.00
 104166,0.00121375,-0.00573729,-0.01113477,-0.00649132,-0.08944292,0.04
 044158,-0.26801093,0.00177006,0.00073326,0.00355987,-0.00802907,0.0049
 6654,-0.01778139,0.10383848,-0.03910841,0.28763405\\0.00000996,0.00000
 798,0.00000833,-0.00000027,-0.00000282,0.00000106,-0.00000189,0.000006
 04,0.00000501,-0.00000774,0.00000451,0.00000063,-0.00000010,-0.0000085
 4,-0.00000285,0.00000171,0.00000425,0.00000105,-0.00000201,0.00000248,
 0.00000432,0.00000034,0.00000032,0.00000184,-0.00000539,-0.00000178,0.
 00000149,0.00000440,-0.00000371,0.00000662,-0.00000871,0.00000004,0.00
 000697,0.00000622,0.00000792,0.00000786,0.00000114,-0.00000109,-0.0000
 0447,-0.00000709,0.00000460,-0.00000613,-0.00000020,0.00000132,0.00000
 104,0.00000286,0.00000288,-0.00000574,-0.00000043,0.00000404,0.0000044
 7,0.00000119,0.00000214,0.00000503,0.00000005,0.00000316,0.00000348,0.
 00000273,-0.00000407,-0.00000698,0.00000332,0.00000181,0.00000150,0.00
 000135,0.00000431,0.00000073,0.00000158,0.00000025,-0.00000256,-0.0000
 0310,-0.00000081,-0.00000251,-0.00000591,-0.00000447,0.00000083,-0.000
 00532,-0.00000370,0.00000046,-0.00000300,-0.00000147,0.00000046,-0.000
 00106,-0.00000053,0.00000261,-0.00000375,-0.00000197,0.00000275,-0.000
 00498,-0.00000322,-0.00000010,-0.00000484,-0.00000404,-0.00000071,-0.0
 0000268,-0.00000527,-0.00000220,-0.00000208,-0.00000248,-0.00000237,0.
 00000185,-0.00000443,-0.00000474,-0.00000034,-0.00000381,-0.00000349,0
 .00000309,-0.00000769,0.00000098,0.00000042,-0.00000212,-0.00000488,0.
 00000135,-0.00000216,0.00000091,-0.00000217,-0.00000107,-0.00000325,0.
 00000577,0.00000934,-0.00000321,-0.00000203,-0.00000148,-0.00000121,0.
 00000570,-0.00000350,-0.00000251,0.00000334,0.00000279,-0.00000128,0.0
 0000472,0.00000345,-0.00000273,0.00000514,0.00000031,-0.00000455,0.000
 00686,0.00000230,-0.00000195\\\@


 IT IS DOUBTED WHETHER A MAN EVER BRINGS HIS FACULTIES TO BEAR WITH THEIR FULL FORCE
 ON A SUBJECT UNTIL HE WRITES UPON IT.

                          -- CICERO
 Job cpu time:       0 days 10 hours 22 minutes 26.0 seconds.
 File lengths (MBytes):  RWF=   1375 Int=      0 D2E=      0 Chk=     28 Scr=      1
 Normal termination of Gaussian 09 at Sat Mar 29 17:09:10 2025.
