 Entering Gaussian System, Link 0=g09
 Initial command:
 /cm/shared/apps/gaussian/g09revD.01/g09/l1.exe "//home/sweav003/CHB/CHActivation_Mkhalid/OtherCharges/G09-Table13_3.com.o9447096.tmp/Gau-26000.inp" -scrdir="//home/sweav003/CHB/CHActivation_Mkhalid/OtherCharges/G09-Table13_3.com.o9447096.tmp/"
 Entering Link 1 = /cm/shared/apps/gaussian/g09revD.01/g09/l1.exe PID=     26001.
  
 Copyright (c) 1988,1990,1992,1993,1995,1998,2003,2009,2013,
            Gaussian, Inc.  All Rights Reserved.
  
 This is part of the Gaussian(R) 09 program.  It is based on
 the Gaussian(R) 03 system (copyright 2003, Gaussian, Inc.),
 the Gaussian(R) 98 system (copyright 1998, Gaussian, Inc.),
 the Gaussian(R) 94 system (copyright 1995, Gaussian, Inc.),
 the Gaussian 92(TM) system (copyright 1992, Gaussian, Inc.),
 the Gaussian 90(TM) system (copyright 1990, Gaussian, Inc.),
 the Gaussian 88(TM) system (copyright 1988, Gaussian, Inc.),
 the Gaussian 86(TM) system (copyright 1986, Carnegie Mellon
 University), and the Gaussian 82(TM) system (copyright 1983,
 Carnegie Mellon University). Gaussian is a federally registered
 trademark of Gaussian, Inc.
  
 This software contains proprietary and confidential information,
 including trade secrets, belonging to Gaussian, Inc.
  
 This software is provided under written license and may be
 used, copied, transmitted, or stored only in accord with that
 written license.
  
 The following legend is applicable only to US Government
 contracts under FAR:
  
                    RESTRICTED RIGHTS LEGEND
  
 Use, reproduction and disclosure by the US Government is
 subject to restrictions as set forth in subparagraphs (a)
 and (c) of the Commercial Computer Software - Restricted
 Rights clause in FAR 52.227-19.
  
 Gaussian, Inc.
 340 Quinnipiac St., Bldg. 40, Wallingford CT 06492
  
  
 ---------------------------------------------------------------
 Warning -- This program may not be used in any manner that
 competes with the business of Gaussian, Inc. or will provide
 assistance to any competitor of Gaussian, Inc.  The licensee
 of this program is prohibited from giving any competitor of
 Gaussian, Inc. access to this program.  By using this program,
 the user acknowledges that Gaussian, Inc. is engaged in the
 business of creating and licensing software in the field of
 computational chemistry and represents and warrants to the
 licensee that it is not a competitor of Gaussian, Inc. and that
 it will not use this program in any manner prohibited above.
 ---------------------------------------------------------------
  

 Cite this work as:
 Gaussian 09, Revision D.01,
 M. J. Frisch, G. W. Trucks, H. B. Schlegel, G. E. Scuseria, 
 M. A. Robb, J. R. Cheeseman, G. Scalmani, V. Barone, B. Mennucci, 
 G. A. Petersson, H. Nakatsuji, M. Caricato, X. Li, H. P. Hratchian, 
 A. F. Izmaylov, J. Bloino, G. Zheng, J. L. Sonnenberg, M. Hada, 
 M. Ehara, K. Toyota, R. Fukuda, J. Hasegawa, M. Ishida, T. Nakajima, 
 Y. Honda, O. Kitao, H. Nakai, T. Vreven, J. A. Montgomery, Jr., 
 J. E. Peralta, F. Ogliaro, M. Bearpark, J. J. Heyd, E. Brothers, 
 K. N. Kudin, V. N. Staroverov, T. Keith, R. Kobayashi, J. Normand, 
 K. Raghavachari, A. Rendell, J. C. Burant, S. S. Iyengar, J. Tomasi, 
 M. Cossi, N. Rega, J. M. Millam, M. Klene, J. E. Knox, J. B. Cross, 
 V. Bakken, C. Adamo, J. Jaramillo, R. Gomperts, R. E. Stratmann, 
 O. Yazyev, A. J. Austin, R. Cammi, C. Pomelli, J. W. Ochterski, 
 R. L. Martin, K. Morokuma, V. G. Zakrzewski, G. A. Voth, 
 P. Salvador, J. J. Dannenberg, S. Dapprich, A. D. Daniels, 
 O. Farkas, J. B. Foresman, J. V. Ortiz, J. Cioslowski, 
 and D. J. Fox, Gaussian, Inc., Wallingford CT, 2013.
 
 ******************************************
 Gaussian 09:  ES64L-G09RevD.01 24-Apr-2013
                23-Jul-2021 
 ******************************************
 %mem=100MW
 %nprocshared=20
 Will use up to   20 processors via shared memory.
 ---------------------------------------------------------------------
 # b3lyp/6-311+g(d,p) geom=connectivity pop=(hirshfeld,chelpg,mbs,npa)
 ---------------------------------------------------------------------
 1/38=1,57=2/1;
 2/12=2,17=6,18=5,40=1/2;
 3/5=4,6=6,7=111,11=2,16=1,25=1,30=1,74=-5/1,2,3;
 4//1;
 5/5=2,38=5/2;
 6/7=2,8=2,9=2,10=2,15=8,20=3,27=100,28=1,40=-1,79=1/1,2,7;
 99/5=1,9=1/99;
 ---------
 Table13_3
 ---------
 Symbolic Z-matrix:
 Charge =  0 Multiplicity = 1
 6                     2.04468   1.35871  -0.00003 
 6                     0.90263   2.15721   0.00001 
 6                    -0.36424   1.58116   0.00007 
 6                    -0.49161   0.18832   0.00009 
 6                     0.64812  -0.6223    0.00005 
 6                     1.90154  -0.02679  -0.00001 
 1                     3.03278   1.80119  -0.00007 
 1                     1.00744   3.23587  0. 
 1                    -1.25104   2.19992   0.00011 
 1                     0.53723  -1.69852   0.00006 
 6                    -1.81957  -0.49516   0.00015 
 8                    -1.97033  -1.69478   0.0001 
 8                    -2.84677   0.37945  -0.00003 
 6                    -4.16499  -0.19931  -0.00018 
 1                    -4.31062  -0.81394   0.88902 
 1                    -4.85114   0.64461  -0.00051 
 1                    -4.31025  -0.81435  -0.88915 
 17                    3.33782  -1.04019  -0.00006 
 
                          Input orientation:                          
 ---------------------------------------------------------------------
 Center     Atomic      Atomic             Coordinates (Angstroms)
 Number     Number       Type             X           Y           Z
 ---------------------------------------------------------------------
      1          6           0        2.044681    1.358710   -0.000028
      2          6           0        0.902627    2.157208    0.000011
      3          6           0       -0.364238    1.581157    0.000071
      4          6           0       -0.491612    0.188321    0.000091
      5          6           0        0.648121   -0.622301    0.000046
      6          6           0        1.901543   -0.026793   -0.000009
      7          1           0        3.032780    1.801190   -0.000072
      8          1           0        1.007437    3.235874   -0.000002
      9          1           0       -1.251041    2.199919    0.000106
     10          1           0        0.537231   -1.698522    0.000060
     11          6           0       -1.819569   -0.495155    0.000151
     12          8           0       -1.970328   -1.694781    0.000104
     13          8           0       -2.846770    0.379452   -0.000025
     14          6           0       -4.164986   -0.199306   -0.000177
     15          1           0       -4.310618   -0.813941    0.889015
     16          1           0       -4.851143    0.644608   -0.000505
     17          1           0       -4.310251   -0.814347   -0.889146
     18         17           0        3.337823   -1.040188   -0.000060
 ---------------------------------------------------------------------
                    Distance matrix (angstroms):
                    1          2          3          4          5
     1  C    0.000000
     2  C    1.393516   0.000000
     3  C    2.419168   1.391683   0.000000
     4  C    2.793312   2.412554   1.398648   0.000000
     5  C    2.423795   2.791137   2.424891   1.398606   0.000000
     6  C    1.392877   2.401602   2.778357   2.402804   1.387695
     7  H    1.082649   2.159699   3.404137   3.875911   3.399986
     8  H    2.144672   1.083746   2.149321   3.396281   3.874871
     9  H    3.401384   2.154091   1.081335   2.150176   3.401726
    10  H    3.408676   3.873005   3.401315   2.149115   1.081919
    11  C    4.285936   3.800708   2.535559   1.493522   2.470963
    12  O    5.044215   4.805381   3.648465   2.394300   2.829574
    13  O    4.988511   4.149505   2.758090   2.362901   3.635625
    14  C    6.402139   5.588726   4.197110   3.693769   4.831658
    15  H    6.775001   6.065969   4.701131   4.047162   5.041437
    16  H    6.932700   5.949271   4.583606   4.383344   5.643311
    17  H    6.774797   6.065875   4.701081   4.046985   5.041131
    18  Cl   2.725239   4.019144   4.536155   4.021667   2.721971
                    6          7          8          9         10
     6  C    0.000000
     7  H    2.149702   0.000000
     8  H    3.382960   2.482002   0.000000
     9  H    3.859667   4.302337   2.484739   0.000000
    10  H    2.157782   4.298343   4.956749   4.289028   0.000000
    11  C    3.750472   5.368286   4.681083   2.754387   2.646242
    12  O    4.215871   6.103516   5.760073   3.960563   2.507562
    13  O    4.765660   6.049004   4.797297   2.420837   3.971075
    14  C    6.068981   7.470597   6.209221   3.774567   4.935432
    15  H    6.324627   7.845692   6.743372   4.385718   5.007431
    16  H    6.785982   7.968307   6.406061   3.921700   5.875784
    17  H    6.324333   7.845482   6.743343   4.385811   5.007048
    18  Cl   1.757803   2.857705   4.869847   5.617470   2.876929
                   11         12         13         14         15
    11  C    0.000000
    12  O    1.209062   0.000000
    13  O    1.349103   2.251798   0.000000
    14  C    2.364002   2.655743   1.439672   0.000000
    15  H    2.664025   2.653865   2.087446   1.090710   0.000000
    16  H    3.238750   3.711042   2.021836   1.087659   1.791864
    17  H    2.663875   2.653520   2.087455   1.090708   1.778161
    18  Cl   5.186112   5.348360   6.345437   7.549783   7.703265
                   16         17         18
    16  H    0.000000
    17  H    1.791870   0.000000
    18  Cl   8.360485   7.702890   0.000000
 Stoichiometry    C8H7ClO2
 Framework group  C1[X(C8H7ClO2)]
 Deg. of freedom    48
 Full point group                 C1      NOp   1
 Largest Abelian subgroup         C1      NOp   1
 Largest concise Abelian subgroup C1      NOp   1
                         Standard orientation:                         
 ---------------------------------------------------------------------
 Center     Atomic      Atomic             Coordinates (Angstroms)
 Number     Number       Type             X           Y           Z
 ---------------------------------------------------------------------
      1          6           0       -2.044681    1.358710    0.000028
      2          6           0       -0.902627    2.157208   -0.000011
      3          6           0        0.364238    1.581157   -0.000071
      4          6           0        0.491612    0.188321   -0.000091
      5          6           0       -0.648121   -0.622301   -0.000046
      6          6           0       -1.901543   -0.026793    0.000009
      7          1           0       -3.032780    1.801190    0.000072
      8          1           0       -1.007437    3.235874    0.000002
      9          1           0        1.251041    2.199919   -0.000106
     10          1           0       -0.537231   -1.698522   -0.000060
     11          6           0        1.819569   -0.495155   -0.000151
     12          8           0        1.970328   -1.694781   -0.000104
     13          8           0        2.846770    0.379452    0.000025
     14          6           0        4.164986   -0.199306    0.000177
     15          1           0        4.310618   -0.813941   -0.889015
     16          1           0        4.851143    0.644608    0.000505
     17          1           0        4.310251   -0.814347    0.889146
     18         17           0       -3.337823   -1.040188    0.000060
 ---------------------------------------------------------------------
 Rotational constants (GHZ):      2.2246084      0.4973570      0.4075245
 Standard basis: 6-311+G(d,p) (5D, 7F)
 There are   303 symmetry adapted cartesian basis functions of A   symmetry.
 There are   292 symmetry adapted basis functions of A   symmetry.
   292 basis functions,   469 primitive gaussians,   303 cartesian basis functions
    44 alpha electrons       44 beta electrons
       nuclear repulsion energy       641.6601538324 Hartrees.
 NAtoms=   18 NActive=   18 NUniq=   18 SFac= 1.00D+00 NAtFMM=   60 NAOKFM=F Big=F
 Integral buffers will be    131072 words long.
 Raffenetti 2 integral format.
 Two-electron integral symmetry is turned on.
 One-electron integrals computed using PRISM.
 NBasis=   292 RedAO= T EigKep=  2.67D-06  NBF=   292
 NBsUse=   291 1.00D-06 EigRej=  8.50D-07 NBFU=   291
 ExpMin= 4.38D-02 ExpMax= 1.06D+05 ExpMxC= 3.62D+03 IAcc=2 IRadAn=         4 AccDes= 0.00D+00
 Harris functional with IExCor=  402 and IRadAn=       4 diagonalized for initial guess.
 HarFok:  IExCor=  402 AccDes= 0.00D+00 IRadAn=         4 IDoV= 1 UseB2=F ITyADJ=14
 ICtDFT=  3500011 ScaDFX=  1.000000  1.000000  1.000000  1.000000
 FoFCou: FMM=F IPFlag=           0 FMFlag=      100000 FMFlg1=           0
         NFxFlg=           0 DoJE=T BraDBF=F KetDBF=T FulRan=T
         wScrn=  0.000000 ICntrl=     500 IOpCl=  0 I1Cent=   200000004 NGrid=           0
         NMat0=    1 NMatS0=      1 NMatT0=    0 NMatD0=    1 NMtDS0=    0 NMtDT0=    0
 Petite list used in FoFCou.
 Requested convergence on RMS density matrix=1.00D-08 within 128 cycles.
 Requested convergence on MAX density matrix=1.00D-06.
 Requested convergence on             energy=1.00D-06.
 No special actions if energy rises.
 SCF Done:  E(RB3LYP) =  -919.879823825     A.U. after   15 cycles
            NFock= 15  Conv=0.71D-08     -V/T= 2.0032

 **********************************************************************

            Population analysis using the SCF density.

 **********************************************************************

 Orbital symmetries:
       Occupied  (A) (A) (A) (A) (A) (A) (A) (A) (A) (A) (A) (A)
                 (A) (A) (A) (A) (A) (A) (A) (A) (A) (A) (A) (A)
                 (A) (A) (A) (A) (A) (A) (A) (A) (A) (A) (A) (A)
                 (A) (A) (A) (A) (A) (A) (A) (A)
       Virtual   (A) (A) (A) (A) (A) (A) (A) (A) (A) (A) (A) (A)
                 (A) (A) (A) (A) (A) (A) (A) (A) (A) (A) (A) (A)
                 (A) (A) (A) (A) (A) (A) (A) (A) (A) (A) (A) (A)
                 (A) (A) (A) (A) (A) (A) (A) (A) (A) (A) (A) (A)
                 (A) (A) (A) (A) (A) (A) (A) (A) (A) (A) (A) (A)
                 (A) (A) (A) (A) (A) (A) (A) (A) (A) (A) (A) (A)
                 (A) (A) (A) (A) (A) (A) (A) (A) (A) (A) (A) (A)
                 (A) (A) (A) (A) (A) (A) (A) (A) (A) (A) (A) (A)
                 (A) (A) (A) (A) (A) (A) (A) (A) (A) (A) (A) (A)
                 (A) (A) (A) (A) (A) (A) (A) (A) (A) (A) (A) (A)
                 (A) (A) (A) (A) (A) (A) (A) (A) (A) (A) (A) (A)
                 (A) (A) (A) (A) (A) (A) (A) (A) (A) (A) (A) (A)
                 (A) (A) (A) (A) (A) (A) (A) (A) (A) (A) (A) (A)
                 (A) (A) (A) (A) (A) (A) (A) (A) (A) (A) (A) (A)
                 (A) (A) (A) (A) (A) (A) (A) (A) (A) (A) (A) (A)
                 (A) (A) (A) (A) (A) (A) (A) (A) (A) (A) (A) (A)
                 (A) (A) (A) (A) (A) (A) (A) (A) (A) (A) (A) (A)
                 (A) (A) (A) (A) (A) (A) (A) (A) (A) (A) (A) (A)
                 (A) (A) (A) (A) (A) (A) (A) (A) (A) (A) (A) (A)
                 (A) (A) (A) (A) (A) (A) (A) (A) (A) (A) (A) (A)
                 (A) (A) (A) (A) (A) (A) (A)
 The electronic state is 1-A.
 Alpha  occ. eigenvalues -- -101.56118 -19.18184 -19.12243 -10.31564 -10.25284
 Alpha  occ. eigenvalues --  -10.23556 -10.21193 -10.20599 -10.20302 -10.20185
 Alpha  occ. eigenvalues --  -10.20039  -9.47575  -7.24038  -7.23058  -7.23022
 Alpha  occ. eigenvalues --   -1.12258  -1.03449  -0.90894  -0.85644  -0.79298
 Alpha  occ. eigenvalues --   -0.76051  -0.73651  -0.65469  -0.62696  -0.58235
 Alpha  occ. eigenvalues --   -0.55122  -0.51184  -0.50004  -0.49847  -0.47546
 Alpha  occ. eigenvalues --   -0.46648  -0.45012  -0.43657  -0.42699  -0.40277
 Alpha  occ. eigenvalues --   -0.39290  -0.38419  -0.37091  -0.34668  -0.32502
 Alpha  occ. eigenvalues --   -0.32302  -0.29657  -0.28357  -0.26545
 Alpha virt. eigenvalues --   -0.07070  -0.03665  -0.00485   0.00477   0.01149
 Alpha virt. eigenvalues --    0.02371   0.02546   0.02843   0.03798   0.04378
 Alpha virt. eigenvalues --    0.04779   0.05425   0.05880   0.06651   0.08293
 Alpha virt. eigenvalues --    0.08297   0.08943   0.09706   0.10110   0.11304
 Alpha virt. eigenvalues --    0.11605   0.12655   0.12899   0.13375   0.13749
 Alpha virt. eigenvalues --    0.14602   0.14661   0.14861   0.15350   0.16429
 Alpha virt. eigenvalues --    0.16835   0.17913   0.18237   0.18278   0.18835
 Alpha virt. eigenvalues --    0.19997   0.20596   0.20722   0.21252   0.21655
 Alpha virt. eigenvalues --    0.22403   0.23440   0.23838   0.25030   0.25595
 Alpha virt. eigenvalues --    0.25883   0.26799   0.26974   0.27266   0.27626
 Alpha virt. eigenvalues --    0.28621   0.29116   0.29287   0.30638   0.31897
 Alpha virt. eigenvalues --    0.33011   0.33692   0.34988   0.35828   0.37580
 Alpha virt. eigenvalues --    0.41202   0.42645   0.43437   0.43955   0.45798
 Alpha virt. eigenvalues --    0.45960   0.46830   0.48840   0.50714   0.51866
 Alpha virt. eigenvalues --    0.52652   0.52768   0.54567   0.56087   0.56195
 Alpha virt. eigenvalues --    0.56821   0.59452   0.59721   0.60091   0.62089
 Alpha virt. eigenvalues --    0.62285   0.62415   0.63992   0.64977   0.67393
 Alpha virt. eigenvalues --    0.67806   0.68053   0.69230   0.70343   0.71500
 Alpha virt. eigenvalues --    0.73048   0.74910   0.78093   0.81493   0.82341
 Alpha virt. eigenvalues --    0.83036   0.84585   0.85251   0.85868   0.86502
 Alpha virt. eigenvalues --    0.88396   0.89808   0.91439   0.94152   0.95401
 Alpha virt. eigenvalues --    0.96605   0.96631   0.98222   1.00689   1.01714
 Alpha virt. eigenvalues --    1.02260   1.03607   1.04934   1.05173   1.07393
 Alpha virt. eigenvalues --    1.08665   1.10824   1.12093   1.16786   1.18495
 Alpha virt. eigenvalues --    1.20310   1.23586   1.24171   1.28013   1.31008
 Alpha virt. eigenvalues --    1.31441   1.36028   1.37382   1.42467   1.42572
 Alpha virt. eigenvalues --    1.47751   1.48845   1.49797   1.50270   1.52193
 Alpha virt. eigenvalues --    1.53212   1.54823   1.55602   1.59964   1.60587
 Alpha virt. eigenvalues --    1.65795   1.66441   1.67737   1.68516   1.69202
 Alpha virt. eigenvalues --    1.71262   1.72791   1.74131   1.74486   1.81108
 Alpha virt. eigenvalues --    1.84457   1.87984   1.90090   1.90171   1.90583
 Alpha virt. eigenvalues --    1.93491   1.96360   1.97496   1.97773   2.00945
 Alpha virt. eigenvalues --    2.02402   2.03461   2.05757   2.09708   2.11714
 Alpha virt. eigenvalues --    2.18913   2.20795   2.21648   2.27324   2.29164
 Alpha virt. eigenvalues --    2.31813   2.37473   2.39301   2.41099   2.42166
 Alpha virt. eigenvalues --    2.46030   2.50276   2.50544   2.51792   2.54259
 Alpha virt. eigenvalues --    2.58503   2.62627   2.63036   2.63815   2.64538
 Alpha virt. eigenvalues --    2.68724   2.71923   2.73816   2.74287   2.76886
 Alpha virt. eigenvalues --    2.77634   2.78216   2.79448   2.82344   2.83745
 Alpha virt. eigenvalues --    2.85363   2.86616   2.89354   2.90771   3.01816
 Alpha virt. eigenvalues --    3.02734   3.06211   3.09900   3.15889   3.18046
 Alpha virt. eigenvalues --    3.20257   3.20615   3.28034   3.34547   3.36436
 Alpha virt. eigenvalues --    3.36876   3.49367   3.54611   3.57689   3.64383
 Alpha virt. eigenvalues --    3.71933   3.76286   3.76984   3.84578   3.99386
 Alpha virt. eigenvalues --    4.04912   4.08732   4.12837   4.15891   4.33832
 Alpha virt. eigenvalues --    4.82512   4.96251   5.04019   5.21290   5.35946
 Alpha virt. eigenvalues --    5.65675   5.84834   9.77536  23.54105  23.84260
 Alpha virt. eigenvalues --   23.89158  23.91055  23.93377  24.04144  24.06600
 Alpha virt. eigenvalues --   24.15841  25.82321  26.11898  26.59421  49.88846
 Alpha virt. eigenvalues --   50.03173 215.76618
          Condensed to atoms (all electrons):
               1          2          3          4          5          6
     1  C   12.613543   0.006226   0.296054  -2.298311  -2.873971  -3.178646
     2  C    0.006226   9.034010  -3.018355   1.211370  -0.073471   0.314661
     3  C    0.296054  -3.018355  11.349396  -2.375420  -1.157376  -1.808083
     4  C   -2.298311   1.211370  -2.375420  18.674749   2.104018  -1.385529
     5  C   -2.873971  -0.073471  -1.157376   2.104018   8.518171   1.266536
     6  C   -3.178646   0.314661  -1.808083  -1.385529   1.266536  11.528035
     7  H    0.345935  -0.038496  -0.029032   0.034647   0.001655   0.037619
     8  H    0.022334   0.345356   0.002954  -0.006408  -0.012220  -0.024699
     9  H   -0.002418  -0.016605   0.398907  -0.062573  -0.013355   0.005717
    10  H    0.061209  -0.021680   0.009956  -0.126325   0.354809  -0.043338
    11  C    1.905878  -1.673850   2.604384  -8.698446  -2.129727  -0.634484
    12  O   -0.025517   0.084432  -0.102498   0.230756   0.003953   0.058811
    13  O    0.020475   0.038917   0.091739  -0.835335  -0.093241  -0.004219
    14  C    0.017684  -0.070122   0.042452  -0.600287  -0.022193   0.021251
    15  H   -0.000185  -0.000616   0.001083   0.021548  -0.006702  -0.001042
    16  H    0.000118   0.001041  -0.009924   0.019702   0.008261   0.000505
    17  H   -0.000186  -0.000618   0.001052   0.021653  -0.006690  -0.001041
    18  Cl  -0.316872   0.232084  -0.009827  -0.036013   0.415495  -0.771518
               7          8          9         10         11         12
     1  C    0.345935   0.022334  -0.002418   0.061209   1.905878  -0.025517
     2  C   -0.038496   0.345356  -0.016605  -0.021680  -1.673850   0.084432
     3  C   -0.029032   0.002954   0.398907   0.009956   2.604384  -0.102498
     4  C    0.034647  -0.006408  -0.062573  -0.126325  -8.698446   0.230756
     5  C    0.001655  -0.012220  -0.013355   0.354809  -2.129727   0.003953
     6  C    0.037619  -0.024699   0.005717  -0.043338  -0.634484   0.058811
     7  H    0.507922  -0.007668  -0.000203  -0.000263   0.001686   0.000011
     8  H   -0.007668   0.530063  -0.007020   0.000062   0.019460  -0.000028
     9  H   -0.000203  -0.007020   0.502727  -0.000072   0.040592  -0.000853
    10  H   -0.000263   0.000062  -0.000072   0.476641   0.114839   0.006209
    11  C    0.001686   0.019460   0.040592   0.114839  13.823546   0.150252
    12  O    0.000011  -0.000028  -0.000853   0.006209   0.150252   8.171471
    13  O    0.000029   0.000313   0.006170   0.002683   0.562637  -0.201049
    14  C   -0.000015   0.000207   0.000190   0.002740   0.241469  -0.092343
    15  H    0.000000   0.000000  -0.000040  -0.000013  -0.025845  -0.002240
    16  H    0.000000  -0.000001   0.000188  -0.000003   0.023296   0.003768
    17  H    0.000000   0.000000  -0.000040  -0.000013  -0.025898  -0.002229
    18  Cl  -0.006561   0.000350   0.000599  -0.007980  -0.190701   0.001027
              13         14         15         16         17         18
     1  C    0.020475   0.017684  -0.000185   0.000118  -0.000186  -0.316872
     2  C    0.038917  -0.070122  -0.000616   0.001041  -0.000618   0.232084
     3  C    0.091739   0.042452   0.001083  -0.009924   0.001052  -0.009827
     4  C   -0.835335  -0.600287   0.021548   0.019702   0.021653  -0.036013
     5  C   -0.093241  -0.022193  -0.006702   0.008261  -0.006690   0.415495
     6  C   -0.004219   0.021251  -0.001042   0.000505  -0.001041  -0.771518
     7  H    0.000029  -0.000015   0.000000   0.000000   0.000000  -0.006561
     8  H    0.000313   0.000207   0.000000  -0.000001   0.000000   0.000350
     9  H    0.006170   0.000190  -0.000040   0.000188  -0.000040   0.000599
    10  H    0.002683   0.002740  -0.000013  -0.000003  -0.000013  -0.007980
    11  C    0.562637   0.241469  -0.025845   0.023296  -0.025898  -0.190701
    12  O   -0.201049  -0.092343  -0.002240   0.003768  -0.002229   0.001027
    13  O    8.404777   0.280234  -0.028669  -0.065299  -0.028672  -0.002006
    14  C    0.280234   5.099669   0.422008   0.384174   0.421977  -0.000494
    15  H   -0.028669   0.422008   0.521173  -0.028019  -0.033801   0.000003
    16  H   -0.065299   0.384174  -0.028019   0.536231  -0.028019   0.000001
    17  H   -0.028672   0.421977  -0.033801  -0.028019   0.521158   0.000003
    18  Cl  -0.002006  -0.000494   0.000003   0.000001   0.000003  17.292919
 Mulliken charges:
               1
     1  C   -0.593351
     2  C   -0.354286
     3  C   -0.287464
     4  C    0.106203
     5  C   -0.283951
     6  C    0.619462
     7  H    0.152735
     8  H    0.136945
     9  H    0.148090
    10  H    0.170537
    11  C   -0.109087
    12  O   -0.283934
    13  O   -0.149485
    14  C   -0.148603
    15  H    0.161357
    16  H    0.153978
    17  H    0.161362
    18  Cl   0.399490
 Sum of Mulliken charges =   0.00000
 Mulliken charges with hydrogens summed into heavy atoms:
               1
     1  C   -0.440616
     2  C   -0.217341
     3  C   -0.139373
     4  C    0.106203
     5  C   -0.113414
     6  C    0.619462
    11  C   -0.109087
    12  O   -0.283934
    13  O   -0.149485
    14  C    0.328094
    18  Cl   0.399490
 Electronic spatial extent (au):  <R**2>=           2523.8074
 Charge=              0.0000 electrons
 Dipole moment (field-independent basis, Debye):
    X=              1.5667    Y=              2.9038    Z=              0.0001  Tot=              3.2995
 Quadrupole moment (field-independent basis, Debye-Ang):
   XX=            -62.0973   YY=            -70.6829   ZZ=            -72.6711
   XY=             -0.4727   XZ=              0.0007   YZ=             -0.0003
 Traceless Quadrupole moment (field-independent basis, Debye-Ang):
   XX=              6.3865   YY=             -2.1992   ZZ=             -4.1874
   XY=             -0.4727   XZ=              0.0007   YZ=             -0.0003
 Octapole moment (field-independent basis, Debye-Ang**2):
  XXX=             73.3949  YYY=             15.2593  ZZZ=              0.0001  XYY=            -12.8822
  XXY=              9.1777  XXZ=              0.0042  XZZ=              8.6096  YZZ=             -7.2249
  YYZ=              0.0015  XYZ=             -0.0010
 Hexadecapole moment (field-independent basis, Debye-Ang**3):
 XXXX=          -2264.5617 YYYY=           -629.1675 ZZZZ=            -86.6865 XXXY=            -12.9046
 XXXZ=              0.0150 YYYX=             22.2505 YYYZ=             -0.0017 ZZZX=             -0.0019
 ZZZY=              0.0002 XXYY=           -532.6349 XXZZ=           -442.7948 YYZZ=           -132.8595
 XXYZ=              0.0013 YYXZ=              0.0031 ZZXY=             -0.4931
 N-N= 6.416601538324D+02 E-N=-3.449774203630D+03  KE= 9.169629733456D+02
 There are a total of      148212 grid points.
 ElSum from          density=       88.0000420278
 ElSum from atomic densities=       88.0001840039

 Hirshfeld populations at iteration   1 (CX, CA, CB, DipXYZ):
               1          2          3          4          5          6
     1  C    0.000000   3.017514   3.017514  -0.055110   0.037550   0.000003
     2  C    0.000000   3.017995   3.017995  -0.007675   0.067230   0.000002
     3  C    0.000000   3.017693   3.017693   0.040171   0.039527   0.000001
     4  C    0.000000   3.005264   3.005264   0.052821  -0.025556  -0.000001
     5  C    0.000000   3.015626   3.015626   0.010279  -0.055638   0.000002
     6  C    0.000001   2.981739   2.981739  -0.075142  -0.052858   0.000003
     7  H    0.000002   0.470665   0.470665  -0.142992   0.082410   0.000006
     8  H    0.000002   0.472258   0.472258  -0.015586   0.164467   0.000002
     9  H    0.000002   0.474363   0.474363   0.111100   0.113625  -0.000006
    10  H    0.000003   0.470264   0.470264   0.002251  -0.155977  -0.000001
    11  C    0.000000   2.889775   2.889775   0.059920   0.047985  -0.000038
    12  O    0.000003   4.140234   4.140234  -0.016711   0.102898   0.000018
    13  O    0.000000   4.063169   4.063169   0.039961  -0.120621   0.000004
    14  C    0.000000   3.003505   3.003505  -0.041488   0.033894  -0.000001
    15  H    0.000001   0.474645   0.474645   0.042340  -0.080644  -0.127587
    16  H    0.000000   0.473387   0.473387   0.109306   0.117930   0.000049
    17  H    0.000001   0.474646   0.474646   0.042301  -0.080693   0.127566
    18  Cl   0.000010   8.537280   8.537280   0.007756  -0.002612  -0.000001
       Tot   0.000025  44.000021  44.000021   0.163500   0.232916   0.000021

 Dip from Atomic Chgs              0.451835   0.909406   0.000037
         Total Dipole              0.615335   1.142322   0.000059

 Hirshfeld charges, spin densities, dipoles, and CM5 charges using IRadAn=      4:
              Q-H        S-H        Dx         Dy         Dz        Q-CM5   
     1  C   -0.035028   0.000000  -0.055110   0.037550   0.000003  -0.087485
     2  C   -0.035990   0.000000  -0.007675   0.067230   0.000002  -0.091352
     3  C   -0.035386   0.000000   0.040171   0.039527   0.000001  -0.087127
     4  C   -0.010529   0.000000   0.052821  -0.025556  -0.000001  -0.013700
     5  C   -0.031252   0.000000   0.010279  -0.055638   0.000002  -0.079589
     6  C    0.036522   0.000000  -0.075142  -0.052858   0.000003   0.029654
     7  H    0.058671   0.000000  -0.142992   0.082410   0.000006   0.113434
     8  H    0.055485   0.000000  -0.015586   0.164467   0.000002   0.111383
     9  H    0.051275   0.000000   0.111100   0.113625  -0.000006   0.112795
    10  H    0.059473   0.000000   0.002251  -0.155977  -0.000001   0.119143
    11  C    0.220451   0.000000   0.059920   0.047985  -0.000038   0.278972
    12  O   -0.280468   0.000000  -0.016711   0.102898   0.000018  -0.329810
    13  O   -0.126339   0.000000   0.039961  -0.120621   0.000004  -0.213184
    14  C   -0.007010   0.000000  -0.041488   0.033894  -0.000001  -0.128800
    15  H    0.050710   0.000000   0.042340  -0.080644  -0.127587   0.112216
    16  H    0.053226   0.000000   0.109306   0.117930   0.000049   0.113803
    17  H    0.050709   0.000000   0.042301  -0.080693   0.127566   0.112218
    18  Cl  -0.074560   0.000000   0.007756  -0.002612  -0.000001  -0.072613
       Tot  -0.000042   0.000000   0.163500   0.232916   0.000021  -0.000042
 Hirshfeld charges with hydrogens summed into heavy atoms:
              Q-H       Q-CM5   
     1  C    0.023642   0.025949
     2  C    0.019495   0.020030
     3  C    0.015889   0.025668
     4  C   -0.010529  -0.013700
     5  C    0.028221   0.039554
     6  C    0.036522   0.029654
    11  C    0.220451   0.278972
    12  O   -0.280468  -0.329810
    13  O   -0.126339  -0.213184
    14  C    0.147634   0.209438
    18  Cl  -0.074560  -0.072613
 
 EQQ= 0.000000000000E+00 EQD= 0.000000000000E+00 EDD= 0.399706398876E-02
 EQQ+QD+DD= 0.399706398876E-02
 
          MBS Condensed to atoms (all electrons):
               1          2          3          4          5          6
     1  C    4.816079   0.502812  -0.030347  -0.011274  -0.031079   0.503002
     2  C    0.502812   4.814696   0.506665  -0.030754  -0.011036  -0.029844
     3  C   -0.030347   0.506665   4.823225   0.495214  -0.030463  -0.011925
     4  C   -0.011274  -0.030754   0.495214   4.819159   0.495060  -0.028350
     5  C   -0.031079  -0.011036  -0.030463   0.495060   4.821202   0.509283
     6  C    0.503002  -0.029844  -0.011925  -0.028350   0.509283   4.716234
     7  H    0.389025  -0.023184   0.001455   0.000059   0.001396  -0.025581
     8  H   -0.025829   0.390807  -0.025493   0.001515   0.000035   0.001475
     9  H    0.001461  -0.023902   0.388081  -0.025532   0.001457   0.000069
    10  H    0.001315   0.000049   0.001429  -0.024296   0.384579  -0.023268
    11  C    0.000005   0.000812  -0.023349   0.389768  -0.028251   0.000903
    12  O    0.000000  -0.000002   0.000283  -0.027127  -0.002682   0.000013
    13  O    0.000000   0.000012  -0.002470  -0.034082   0.000314  -0.000001
    14  C    0.000000   0.000000   0.000042   0.001631  -0.000015   0.000000
    15  H    0.000000   0.000000  -0.000002   0.000004   0.000001   0.000000
    16  H    0.000000   0.000000   0.000000  -0.000026   0.000000   0.000000
    17  H    0.000000   0.000000  -0.000002   0.000004   0.000001   0.000000
    18  Cl  -0.029865   0.000691   0.000009   0.000693  -0.029947   0.263051
               7          8          9         10         11         12
     1  C    0.389025  -0.025829   0.001461   0.001315   0.000005   0.000000
     2  C   -0.023184   0.390807  -0.023902   0.000049   0.000812  -0.000002
     3  C    0.001455  -0.025493   0.388081   0.001429  -0.023349   0.000283
     4  C    0.000059   0.001515  -0.025532  -0.024296   0.389768  -0.027127
     5  C    0.001396   0.000035   0.001457   0.384579  -0.028251  -0.002682
     6  C   -0.025581   0.001475   0.000069  -0.023268   0.000903   0.000013
     7  H    0.533401  -0.003850  -0.000035  -0.000040   0.000001   0.000000
     8  H   -0.003850   0.547170  -0.003727   0.000002  -0.000017   0.000000
     9  H   -0.000035  -0.003727   0.529167  -0.000039  -0.003886   0.000017
    10  H   -0.000040   0.000002  -0.000039   0.511423  -0.004225   0.003115
    11  C    0.000001  -0.000017  -0.003886  -0.004225   4.469809   0.459958
    12  O    0.000000   0.000000   0.000017   0.003115   0.459958   8.058571
    13  O    0.000000   0.000000   0.002822   0.000037   0.293118  -0.024056
    14  C    0.000000   0.000000  -0.000098  -0.000002  -0.033160  -0.001791
    15  H    0.000000   0.000000   0.000003   0.000000  -0.003636   0.001264
    16  H    0.000000   0.000000  -0.000001   0.000000   0.002424   0.000080
    17  H    0.000000   0.000000   0.000003   0.000000  -0.003639   0.001266
    18  Cl  -0.001935  -0.000014   0.000000  -0.002044  -0.000004   0.000000
              13         14         15         16         17         18
     1  C    0.000000   0.000000   0.000000   0.000000   0.000000  -0.029865
     2  C    0.000012   0.000000   0.000000   0.000000   0.000000   0.000691
     3  C   -0.002470   0.000042  -0.000002   0.000000  -0.000002   0.000009
     4  C   -0.034082   0.001631   0.000004  -0.000026   0.000004   0.000693
     5  C    0.000314  -0.000015   0.000001   0.000000   0.000001  -0.029947
     6  C   -0.000001   0.000000   0.000000   0.000000   0.000000   0.263051
     7  H    0.000000   0.000000   0.000000   0.000000   0.000000  -0.001935
     8  H    0.000000   0.000000   0.000000   0.000000   0.000000  -0.000014
     9  H    0.002822  -0.000098   0.000003  -0.000001   0.000003   0.000000
    10  H    0.000037  -0.000002   0.000000   0.000000   0.000000  -0.002044
    11  C    0.293118  -0.033160  -0.003636   0.002424  -0.003639  -0.000004
    12  O   -0.024056  -0.001791   0.001264   0.000080   0.001266   0.000000
    13  O    7.929972   0.257897  -0.016166  -0.019742  -0.016165   0.000000
    14  C    0.257897   4.731017   0.373242   0.378969   0.373241   0.000000
    15  H   -0.016166   0.373242   0.570383  -0.021878  -0.024640   0.000000
    16  H   -0.019742   0.378969  -0.021878   0.562154  -0.021877   0.000000
    17  H   -0.016165   0.373241  -0.024640  -0.021877   0.570373   0.000000
    18  Cl   0.000000   0.000000   0.000000   0.000000   0.000000  17.005368
 MBS Mulliken charges:
               1
     1  C   -0.085304
     2  C   -0.097822
     3  C   -0.092350
     4  C   -0.021667
     5  C   -0.079855
     6  C    0.124938
     7  H    0.129288
     8  H    0.117926
     9  H    0.134139
    10  H    0.151965
    11  C    0.483368
    12  O   -0.468910
    13  O   -0.371491
    14  C   -0.080975
    15  H    0.121424
    16  H    0.119896
    17  H    0.121434
    18  Cl  -0.206003
 Sum of MBS Mulliken charges =   0.00000
 MBS Mulliken charges with hydrogens summed into heavy atoms:
               1
     1  C    0.043984
     2  C    0.020104
     3  C    0.041788
     4  C   -0.021667
     5  C    0.072110
     6  C    0.124938
    11  C    0.483368
    12  O   -0.468910
    13  O   -0.371491
    14  C    0.281779
    18  Cl  -0.206003
 Breneman (CHELPG) radii used.
 Generate Potential Derived Charges using the Breneman model, NDens= 1.
 Grid spacing= 0.300 Box extension= 2.800
 NStep X,Y,Z=   47     37     26   Total possible points=       45214
 Number of Points to Fit=   12492

 **********************************************************************

            Electrostatic Properties Using The SCF Density

 **********************************************************************

       Atomic Center    1 is at  -2.044681  1.358710  0.000028
       Atomic Center    2 is at  -0.902627  2.157208 -0.000011
       Atomic Center    3 is at   0.364238  1.581157 -0.000071
       Atomic Center    4 is at   0.491612  0.188321 -0.000091
       Atomic Center    5 is at  -0.648121 -0.622301 -0.000046
       Atomic Center    6 is at  -1.901543 -0.026793  0.000009
       Atomic Center    7 is at  -3.032780  1.801190  0.000072
       Atomic Center    8 is at  -1.007437  3.235874  0.000002
       Atomic Center    9 is at   1.251041  2.199919 -0.000106
       Atomic Center   10 is at  -0.537231 -1.698522 -0.000060
       Atomic Center   11 is at   1.819569 -0.495155 -0.000151
       Atomic Center   12 is at   1.970328 -1.694781 -0.000104
       Atomic Center   13 is at   2.846770  0.379452  0.000025
       Atomic Center   14 is at   4.164986 -0.199306  0.000177
       Atomic Center   15 is at   4.310618 -0.813941 -0.889015
       Atomic Center   16 is at   4.851143  0.644608  0.000505
       Atomic Center   17 is at   4.310251 -0.814347  0.889146
       Atomic Center   18 is at  -3.337823 -1.040188  0.000060
   12492 points will be used for fitting atomic charges
 Fitting point charges to electrostatic potential
 Charges from ESP fit, RMS=   0.00434 RRMS=   0.33616:
 ESP charges:
               1
     1  C   -0.055190
     2  C   -0.098591
     3  C   -0.045190
     4  C   -0.150047
     5  C    0.014270
     6  C    0.068195
     7  H    0.095307
     8  H    0.104197
     9  H    0.069540
    10  H    0.077474
    11  C    0.692133
    12  O   -0.520920
    13  O   -0.338480
    14  C   -0.001775
    15  H    0.072789
    16  H    0.077707
    17  H    0.072811
    18  Cl  -0.134231
 Sum of ESP charges =   0.00000
 ESP charges with hydrogens summed into heavy atoms:
               1
     1  C    0.040117
     2  C    0.005606
     3  C    0.024350
     4  C   -0.150047
     5  C    0.091744
     6  C    0.068195
    11  C    0.692133
    12  O   -0.520920
    13  O   -0.338480
    14  C    0.221533
    18  Cl  -0.134231
 Charge=   0.00000 Dipole=     1.6268     2.9557     0.0001 Tot=     3.3738
 -----------------------------------------------------------------

              Electrostatic Properties (Atomic Units)

 -----------------------------------------------------------------
    Center     Electric         -------- Electric Field --------
               Potential          X             Y             Z
 -----------------------------------------------------------------
    1 Atom    -14.745916
    2 Atom    -14.749606
    3 Atom    -14.751237
    4 Atom    -14.739135
    5 Atom    -14.749144
    6 Atom    -14.697720
    7 Atom     -1.080900
    8 Atom     -1.086606
    9 Atom     -1.089804
   10 Atom     -1.086128
   11 Atom    -14.635266
   12 Atom    -22.377211
   13 Atom    -22.314200
   14 Atom    -14.710100
   15 Atom     -1.096741
   16 Atom     -1.093798
   17 Atom     -1.096742
   18 Atom    -64.389596
 -----------------------------------------------------------------
 ******************************Gaussian NBO Version 3.1******************************
             N A T U R A L   A T O M I C   O R B I T A L   A N D
          N A T U R A L   B O N D   O R B I T A L   A N A L Y S I S
 ******************************Gaussian NBO Version 3.1******************************
       /RESON  / : Allow strongly delocalized NBO set

 Analyzing the SCF density

 Job title: Table13_3                                                       

 Storage needed:    257170 in NPA ( 104855800 available)


 NATURAL POPULATIONS:  Natural atomic orbital occupancies 
                                                          
   NAO  Atom  No  lang   Type(AO)    Occupancy      Energy
 ----------------------------------------------------------
     1    C    1  S      Cor( 1S)     1.99897     -10.05479
     2    C    1  S      Val( 2S)     0.95137      -0.18343
     3    C    1  S      Ryd( 3S)     0.00189       0.74825
     4    C    1  S      Ryd( 4S)     0.00031       1.04246
     5    C    1  S      Ryd( 5S)     0.00001      22.79453
     6    C    1  px     Val( 2p)     1.17043      -0.08490
     7    C    1  px     Ryd( 4p)     0.00689       0.98091
     8    C    1  px     Ryd( 3p)     0.00037       0.34505
     9    C    1  px     Ryd( 5p)     0.00008       3.17052
    10    C    1  py     Val( 2p)     1.08702      -0.08556
    11    C    1  py     Ryd( 4p)     0.00469       0.76238
    12    C    1  py     Ryd( 3p)     0.00033       0.36429
    13    C    1  py     Ryd( 5p)     0.00014       3.10411
    14    C    1  pz     Val( 2p)     0.97687      -0.13257
    15    C    1  pz     Ryd( 4p)     0.00101       0.49780
    16    C    1  pz     Ryd( 3p)     0.00039       0.30060
    17    C    1  pz     Ryd( 5p)     0.00001       2.66443
    18    C    1  dxy    Ryd( 3d)     0.00069       2.50396
    19    C    1  dxz    Ryd( 3d)     0.00046       1.60026
    20    C    1  dyz    Ryd( 3d)     0.00049       1.63543
    21    C    1  dx2y2  Ryd( 3d)     0.00082       2.52242
    22    C    1  dz2    Ryd( 3d)     0.00041       2.02639

    23    C    2  S      Cor( 1S)     1.99916     -10.05568
    24    C    2  S      Val( 2S)     0.95143      -0.18412
    25    C    2  S      Ryd( 3S)     0.00142       0.85725
    26    C    2  S      Ryd( 4S)     0.00015       1.20456
    27    C    2  S      Ryd( 5S)     0.00001      22.47926
    28    C    2  px     Val( 2p)     1.05750      -0.06601
    29    C    2  px     Ryd( 4p)     0.00432       0.78675
    30    C    2  px     Ryd( 3p)     0.00038       0.39191
    31    C    2  px     Ryd( 5p)     0.00016       3.04555
    32    C    2  py     Val( 2p)     1.17244      -0.07679
    33    C    2  py     Ryd( 4p)     0.00684       1.05733
    34    C    2  py     Ryd( 3p)     0.00027       0.27763
    35    C    2  py     Ryd( 5p)     0.00007       3.15053
    36    C    2  pz     Val( 2p)     0.99249      -0.13065
    37    C    2  pz     Ryd( 4p)     0.00077       0.51453
    38    C    2  pz     Ryd( 3p)     0.00023       0.31331
    39    C    2  pz     Ryd( 5p)     0.00001       2.63660
    40    C    2  dxy    Ryd( 3d)     0.00065       2.56879
    41    C    2  dxz    Ryd( 3d)     0.00051       1.65788
    42    C    2  dyz    Ryd( 3d)     0.00042       1.58617
    43    C    2  dx2y2  Ryd( 3d)     0.00077       2.47951
    44    C    2  dz2    Ryd( 3d)     0.00040       2.03019

    45    C    3  S      Cor( 1S)     1.99909     -10.05126
    46    C    3  S      Val( 2S)     0.94583      -0.17606
    47    C    3  S      Ryd( 4S)     0.00128       0.85161
    48    C    3  S      Ryd( 3S)     0.00011       0.58133
    49    C    3  S      Ryd( 5S)     0.00001      23.19087
    50    C    3  px     Val( 2p)     1.14947      -0.07489
    51    C    3  px     Ryd( 4p)     0.00526       1.07308
    52    C    3  px     Ryd( 3p)     0.00040       0.50851
    53    C    3  px     Ryd( 5p)     0.00009       3.17944
    54    C    3  py     Val( 2p)     1.09362      -0.06563
    55    C    3  py     Ryd( 4p)     0.00480       0.85431
    56    C    3  py     Ryd( 3p)     0.00044       0.38078
    57    C    3  py     Ryd( 5p)     0.00016       3.18965
    58    C    3  pz     Val( 2p)     0.96376      -0.12726
    59    C    3  pz     Ryd( 4p)     0.00110       0.52772
    60    C    3  pz     Ryd( 3p)     0.00027       0.33325
    61    C    3  pz     Ryd( 5p)     0.00002       2.66388
    62    C    3  dxy    Ryd( 3d)     0.00072       2.50658
    63    C    3  dxz    Ryd( 3d)     0.00046       1.61510
    64    C    3  dyz    Ryd( 3d)     0.00043       1.64211
    65    C    3  dx2y2  Ryd( 3d)     0.00073       2.62003
    66    C    3  dz2    Ryd( 3d)     0.00041       2.05966

    67    C    4  S      Cor( 1S)     1.99891     -10.06799
    68    C    4  S      Val( 2S)     0.90897      -0.16617
    69    C    4  S      Ryd( 3S)     0.00135       0.77280
    70    C    4  S      Ryd( 4S)     0.00016       1.18844
    71    C    4  S      Ryd( 5S)     0.00001      22.78211
    72    C    4  px     Val( 2p)     1.07122      -0.09311
    73    C    4  px     Ryd( 4p)     0.00645       1.22957
    74    C    4  px     Ryd( 3p)     0.00035       0.70437
    75    C    4  px     Ryd( 5p)     0.00013       3.16603
    76    C    4  py     Val( 2p)     1.10065      -0.08918
    77    C    4  py     Ryd( 4p)     0.00623       1.22900
    78    C    4  py     Ryd( 3p)     0.00016       0.67569
    79    C    4  py     Ryd( 5p)     0.00012       3.12903
    80    C    4  pz     Val( 2p)     1.04188      -0.13319
    81    C    4  pz     Ryd( 4p)     0.00064       0.57216
    82    C    4  pz     Ryd( 3p)     0.00020       0.54732
    83    C    4  pz     Ryd( 5p)     0.00002       2.52379
    84    C    4  dxy    Ryd( 3d)     0.00085       2.60753
    85    C    4  dxz    Ryd( 3d)     0.00038       1.61159
    86    C    4  dyz    Ryd( 3d)     0.00058       1.64931
    87    C    4  dx2y2  Ryd( 3d)     0.00079       2.56630
    88    C    4  dz2    Ryd( 3d)     0.00043       2.08552

    89    C    5  S      Cor( 1S)     1.99890     -10.04908
    90    C    5  S      Val( 2S)     0.94361      -0.17138
    91    C    5  S      Ryd( 3S)     0.00206       0.82153
    92    C    5  S      Ryd( 4S)     0.00016       0.95879
    93    C    5  S      Ryd( 5S)     0.00001      22.93393
    94    C    5  px     Val( 2p)     1.06246      -0.07563
    95    C    5  px     Ryd( 4p)     0.00476       0.81982
    96    C    5  px     Ryd( 3p)     0.00030       0.54126
    97    C    5  px     Ryd( 5p)     0.00019       3.20028
    98    C    5  py     Val( 2p)     1.20397      -0.09118
    99    C    5  py     Ryd( 4p)     0.00645       0.99141
   100    C    5  py     Ryd( 3p)     0.00048       0.36226
   101    C    5  py     Ryd( 5p)     0.00008       3.23047
   102    C    5  pz     Val( 2p)     0.95462      -0.12819
   103    C    5  pz     Ryd( 4p)     0.00097       0.50553
   104    C    5  pz     Ryd( 3p)     0.00051       0.29633
   105    C    5  pz     Ryd( 5p)     0.00001       2.70663
   106    C    5  dxy    Ryd( 3d)     0.00077       2.59903
   107    C    5  dxz    Ryd( 3d)     0.00052       1.65055
   108    C    5  dyz    Ryd( 3d)     0.00046       1.60292
   109    C    5  dx2y2  Ryd( 3d)     0.00070       2.48308
   110    C    5  dz2    Ryd( 3d)     0.00042       2.04853

   111    C    6  S      Cor( 1S)     1.99858     -10.12245
   112    C    6  S      Val( 2S)     0.93293      -0.22902
   113    C    6  S      Ryd( 4S)     0.00074       0.85448
   114    C    6  S      Ryd( 3S)     0.00024       0.57684
   115    C    6  S      Ryd( 5S)     0.00001      23.21723
   116    C    6  px     Val( 2p)     0.98048      -0.14239
   117    C    6  px     Ryd( 4p)     0.00700       0.90277
   118    C    6  px     Ryd( 3p)     0.00025       0.76418
   119    C    6  px     Ryd( 5p)     0.00033       2.75377
   120    C    6  py     Val( 2p)     1.03792      -0.12027
   121    C    6  py     Ryd( 4p)     0.00667       0.85156
   122    C    6  py     Ryd( 3p)     0.00028       0.81749
   123    C    6  py     Ryd( 5p)     0.00021       2.77418
   124    C    6  pz     Val( 2p)     1.06716      -0.15877
   125    C    6  pz     Ryd( 3p)     0.00104       0.58727
   126    C    6  pz     Ryd( 4p)     0.00028       0.78825
   127    C    6  pz     Ryd( 5p)     0.00008       2.16597
   128    C    6  dxy    Ryd( 3d)     0.00182       2.22897
   129    C    6  dxz    Ryd( 3d)     0.00122       1.52385
   130    C    6  dyz    Ryd( 3d)     0.00089       1.57817
   131    C    6  dx2y2  Ryd( 3d)     0.00129       2.41655
   132    C    6  dz2    Ryd( 3d)     0.00084       1.96568

   133    H    7  S      Val( 1S)     0.77336       0.03059
   134    H    7  S      Ryd( 2S)     0.00071       0.86765
   135    H    7  S      Ryd( 3S)     0.00018       1.82167
   136    H    7  px     Ryd( 2p)     0.00039       2.57516
   137    H    7  py     Ryd( 2p)     0.00018       2.07228
   138    H    7  pz     Ryd( 2p)     0.00017       1.58093

   139    H    8  S      Val( 1S)     0.78440       0.03061
   140    H    8  S      Ryd( 2S)     0.00060       0.59930
   141    H    8  S      Ryd( 3S)     0.00017       2.12308
   142    H    8  px     Ryd( 2p)     0.00011       1.98155
   143    H    8  py     Ryd( 2p)     0.00042       2.67509
   144    H    8  pz     Ryd( 2p)     0.00018       1.57858

   145    H    9  S      Val( 1S)     0.76909       0.04610
   146    H    9  S      Ryd( 3S)     0.00069       1.52542
   147    H    9  S      Ryd( 2S)     0.00013       1.18992
   148    H    9  px     Ryd( 2p)     0.00034       2.50141
   149    H    9  py     Ryd( 2p)     0.00022       2.24745
   150    H    9  pz     Ryd( 2p)     0.00016       1.59512

   151    H   10  S      Val( 1S)     0.75004       0.04894
   152    H   10  S      Ryd( 2S)     0.00101       1.04477
   153    H   10  S      Ryd( 3S)     0.00017       1.64625
   154    H   10  px     Ryd( 2p)     0.00015       2.02279
   155    H   10  py     Ryd( 2p)     0.00044       2.71997
   156    H   10  pz     Ryd( 2p)     0.00014       1.60041

   157    C   11  S      Cor( 1S)     1.99929     -10.19627
   158    C   11  S      Val( 2S)     0.75715      -0.14388
   159    C   11  S      Ryd( 4S)     0.00340       1.06050
   160    C   11  S      Ryd( 3S)     0.00016       0.98497
   161    C   11  S      Ryd( 5S)     0.00006      22.28800
   162    C   11  px     Val( 2p)     0.86440      -0.06159
   163    C   11  px     Ryd( 4p)     0.00551       1.37717
   164    C   11  px     Ryd( 3p)     0.00051       0.53936
   165    C   11  px     Ryd( 5p)     0.00018       2.27207
   166    C   11  py     Val( 2p)     0.76390      -0.02179
   167    C   11  py     Ryd( 4p)     0.02061       1.16652
   168    C   11  py     Ryd( 3p)     0.00023       0.47047
   169    C   11  py     Ryd( 5p)     0.00018       2.45312
   170    C   11  pz     Val( 2p)     0.77042      -0.14064
   171    C   11  pz     Ryd( 4p)     0.00072       0.73897
   172    C   11  pz     Ryd( 3p)     0.00052       0.37978
   173    C   11  pz     Ryd( 5p)     0.00016       2.39143
   174    C   11  dxy    Ryd( 3d)     0.00554       2.51663
   175    C   11  dxz    Ryd( 3d)     0.00173       1.51300
   176    C   11  dyz    Ryd( 3d)     0.00477       1.62602
   177    C   11  dx2y2  Ryd( 3d)     0.00233       2.54589
   178    C   11  dz2    Ryd( 3d)     0.00067       1.99270

   179    O   12  S      Cor( 1S)     1.99975     -18.85367
   180    O   12  S      Val( 2S)     1.70129      -0.90370
   181    O   12  S      Ryd( 4S)     0.00121       1.39421
   182    O   12  S      Ryd( 3S)     0.00009       1.38426
   183    O   12  S      Ryd( 5S)     0.00000      49.69400
   184    O   12  px     Val( 2p)     1.84169      -0.27765
   185    O   12  px     Ryd( 3p)     0.00234       0.80362
   186    O   12  px     Ryd( 4p)     0.00023       0.96229
   187    O   12  px     Ryd( 5p)     0.00001       5.07442
   188    O   12  py     Val( 2p)     1.57885      -0.31418
   189    O   12  py     Ryd( 3p)     0.00068       0.65950
   190    O   12  py     Ryd( 4p)     0.00021       0.95098
   191    O   12  py     Ryd( 5p)     0.00013       5.27349
   192    O   12  pz     Val( 2p)     1.46190      -0.26519
   193    O   12  pz     Ryd( 3p)     0.00103       0.60095
   194    O   12  pz     Ryd( 4p)     0.00005       0.88364
   195    O   12  pz     Ryd( 5p)     0.00002       4.92177
   196    O   12  dxy    Ryd( 3d)     0.00153       3.27171
   197    O   12  dxz    Ryd( 3d)     0.00004       2.83713
   198    O   12  dyz    Ryd( 3d)     0.00170       3.09806
   199    O   12  dx2y2  Ryd( 3d)     0.00167       3.55427
   200    O   12  dz2    Ryd( 3d)     0.00048       3.09710

   201    O   13  S      Cor( 1S)     1.99972     -18.98292
   202    O   13  S      Val( 2S)     1.62321      -0.90499
   203    O   13  S      Ryd( 3S)     0.00167       0.99375
   204    O   13  S      Ryd( 4S)     0.00018       1.18138
   205    O   13  S      Ryd( 5S)     0.00000      49.63934
   206    O   13  px     Val( 2p)     1.38289      -0.33524
   207    O   13  px     Ryd( 4p)     0.00124       1.14483
   208    O   13  px     Ryd( 3p)     0.00054       0.87658
   209    O   13  px     Ryd( 5p)     0.00005       5.21543
   210    O   13  py     Val( 2p)     1.73976      -0.36147
   211    O   13  py     Ryd( 3p)     0.00257       0.71683
   212    O   13  py     Ryd( 4p)     0.00101       0.85941
   213    O   13  py     Ryd( 5p)     0.00014       5.03651
   214    O   13  pz     Val( 2p)     1.79251      -0.34031
   215    O   13  pz     Ryd( 3p)     0.00276       0.57584
   216    O   13  pz     Ryd( 4p)     0.00031       0.72258
   217    O   13  pz     Ryd( 5p)     0.00000       4.88805
   218    O   13  dxy    Ryd( 3d)     0.00143       3.55100
   219    O   13  dxz    Ryd( 3d)     0.00014       2.94624
   220    O   13  dyz    Ryd( 3d)     0.00089       2.88741
   221    O   13  dx2y2  Ryd( 3d)     0.00076       3.20999
   222    O   13  dz2    Ryd( 3d)     0.00064       3.22751

   223    C   14  S      Cor( 1S)     1.99925     -10.11239
   224    C   14  S      Val( 2S)     1.09375      -0.29310
   225    C   14  S      Ryd( 4S)     0.00202       0.88653
   226    C   14  S      Ryd( 3S)     0.00009       0.78878
   227    C   14  S      Ryd( 5S)     0.00000      23.20885
   228    C   14  px     Val( 2p)     0.77624      -0.10006
   229    C   14  px     Ryd( 3p)     0.00279       0.62459
   230    C   14  px     Ryd( 4p)     0.00021       1.29915
   231    C   14  px     Ryd( 5p)     0.00006       1.88799
   232    C   14  py     Val( 2p)     1.12705      -0.11449
   233    C   14  py     Ryd( 3p)     0.00314       0.61368
   234    C   14  py     Ryd( 4p)     0.00027       1.35820
   235    C   14  py     Ryd( 5p)     0.00006       1.88279
   236    C   14  pz     Val( 2p)     1.20112      -0.12499
   237    C   14  pz     Ryd( 3p)     0.00056       0.55447
   238    C   14  pz     Ryd( 4p)     0.00034       1.29374
   239    C   14  pz     Ryd( 5p)     0.00003       1.92202
   240    C   14  dxy    Ryd( 3d)     0.00171       2.15163
   241    C   14  dxz    Ryd( 3d)     0.00106       1.69827
   242    C   14  dyz    Ryd( 3d)     0.00100       2.18319
   243    C   14  dx2y2  Ryd( 3d)     0.00147       1.96770
   244    C   14  dz2    Ryd( 3d)     0.00104       2.10958

   245    H   15  S      Val( 1S)     0.80969       0.00362
   246    H   15  S      Ryd( 2S)     0.00098       0.58738
   247    H   15  S      Ryd( 3S)     0.00017       2.12205
   248    H   15  px     Ryd( 2p)     0.00009       1.71374
   249    H   15  py     Ryd( 2p)     0.00023       2.04727
   250    H   15  pz     Ryd( 2p)     0.00033       2.38261

   251    H   16  S      Val( 1S)     0.81156       0.00209
   252    H   16  S      Ryd( 2S)     0.00034       0.47228
   253    H   16  S      Ryd( 3S)     0.00015       2.19162
   254    H   16  px     Ryd( 2p)     0.00018       2.07161
   255    H   16  py     Ryd( 2p)     0.00033       2.28253
   256    H   16  pz     Ryd( 2p)     0.00013       1.71283

   257    H   17  S      Val( 1S)     0.80968       0.00362
   258    H   17  S      Ryd( 2S)     0.00098       0.58746
   259    H   17  S      Ryd( 3S)     0.00017       2.12199
   260    H   17  px     Ryd( 2p)     0.00009       1.71358
   261    H   17  py     Ryd( 2p)     0.00023       2.04764
   262    H   17  pz     Ryd( 2p)     0.00033       2.38233

   263   Cl   18  S      Cor( 1S)     2.00000    -100.23209
   264   Cl   18  S      Cor( 2S)     1.99971     -10.47981
   265   Cl   18  S      Val( 3S)     1.83729      -1.01057
   266   Cl   18  S      Ryd( 4S)     0.00229       0.71985
   267   Cl   18  S      Ryd( 5S)     0.00007       1.19988
   268   Cl   18  S      Ryd( 6S)     0.00000      17.22327
   269   Cl   18  S      Ryd( 7S)     0.00000     207.77065
   270   Cl   18  px     Cor( 2p)     1.99994      -7.23075
   271   Cl   18  px     Val( 3p)     1.48048      -0.29435
   272   Cl   18  px     Ryd( 4p)     0.00315       0.36748
   273   Cl   18  px     Ryd( 5p)     0.00014       0.46806
   274   Cl   18  px     Ryd( 6p)     0.00001       5.75594
   275   Cl   18  px     Ryd( 7p)     0.00000      22.68998
   276   Cl   18  py     Cor( 2p)     1.99997      -7.22798
   277   Cl   18  py     Val( 3p)     1.72763      -0.31120
   278   Cl   18  py     Ryd( 4p)     0.00261       0.37881
   279   Cl   18  py     Ryd( 5p)     0.00014       0.49667
   280   Cl   18  py     Ryd( 6p)     0.00001       5.46274
   281   Cl   18  py     Ryd( 7p)     0.00000      22.75981
   282   Cl   18  pz     Cor( 2p)     1.99999      -7.22562
   283   Cl   18  pz     Val( 3p)     1.92746      -0.32640
   284   Cl   18  pz     Ryd( 4p)     0.00195       0.38345
   285   Cl   18  pz     Ryd( 5p)     0.00012       0.47936
   286   Cl   18  pz     Ryd( 6p)     0.00000       4.89508
   287   Cl   18  pz     Ryd( 7p)     0.00000      22.87592
   288   Cl   18  dxy    Ryd( 3d)     0.00399       1.20150
   289   Cl   18  dxz    Ryd( 3d)     0.00158       0.90686
   290   Cl   18  dyz    Ryd( 3d)     0.00081       0.88475
   291   Cl   18  dx2y2  Ryd( 3d)     0.00147       1.13769
   292   Cl   18  dz2    Ryd( 3d)     0.00140       0.97677

 WARNING:  1 low occupancy (<1.9990e) core orbital  found on  C    1
           1 low occupancy (<1.9990e) core orbital  found on  C    4
           1 low occupancy (<1.9990e) core orbital  found on  C    5
           1 low occupancy (<1.9990e) core orbital  found on  C    6

 WARNING:  Population inversion found on atom  C    1
           Population inversion found on atom  C    2
           Population inversion found on atom  C    3
           Population inversion found on atom  C    4
           Population inversion found on atom  C    5
           Population inversion found on atom  C    6
           Population inversion found on atom  H    9
           Population inversion found on atom  C   11
           Population inversion found on atom  O   12
           Population inversion found on atom  O   13
           Population inversion found on atom  C   14


 Summary of Natural Population Analysis:                  
                                                          
                                       Natural Population 
                Natural  -----------------------------------------------
    Atom  No    Charge         Core      Valence    Rydberg      Total
 -----------------------------------------------------------------------
      C    1   -0.20365      1.99897     4.18569    0.01899     6.20365
      C    2   -0.19039      1.99916     4.17386    0.01737     6.19039
      C    3   -0.16845      1.99909     4.15268    0.01668     6.16845
      C    4   -0.14047      1.99891     4.12272    0.01884     6.14047
      C    5   -0.18243      1.99890     4.16467    0.01886     6.18243
      C    6   -0.04025      1.99858     4.01850    0.02318     6.04025
      H    7    0.22501      0.00000     0.77336    0.00163     0.77499
      H    8    0.21411      0.00000     0.78440    0.00149     0.78589
      H    9    0.22937      0.00000     0.76909    0.00155     0.77063
      H   10    0.24803      0.00000     0.75004    0.00192     0.75197
      C   11    0.79760      1.99929     3.15587    0.04725     5.20240
      O   12   -0.59488      1.99975     6.58373    0.01140     8.59488
      O   13   -0.55245      1.99972     6.53838    0.01435     8.55245
      C   14   -0.21326      1.99925     4.19816    0.01585     6.21326
      H   15    0.18851      0.00000     0.80969    0.00180     0.81149
      H   16    0.18732      0.00000     0.81156    0.00113     0.81268
      H   17    0.18852      0.00000     0.80968    0.00180     0.81148
     Cl   18    0.00777      9.99962     6.97285    0.01976    16.99223
 =======================================================================
   * Total *    0.00000     29.99123    57.77493    0.23384    88.00000

                                 Natural Population      
 --------------------------------------------------------
   Core                      29.99123 ( 99.9708% of  30)
   Valence                   57.77493 ( 99.6119% of  58)
   Natural Minimal Basis     87.76616 ( 99.7343% of  88)
   Natural Rydberg Basis      0.23384 (  0.2657% of  88)
 --------------------------------------------------------

    Atom  No          Natural Electron Configuration
 ----------------------------------------------------------------------------
      C    1      [core]2S( 0.95)2p( 3.23)4p( 0.01)
      C    2      [core]2S( 0.95)2p( 3.22)4p( 0.01)
      C    3      [core]2S( 0.95)2p( 3.21)4p( 0.01)
      C    4      [core]2S( 0.91)2p( 3.21)4p( 0.01)
      C    5      [core]2S( 0.94)2p( 3.22)4p( 0.01)
      C    6      [core]2S( 0.93)2p( 3.09)3d( 0.01)4p( 0.01)
      H    7            1S( 0.77)
      H    8            1S( 0.78)
      H    9            1S( 0.77)
      H   10            1S( 0.75)
      C   11      [core]2S( 0.76)2p( 2.40)3d( 0.02)4p( 0.03)
      O   12      [core]2S( 1.70)2p( 4.88)3d( 0.01)
      O   13      [core]2S( 1.62)2p( 4.92)3p( 0.01)
      C   14      [core]2S( 1.09)2p( 3.10)3p( 0.01)3d( 0.01)
      H   15            1S( 0.81)
      H   16            1S( 0.81)
      H   17            1S( 0.81)
     Cl   18      [core]3S( 1.84)3p( 5.14)3d( 0.01)4p( 0.01)


 NBO analysis skipped by request.
 1\1\GINC-COREV2-22-035\SP\RB3LYP\6-311+G(d,p)\C8H7Cl1O2\ROOT\23-Jul-20
 21\0\\# b3lyp/6-311+g(d,p) geom=connectivity pop=(hirshfeld,chelpg,mbs
 ,npa)\\Table13_3\\0,1\C,0,2.044681,1.35871,-0.000028\C,0,0.902627,2.15
 7208,0.000011\C,0,-0.364238,1.581157,0.000071\C,0,-0.491612,0.188321,0
 .000091\C,0,0.648121,-0.622301,0.000046\C,0,1.901543,-0.026793,-0.0000
 09\H,0,3.03278,1.80119,-0.000072\H,0,1.007437,3.235874,-0.000002\H,0,-
 1.251041,2.199919,0.000106\H,0,0.537231,-1.698522,0.00006\C,0,-1.81956
 9,-0.495155,0.000151\O,0,-1.970328,-1.694781,0.000104\O,0,-2.84677,0.3
 79452,-0.000025\C,0,-4.164986,-0.199306,-0.000177\H,0,-4.310618,-0.813
 941,0.889015\H,0,-4.851143,0.644608,-0.000505\H,0,-4.310251,-0.814347,
 -0.889146\Cl,0,3.337823,-1.040188,-0.00006\\Version=ES64L-G09RevD.01\S
 tate=1-A\HF=-919.8798238\RMSD=7.053e-09\Dipole=-0.6163954,1.1424509,-0
 .0000588\Quadrupole=4.7482162,-1.6350173,-3.1131989,0.3514698,0.000521
 9,0.0002204\PG=C01 [X(C8H7Cl1O2)]\\@


 A SUCCESSFUL PURSUIT OF SCIENCE MAKES A MAN THE
 BENEFACTOR OF ALL MANKIND OF EVERY AGE.
   --  JOSEPH PRIESTLEY, "EXPERIMENTS AND
 OBSERVATIONS ON DIFFERENT KINDS OF AIR", 1774
 Job cpu time:       0 days  0 hours  9 minutes 13.8 seconds.
 File lengths (MBytes):  RWF=     76 Int=      0 D2E=      0 Chk=      4 Scr=      1
 Normal termination of Gaussian 09 at Fri Jul 23 17:29:18 2021.
