 Entering Gaussian System, Link 0=g09
 Initial command:
 /cm/shared/apps/gaussian/g09revD.01/g09/l1.exe "//home/sweav003/CHB/CHActivation_Mkhalid/OtherCharges/G09-Table5_6.com.o9641710.tmp/Gau-108018.inp" -scrdir="//home/sweav003/CHB/CHActivation_Mkhalid/OtherCharges/G09-Table5_6.com.o9641710.tmp/"
 Entering Link 1 = /cm/shared/apps/gaussian/g09revD.01/g09/l1.exe PID=    108019.
  
 Copyright (c) 1988,1990,1992,1993,1995,1998,2003,2009,2013,
            Gaussian, Inc.  All Rights Reserved.
  
 This is part of the Gaussian(R) 09 program.  It is based on
 the Gaussian(R) 03 system (copyright 2003, Gaussian, Inc.),
 the Gaussian(R) 98 system (copyright 1998, Gaussian, Inc.),
 the Gaussian(R) 94 system (copyright 1995, Gaussian, Inc.),
 the Gaussian 92(TM) system (copyright 1992, Gaussian, Inc.),
 the Gaussian 90(TM) system (copyright 1990, Gaussian, Inc.),
 the Gaussian 88(TM) system (copyright 1988, Gaussian, Inc.),
 the Gaussian 86(TM) system (copyright 1986, Carnegie Mellon
 University), and the Gaussian 82(TM) system (copyright 1983,
 Carnegie Mellon University). Gaussian is a federally registered
 trademark of Gaussian, Inc.
  
 This software contains proprietary and confidential information,
 including trade secrets, belonging to Gaussian, Inc.
  
 This software is provided under written license and may be
 used, copied, transmitted, or stored only in accord with that
 written license.
  
 The following legend is applicable only to US Government
 contracts under FAR:
  
                    RESTRICTED RIGHTS LEGEND
  
 Use, reproduction and disclosure by the US Government is
 subject to restrictions as set forth in subparagraphs (a)
 and (c) of the Commercial Computer Software - Restricted
 Rights clause in FAR 52.227-19.
  
 Gaussian, Inc.
 340 Quinnipiac St., Bldg. 40, Wallingford CT 06492
  
  
 ---------------------------------------------------------------
 Warning -- This program may not be used in any manner that
 competes with the business of Gaussian, Inc. or will provide
 assistance to any competitor of Gaussian, Inc.  The licensee
 of this program is prohibited from giving any competitor of
 Gaussian, Inc. access to this program.  By using this program,
 the user acknowledges that Gaussian, Inc. is engaged in the
 business of creating and licensing software in the field of
 computational chemistry and represents and warrants to the
 licensee that it is not a competitor of Gaussian, Inc. and that
 it will not use this program in any manner prohibited above.
 ---------------------------------------------------------------
  

 Cite this work as:
 Gaussian 09, Revision D.01,
 M. J. Frisch, G. W. Trucks, H. B. Schlegel, G. E. Scuseria, 
 M. A. Robb, J. R. Cheeseman, G. Scalmani, V. Barone, B. Mennucci, 
 G. A. Petersson, H. Nakatsuji, M. Caricato, X. Li, H. P. Hratchian, 
 A. F. Izmaylov, J. Bloino, G. Zheng, J. L. Sonnenberg, M. Hada, 
 M. Ehara, K. Toyota, R. Fukuda, J. Hasegawa, M. Ishida, T. Nakajima, 
 Y. Honda, O. Kitao, H. Nakai, T. Vreven, J. A. Montgomery, Jr., 
 J. E. Peralta, F. Ogliaro, M. Bearpark, J. J. Heyd, E. Brothers, 
 K. N. Kudin, V. N. Staroverov, T. Keith, R. Kobayashi, J. Normand, 
 K. Raghavachari, A. Rendell, J. C. Burant, S. S. Iyengar, J. Tomasi, 
 M. Cossi, N. Rega, J. M. Millam, M. Klene, J. E. Knox, J. B. Cross, 
 V. Bakken, C. Adamo, J. Jaramillo, R. Gomperts, R. E. Stratmann, 
 O. Yazyev, A. J. Austin, R. Cammi, C. Pomelli, J. W. Ochterski, 
 R. L. Martin, K. Morokuma, V. G. Zakrzewski, G. A. Voth, 
 P. Salvador, J. J. Dannenberg, S. Dapprich, A. D. Daniels, 
 O. Farkas, J. B. Foresman, J. V. Ortiz, J. Cioslowski, 
 and D. J. Fox, Gaussian, Inc., Wallingford CT, 2013.
 
 ******************************************
 Gaussian 09:  ES64L-G09RevD.01 24-Apr-2013
                17-Nov-2021 
 ******************************************
 %nprocshared=15
 Will use up to   15 processors via shared memory.
 %chk=Table5_6.chk
 ----------------------------------------------------------------------
 # opt freq b3lyp/6-311+g(d,p) geom=connectivity pop=(hirshfeld,chelpg,
 mbs,npa)
 ----------------------------------------------------------------------
 1/14=-1,18=20,19=15,26=3,38=1,57=2/1,3;
 2/9=110,12=2,17=6,18=5,40=1/2;
 3/5=4,6=6,7=111,11=2,16=1,25=1,30=1,71=1,74=-5/1,2,3;
 4//1;
 5/5=2,38=5/2;
 6/7=2,8=2,9=2,10=2,15=8,20=3,27=100,28=1,40=-1,79=1/1,2,7;
 7//1,2,3,16;
 1/14=-1,18=20,19=15,26=3/3(2);
 2/9=110/2;
 99//99;
 2/9=110/2;
 3/5=4,6=6,7=111,11=2,16=1,25=1,30=1,71=1,74=-5/1,2,3;
 4/5=5,16=3,69=1/1;
 5/5=2,38=5/2;
 7//1,2,3,16;
 1/14=-1,18=20,19=15,26=3/3(-5);
 2/9=110/2;
 6/7=2,8=2,9=2,10=2,15=8,19=2,20=3,27=100,28=1,40=-1,79=1/1,2,7;
 99/9=1/99;
 --------
 Table5_6
 --------
 Symbolic Z-matrix:
 Charge =  0 Multiplicity = 1
 C                    -3.1727   -1.94619  -0.13605 
 C                    -1.82386  -1.91449   0.01698 
 C                    -1.09342  -0.73937   0.14323 
 C                    -1.81063   0.47234   0.108 
 C                    -3.22142   0.45801  -0.05122 
 C                    -3.91457  -0.76684  -0.1752 
 C                    -2.56782  -4.08913  -0.14812 
 C                    -1.38917  -3.34536   0.01235 
 H                    -0.03017  -0.75426   0.26228 
 H                    -1.29224   1.40372   0.20125 
 H                    -3.76296   1.38048  -0.07749 
 H                    -4.97755  -0.78848  -0.29558 
 H                    -2.59268  -5.15799  -0.19067 
 H                    -0.39227  -3.72149   0.11048 
 O                    -3.66309  -3.3145   -0.24273 
 

 GradGradGradGradGradGradGradGradGradGradGradGradGradGradGradGradGradGrad
 Berny optimization.
 Initialization pass.
                           ----------------------------
                           !    Initial Parameters    !
                           ! (Angstroms and Degrees)  !
 --------------------------                            --------------------------
 ! Name  Definition              Value          Derivative Info.                !
 --------------------------------------------------------------------------------
 ! R1    R(1,2)                  1.3579         estimate D2E/DX2                !
 ! R2    R(1,6)                  1.3938         estimate D2E/DX2                !
 ! R3    R(1,15)                 1.4574         estimate D2E/DX2                !
 ! R4    R(2,3)                  1.3894         estimate D2E/DX2                !
 ! R5    R(2,8)                  1.4955         estimate D2E/DX2                !
 ! R6    R(3,4)                  1.4085         estimate D2E/DX2                !
 ! R7    R(3,9)                  1.07           estimate D2E/DX2                !
 ! R8    R(4,5)                  1.4198         estimate D2E/DX2                !
 ! R9    R(4,10)                 1.07           estimate D2E/DX2                !
 ! R10   R(5,6)                  1.4128         estimate D2E/DX2                !
 ! R11   R(5,11)                 1.07           estimate D2E/DX2                !
 ! R12   R(6,12)                 1.07           estimate D2E/DX2                !
 ! R13   R(7,8)                  1.4029         estimate D2E/DX2                !
 ! R14   R(7,13)                 1.07           estimate D2E/DX2                !
 ! R15   R(7,15)                 1.3448         estimate D2E/DX2                !
 ! R16   R(8,14)                 1.07           estimate D2E/DX2                !
 ! A1    A(2,1,6)              120.805          estimate D2E/DX2                !
 ! A2    A(2,1,15)             111.3714         estimate D2E/DX2                !
 ! A3    A(6,1,15)             127.8235         estimate D2E/DX2                !
 ! A4    A(1,2,3)              123.5198         estimate D2E/DX2                !
 ! A5    A(1,2,8)              105.4294         estimate D2E/DX2                !
 ! A6    A(3,2,8)              131.0508         estimate D2E/DX2                !
 ! A7    A(2,3,4)              117.2349         estimate D2E/DX2                !
 ! A8    A(2,3,9)              121.3826         estimate D2E/DX2                !
 ! A9    A(4,3,9)              121.3826         estimate D2E/DX2                !
 ! A10   A(3,4,5)              120.0059         estimate D2E/DX2                !
 ! A11   A(3,4,10)             119.997          estimate D2E/DX2                !
 ! A12   A(5,4,10)             119.997          estimate D2E/DX2                !
 ! A13   A(4,5,6)              120.403          estimate D2E/DX2                !
 ! A14   A(4,5,11)             119.7985         estimate D2E/DX2                !
 ! A15   A(6,5,11)             119.7985         estimate D2E/DX2                !
 ! A16   A(1,6,5)              118.0313         estimate D2E/DX2                !
 ! A17   A(1,6,12)             120.9843         estimate D2E/DX2                !
 ! A18   A(5,6,12)             120.9843         estimate D2E/DX2                !
 ! A19   A(8,7,13)             123.6188         estimate D2E/DX2                !
 ! A20   A(8,7,15)             112.7623         estimate D2E/DX2                !
 ! A21   A(13,7,15)            123.6188         estimate D2E/DX2                !
 ! A22   A(2,8,7)              105.2725         estimate D2E/DX2                !
 ! A23   A(2,8,14)             127.3638         estimate D2E/DX2                !
 ! A24   A(7,8,14)             127.3638         estimate D2E/DX2                !
 ! A25   A(1,15,7)             105.1643         estimate D2E/DX2                !
 ! D1    D(6,1,2,3)             -0.009          estimate D2E/DX2                !
 ! D2    D(6,1,2,8)            179.9894         estimate D2E/DX2                !
 ! D3    D(15,1,2,3)           179.9907         estimate D2E/DX2                !
 ! D4    D(15,1,2,8)            -0.0109         estimate D2E/DX2                !
 ! D5    D(2,1,6,5)              0.006          estimate D2E/DX2                !
 ! D6    D(2,1,6,12)          -179.9946         estimate D2E/DX2                !
 ! D7    D(15,1,6,5)          -179.9937         estimate D2E/DX2                !
 ! D8    D(15,1,6,12)            0.0057         estimate D2E/DX2                !
 ! D9    D(2,1,15,7)             0.0204         estimate D2E/DX2                !
 ! D10   D(6,1,15,7)          -179.9799         estimate D2E/DX2                !
 ! D11   D(1,2,3,4)              0.0056         estimate D2E/DX2                !
 ! D12   D(1,2,3,9)           -179.9949         estimate D2E/DX2                !
 ! D13   D(8,2,3,4)           -179.9923         estimate D2E/DX2                !
 ! D14   D(8,2,3,9)              0.0071         estimate D2E/DX2                !
 ! D15   D(1,2,8,7)             -0.0022         estimate D2E/DX2                !
 ! D16   D(1,2,8,14)           179.9994         estimate D2E/DX2                !
 ! D17   D(3,2,8,7)            179.996          estimate D2E/DX2                !
 ! D18   D(3,2,8,14)            -0.0024         estimate D2E/DX2                !
 ! D19   D(2,3,4,5)              0.0004         estimate D2E/DX2                !
 ! D20   D(2,3,4,10)          -179.9999         estimate D2E/DX2                !
 ! D21   D(9,3,4,5)           -179.9991         estimate D2E/DX2                !
 ! D22   D(9,3,4,10)             0.0006         estimate D2E/DX2                !
 ! D23   D(3,4,5,6)             -0.0029         estimate D2E/DX2                !
 ! D24   D(3,4,5,11)           179.9973         estimate D2E/DX2                !
 ! D25   D(10,4,5,6)           179.9974         estimate D2E/DX2                !
 ! D26   D(10,4,5,11)           -0.0024         estimate D2E/DX2                !
 ! D27   D(4,5,6,1)             -0.0002         estimate D2E/DX2                !
 ! D28   D(4,5,6,12)          -179.9996         estimate D2E/DX2                !
 ! D29   D(11,5,6,1)           179.9996         estimate D2E/DX2                !
 ! D30   D(11,5,6,12)            0.0001         estimate D2E/DX2                !
 ! D31   D(13,7,8,2)          -179.9839         estimate D2E/DX2                !
 ! D32   D(13,7,8,14)            0.0144         estimate D2E/DX2                !
 ! D33   D(15,7,8,2)             0.0158         estimate D2E/DX2                !
 ! D34   D(15,7,8,14)         -179.9858         estimate D2E/DX2                !
 ! D35   D(8,7,15,1)            -0.0219         estimate D2E/DX2                !
 ! D36   D(13,7,15,1)          179.9778         estimate D2E/DX2                !
 --------------------------------------------------------------------------------
 Trust Radius=3.00D-01 FncErr=1.00D-07 GrdErr=1.00D-06
 Number of steps in this run=     87 maximum allowed number of steps=    100.
 GradGradGradGradGradGradGradGradGradGradGradGradGradGradGradGradGradGrad

                          Input orientation:                          
 ---------------------------------------------------------------------
 Center     Atomic      Atomic             Coordinates (Angstroms)
 Number     Number       Type             X           Y           Z
 ---------------------------------------------------------------------
      1          6           0       -3.172697   -1.946194   -0.136051
      2          6           0       -1.823857   -1.914485    0.016978
      3          6           0       -1.093420   -0.739365    0.143225
      4          6           0       -1.810633    0.472339    0.108003
      5          6           0       -3.221420    0.458012   -0.051222
      6          6           0       -3.914566   -0.766836   -0.175195
      7          6           0       -2.567821   -4.089130   -0.148123
      8          6           0       -1.389167   -3.345362    0.012350
      9          1           0       -0.030169   -0.754259    0.262278
     10          1           0       -1.292240    1.403722    0.201254
     11          1           0       -3.762965    1.380476   -0.077491
     12          1           0       -4.977552   -0.788481   -0.295581
     13          1           0       -2.592682   -5.157995   -0.190668
     14          1           0       -0.392273   -3.721491    0.110484
     15          8           0       -3.663090   -3.314503   -0.242735
 ---------------------------------------------------------------------
                    Distance matrix (angstroms):
                    1          2          3          4          5
     1  C    0.000000
     2  C    1.357863   0.000000
     3  C    2.420294   1.389382   0.000000
     4  C    2.786411   2.388596   1.408497   0.000000
     5  C    2.406196   2.754374   2.449471   1.419816   0.000000
     6  C    1.393839   2.392717   2.839192   2.458108   1.412825
     7  C    2.226701   2.304305   3.671466   4.630976   4.594898
     8  C    2.271712   1.495455   2.625988   3.842086   4.222185
     9  H    3.384503   2.150260   1.070000   2.167579   3.428115
    10  H    3.856401   3.365572   2.153072   1.070000   2.163295
    11  H    3.379139   3.824373   3.415979   2.161185   1.070000
    12  H    2.150174   3.363238   3.909149   3.432481   2.167361
    13  H    3.264210   3.339845   4.677987   5.692229   5.652813
    14  H    3.308053   2.307259   3.063617   4.427184   5.049601
    15  O    1.457442   2.326000   3.658347   4.230223   3.803106
                    6          7          8          9         10
     6  C    0.000000
     7  C    3.584981   0.000000
     8  C    3.614085   1.402915   0.000000
     9  H    3.908975   4.210639   2.936521   0.000000
    10  H    3.424855   5.649831   4.753827   2.500686   0.000000
    11  H    2.154874   5.599102   5.289285   4.313502   2.486507
    12  H    1.070000   4.089356   4.416896   4.978854   4.316726
    13  H    4.585836   1.070000   2.185247   5.115127   6.700812
    14  H    4.606316   2.221496   1.070000   2.993096   5.204419
    15  O    2.560939   1.344847   2.288395   4.473031   5.299028
                   11         12         13         14         15
    11  H    0.000000
    12  H    2.495428   0.000000
    13  H    6.643340   4.979082   0.000000
    14  H    6.117758   5.458225   2.645002   0.000000
    15  O    4.698947   2.848050   2.132357   3.314913   0.000000
 Stoichiometry    C8H6O
 Framework group  C1[X(C8H6O)]
 Deg. of freedom    39
 Full point group                 C1      NOp   1
 Largest Abelian subgroup         C1      NOp   1
 Largest concise Abelian subgroup C1      NOp   1
                         Standard orientation:                         
 ---------------------------------------------------------------------
 Center     Atomic      Atomic             Coordinates (Angstroms)
 Number     Number       Type             X           Y           Z
 ---------------------------------------------------------------------
      1          6           0        0.257755   -0.652392   -0.000059
      2          6           0        0.203074    0.704370   -0.000041
      3          6           0       -0.985204    1.424355   -0.000077
      4          6           0       -2.185461    0.687303   -0.000012
      5          6           0       -2.147123   -0.731996    0.000094
      6          6           0       -0.909718   -1.413833    0.000073
      7          6           0        2.391724   -0.016487    0.000147
      8          6           0        1.627440    1.159965    0.000062
      9          1           0       -0.988391    2.494350   -0.000143
     10          1           0       -3.126242    1.197038   -0.000038
     11          1           0       -3.060950   -1.288612    0.000186
     12          1           0       -0.869975   -2.483095    0.000146
     13          1           0        3.461663   -0.027861    0.000482
     14          1           0        1.986839    2.167801    0.000093
     15          8           0        1.635266   -1.128416   -0.000231
 ---------------------------------------------------------------------
 Rotational constants (GHZ):      3.9413216      1.6001534      1.1380940
 Standard basis: 6-311+G(d,p) (5D, 7F)
 There are   243 symmetry adapted cartesian basis functions of A   symmetry.
 There are   234 symmetry adapted basis functions of A   symmetry.
   234 basis functions,   372 primitive gaussians,   243 cartesian basis functions
    31 alpha electrons       31 beta electrons
       nuclear repulsion energy       397.8847597906 Hartrees.
 NAtoms=   15 NActive=   15 NUniq=   15 SFac= 1.00D+00 NAtFMM=   60 NAOKFM=F Big=F
 Integral buffers will be    131072 words long.
 Raffenetti 2 integral format.
 Two-electron integral symmetry is turned on.
 One-electron integrals computed using PRISM.
 PrsmSu:  requested number of processors reduced to:   9 ShMem   1 Linda.
 NBasis=   234 RedAO= T EigKep=  2.67D-06  NBF=   234
 NBsUse=   233 1.00D-06 EigRej=  9.68D-07 NBFU=   233
 ExpMin= 4.38D-02 ExpMax= 8.59D+03 ExpMxC= 1.30D+03 IAcc=2 IRadAn=         4 AccDes= 0.00D+00
 Harris functional with IExCor=  402 and IRadAn=       4 diagonalized for initial guess.
 HarFok:  IExCor=  402 AccDes= 0.00D+00 IRadAn=         4 IDoV= 1 UseB2=F ITyADJ=14
 ICtDFT=  3500011 ScaDFX=  1.000000  1.000000  1.000000  1.000000
 FoFCou: FMM=F IPFlag=           0 FMFlag=      100000 FMFlg1=           0
         NFxFlg=           0 DoJE=T BraDBF=F KetDBF=T FulRan=T
         wScrn=  0.000000 ICntrl=     500 IOpCl=  0 I1Cent=   200000004 NGrid=           0
         NMat0=    1 NMatS0=      1 NMatT0=    0 NMatD0=    1 NMtDS0=    0 NMtDT0=    0
 Petite list used in FoFCou.
 Requested convergence on RMS density matrix=1.00D-08 within 128 cycles.
 Requested convergence on MAX density matrix=1.00D-06.
 Requested convergence on             energy=1.00D-06.
 No special actions if energy rises.
 SCF Done:  E(RB3LYP) =  -383.758789823     A.U. after   14 cycles
            NFock= 14  Conv=0.61D-08     -V/T= 2.0048

 **********************************************************************

            Population analysis using the SCF density.

 **********************************************************************

 Orbital symmetries:
       Occupied  (A) (A) (A) (A) (A) (A) (A) (A) (A) (A) (A) (A)
                 (A) (A) (A) (A) (A) (A) (A) (A) (A) (A) (A) (A)
                 (A) (A) (A) (A) (A) (A) (A)
       Virtual   (A) (A) (A) (A) (A) (A) (A) (A) (A) (A) (A) (A)
                 (A) (A) (A) (A) (A) (A) (A) (A) (A) (A) (A) (A)
                 (A) (A) (A) (A) (A) (A) (A) (A) (A) (A) (A) (A)
                 (A) (A) (A) (A) (A) (A) (A) (A) (A) (A) (A) (A)
                 (A) (A) (A) (A) (A) (A) (A) (A) (A) (A) (A) (A)
                 (A) (A) (A) (A) (A) (A) (A) (A) (A) (A) (A) (A)
                 (A) (A) (A) (A) (A) (A) (A) (A) (A) (A) (A) (A)
                 (A) (A) (A) (A) (A) (A) (A) (A) (A) (A) (A) (A)
                 (A) (A) (A) (A) (A) (A) (A) (A) (A) (A) (A) (A)
                 (A) (A) (A) (A) (A) (A) (A) (A) (A) (A) (A) (A)
                 (A) (A) (A) (A) (A) (A) (A) (A) (A) (A) (A) (A)
                 (A) (A) (A) (A) (A) (A) (A) (A) (A) (A) (A) (A)
                 (A) (A) (A) (A) (A) (A) (A) (A) (A) (A) (A) (A)
                 (A) (A) (A) (A) (A) (A) (A) (A) (A) (A) (A) (A)
                 (A) (A) (A) (A) (A) (A) (A) (A) (A) (A) (A) (A)
                 (A) (A) (A) (A) (A) (A) (A) (A) (A) (A) (A) (A)
                 (A) (A) (A) (A) (A) (A) (A) (A) (A) (A)
 The electronic state is 1-A.
 Alpha  occ. eigenvalues --  -19.19540 -10.24105 -10.23870 -10.19234 -10.18963
 Alpha  occ. eigenvalues --  -10.18751 -10.18606 -10.18523 -10.18273  -1.10356
 Alpha  occ. eigenvalues --   -0.87083  -0.79280  -0.76202  -0.73197  -0.64175
 Alpha  occ. eigenvalues --   -0.60668  -0.59883  -0.52865  -0.50573  -0.48972
 Alpha  occ. eigenvalues --   -0.45568  -0.45530  -0.43995  -0.41701  -0.38808
 Alpha  occ. eigenvalues --   -0.37817  -0.36604  -0.35196  -0.29366  -0.25905
 Alpha  occ. eigenvalues --   -0.22795
 Alpha virt. eigenvalues --   -0.03686  -0.01277   0.00545   0.01397   0.02109
 Alpha virt. eigenvalues --    0.02256   0.03328   0.03788   0.04976   0.05437
 Alpha virt. eigenvalues --    0.06662   0.06871   0.07929   0.08416   0.09948
 Alpha virt. eigenvalues --    0.10022   0.11351   0.12020   0.12477   0.13114
 Alpha virt. eigenvalues --    0.14086   0.14956   0.15308   0.15615   0.16659
 Alpha virt. eigenvalues --    0.17272   0.17715   0.17722   0.18125   0.18567
 Alpha virt. eigenvalues --    0.20085   0.20112   0.20395   0.21177   0.21559
 Alpha virt. eigenvalues --    0.22210   0.22885   0.23563   0.24560   0.25569
 Alpha virt. eigenvalues --    0.26422   0.27075   0.28307   0.28754   0.29898
 Alpha virt. eigenvalues --    0.31170   0.31973   0.32893   0.34342   0.35566
 Alpha virt. eigenvalues --    0.35861   0.38076   0.43789   0.46847   0.47252
 Alpha virt. eigenvalues --    0.51127   0.52721   0.53277   0.53315   0.56005
 Alpha virt. eigenvalues --    0.56202   0.56435   0.57946   0.58580   0.60142
 Alpha virt. eigenvalues --    0.62227   0.62684   0.64028   0.64575   0.65790
 Alpha virt. eigenvalues --    0.69286   0.69931   0.70014   0.71221   0.73589
 Alpha virt. eigenvalues --    0.76386   0.76549   0.77885   0.80261   0.81271
 Alpha virt. eigenvalues --    0.82368   0.83204   0.84613   0.87025   0.88227
 Alpha virt. eigenvalues --    0.91754   0.92691   0.93224   0.94278   0.98679
 Alpha virt. eigenvalues --    1.01654   1.03047   1.04479   1.04836   1.06378
 Alpha virt. eigenvalues --    1.06968   1.10958   1.11154   1.14246   1.18283
 Alpha virt. eigenvalues --    1.18570   1.26142   1.27214   1.32939   1.33130
 Alpha virt. eigenvalues --    1.40746   1.47911   1.49699   1.50415   1.53674
 Alpha virt. eigenvalues --    1.55524   1.55573   1.57477   1.59829   1.63140
 Alpha virt. eigenvalues --    1.66227   1.68548   1.71445   1.73670   1.74585
 Alpha virt. eigenvalues --    1.75756   1.76253   1.80787   1.82111   1.84050
 Alpha virt. eigenvalues --    1.85028   1.87838   1.90193   1.90818   1.92483
 Alpha virt. eigenvalues --    1.94097   1.95593   1.96426   2.00988   2.03550
 Alpha virt. eigenvalues --    2.06396   2.07197   2.10654   2.12504   2.20971
 Alpha virt. eigenvalues --    2.26531   2.30413   2.36853   2.36935   2.39922
 Alpha virt. eigenvalues --    2.43632   2.48563   2.53543   2.57347   2.62989
 Alpha virt. eigenvalues --    2.63253   2.67486   2.68065   2.69177   2.71457
 Alpha virt. eigenvalues --    2.72640   2.73529   2.74463   2.74778   2.76000
 Alpha virt. eigenvalues --    2.76427   2.80463   2.83901   2.88615   2.89368
 Alpha virt. eigenvalues --    2.95131   2.98128   3.06197   3.07168   3.07555
 Alpha virt. eigenvalues --    3.10749   3.16688   3.17618   3.21920   3.34863
 Alpha virt. eigenvalues --    3.36752   3.41999   3.47625   3.51638   3.57136
 Alpha virt. eigenvalues --    3.64873   3.72654   3.96655   4.02251   4.04668
 Alpha virt. eigenvalues --    4.06888   4.17759   4.20483   4.39778   4.82680
 Alpha virt. eigenvalues --    4.97582   5.38408   5.76545  23.55836  23.79586
 Alpha virt. eigenvalues --   23.91905  23.95994  24.04102  24.06556  24.08174
 Alpha virt. eigenvalues --   24.19644  49.91213
          Condensed to atoms (all electrons):
               1          2          3          4          5          6
     1  C   12.511188  -4.890134   0.193497  -1.225585   1.172433  -1.168070
     2  C   -4.890134  13.721132  -3.281448   1.335043  -1.912010   0.473082
     3  C    0.193497  -3.281448   8.323360  -0.225085   0.586865   0.350344
     4  C   -1.225585   1.335043  -0.225085   5.711310   0.054594   0.266732
     5  C    1.172433  -1.912010   0.586865   0.054594   5.735737   0.076571
     6  C   -1.168070   0.473082   0.350344   0.266732   0.076571   6.549721
     7  C    0.337112   0.114028  -0.479869  -0.012035  -0.011708   0.016350
     8  C    0.130901  -1.725304   0.911982  -0.289327   0.266696  -0.450663
     9  H   -0.006537   0.038008   0.343133  -0.020681  -0.004192  -0.008791
    10  H    0.004104   0.034402  -0.060088   0.388416  -0.011141  -0.013872
    11  H    0.019963   0.045116  -0.034570  -0.011094   0.380783  -0.050245
    12  H   -0.004908  -0.000594  -0.011564  -0.003608   0.000216   0.371138
    13  H   -0.007244   0.001534   0.015013   0.000539   0.000064  -0.003124
    14  H   -0.051770   0.036462   0.020305   0.011706  -0.002346   0.010378
    15  O    0.002452   0.271067  -0.021281   0.042626  -0.053551  -0.228845
               7          8          9         10         11         12
     1  C    0.337112   0.130901  -0.006537   0.004104   0.019963  -0.004908
     2  C    0.114028  -1.725304   0.038008   0.034402   0.045116  -0.000594
     3  C   -0.479869   0.911982   0.343133  -0.060088  -0.034570  -0.011564
     4  C   -0.012035  -0.289327  -0.020681   0.388416  -0.011094  -0.003608
     5  C   -0.011708   0.266696  -0.004192  -0.011141   0.380783   0.000216
     6  C    0.016350  -0.450663  -0.008791  -0.013872  -0.050245   0.371138
     7  C    5.453314   0.036099   0.011513   0.000237   0.001549   0.004612
     8  C    0.036099   7.200165  -0.007356   0.007836   0.000817   0.000625
     9  H    0.011513  -0.007356   0.534758  -0.006383  -0.000220   0.000060
    10  H    0.000237   0.007836  -0.006383   0.533287  -0.006793  -0.000197
    11  H    0.001549   0.000817  -0.000220  -0.006793   0.529649  -0.006938
    12  H    0.004612   0.000625   0.000060  -0.000197  -0.006938   0.523129
    13  H    0.400602  -0.008939  -0.000021   0.000000  -0.000001  -0.000021
    14  H   -0.021168   0.331192   0.001512  -0.000007  -0.000001   0.000003
    15  O    0.091816  -0.063904  -0.000323   0.000195  -0.000375  -0.004253
              13         14         15
     1  C   -0.007244  -0.051770   0.002452
     2  C    0.001534   0.036462   0.271067
     3  C    0.015013   0.020305  -0.021281
     4  C    0.000539   0.011706   0.042626
     5  C    0.000064  -0.002346  -0.053551
     6  C   -0.003124   0.010378  -0.228845
     7  C    0.400602  -0.021168   0.091816
     8  C   -0.008939   0.331192  -0.063904
     9  H   -0.000021   0.001512  -0.000323
    10  H    0.000000  -0.000007   0.000195
    11  H   -0.000001  -0.000001  -0.000375
    12  H   -0.000021   0.000003  -0.004253
    13  H    0.503739  -0.002050  -0.044027
    14  H   -0.002050   0.529137   0.010341
    15  O   -0.044027   0.010341   8.103567
 Mulliken charges:
               1
     1  C   -1.017402
     2  C    1.739616
     3  C   -0.630594
     4  C   -0.023550
     5  C   -0.279011
     6  C   -0.190706
     7  C    0.057548
     8  C   -0.340820
     9  H    0.125521
    10  H    0.130005
    11  H    0.132358
    12  H    0.132299
    13  H    0.143934
    14  H    0.126306
    15  O   -0.105505
 Sum of Mulliken charges =   0.00000
 Mulliken charges with hydrogens summed into heavy atoms:
               1
     1  C   -1.017402
     2  C    1.739616
     3  C   -0.505073
     4  C    0.106455
     5  C   -0.146653
     6  C   -0.058407
     7  C    0.201483
     8  C   -0.214514
    15  O   -0.105505
 Electronic spatial extent (au):  <R**2>=           1005.4070
 Charge=              0.0000 electrons
 Dipole moment (field-independent basis, Debye):
    X=             -0.1937    Y=              0.8488    Z=              0.0005  Tot=              0.8706
 Quadrupole moment (field-independent basis, Debye-Ang):
   XX=            -44.7199   YY=            -48.1829   ZZ=            -56.8956
   XY=              2.4087   XZ=              0.0016   YZ=             -0.0009
 Traceless Quadrupole moment (field-independent basis, Debye-Ang):
   XX=              5.2129   YY=              1.7499   ZZ=             -6.9628
   XY=              2.4087   XZ=              0.0016   YZ=             -0.0009
 Octapole moment (field-independent basis, Debye-Ang**2):
  XXX=             13.8002  YYY=              1.3153  ZZZ=             -0.0017  XYY=             -4.5821
  XXY=              2.1671  XXZ=              0.0066  XZZ=              3.8751  YZZ=             -3.2553
  YYZ=              0.0002  XYZ=              0.0004
 Hexadecapole moment (field-independent basis, Debye-Ang**3):
 XXXX=           -786.3266 YYYY=           -372.1083 ZZZZ=            -67.4532 XXXY=             -1.8978
 XXXZ=              0.0191 YYYX=              7.7056 YYYZ=             -0.0034 ZZZX=             -0.0017
 ZZZY=              0.0007 XXYY=           -212.5028 XXZZ=           -183.6619 YYZZ=            -87.9451
 XXYZ=             -0.0023 YYXZ=              0.0004 ZZXY=             -5.7012
 N-N= 3.978847597906D+02 E-N=-1.688734446421D+03  KE= 3.819407375177D+02
 There are a total of      122590 grid points.
 ElSum from          density=       62.0000574567
 ElSum from atomic densities=       61.9999564659

 Hirshfeld populations at iteration   1 (CX, CA, CB, DipXYZ):
               1          2          3          4          5          6
     1  C    0.000000   2.968547   2.968547   0.128569  -0.089081  -0.000017
     2  C    0.000000   3.012619   3.012619  -0.011394   0.049144  -0.000002
     3  C    0.000000   3.022513   3.022513   0.016273   0.072456  -0.000006
     4  C    0.000000   3.024110   3.024110  -0.058702   0.022654  -0.000003
     5  C    0.000000   3.024321   3.024321  -0.051115  -0.027512   0.000007
     6  C    0.000000   3.022413   3.022413   0.009162  -0.065041   0.000006
     7  C    0.000001   2.984710   2.984710   0.046565  -0.156558   0.000011
     8  C    0.000001   3.044551   3.044551  -0.028541   0.109724  -0.000010
     9  H    0.000002   0.474121   0.474121  -0.002186   0.165628  -0.000012
    10  H    0.000002   0.476532   0.476532  -0.144597   0.078643  -0.000005
    11  H    0.000002   0.475718   0.475718  -0.143057  -0.085561   0.000013
    12  H    0.000002   0.472462   0.472462   0.003052  -0.168448   0.000013
    13  H    0.000003   0.466004   0.466004   0.178884   0.006681   0.000066
    14  H    0.000003   0.473962   0.473962   0.053784   0.164737  -0.000002
    15  O    0.000005   4.057446   4.057446  -0.055415   0.132541   0.000024
       Tot   0.000023  31.000029  31.000029  -0.058716   0.210009   0.000084

 Dip from Atomic Chgs             -0.017620   0.124020   0.000122
         Total Dipole             -0.076337   0.334029   0.000206

 Hirshfeld charges, spin densities, dipoles, and CM5 charges using IRadAn=      4:
              Q-H        S-H        Dx         Dy         Dz        Q-CM5   
     1  C    0.062907   0.000000   0.128569  -0.089081  -0.000017   0.078444
     2  C   -0.025239   0.000000  -0.011394   0.049144  -0.000002  -0.029330
     3  C   -0.045025   0.000000   0.016273   0.072456  -0.000006  -0.099148
     4  C   -0.048220   0.000000  -0.058702   0.022654  -0.000003  -0.105255
     5  C   -0.048643   0.000000  -0.051115  -0.027512   0.000007  -0.105614
     6  C   -0.044826   0.000000   0.009162  -0.065041   0.000006  -0.097371
     7  C    0.030579   0.000000   0.046565  -0.156558   0.000011   0.003587
     8  C   -0.089101   0.000000  -0.028541   0.109724  -0.000010  -0.140462
     9  H    0.051759   0.000000  -0.002186   0.165628  -0.000012   0.109649
    10  H    0.046936   0.000000  -0.144597   0.078643  -0.000005   0.104318
    11  H    0.048563   0.000000  -0.143057  -0.085561   0.000013   0.105957
    12  H    0.055076   0.000000   0.003052  -0.168448   0.000013   0.114036
    13  H    0.067991   0.000000   0.178884   0.006681   0.000066   0.130981
    14  H    0.052077   0.000000   0.053784   0.164737  -0.000002   0.108611
    15  O   -0.114893   0.000000  -0.055415   0.132541   0.000024  -0.178460
       Tot  -0.000057   0.000000  -0.058716   0.210009   0.000084  -0.000057
 Hirshfeld charges with hydrogens summed into heavy atoms:
              Q-H       Q-CM5   
     1  C    0.062907   0.078444
     2  C   -0.025239  -0.029330
     3  C    0.006734   0.010501
     4  C   -0.001283  -0.000937
     5  C   -0.000079   0.000343
     6  C    0.010250   0.016665
     7  C    0.098570   0.134568
     8  C   -0.037024  -0.031851
    15  O   -0.114893  -0.178460
 
 EQQ= 0.000000000000E+00 EQD= 0.000000000000E+00 EDD= 0.612620048110E-02
 EQQ+QD+DD= 0.612620048110E-02
 
          MBS Condensed to atoms (all electrons):
               1          2          3          4          5          6
     1  C    4.763602   0.506925  -0.025854  -0.011923  -0.029214   0.498079
     2  C    0.506925   4.778077   0.495483  -0.032961  -0.012441  -0.034308
     3  C   -0.025854   0.495483   4.826046   0.508589  -0.030079  -0.009422
     4  C   -0.011923  -0.032961   0.508589   4.837630   0.493393  -0.028926
     5  C   -0.029214  -0.012441  -0.030079   0.493393   4.844423   0.505321
     6  C    0.498079  -0.034308  -0.009422  -0.028926   0.505321   4.827496
     7  C   -0.061154  -0.047595   0.000866  -0.000013  -0.000013   0.001414
     8  C   -0.056975   0.425246  -0.018815   0.000777   0.000065   0.001251
     9  H    0.001468  -0.025690   0.393097  -0.023678   0.001370   0.000011
    10  H    0.000087   0.001555  -0.025589   0.392159  -0.025050   0.001384
    11  H    0.001358   0.000064   0.001402  -0.024991   0.393296  -0.025252
    12  H   -0.025697   0.001560   0.000043   0.001326  -0.022381   0.389492
    13  H    0.002436   0.001321  -0.000011   0.000000   0.000000  -0.000021
    14  H    0.001649  -0.017688  -0.000755  -0.000004  -0.000001  -0.000020
    15  O    0.290199  -0.030102   0.000389   0.000004   0.000207  -0.013512
               7          8          9         10         11         12
     1  C   -0.061154  -0.056975   0.001468   0.000087   0.001358  -0.025697
     2  C   -0.047595   0.425246  -0.025690   0.001555   0.000064   0.001560
     3  C    0.000866  -0.018815   0.393097  -0.025589   0.001402   0.000043
     4  C   -0.000013   0.000777  -0.023678   0.392159  -0.024991   0.001326
     5  C   -0.000013   0.000065   0.001370  -0.025050   0.393296  -0.022381
     6  C    0.001414   0.001251   0.000011   0.001384  -0.025252   0.389492
     7  C    4.808045   0.543188   0.000005   0.000000   0.000000  -0.000013
     8  C    0.543188   4.959383  -0.002541  -0.000016   0.000000  -0.000036
     9  H    0.000005  -0.002541   0.540801  -0.003275  -0.000038   0.000002
    10  H    0.000000  -0.000016  -0.003275   0.548430  -0.003271  -0.000033
    11  H    0.000000   0.000000  -0.000038  -0.003271   0.543172  -0.003560
    12  H   -0.000013  -0.000036   0.000002  -0.000033  -0.003560   0.533315
    13  H    0.387163  -0.025786  -0.000001   0.000000   0.000000  -0.000001
    14  H   -0.018418   0.389572   0.000497   0.000000   0.000000   0.000001
    15  O    0.324966  -0.034740  -0.000007   0.000000  -0.000003  -0.000502
              13         14         15
     1  C    0.002436   0.001649   0.290199
     2  C    0.001321  -0.017688  -0.030102
     3  C   -0.000011  -0.000755   0.000389
     4  C    0.000000  -0.000004   0.000004
     5  C    0.000000  -0.000001   0.000207
     6  C   -0.000021  -0.000020  -0.013512
     7  C    0.387163  -0.018418   0.324966
     8  C   -0.025786   0.389572  -0.034740
     9  H   -0.000001   0.000497  -0.000007
    10  H    0.000000   0.000000   0.000000
    11  H    0.000000   0.000000  -0.000003
    12  H   -0.000001   0.000001  -0.000502
    13  H    0.503883  -0.000930  -0.015214
    14  H   -0.000930   0.521127   0.000685
    15  O   -0.015214   0.000685   7.782870
 MBS Mulliken charges:
               1
     1  C    0.145013
     2  C   -0.009448
     3  C   -0.115391
     4  C   -0.111381
     5  C   -0.118898
     6  C   -0.112986
     7  C    0.061559
     8  C   -0.180574
     9  H    0.117978
    10  H    0.113618
    11  H    0.117822
    12  H    0.126484
    13  H    0.147159
    14  H    0.124285
    15  O   -0.305241
 Sum of MBS Mulliken charges =   0.00000
 MBS Mulliken charges with hydrogens summed into heavy atoms:
               1
     1  C    0.145013
     2  C   -0.009448
     3  C    0.002587
     4  C    0.002237
     5  C   -0.001075
     6  C    0.013497
     7  C    0.208718
     8  C   -0.056289
    15  O   -0.305241
 Breneman (CHELPG) radii used.
 Generate Potential Derived Charges using the Breneman model, NDens= 1.
 Grid spacing= 0.300 Box extension= 2.800
 NStep X,Y,Z=   41     36     20   Total possible points=       29520
 Number of Points to Fit=   10995

 **********************************************************************

            Electrostatic Properties Using The SCF Density

 **********************************************************************

       Atomic Center    1 is at   0.257755 -0.652392 -0.000059
       Atomic Center    2 is at   0.203074  0.704370 -0.000041
       Atomic Center    3 is at  -0.985204  1.424355 -0.000077
       Atomic Center    4 is at  -2.185461  0.687303 -0.000012
       Atomic Center    5 is at  -2.147123 -0.731996  0.000094
       Atomic Center    6 is at  -0.909718 -1.413833  0.000073
       Atomic Center    7 is at   2.391724 -0.016487  0.000147
       Atomic Center    8 is at   1.627440  1.159965  0.000062
       Atomic Center    9 is at  -0.988391  2.494350 -0.000143
       Atomic Center   10 is at  -3.126242  1.197038 -0.000038
       Atomic Center   11 is at  -3.060950 -1.288612  0.000186
       Atomic Center   12 is at  -0.869975 -2.483095  0.000146
       Atomic Center   13 is at   3.461663 -0.027861  0.000482
       Atomic Center   14 is at   1.986839  2.167801  0.000093
       Atomic Center   15 is at   1.635266 -1.128416 -0.000231
   10995 points will be used for fitting atomic charges
 Fitting point charges to electrostatic potential
 Charges from ESP fit, RMS=   0.00496 RRMS=   0.47633:
 ESP charges:
               1
     1  C    0.212971
     2  C    0.285789
     3  C   -0.281313
     4  C   -0.069376
     5  C   -0.131601
     6  C   -0.194859
     7  C    0.118676
     8  C   -0.444076
     9  H    0.150807
    10  H    0.094416
    11  H    0.109076
    12  H    0.138401
    13  H    0.120095
    14  H    0.177780
    15  O   -0.286787
 Sum of ESP charges =   0.00000
 ESP charges with hydrogens summed into heavy atoms:
               1
     1  C    0.212971
     2  C    0.285789
     3  C   -0.130506
     4  C    0.025040
     5  C   -0.022525
     6  C   -0.056458
     7  C    0.238772
     8  C   -0.266296
    15  O   -0.286787
 Charge=   0.00000 Dipole=    -0.1723     0.8616     0.0006 Tot=     0.8786
 -----------------------------------------------------------------

              Electrostatic Properties (Atomic Units)

 -----------------------------------------------------------------
    Center     Electric         -------- Electric Field --------
               Potential          X             Y             Z
 -----------------------------------------------------------------
    1 Atom    -14.712027
    2 Atom    -14.762414
    3 Atom    -14.764608
    4 Atom    -14.765218
    5 Atom    -14.762577
    6 Atom    -14.758060
    7 Atom    -14.708200
    8 Atom    -14.766613
    9 Atom     -1.098358
   10 Atom     -1.104468
   11 Atom     -1.102175
   12 Atom     -1.095276
   13 Atom     -1.071245
   14 Atom     -1.089074
   15 Atom    -22.300754
 -----------------------------------------------------------------
 ******************************Gaussian NBO Version 3.1******************************
             N A T U R A L   A T O M I C   O R B I T A L   A N D
          N A T U R A L   B O N D   O R B I T A L   A N A L Y S I S
 ******************************Gaussian NBO Version 3.1******************************
       /RESON  / : Allow strongly delocalized NBO set

 Analyzing the SCF density

 Job title: Table5_6                                                        

 Storage needed:    165324 in NPA (  33553187 available)


 NATURAL POPULATIONS:  Natural atomic orbital occupancies 
                                                          
   NAO  Atom  No  lang   Type(AO)    Occupancy      Energy
 ----------------------------------------------------------
     1    C    1  S      Cor( 1S)     1.99837     -10.10266
     2    C    1  S      Val( 2S)     0.83067      -0.13519
     3    C    1  S      Ryd( 4S)     0.00116       0.90115
     4    C    1  S      Ryd( 3S)     0.00014       0.86788
     5    C    1  S      Ryd( 5S)     0.00001      22.69858
     6    C    1  px     Val( 2p)     0.79211      -0.05300
     7    C    1  px     Ryd( 4p)     0.00512       1.25805
     8    C    1  px     Ryd( 3p)     0.00025       0.61475
     9    C    1  px     Ryd( 5p)     0.00017       3.00919
    10    C    1  py     Val( 2p)     1.02367      -0.06480
    11    C    1  py     Ryd( 4p)     0.00757       1.07375
    12    C    1  py     Ryd( 3p)     0.00023       0.54905
    13    C    1  py     Ryd( 5p)     0.00020       3.07985
    14    C    1  pz     Val( 2p)     1.03897      -0.12860
    15    C    1  pz     Ryd( 4p)     0.00112       0.60903
    16    C    1  pz     Ryd( 3p)     0.00029       0.43060
    17    C    1  pz     Ryd( 5p)     0.00005       2.63987
    18    C    1  dxy    Ryd( 3d)     0.00157       2.40481
    19    C    1  dxz    Ryd( 3d)     0.00167       1.59063
    20    C    1  dyz    Ryd( 3d)     0.00081       1.64531
    21    C    1  dx2y2  Ryd( 3d)     0.00172       2.68960
    22    C    1  dz2    Ryd( 3d)     0.00070       2.07400

    23    C    2  S      Cor( 1S)     1.99886     -10.03568
    24    C    2  S      Val( 2S)     0.87541      -0.12273
    25    C    2  S      Ryd( 3S)     0.00124       0.68442
    26    C    2  S      Ryd( 4S)     0.00014       0.92151
    27    C    2  S      Ryd( 5S)     0.00002      22.98748
    28    C    2  px     Val( 2p)     1.10053      -0.07185
    29    C    2  px     Ryd( 4p)     0.00431       1.43889
    30    C    2  px     Ryd( 3p)     0.00016       0.77175
    31    C    2  px     Ryd( 5p)     0.00014       3.05856
    32    C    2  py     Val( 2p)     1.10626      -0.07673
    33    C    2  py     Ryd( 4p)     0.00577       1.17628
    34    C    2  py     Ryd( 3p)     0.00037       0.61194
    35    C    2  py     Ryd( 5p)     0.00011       3.07134
    36    C    2  pz     Val( 2p)     1.02397      -0.10934
    37    C    2  pz     Ryd( 4p)     0.00031       0.59266
    38    C    2  pz     Ryd( 3p)     0.00034       0.58081
    39    C    2  pz     Ryd( 5p)     0.00005       2.47791
    40    C    2  dxy    Ryd( 3d)     0.00053       2.49209
    41    C    2  dxz    Ryd( 3d)     0.00091       1.66163
    42    C    2  dyz    Ryd( 3d)     0.00063       1.66610
    43    C    2  dx2y2  Ryd( 3d)     0.00101       2.75504
    44    C    2  dz2    Ryd( 3d)     0.00042       2.14545

    45    C    3  S      Cor( 1S)     1.99909     -10.03671
    46    C    3  S      Val( 2S)     0.93892      -0.15724
    47    C    3  S      Ryd( 3S)     0.00157       0.84860
    48    C    3  S      Ryd( 4S)     0.00007       0.95387
    49    C    3  S      Ryd( 5S)     0.00001      22.69095
    50    C    3  px     Val( 2p)     1.05123      -0.04884
    51    C    3  px     Ryd( 4p)     0.00382       0.76580
    52    C    3  px     Ryd( 3p)     0.00047       0.39435
    53    C    3  px     Ryd( 5p)     0.00016       3.09350
    54    C    3  py     Val( 2p)     1.17643      -0.05870
    55    C    3  py     Ryd( 4p)     0.00583       1.12415
    56    C    3  py     Ryd( 3p)     0.00027       0.35293
    57    C    3  py     Ryd( 5p)     0.00007       3.11880
    58    C    3  pz     Val( 2p)     1.00733      -0.11416
    59    C    3  pz     Ryd( 4p)     0.00123       0.51320
    60    C    3  pz     Ryd( 3p)     0.00035       0.27994
    61    C    3  pz     Ryd( 5p)     0.00002       2.70584
    62    C    3  dxy    Ryd( 3d)     0.00067       2.61102
    63    C    3  dxz    Ryd( 3d)     0.00048       1.66135
    64    C    3  dyz    Ryd( 3d)     0.00040       1.62509
    65    C    3  dx2y2  Ryd( 3d)     0.00077       2.48606
    66    C    3  dz2    Ryd( 3d)     0.00040       2.09244

    67    C    4  S      Cor( 1S)     1.99923     -10.04314
    68    C    4  S      Val( 2S)     0.96002      -0.17825
    69    C    4  S      Ryd( 3S)     0.00126       0.75752
    70    C    4  S      Ryd( 4S)     0.00012       1.17325
    71    C    4  S      Ryd( 5S)     0.00000      22.67497
    72    C    4  px     Val( 2p)     1.13855      -0.05117
    73    C    4  px     Ryd( 4p)     0.00587       0.95218
    74    C    4  px     Ryd( 3p)     0.00036       0.31631
    75    C    4  px     Ryd( 5p)     0.00008       3.18458
    76    C    4  py     Val( 2p)     1.07842      -0.05333
    77    C    4  py     Ryd( 4p)     0.00476       0.79707
    78    C    4  py     Ryd( 3p)     0.00045       0.37825
    79    C    4  py     Ryd( 5p)     0.00012       3.11234
    80    C    4  pz     Val( 2p)     1.00478      -0.11502
    81    C    4  pz     Ryd( 4p)     0.00113       0.50743
    82    C    4  pz     Ryd( 3p)     0.00026       0.31755
    83    C    4  pz     Ryd( 5p)     0.00001       2.66937
    84    C    4  dxy    Ryd( 3d)     0.00077       2.49570
    85    C    4  dxz    Ryd( 3d)     0.00041       1.61648
    86    C    4  dyz    Ryd( 3d)     0.00046       1.64299
    87    C    4  dx2y2  Ryd( 3d)     0.00069       2.51500
    88    C    4  dz2    Ryd( 3d)     0.00041       2.02195

    89    C    5  S      Cor( 1S)     1.99923     -10.04645
    90    C    5  S      Val( 2S)     0.96117      -0.18188
    91    C    5  S      Ryd( 3S)     0.00132       0.75499
    92    C    5  S      Ryd( 4S)     0.00011       1.10585
    93    C    5  S      Ryd( 5S)     0.00000      22.79691
    94    C    5  px     Val( 2p)     1.12507      -0.05323
    95    C    5  px     Ryd( 4p)     0.00551       0.94905
    96    C    5  px     Ryd( 3p)     0.00041       0.34178
    97    C    5  px     Ryd( 5p)     0.00009       3.16879
    98    C    5  py     Val( 2p)     1.08377      -0.05535
    99    C    5  py     Ryd( 4p)     0.00490       0.80607
   100    C    5  py     Ryd( 3p)     0.00041       0.36748
   101    C    5  py     Ryd( 5p)     0.00012       3.12675
   102    C    5  pz     Val( 2p)     1.02347      -0.11744
   103    C    5  pz     Ryd( 4p)     0.00151       0.50638
   104    C    5  pz     Ryd( 3p)     0.00028       0.30635
   105    C    5  pz     Ryd( 5p)     0.00002       2.68107
   106    C    5  dxy    Ryd( 3d)     0.00077       2.48492
   107    C    5  dxz    Ryd( 3d)     0.00040       1.61579
   108    C    5  dyz    Ryd( 3d)     0.00044       1.63869
   109    C    5  dx2y2  Ryd( 3d)     0.00064       2.51680
   110    C    5  dz2    Ryd( 3d)     0.00041       2.03100

   111    C    6  S      Cor( 1S)     1.99907     -10.04532
   112    C    6  S      Val( 2S)     0.95268      -0.17374
   113    C    6  S      Ryd( 4S)     0.00152       0.87787
   114    C    6  S      Ryd( 3S)     0.00013       0.74176
   115    C    6  S      Ryd( 5S)     0.00001      22.90578
   116    C    6  px     Val( 2p)     1.05985      -0.06144
   117    C    6  px     Ryd( 4p)     0.00388       0.82391
   118    C    6  px     Ryd( 3p)     0.00033       0.42065
   119    C    6  px     Ryd( 5p)     0.00014       3.05478
   120    C    6  py     Val( 2p)     1.18406      -0.06879
   121    C    6  py     Ryd( 4p)     0.00567       1.08996
   122    C    6  py     Ryd( 3p)     0.00021       0.40589
   123    C    6  py     Ryd( 5p)     0.00008       3.04410
   124    C    6  pz     Val( 2p)     1.01147      -0.12005
   125    C    6  pz     Ryd( 4p)     0.00116       0.52449
   126    C    6  pz     Ryd( 3p)     0.00031       0.27688
   127    C    6  pz     Ryd( 5p)     0.00001       2.69479
   128    C    6  dxy    Ryd( 3d)     0.00069       2.60271
   129    C    6  dxz    Ryd( 3d)     0.00061       1.65537
   130    C    6  dyz    Ryd( 3d)     0.00046       1.61447
   131    C    6  dx2y2  Ryd( 3d)     0.00075       2.49333
   132    C    6  dz2    Ryd( 3d)     0.00044       2.06759

   133    C    7  S      Cor( 1S)     1.99912     -10.11895
   134    C    7  S      Val( 2S)     0.93383      -0.21248
   135    C    7  S      Ryd( 3S)     0.00159       0.79773
   136    C    7  S      Ryd( 4S)     0.00021       1.06563
   137    C    7  S      Ryd( 5S)     0.00001      22.81960
   138    C    7  px     Val( 2p)     1.07054      -0.06523
   139    C    7  px     Ryd( 4p)     0.00308       1.14758
   140    C    7  px     Ryd( 3p)     0.00039       0.79802
   141    C    7  px     Ryd( 5p)     0.00010       2.40118
   142    C    7  py     Val( 2p)     0.81504      -0.05312
   143    C    7  py     Ryd( 3p)     0.00934       0.71362
   144    C    7  py     Ryd( 4p)     0.00023       0.72260
   145    C    7  py     Ryd( 5p)     0.00020       2.62640
   146    C    7  pz     Val( 2p)     0.99640      -0.13978
   147    C    7  pz     Ryd( 4p)     0.00277       0.55033
   148    C    7  pz     Ryd( 3p)     0.00068       0.51047
   149    C    7  pz     Ryd( 5p)     0.00004       2.41527
   150    C    7  dxy    Ryd( 3d)     0.00176       2.56551
   151    C    7  dxz    Ryd( 3d)     0.00102       1.57871
   152    C    7  dyz    Ryd( 3d)     0.00203       1.59008
   153    C    7  dx2y2  Ryd( 3d)     0.00195       2.34447
   154    C    7  dz2    Ryd( 3d)     0.00073       1.98698

   155    C    8  S      Cor( 1S)     1.99923     -10.04937
   156    C    8  S      Val( 2S)     0.98904      -0.20429
   157    C    8  S      Ryd( 3S)     0.00092       0.74855
   158    C    8  S      Ryd( 4S)     0.00012       1.28750
   159    C    8  S      Ryd( 5S)     0.00001      22.66194
   160    C    8  px     Val( 2p)     1.01115      -0.05741
   161    C    8  px     Ryd( 4p)     0.00409       0.66663
   162    C    8  px     Ryd( 3p)     0.00035       0.44875
   163    C    8  px     Ryd( 5p)     0.00012       3.02407
   164    C    8  py     Val( 2p)     1.16689      -0.06542
   165    C    8  py     Ryd( 4p)     0.00391       1.09808
   166    C    8  py     Ryd( 3p)     0.00048       0.49087
   167    C    8  py     Ryd( 5p)     0.00007       3.02765
   168    C    8  pz     Val( 2p)     1.10971      -0.12314
   169    C    8  pz     Ryd( 4p)     0.00236       0.49809
   170    C    8  pz     Ryd( 3p)     0.00046       0.31171
   171    C    8  pz     Ryd( 5p)     0.00002       2.66525
   172    C    8  dxy    Ryd( 3d)     0.00075       2.50879
   173    C    8  dxz    Ryd( 3d)     0.00042       1.59529
   174    C    8  dyz    Ryd( 3d)     0.00063       1.65623
   175    C    8  dx2y2  Ryd( 3d)     0.00056       2.41486
   176    C    8  dz2    Ryd( 3d)     0.00045       2.06256

   177    H    9  S      Val( 1S)     0.78739       0.04832
   178    H    9  S      Ryd( 2S)     0.00071       0.74343
   179    H    9  S      Ryd( 3S)     0.00020       1.94036
   180    H    9  px     Ryd( 2p)     0.00013       1.99647
   181    H    9  py     Ryd( 2p)     0.00044       2.74996
   182    H    9  pz     Ryd( 2p)     0.00020       1.60674

   183    H   10  S      Val( 1S)     0.79313       0.05382
   184    H   10  S      Ryd( 2S)     0.00047       0.58722
   185    H   10  S      Ryd( 3S)     0.00018       2.15416
   186    H   10  px     Ryd( 2p)     0.00035       2.55079
   187    H   10  py     Ryd( 2p)     0.00018       2.13627
   188    H   10  pz     Ryd( 2p)     0.00021       1.59727

   189    H   11  S      Val( 1S)     0.78993       0.05336
   190    H   11  S      Ryd( 2S)     0.00046       0.60971
   191    H   11  S      Ryd( 3S)     0.00019       2.12306
   192    H   11  px     Ryd( 2p)     0.00034       2.52073
   193    H   11  py     Ryd( 2p)     0.00019       2.17197
   194    H   11  pz     Ryd( 2p)     0.00022       1.59685

   195    H   12  S      Val( 1S)     0.77881       0.04924
   196    H   12  S      Ryd( 2S)     0.00074       0.88942
   197    H   12  S      Ryd( 3S)     0.00022       1.79571
   198    H   12  px     Ryd( 2p)     0.00011       2.00458
   199    H   12  py     Ryd( 2p)     0.00041       2.73977
   200    H   12  pz     Ryd( 2p)     0.00018       1.60327

   201    H   13  S      Val( 1S)     0.79918       0.01632
   202    H   13  S      Ryd( 2S)     0.00046       0.82726
   203    H   13  S      Ryd( 3S)     0.00018       1.77190
   204    H   13  px     Ryd( 2p)     0.00060       2.74310
   205    H   13  py     Ryd( 2p)     0.00012       1.91574
   206    H   13  pz     Ryd( 2p)     0.00029       1.57336

   207    H   14  S      Val( 1S)     0.77932       0.05212
   208    H   14  S      Ryd( 2S)     0.00046       0.94888
   209    H   14  S      Ryd( 3S)     0.00026       1.64277
   210    H   14  px     Ryd( 2p)     0.00015       2.02921
   211    H   14  py     Ryd( 2p)     0.00043       2.67296
   212    H   14  pz     Ryd( 2p)     0.00023       1.59486

   213    O   15  S      Cor( 1S)     1.99974     -18.98323
   214    O   15  S      Val( 2S)     1.61702      -0.90994
   215    O   15  S      Ryd( 3S)     0.00251       0.81347
   216    O   15  S      Ryd( 4S)     0.00005       1.18369
   217    O   15  S      Ryd( 5S)     0.00000      49.60917
   218    O   15  px     Val( 2p)     1.39648      -0.32466
   219    O   15  px     Ryd( 4p)     0.00195       0.87091
   220    O   15  px     Ryd( 3p)     0.00074       0.81893
   221    O   15  px     Ryd( 5p)     0.00002       5.20062
   222    O   15  py     Val( 2p)     1.69916      -0.36383
   223    O   15  py     Ryd( 3p)     0.00344       0.57718
   224    O   15  py     Ryd( 4p)     0.00065       0.88725
   225    O   15  py     Ryd( 5p)     0.00007       5.13375
   226    O   15  pz     Val( 2p)     1.75250      -0.33499
   227    O   15  pz     Ryd( 3p)     0.00173       0.48567
   228    O   15  pz     Ryd( 4p)     0.00040       0.73148
   229    O   15  pz     Ryd( 5p)     0.00001       4.91683
   230    O   15  dxy    Ryd( 3d)     0.00127       3.41395
   231    O   15  dxz    Ryd( 3d)     0.00023       2.89114
   232    O   15  dyz    Ryd( 3d)     0.00113       2.90943
   233    O   15  dx2y2  Ryd( 3d)     0.00100       3.27864
   234    O   15  dz2    Ryd( 3d)     0.00063       3.25851

 WARNING:  1 low occupancy (<1.9990e) core orbital  found on  C    1
           1 low occupancy (<1.9990e) core orbital  found on  C    2

 WARNING:  Population inversion found on atom  C    1
           Population inversion found on atom  C    2
           Population inversion found on atom  C    3
           Population inversion found on atom  C    4
           Population inversion found on atom  C    5
           Population inversion found on atom  C    6
           Population inversion found on atom  C    7
           Population inversion found on atom  C    8
           Population inversion found on atom  O   15


 Summary of Natural Population Analysis:                  
                                                          
                                       Natural Population 
                Natural  -----------------------------------------------
    Atom  No    Charge         Core      Valence    Rydberg      Total
 -----------------------------------------------------------------------
      C    1    0.29340      1.99837     3.68542    0.02281     5.70660
      C    2   -0.12149      1.99886     4.10617    0.01646     6.12149
      C    3   -0.18959      1.99909     4.17390    0.01660     6.18959
      C    4   -0.19816      1.99923     4.18176    0.01717     6.19816
      C    5   -0.21003      1.99923     4.19348    0.01732     6.21003
      C    6   -0.22354      1.99907     4.20806    0.01641     6.22354
      C    7    0.15893      1.99912     3.81581    0.02614     5.84107
      C    8   -0.29173      1.99923     4.27678    0.01572     6.29173
      H    9    0.21093      0.00000     0.78739    0.00168     0.78907
      H   10    0.20547      0.00000     0.79313    0.00139     0.79453
      H   11    0.20867      0.00000     0.78993    0.00140     0.79133
      H   12    0.21953      0.00000     0.77881    0.00166     0.78047
      H   13    0.19918      0.00000     0.79918    0.00165     0.80082
      H   14    0.21916      0.00000     0.77932    0.00152     0.78084
      O   15   -0.48073      1.99974     6.46516    0.01583     8.48073
 =======================================================================
   * Total *    0.00000     17.99194    43.83431    0.17376    62.00000

                                 Natural Population      
 --------------------------------------------------------
   Core                      17.99194 ( 99.9552% of  18)
   Valence                   43.83431 ( 99.6234% of  44)
   Natural Minimal Basis     61.82624 ( 99.7197% of  62)
   Natural Rydberg Basis      0.17376 (  0.2803% of  62)
 --------------------------------------------------------

    Atom  No          Natural Electron Configuration
 ----------------------------------------------------------------------------
      C    1      [core]2S( 0.83)2p( 2.85)3d( 0.01)4p( 0.01)
      C    2      [core]2S( 0.88)2p( 3.23)4p( 0.01)
      C    3      [core]2S( 0.94)2p( 3.23)4p( 0.01)
      C    4      [core]2S( 0.96)2p( 3.22)4p( 0.01)
      C    5      [core]2S( 0.96)2p( 3.23)4p( 0.01)
      C    6      [core]2S( 0.95)2p( 3.26)4p( 0.01)
      C    7      [core]2S( 0.93)2p( 2.88)3p( 0.01)3d( 0.01)4p( 0.01)
      C    8      [core]2S( 0.99)2p( 3.29)4p( 0.01)
      H    9            1S( 0.79)
      H   10            1S( 0.79)
      H   11            1S( 0.79)
      H   12            1S( 0.78)
      H   13            1S( 0.80)
      H   14            1S( 0.78)
      O   15      [core]2S( 1.62)2p( 4.85)3p( 0.01)


 NBO analysis skipped by request.
 PrsmSu:  requested number of processors reduced to:   9 ShMem   1 Linda.
 Calling FoFJK, ICntrl=      2127 FMM=F ISym2X=0 I1Cent= 0 IOpClX= 0 NMat=1 NMatS=1 NMatT=0.
 ***** Axes restored to original set *****
 -------------------------------------------------------------------
 Center     Atomic                   Forces (Hartrees/Bohr)
 Number     Number              X              Y              Z
 -------------------------------------------------------------------
      1        6          -0.040669724   -0.011816814   -0.005037109
      2        6           0.046129849   -0.054343501    0.003151158
      3        6          -0.020595767    0.024897135   -0.001381278
      4        6          -0.008402505   -0.022204345   -0.001779256
      5        6           0.012594151   -0.024613293    0.000492853
      6        6           0.005455147    0.004301565    0.000767063
      7        6           0.065876636    0.030584600    0.008538749
      8        6          -0.049932838    0.006080855   -0.005386392
      9        1           0.008788494   -0.000326161    0.000977798
     10        1           0.004038351    0.008636712    0.000778903
     11        1          -0.005509195    0.007119250   -0.000351706
     12        1          -0.009503983    0.000658102   -0.001045872
     13        1          -0.014900986   -0.005813971   -0.001905000
     14        1           0.004969201   -0.003336161    0.000441062
     15        8           0.001663171    0.040176029    0.001739027
 -------------------------------------------------------------------
 Cartesian Forces:  Max     0.065876636 RMS     0.020817714

 GradGradGradGradGradGradGradGradGradGradGradGradGradGradGradGradGradGrad
 Berny optimization.
 FormGI is forming the generalized inverse of G from B-inverse, IUseBI=4.
 Internal  Forces:  Max     0.046281622 RMS     0.010342888
 Search for a local minimum.
 Step number   1 out of a maximum of   87
 All quantities printed in internal units (Hartrees-Bohrs-Radians)
 Mixed Optimization -- RFO/linear search
 Second derivative matrix not updated -- first step.
 ITU=  0
     Eigenvalues ---    0.01353   0.01624   0.01854   0.01869   0.01904
     Eigenvalues ---    0.01915   0.02019   0.02061   0.02086   0.02101
     Eigenvalues ---    0.02164   0.02184   0.16000   0.16000   0.16000
     Eigenvalues ---    0.16000   0.16000   0.16000   0.22000   0.22509
     Eigenvalues ---    0.22805   0.24489   0.24831   0.31950   0.35840
     Eigenvalues ---    0.37230   0.37230   0.37230   0.37230   0.37230
     Eigenvalues ---    0.37230   0.39640   0.41016   0.42640   0.43580
     Eigenvalues ---    0.45841   0.46433   0.49133   0.54509
 RFO step:  Lambda=-2.21427683D-02 EMin= 1.35311649D-02
 Linear search not attempted -- first point.
 Iteration  1 RMS(Cart)=  0.03689544 RMS(Int)=  0.00121117
 Iteration  2 RMS(Cart)=  0.00119434 RMS(Int)=  0.00012827
 Iteration  3 RMS(Cart)=  0.00000142 RMS(Int)=  0.00012827
 Iteration  4 RMS(Cart)=  0.00000000 RMS(Int)=  0.00012827
 Variable       Old X    -DE/DX   Delta X   Delta X   Delta X     New X
                                 (Linear)    (Quad)   (Total)
    R1        2.56599   0.02701   0.00000   0.05660   0.05654   2.62253
    R2        2.63397  -0.00907   0.00000  -0.01673  -0.01682   2.61715
    R3        2.75417  -0.04628   0.00000  -0.11403  -0.11387   2.64029
    R4        2.62555   0.00559   0.00000   0.01385   0.01400   2.63956
    R5        2.82600  -0.02694   0.00000  -0.07605  -0.07629   2.74971
    R6        2.66167  -0.01238   0.00000  -0.02846  -0.02837   2.63330
    R7        2.02201   0.00885   0.00000   0.02243   0.02243   2.04443
    R8        2.68306  -0.00758   0.00000  -0.02154  -0.02160   2.66146
    R9        2.02201   0.00954   0.00000   0.02419   0.02419   2.04620
   R10        2.66985  -0.01635   0.00000  -0.03838  -0.03853   2.63132
   R11        2.02201   0.00893   0.00000   0.02265   0.02265   2.04466
   R12        2.02201   0.00955   0.00000   0.02420   0.02420   2.04621
   R13        2.65112  -0.04162   0.00000  -0.09269  -0.09269   2.55844
   R14        2.02201   0.00623   0.00000   0.01579   0.01579   2.03780
   R15        2.54139   0.01189   0.00000   0.01747   0.01769   2.55909
   R16        2.02201   0.00584   0.00000   0.01482   0.01482   2.03682
    A1        2.10845   0.01282   0.00000   0.05259   0.05253   2.16098
    A2        1.94380  -0.00993   0.00000  -0.02831  -0.02828   1.91552
    A3        2.23094  -0.00289   0.00000  -0.02428  -0.02425   2.20669
    A4        2.15583  -0.01939   0.00000  -0.06338  -0.06300   2.09282
    A5        1.84009   0.00372   0.00000   0.01884   0.01838   1.85847
    A6        2.28727   0.01566   0.00000   0.04454   0.04462   2.33189
    A7        2.04613   0.00058   0.00000   0.00636   0.00659   2.05272
    A8        2.11853  -0.00049   0.00000  -0.00430  -0.00441   2.11412
    A9        2.11853  -0.00009   0.00000  -0.00206  -0.00218   2.11635
   A10        2.09450   0.00746   0.00000   0.02099   0.02099   2.11549
   A11        2.09434  -0.00305   0.00000  -0.00674  -0.00674   2.08760
   A12        2.09434  -0.00441   0.00000  -0.01425  -0.01425   2.08009
   A13        2.10143   0.00697   0.00000   0.01744   0.01718   2.11861
   A14        2.09088  -0.00232   0.00000  -0.00229  -0.00217   2.08871
   A15        2.09088  -0.00466   0.00000  -0.01514  -0.01501   2.07586
   A16        2.06004  -0.00845   0.00000  -0.03400  -0.03429   2.02575
   A17        2.11157   0.00508   0.00000   0.02172   0.02186   2.13344
   A18        2.11157   0.00336   0.00000   0.01229   0.01243   2.12400
   A19        2.15756   0.01050   0.00000   0.06967   0.06959   2.22714
   A20        1.96807   0.00903   0.00000   0.02553   0.02570   1.99377
   A21        2.15756  -0.01953   0.00000  -0.09520  -0.09528   2.06227
   A22        1.83735  -0.00244   0.00000  -0.01530  -0.01556   1.82179
   A23        2.22292   0.00260   0.00000   0.01525   0.01537   2.23829
   A24        2.22292  -0.00016   0.00000   0.00006   0.00018   2.22310
   A25        1.83546  -0.00037   0.00000  -0.00076  -0.00025   1.83522
    D1       -0.00016   0.00000   0.00000   0.00007   0.00007  -0.00009
    D2        3.14141   0.00000   0.00000   0.00007   0.00007   3.14148
    D3        3.14143   0.00001   0.00000   0.00013   0.00013   3.14156
    D4       -0.00019   0.00000   0.00000   0.00013   0.00013  -0.00006
    D5        0.00010   0.00000   0.00000  -0.00005  -0.00005   0.00006
    D6       -3.14150   0.00000   0.00000  -0.00001  -0.00001  -3.14151
    D7       -3.14148   0.00000   0.00000  -0.00011  -0.00011   3.14159
    D8        0.00010   0.00000   0.00000  -0.00008  -0.00008   0.00002
    D9        0.00036  -0.00002   0.00000  -0.00033  -0.00032   0.00004
   D10       -3.14124  -0.00001   0.00000  -0.00027  -0.00026  -3.14151
   D11        0.00010   0.00000   0.00000  -0.00005  -0.00005   0.00005
   D12       -3.14150   0.00000   0.00000  -0.00004  -0.00004  -3.14154
   D13       -3.14146   0.00000   0.00000  -0.00005  -0.00005  -3.14151
   D14        0.00012   0.00000   0.00000  -0.00004  -0.00004   0.00009
   D15       -0.00004   0.00000   0.00000   0.00010   0.00010   0.00007
   D16        3.14158   0.00000   0.00000   0.00000   0.00000   3.14158
   D17        3.14152   0.00000   0.00000   0.00010   0.00010  -3.14156
   D18       -0.00004   0.00000   0.00000   0.00000   0.00000  -0.00004
   D19        0.00001   0.00000   0.00000   0.00000   0.00000   0.00001
   D20       -3.14159   0.00000   0.00000   0.00000   0.00000  -3.14159
   D21       -3.14158   0.00000   0.00000  -0.00001  -0.00001  -3.14159
   D22        0.00001   0.00000   0.00000  -0.00001  -0.00001   0.00000
   D23       -0.00005   0.00000   0.00000   0.00002   0.00002  -0.00003
   D24        3.14155   0.00000   0.00000   0.00000   0.00000   3.14154
   D25        3.14155   0.00000   0.00000   0.00002   0.00002   3.14157
   D26       -0.00004   0.00000   0.00000   0.00000   0.00000  -0.00004
   D27        0.00000   0.00000   0.00000   0.00001   0.00001   0.00000
   D28       -3.14159   0.00000   0.00000  -0.00003  -0.00003   3.14157
   D29        3.14158   0.00000   0.00000   0.00003   0.00003  -3.14157
   D30        0.00000   0.00000   0.00000  -0.00001  -0.00001   0.00000
   D31       -3.14131  -0.00001   0.00000  -0.00014  -0.00013  -3.14144
   D32        0.00025   0.00000   0.00000  -0.00003  -0.00002   0.00023
   D33        0.00028  -0.00001   0.00000  -0.00033  -0.00032  -0.00005
   D34       -3.14135  -0.00001   0.00000  -0.00022  -0.00022  -3.14157
   D35       -0.00038   0.00001   0.00000   0.00039   0.00039   0.00001
   D36        3.14121   0.00001   0.00000   0.00020   0.00022   3.14142
         Item               Value     Threshold  Converged?
 Maximum Force            0.046282     0.000450     NO 
 RMS     Force            0.010343     0.000300     NO 
 Maximum Displacement     0.138826     0.001800     NO 
 RMS     Displacement     0.037269     0.001200     NO 
 Predicted change in Energy=-1.179431D-02
 GradGradGradGradGradGradGradGradGradGradGradGradGradGradGradGradGradGrad

                          Input orientation:                          
 ---------------------------------------------------------------------
 Center     Atomic      Atomic             Coordinates (Angstroms)
 Number     Number       Type             X           Y           Z
 ---------------------------------------------------------------------
      1          6           0       -3.161959   -1.936635   -0.134409
      2          6           0       -1.782884   -1.948113    0.020374
      3          6           0       -1.085839   -0.743998    0.143930
      4          6           0       -1.824636    0.436876    0.105076
      5          6           0       -3.223975    0.417349   -0.053082
      6          6           0       -3.923192   -0.780439   -0.176677
      7          6           0       -2.535975   -4.030216   -0.142407
      8          6           0       -1.378305   -3.345803    0.013592
      9          1           0       -0.010904   -0.729925    0.265392
     10          1           0       -1.317061    1.388830    0.197863
     11          1           0       -3.773070    1.349268   -0.079879
     12          1           0       -4.998928   -0.801286   -0.298460
     13          1           0       -2.666146   -5.099297   -0.196970
     14          1           0       -0.385185   -3.753402    0.110102
     15          8           0       -3.636495   -3.246759   -0.236941
 ---------------------------------------------------------------------
                    Distance matrix (angstroms):
                    1          2          3          4          5
     1  C    0.000000
     2  C    1.387781   0.000000
     3  C    2.410421   1.396793   0.000000
     4  C    2.734838   2.386857   1.393483   0.000000
     5  C    2.356206   2.770839   2.441141   1.408384   0.000000
     6  C    1.384938   2.446061   2.855642   2.442371   1.392435
     7  C    2.185178   2.220090   3.603348   4.530140   4.501352
     8  C    2.277955   1.455083   2.621433   3.810018   4.191928
     9  H    3.397814   2.164239   1.081867   2.162580   3.426587
    10  H    3.817430   3.373971   2.146003   1.082801   2.154778
    11  H    3.342692   3.852741   3.413659   2.159413   1.081987
    12  H    2.165730   3.429257   3.938433   3.431037   2.166965
    13  H    3.201902   3.279841   4.645666   5.607904   5.546645
    14  H    3.327296   2.284881   3.090076   4.430629   5.047824
    15  O    1.397184   2.277843   3.593706   4.119342   3.691838
                    6          7          8          9         10
     6  C    0.000000
     7  C    3.533639   0.000000
     8  C    3.618528   1.353867   0.000000
     9  H    3.937509   4.175430   2.962433   0.000000
    10  H    3.411441   5.564854   4.738613   2.489926   0.000000
    11  H    2.137184   5.520250   5.271368   4.312326   2.471981
    12  H    1.082808   4.064047   4.436310   5.020300   4.312666
    13  H    4.498124   1.078358   2.185775   5.133762   6.638653
    14  H    4.630146   2.183183   1.077840   3.050510   5.226724
    15  O    2.483660   1.354210   2.274202   4.442039   5.201684
                   11         12         13         14         15
    11  H    0.000000
    12  H    2.485032   0.000000
    13  H    6.543927   4.891326   0.000000
    14  H    6.127895   5.492589   2.666179   0.000000
    15  O    4.600738   2.800062   2.091667   3.308798   0.000000
 Stoichiometry    C8H6O
 Framework group  C1[X(C8H6O)]
 Deg. of freedom    39
 Full point group                 C1      NOp   1
 Largest Abelian subgroup         C1      NOp   1
 Largest concise Abelian subgroup C1      NOp   1
                         Standard orientation:                         
 ---------------------------------------------------------------------
 Center     Atomic      Atomic             Coordinates (Angstroms)
 Number     Number       Type             X           Y           Z
 ---------------------------------------------------------------------
      1          6           0        0.239630   -0.655185   -0.000036
      2          6           0        0.251762    0.732544   -0.000015
      3          6           0       -0.952857    1.439596   -0.000034
      4          6           0       -2.134895    0.701639   -0.000011
      5          6           0       -2.116014   -0.706619    0.000036
      6          6           0       -0.917726   -1.415830    0.000023
      7          6           0        2.334952   -0.035000   -0.000004
      8          6           0        1.650606    1.133173    0.000064
      9          1           0       -0.966434    2.521378   -0.000066
     10          1           0       -3.087268    1.216851   -0.000025
     11          1           0       -3.048837   -1.254831    0.000099
     12          1           0       -0.897371   -2.498447    0.000078
     13          1           0        3.404705   -0.170955    0.000153
     14          1           0        2.058952    2.130667    0.000091
     15          8           0        1.550438   -1.138822   -0.000058
 ---------------------------------------------------------------------
 Rotational constants (GHZ):      3.9219658      1.6616371      1.1671467
 Standard basis: 6-311+G(d,p) (5D, 7F)
 There are   243 symmetry adapted cartesian basis functions of A   symmetry.
 There are   234 symmetry adapted basis functions of A   symmetry.
   234 basis functions,   372 primitive gaussians,   243 cartesian basis functions
    31 alpha electrons       31 beta electrons
       nuclear repulsion energy       401.6860305939 Hartrees.
 NAtoms=   15 NActive=   15 NUniq=   15 SFac= 1.00D+00 NAtFMM=   60 NAOKFM=F Big=F
 Integral buffers will be    131072 words long.
 Raffenetti 2 integral format.
 Two-electron integral symmetry is turned on.
 One-electron integrals computed using PRISM.
 PrsmSu:  requested number of processors reduced to:   9 ShMem   1 Linda.
 NBasis=   234 RedAO= T EigKep=  2.61D-06  NBF=   234
 NBsUse=   233 1.00D-06 EigRej=  8.39D-07 NBFU=   233
 Initial guess from the checkpoint file:  "Table5_6.chk"
 B after Tr=     0.000000    0.000000    0.000000
         Rot=    0.999969   -0.000001    0.000000    0.007907 Ang=  -0.91 deg.
 ExpMin= 4.38D-02 ExpMax= 8.59D+03 ExpMxC= 1.30D+03 IAcc=2 IRadAn=         4 AccDes= 0.00D+00
 Harris functional with IExCor=  402 and IRadAn=       4 diagonalized for initial guess.
 HarFok:  IExCor=  402 AccDes= 0.00D+00 IRadAn=         4 IDoV= 1 UseB2=F ITyADJ=14
 ICtDFT=  3500011 ScaDFX=  1.000000  1.000000  1.000000  1.000000
 FoFCou: FMM=F IPFlag=           0 FMFlag=      100000 FMFlg1=           0
         NFxFlg=           0 DoJE=T BraDBF=F KetDBF=T FulRan=T
         wScrn=  0.000000 ICntrl=     500 IOpCl=  0 I1Cent=   200000004 NGrid=           0
         NMat0=    1 NMatS0=      1 NMatT0=    0 NMatD0=    1 NMtDS0=    0 NMtDT0=    0
 Petite list used in FoFCou.
 Requested convergence on RMS density matrix=1.00D-08 within 128 cycles.
 Requested convergence on MAX density matrix=1.00D-06.
 Requested convergence on             energy=1.00D-06.
 No special actions if energy rises.
 SCF Done:  E(RB3LYP) =  -383.772047723     A.U. after   13 cycles
            NFock= 13  Conv=0.24D-08     -V/T= 2.0042
 PrsmSu:  requested number of processors reduced to:   9 ShMem   1 Linda.
 Calling FoFJK, ICntrl=      2127 FMM=F ISym2X=0 I1Cent= 0 IOpClX= 0 NMat=1 NMatS=1 NMatT=0.
 ***** Axes restored to original set *****
 -------------------------------------------------------------------
 Center     Atomic                   Forces (Hartrees/Bohr)
 Number     Number              X              Y              Z
 -------------------------------------------------------------------
      1        6          -0.014250852   -0.011731150   -0.002043235
      2        6           0.019336815   -0.008805371    0.001847699
      3        6          -0.005857301    0.007547727   -0.000375627
      4        6           0.000260530   -0.001865464   -0.000041416
      5        6           0.002169757   -0.000374400    0.000230863
      6        6          -0.000616060    0.000718273   -0.000043943
      7        6           0.016085630   -0.014766322    0.001269561
      8        6          -0.011695692    0.010805544   -0.000922175
      9        1           0.001039259    0.000219952    0.000126255
     10        1           0.000159645    0.000879505    0.000051335
     11        1           0.000034123    0.001405064    0.000055806
     12        1           0.000222694   -0.000945810   -0.000011791
     13        1          -0.006907057    0.000442166   -0.000767254
     14        1          -0.000427343   -0.000419463   -0.000062332
     15        8           0.000445851    0.016889749    0.000686254
 -------------------------------------------------------------------
 Cartesian Forces:  Max     0.019336815 RMS     0.006621459

 GradGradGradGradGradGradGradGradGradGradGradGradGradGradGradGradGradGrad
 Berny optimization.
 Using GEDIIS/GDIIS optimizer.
 FormGI is forming the generalized inverse of G from B-inverse, IUseBI=4.
 Internal  Forces:  Max     0.011874388 RMS     0.002880945
 Search for a local minimum.
 Step number   2 out of a maximum of   87
 All quantities printed in internal units (Hartrees-Bohrs-Radians)
 Mixed Optimization -- RFO/linear search
 Update second derivatives using D2CorX and points    1    2
 DE= -1.33D-02 DEPred=-1.18D-02 R= 1.12D+00
 TightC=F SS=  1.41D+00  RLast= 2.56D-01 DXNew= 5.0454D-01 7.6706D-01
 Trust test= 1.12D+00 RLast= 2.56D-01 DXMaxT set to 5.05D-01
 ITU=  1  0
 Use linear search instead of GDIIS.
     Eigenvalues ---    0.01338   0.01634   0.01854   0.01869   0.01902
     Eigenvalues ---    0.01915   0.02016   0.02062   0.02085   0.02103
     Eigenvalues ---    0.02158   0.02185   0.14197   0.16000   0.16000
     Eigenvalues ---    0.16000   0.16000   0.16040   0.21848   0.22148
     Eigenvalues ---    0.22605   0.24707   0.25469   0.32229   0.33645
     Eigenvalues ---    0.37206   0.37230   0.37230   0.37230   0.37230
     Eigenvalues ---    0.37475   0.39010   0.41155   0.43485   0.43590
     Eigenvalues ---    0.45757   0.47902   0.49492   0.53846
 RFO step:  Lambda=-2.17071716D-03 EMin= 1.33826146D-02
 Quartic linear search produced a step of  0.18742.
 Iteration  1 RMS(Cart)=  0.01846922 RMS(Int)=  0.00045548
 Iteration  2 RMS(Cart)=  0.00049110 RMS(Int)=  0.00004900
 Iteration  3 RMS(Cart)=  0.00000006 RMS(Int)=  0.00004900
 Variable       Old X    -DE/DX   Delta X   Delta X   Delta X     New X
                                 (Linear)    (Quad)   (Total)
    R1        2.62253   0.00915   0.01060   0.01498   0.02549   2.64802
    R2        2.61715   0.00056  -0.00315   0.00390   0.00072   2.61787
    R3        2.64029  -0.01187  -0.02134  -0.02433  -0.04571   2.59458
    R4        2.63956   0.00437   0.00262   0.00987   0.01255   2.65210
    R5        2.74971  -0.00410  -0.01430  -0.00600  -0.02032   2.72939
    R6        2.63330  -0.00192  -0.00532  -0.00262  -0.00791   2.62539
    R7        2.04443   0.00105   0.00420   0.00075   0.00495   2.04938
    R8        2.66146  -0.00155  -0.00405  -0.00308  -0.00715   2.65431
    R9        2.04620   0.00085   0.00453  -0.00008   0.00445   2.05065
   R10        2.63132   0.00127  -0.00722   0.00720  -0.00007   2.63125
   R11        2.04466   0.00119   0.00425   0.00117   0.00542   2.05007
   R12        2.04621  -0.00020   0.00454  -0.00342   0.00111   2.04732
   R13        2.55844   0.00009  -0.01737   0.01056  -0.00671   2.55173
   R14        2.03780   0.00043   0.00296  -0.00044   0.00252   2.04032
   R15        2.55909   0.00714   0.00332   0.01340   0.01680   2.57588
   R16        2.03682  -0.00024   0.00278  -0.00246   0.00031   2.03713
[...]
 ! A11   A(3,4,10)             119.5444         -DE/DX =    0.0                 !
 ! A12   A(5,4,10)             119.1307         -DE/DX =    0.0                 !
 ! A13   A(4,5,6)              121.2811         -DE/DX =    0.0                 !
 ! A14   A(4,5,11)             119.3894         -DE/DX =    0.0                 !
 ! A15   A(6,5,11)             119.3296         -DE/DX =    0.0                 !
 ! A16   A(1,6,5)              116.4617         -DE/DX =    0.0                 !
 ! A17   A(1,6,12)             121.4014         -DE/DX =    0.0                 !
 ! A18   A(5,6,12)             122.1368         -DE/DX =    0.0                 !
 ! A19   A(8,7,13)             132.6183         -DE/DX =    0.0                 !
 ! A20   A(8,7,15)             112.2119         -DE/DX =    0.0                 !
 ! A21   A(13,7,15)            115.1698         -DE/DX =    0.0                 !
 ! A22   A(2,8,7)              106.0909         -DE/DX =    0.0                 !
 ! A23   A(2,8,14)             127.823          -DE/DX =    0.0                 !
 ! A24   A(7,8,14)             126.0862         -DE/DX =    0.0                 !
 ! A25   A(1,15,7)             106.1429         -DE/DX =    0.0                 !
 ! D1    D(6,1,2,3)             -0.0013         -DE/DX =    0.0                 !
 ! D2    D(6,1,2,8)           -179.9912         -DE/DX =    0.0                 !
 ! D3    D(15,1,2,3)          -179.9942         -DE/DX =    0.0                 !
 ! D4    D(15,1,2,8)             0.0159         -DE/DX =    0.0                 !
 ! D5    D(2,1,6,5)              0.0021         -DE/DX =    0.0                 !
 ! D6    D(2,1,6,12)           180.0023         -DE/DX =    0.0                 !
 ! D7    D(15,1,6,5)           179.9938         -DE/DX =    0.0                 !
 ! D8    D(15,1,6,12)           -0.006          -DE/DX =    0.0                 !
 ! D9    D(2,1,15,7)             0.0278         -DE/DX =    0.0                 !
 ! D10   D(6,1,15,7)           180.0351         -DE/DX =    0.0                 !
 ! D11   D(1,2,3,4)             -0.0006         -DE/DX =    0.0                 !
 ! D12   D(1,2,3,9)            180.0057         -DE/DX =    0.0                 !
 ! D13   D(8,2,3,4)           -180.0145         -DE/DX =    0.0                 !
 ! D14   D(8,2,3,9)             -0.0082         -DE/DX =    0.0                 !
 ! D15   D(1,2,8,7)             -0.0538         -DE/DX =    0.0                 !
 ! D16   D(1,2,8,14)          -180.0203         -DE/DX =    0.0                 !
 ! D17   D(3,2,8,7)            179.9588         -DE/DX =    0.0                 !
 ! D18   D(3,2,8,14)            -0.0076         -DE/DX =    0.0                 !
 ! D19   D(2,3,4,5)              0.0015         -DE/DX =    0.0                 !
 ! D20   D(2,3,4,10)          -179.9957         -DE/DX =    0.0                 !
 ! D21   D(9,3,4,5)           -180.0048         -DE/DX =    0.0                 !
 ! D22   D(9,3,4,10)            -0.002          -DE/DX =    0.0                 !
 ! D23   D(3,4,5,6)             -0.0007         -DE/DX =    0.0                 !
 ! D24   D(3,4,5,11)          -179.9992         -DE/DX =    0.0                 !
 ! D25   D(10,4,5,6)           179.9965         -DE/DX =    0.0                 !
 ! D26   D(10,4,5,11)           -0.002          -DE/DX =    0.0                 !
 ! D27   D(4,5,6,1)             -0.0011         -DE/DX =    0.0                 !
 ! D28   D(4,5,6,12)          -180.0013         -DE/DX =    0.0                 !
 ! D29   D(11,5,6,1)           179.9974         -DE/DX =    0.0                 !
 ! D30   D(11,5,6,12)           -0.0028         -DE/DX =    0.0                 !
 ! D31   D(13,7,8,2)          -179.9867         -DE/DX =    0.0                 !
 ! D32   D(13,7,8,14)           -0.0195         -DE/DX =    0.0                 !
 ! D33   D(15,7,8,2)             0.075          -DE/DX =   -0.0001              !
 ! D34   D(15,7,8,14)          180.0422         -DE/DX =    0.0                 !
 ! D35   D(8,7,15,1)            -0.0655         -DE/DX =    0.0001              !
 ! D36   D(13,7,15,1)          179.9847         -DE/DX =    0.0                 !
 --------------------------------------------------------------------------------
 GradGradGradGradGradGradGradGradGradGradGradGradGradGradGradGradGradGrad

 1\1\GINC-COREV1-22-001\Freq\RB3LYP\6-311+G(d,p)\C8H6O1\ROOT\17-Nov-202
 1\0\\#N Geom=AllCheck Guess=TCheck SCRF=Check GenChk RB3LYP/6-311+G(d,
 p) Freq\\Table5_6\\0,1\C,-3.1522833058,-1.9459744179,-0.1338182997\C,-
 1.7558812113,-1.9533962856,0.0231812226\C,-1.0826373386,-0.7300996314,
 0.1449780816\C,-1.8283274883,0.4419151579,0.1050194117\C,-3.2252759039
 ,0.414547012,-0.0533292316\C,-3.9154326439,-0.7882956196,-0.1762437656
 \C,-2.5250342332,-4.046118117,-0.1412305871\C,-1.3771494423,-3.3464942
 241,0.0132423616\H,-0.0060679703,-0.6976410489,0.2673592686\H,-1.32639
 08298,1.3981823255,0.19741559\H,-3.7758506465,1.347641631,-0.080301112
 5\H,-4.9906367277,-0.8255263764,-0.2987079124\H,-2.7334412161,-5.10134
 88437,-0.2039031565\H,-0.3870072535,-3.7634237978,0.1087192645\O,-3.62
 31381388,-3.2275185541,-0.2348772351\\Version=ES64L-G09RevD.01\State=1
 -A\HF=-383.7737939\RMSD=6.567e-09\RMSF=4.197e-05\ZeroPoint=0.1168151\T
 hermal=0.1228011\Dipole=0.3057636,-0.0895442,0.0311908\DipoleDeriv=0.0
 771956,0.4295524,0.0167719,0.0792721,0.5390884,0.0265978,0.0036449,0.0
 658522,0.0741378,-0.1864029,-0.2188739,-0.0295771,0.0191332,0.2216325,
 0.0103609,-0.0207688,-0.0164876,0.0010144,0.1197395,0.0157563,0.029327
 4,0.0053847,0.0817528,0.0087506,0.0288921,0.0098688,-0.1319507,-0.0317
 398,0.1529519,0.0202913,0.06514,-0.0215299,0.0125906,0.0171217,0.02245
 31,-0.1585465,0.0583158,-0.085254,0.0221145,-0.0008558,-0.0860034,0.00
 29668,0.0252461,-0.0066424,-0.1636719,0.0548864,-0.0113997,0.0212667,-
 0.0629147,0.0446874,-0.0002579,0.0193477,0.0055872,-0.1353481,0.678071
 2,-0.0713196,0.0839559,-0.1343182,-0.0036284,-0.0119904,0.0818405,-0.0
 042157,-0.0826441,-0.0558769,-0.0549018,0.0134814,-0.196815,-0.0792141
 ,-0.0178148,0.0085002,-0.0018888,-0.1944238,-0.0885728,-0.0124446,-0.0
 262614,0.010505,0.0644214,-0.001679,-0.0253801,-0.0042429,0.1375089,0.
 0314714,-0.0716114,-0.0155013,-0.0721614,-0.075469,-0.0164105,-0.01552
 88,-0.0163261,0.1428604,0.0267006,0.0723133,-0.0105771,0.0776286,-0.05
 65345,0.001183,-0.0104033,0.0005853,0.1436246,-0.0500888,0.0019071,-0.
 0228257,-0.0141732,0.0745696,-0.0045536,-0.0234105,-0.0027111,0.150521
 2,0.0827587,-0.0126827,-0.0113476,0.0009551,0.0059184,-0.0063388,-0.01
 0881,-0.0082438,0.1778707,0.0020931,0.0640922,-0.0164604,0.0444078,0.0
 441728,0.0002925,-0.0172399,0.002481,0.1681416,-0.7185512,-0.1980855,-
 0.0746587,0.1788118,-0.7538642,-0.0036972,-0.0609807,-0.0460692,-0.129
 0944\Polar=96.0590507,-1.3853805,127.3595365,4.8281589,2.64026,53.3242
 868\PG=C01 [X(C8H6O1)]\NImag=0\\0.67104945,-0.11210279,0.71877197,0.05
 444576,0.00868128,0.15681226,-0.27550157,-0.02063289,-0.02306503,0.623
 34323,0.03450713,-0.11014687,0.00266368,0.07925117,0.73569610,-0.02100
 022,-0.00355075,-0.08010272,0.05703656,0.03119591,0.15055123,-0.017972
 66,-0.03018240,-0.00338674,-0.17751408,-0.10629737,-0.01748386,0.73135
 532,-0.06506326,0.03101359,-0.00623792,-0.07139956,-0.25670170,-0.0155
 3059,-0.00675260,0.64347388,-0.00470059,-0.00231660,0.00142884,-0.0161
 7453,-0.01946199,-0.06020198,0.06736791,0.01851709,0.13893179,-0.04594
 109,0.03303019,-0.00336818,0.05386893,0.02619622,0.00632624,-0.1880006
 8,0.06928207,-0.01179658,0.64298782,0.02278419,-0.01457844,0.00220296,
 -0.01323053,-0.06461419,-0.00415961,0.12733010,-0.27815667,0.00614466,
 0.02432344,0.72241246,-0.00375349,0.00335897,-0.00529277,0.00484720,0.
 00027941,0.00695347,-0.00962204,-0.00038490,-0.06115989,0.05854993,0.0
 2493497,0.13868069,0.05994646,-0.02414398,0.00535413,-0.04194906,-0.03
 321387,-0.00547165,-0.03169236,0.07198670,-0.00165409,-0.29846665,-0.0
 3478880,-0.02787452,0.64418347,0.02004261,-0.06765535,-0.00044888,-0.0
 2203115,-0.01438656,-0.00285455,0.02523561,0.02972819,0.00369186,0.027
 48506,-0.12526676,0.00074046,-0.03298045,0.71748539,0.00701628,-0.0054
 2236,0.00489286,-0.00504969,-0.00411333,-0.00517081,-0.00340998,0.0089
 6015,0.00694743,-0.02553460,-0.00627172,-0.06568100,0.05650624,0.01829
 773,0.13851305,-0.21157655,0.13702326,-0.01239130,-0.02047908,0.023403
 63,-0.00214066,-0.00008970,0.00044401,0.00019844,-0.02323701,-0.029073
 40,-0.00449807,-0.17927257,-0.12183423,-0.01816860,0.74969026,0.083982
 23,-0.24618598,0.00230857,0.05830382,0.03220469,0.00754015,0.00624128,
 -0.05799729,-0.00140840,-0.07301556,0.02540696,-0.00752917,-0.06202989
 ,-0.28282238,-0.01541417,-0.00056610,0.65278558,-0.01438006,0.00827737
 ,-0.05718989,-0.00082803,0.00360326,0.00640383,0.00041730,-0.00206299,
 -0.00175060,-0.00614671,-0.00258279,0.00621301,-0.01592095,-0.02214805
 ,-0.06121286,0.07033588,0.01977132,0.13352666,0.00633101,0.03814850,0.
 00088289,0.00979845,-0.06227684,-0.00228444,-0.00158214,0.01879765,0.0
 0011128,0.00743573,-0.00865937,0.00046729,-0.00766514,0.00010718,-0.00
 094675,-0.00305909,-0.00397111,-0.00064471,0.61311992,0.02384202,-0.10
 202519,-0.00151000,-0.01782950,-0.05618060,-0.00443280,0.00659271,0.00
 262874,0.00069949,0.00629291,-0.00269049,0.00059272,-0.00349137,-0.006
 34795,-0.00066272,-0.00610713,0.00602524,-0.00050948,0.15938336,0.8187
 4350,0.00037393,0.00008723,0.01113496,-0.00064330,-0.00947126,0.009058
 99,-0.00035120,0.00207528,0.00375313,0.00102994,-0.00109144,0.00044417
 ,-0.00108320,-0.00025581,0.00065541,-0.00072192,-0.00026937,0.00121912
 ,0.06116733,0.04378971,0.12955850,-0.02715894,0.01847418,-0.00323826,-
 0.12025884,0.05098452,-0.00537705,0.01482339,-0.01818888,0.00103226,-0
 .00276106,-0.00188664,-0.00105550,0.00050676,-0.00200230,0.00010481,-0
 .00577917,0.00012810,-0.00094818,-0.34286459,-0.15402761,-0.03744577,0
 .86386006,0.04789201,-0.00420146,0.00493358,0.04550735,-0.22570055,-0.
 00131303,0.00533658,-0.03938327,-0.00085883,-0.01488908,0.00956625,-0.
 00153967,0.01031750,0.00158977,0.00126245,-0.00031476,-0.00337886,-0.0
 0025930,-0.14595485,-0.19557452,-0.02138609,-0.03194955,0.56300316,-0.
 00215455,0.00164159,0.00769435,-0.00556086,-0.00067669,-0.05607575,0.0
 0191892,-0.00350626,-0.00037302,-0.00154770,-0.00007768,0.00582348,0.0
 0056923,-0.00011941,-0.00103742,-0.00096230,-0.00022136,0.00256356,-0.
 03711942,-0.02229689,-0.06471790,0.08303926,0.01321635,0.12236386,0.00
 160705,-0.00176372,-0.00065575,-0.01079860,0.00162635,-0.00148191,-0.3
 3142791,-0.00850575,-0.03365778,-0.01208597,-0.00329719,-0.00184292,0.
 00084651,0.00336911,-0.00062279,0.00044276,-0.00027652,0.00016164,-0.0
 0063055,-0.00000771,-0.00003423,0.00100612,0.00058954,0.00049204,0.351
 68766,-0.00081409,-0.00369662,-0.00048766,-0.02821745,0.00439060,-0.00
 312028,-0.00944099,-0.05916033,-0.00196216,0.02708405,0.00573979,0.003
 14429,0.00238024,-0.00413148,-0.00016918,-0.00011734,-0.00120937,-0.00
 001792,-0.00063970,0.00069414,-0.00003381,0.00083530,0.00164615,0.0002
 7484,0.00961404,0.05669119,-0.00062016,-0.00059400,0.00675568,-0.00260
 370,0.00024134,0.00262351,-0.03369088,-0.00185998,-0.03907982,-0.00070
 384,-0.00027376,0.00309821,-0.00065936,-0.00005680,0.00742821,0.000168
 02,-0.00003671,-0.00106829,-0.00005753,0.00003796,-0.00033424,0.000500
 97,0.00024659,-0.00310711,0.03721895,0.00230255,0.02848424,-0.00091237
 ,0.00123152,-0.00000244,-0.00114399,0.00363118,-0.00081602,0.01107413,
 0.01631642,0.00156435,-0.11744258,-0.11345591,-0.01358907,-0.01012336,
 -0.02884326,-0.00246039,-0.00529966,0.00097826,-0.00121988,-0.00009787
 ,0.00028570,0.00006228,0.00065685,0.00027137,-0.00000528,0.00077209,-0
 .00053798,0.00056599,0.12190386,0.00078624,0.00013315,0.00011158,0.003
 95308,-0.00288856,0.00006080,-0.01437858,-0.01900461,-0.00243113,-0.11
 326970,-0.27407049,-0.02174019,0.00215705,0.00282351,0.00026984,0.0004
 1212,0.00162715,-0.00011230,0.00040483,-0.00056275,0.00004541,-0.00103
 434,-0.00027139,-0.00015590,0.00021729,0.00092286,0.00022556,0.1213340
 6,0.29032728,-0.00001828,0.00016278,-0.00047636,-0.00080510,0.00002515
 ,0.00723172,0.00041131,0.00102503,0.00270665,-0.01358077,-0.02176060,-
 0.03692028,-0.00129701,-0.00322141,0.00184031,-0.00124127,-0.00004854,
 0.00571911,0.00006639,0.00003192,-0.00054670,-0.00005369,-0.00000941,0
 .00078699,0.00059432,0.00014074,-0.00436321,0.01546208,0.02361756,0.02
 765399,-0.00098562,-0.00297747,-0.00097615,-0.00055242,-0.00112519,0.0
 0001036,-0.00538069,-0.00127222,-0.00131325,-0.01085793,0.02814989,-0.
 00045614,-0.12984649,0.12209797,-0.00615190,0.01100517,-0.01503994,0.0
 0033636,-0.00037759,-0.00018650,-0.00002672,0.00016826,0.00018218,0.00
 005299,-0.00069985,0.00131995,-0.00005514,0.00090426,-0.00040617,0.000
 49210,0.13482479,-0.00387976,-0.00199623,-0.00076297,-0.00058423,-0.00
 012379,-0.00003224,-0.00058308,0.00163480,-0.00022431,-0.00264135,0.00
 395100,-0.00024622,0.12172184,-0.26443051,0.00507562,0.01538011,-0.019
 23966,0.00089621,-0.00080496,-0.00012645,-0.00008807,0.00024932,0.0002
 4017,0.00004604,-0.00018016,0.00005868,-0.00002659,0.00037422,0.000736
 72,0.00020503,-0.13039646,0.27987008,-0.00101020,-0.00066272,0.0065490
 2,0.00003078,-0.00009170,-0.00101958,-0.00128692,-0.00030389,0.0057000
 8,-0.00161500,0.00322255,0.00251771,-0.00616555,0.00511937,-0.03501277
 ,0.00148031,-0.00252939,0.00306850,-0.00004841,-0.00001847,-0.00021129
 ,0.00005524,0.00003740,-0.00023209,-0.00011152,0.00014239,0.00022247,0
 .00052132,0.00011684,-0.00353730,0.00751339,-0.00510108,0.02529171,-0.
 01325286,-0.00402698,-0.00210069,0.00101282,0.00236732,-0.00047978,0.0
 0049039,0.00036373,0.00017477,0.00140581,-0.00264151,-0.00078759,-0.00
 943957,0.00197568,-0.00128221,-0.33613742,-0.00613903,-0.03423546,-0.0
 0057633,0.00058163,0.00000033,-0.00053985,-0.00017841,-0.00005123,-0.0
 0010631,-0.00002825,0.00011425,-0.00053433,0.00016397,-0.00009071,0.00
 073181,-0.00019244,0.00057428,0.35561608,0.02736079,0.00647387,0.00317
 267,0.00160105,-0.00397420,-0.00019737,-0.00006603,-0.00128795,-0.0000
 2040,-0.00190576,-0.00437374,-0.00066142,-0.02738493,0.00509453,-0.002
 98983,-0.00665655,-0.05876217,-0.00167544,0.00081530,-0.00029174,0.000
 09633,0.00129158,-0.00002506,0.00014950,0.00000894,0.00013163,0.000048
 39,-0.00133229,0.00003180,-0.00016121,0.00056144,0.00100769,0.00026761
 ,0.00792340,0.05385373,-0.00091893,-0.00036406,0.00393850,-0.00051079,
 -0.00010993,0.00600638,0.00015914,0.00002884,-0.00092065,-0.00075909,-
 0.00074479,0.00740570,-0.00238620,0.00031525,0.00234849,-0.03425538,-0
 .00161440,-0.03804840,0.00000979,0.00006963,-0.00038569,0.00000352,-0.
 00001627,-0.00014591,0.00011554,0.00004424,-0.00111534,-0.00014695,0.0
 0000749,0.00030960,0.00060275,0.00018245,-0.00435792,0.03766085,0.0020
 2217,0.02810231,-0.00571205,0.00093905,-0.00084643,-0.00471000,-0.0025
 0289,-0.00135498,0.00137002,-0.00055818,0.00003930,-0.00018208,-0.0004
 4473,0.00002616,-0.00063079,0.00015700,-0.00006210,0.00131461,0.001403
 99,-0.00000996,-0.06977979,-0.07287712,-0.00733091,0.00727757,-0.02065
 263,-0.00040100,-0.00000499,0.00005919,-0.00003195,0.00009652,-0.00012
 808,0.00002645,0.00008435,0.00011875,0.00005915,0.00001211,-0.00006080
 ,-0.00001268,0.06675155,0.00311476,0.00193141,0.00034732,-0.00095814,0
 .00019234,-0.00034289,0.00010784,-0.00033095,-0.00003048,-0.00042061,0
 .00003547,-0.00002486,0.00045955,0.00015094,0.00005816,-0.00048567,-0.
 00087625,-0.00015532,-0.06279719,-0.34263722,-0.01872277,0.00302607,-0
 .00218892,0.00010509,-0.00003008,-0.00003257,-0.00001578,0.00000385,-0
 .00001238,0.00000657,-0.00003983,-0.00006897,0.00000756,0.00001618,0.0
 0000326,-0.00000190,0.05971018,0.36224537,-0.00076454,0.00008772,0.001
 99913,-0.00129538,-0.00052518,0.00638536,0.00006265,-0.00010189,0.0008
 4334,0.00003271,-0.00002873,-0.00056801,-0.00005483,0.00002060,-0.0000
 2830,-0.00008115,0.00006120,0.00185819,-0.00696704,-0.01989345,-0.0301
 7011,0.00049308,-0.00252951,0.00389229,-0.00003552,-0.00000574,0.00029
 608,0.00003138,-0.00000802,-0.00017855,0.00005307,0.00002586,-0.000392
 96,-0.00000958,-0.00001061,0.00010190,0.00741857,0.01941348,0.02210984
 ,-0.00045806,-0.00142390,-0.00049481,0.00186621,-0.00195730,0.00023888
 ,0.00027207,0.00009686,0.00015954,-0.00015505,0.00026355,0.00000793,0.
 00018501,0.00000620,0.00004118,-0.00009754,0.00002374,-0.00005313,-0.0
 1162359,0.01412879,-0.00063846,-0.30767666,0.10373188,-0.02750533,-0.0
 0011407,0.00031045,-0.00001179,-0.00000462,0.00002640,-0.00000747,0.00
 000302,0.00001944,-0.00000484,0.00007163,0.00000164,-0.00000326,0.0001
 0915,-0.00049470,0.00033990,0.31997986,0.00046887,-0.00718845,-0.00034
 896,0.02470943,-0.00030574,0.00280408,-0.00032683,0.00168587,0.0000683
 9,0.00004655,-0.00017700,0.00000381,-0.00021176,0.00002231,-0.00001641
 ,0.00151848,0.00099521,0.00019409,-0.01383111,0.01151012,-0.00107932,0
 .10714762,-0.10012802,0.00932141,-0.00062499,-0.00046746,-0.00009153,-
 0.00000320,-0.00004252,-0.00000460,-0.00002875,-0.00001673,-0.00000585
 ,0.00021762,-0.00043251,0.00000458,0.00075068,-0.00018318,0.00019253,-
 0.11402284,0.09440124,-0.00042643,-0.00056070,0.00340932,0.00124105,-0
 .00019830,-0.00079549,0.00014427,0.00011607,-0.00109752,-0.00000034,0.
 00002826,-0.00013599,0.00003311,0.00000842,-0.00017630,0.00000295,0.00
 002524,0.00038747,-0.00165820,0.00205633,-0.00144328,-0.02739119,0.008
 94078,-0.03059545,-0.00004678,0.00001366,0.00008890,-0.00000864,-0.000
 00128,0.00007005,-0.00000668,-0.00000038,0.00005175,0.00000457,-0.0000
 1988,0.00010245,0.00038692,0.00005263,-0.00304278,0.02921389,-0.010070
 75,0.02447771,-0.13946221,-0.03159256,-0.01015700,-0.03698199,-0.01459
 405,-0.00572147,-0.00572509,-0.00554699,-0.00135103,-0.00656820,0.0046
 2692,-0.00041917,0.00341778,0.00721497,0.00002049,0.02257502,0.0099767
 4,0.00313590,-0.19842842,0.04341983,-0.01435810,-0.08125990,0.00011086
 ,-0.01076475,-0.00049392,-0.00180741,-0.00013382,0.00015106,-0.0002381
 8,0.00004163,0.00097894,0.00139875,0.00000799,0.00124602,-0.00215779,0
 .00044169,0.00400382,-0.00121222,0.00077668,-0.00235736,-0.00580977,-0
 .00148851,0.43890445,-0.08292094,-0.20064942,-0.01462525,-0.03844245,-
 0.03746096,-0.00606682,-0.00281625,0.00185770,-0.00040718,-0.00759844,
 -0.00318415,-0.00092821,0.00922217,0.00814634,0.00113577,-0.01302642,-
 0.04857286,-0.00321867,0.08127833,-0.13316485,0.00630397,0.02695266,-0
 .00519346,0.00229936,-0.00073917,-0.00157720,-0.00014724,-0.00025396,0
 .00025020,-0.00000903,-0.00083891,-0.00149682,-0.00020063,-0.00040290,
 0.00255085,0.00017670,0.03408558,-0.01822834,0.00330174,-0.00071021,0.
 00032685,-0.00039011,-0.00378909,0.43639613,-0.01208853,-0.00882574,-0
 .06155318,-0.00661917,-0.00336037,0.00815183,-0.00124988,-0.00073403,0
 .00427223,-0.00088601,0.00045771,-0.00137852,0.00010466,0.00091120,0.0
 0569370,0.00227504,-0.00063499,-0.00168941,-0.01297845,0.00204607,-0.0
 5801507,-0.00971949,-0.00072504,0.01316010,-0.00009329,-0.00026597,0.0
 0007071,0.00004127,-0.00000626,-0.00029600,-0.00007505,0.00005065,0.00
 136265,0.00050821,-0.00002051,-0.00334143,0.00209346,-0.00069682,-0.00
 310540,-0.00128222,-0.00097148,0.00869916,0.03996946,0.01277558,0.0879
 6861\\-0.00001545,-0.00004946,-0.00000654,0.00000628,0.00005397,0.0000
 6259,0.00000500,-0.00006902,0.00001564,0.00000436,0.00003721,0.0000003
 0,-0.00003371,0.00002239,0.00000057,0.00004424,0.00001207,0.00001033,0
 .00004478,-0.00003598,0.00014457,0.00002237,0.00003505,-0.00009899,-0.
 00001023,0.00001162,-0.00000284,0.00000139,-0.00001476,-0.00000422,0.0
 0001724,-0.00001741,-0.00000079,0.00000259,-0.00002152,-0.00000054,0.0
 0000861,0.00000990,0.00000691,-0.00000372,-0.00000961,-0.00002083,-0.0
 0009376,0.00003555,-0.00010617\\\@


 EDUCATION WITHOUT COMMON SENSE IS A LOAD OF BOOKS ON THE BACK OF AN ASS.
 Job cpu time:       0 days  0 hours 30 minutes 43.9 seconds.
 File lengths (MBytes):  RWF=    114 Int=      0 D2E=      0 Chk=      5 Scr=      1
 Normal termination of Gaussian 09 at Wed Nov 17 16:14:47 2021.
