 Entering Gaussian System, Link 0=g09
 Initial command:
 /cm/shared/apps/gaussian/g09revD.01/g09/l1.exe "//home/sweav003/CHB/validation/G09-aryltrifluorborates1_Carreira.com.o9822863.tmp/Gau-212152.inp" -scrdir="//home/sweav003/CHB/validation/G09-aryltrifluorborates1_Carreira.com.o9822863.tmp/"
 Entering Link 1 = /cm/shared/apps/gaussian/g09revD.01/g09/l1.exe PID=    212153.
  
 Copyright (c) 1988,1990,1992,1993,1995,1998,2003,2009,2013,
            Gaussian, Inc.  All Rights Reserved.
  
 This is part of the Gaussian(R) 09 program.  It is based on
 the Gaussian(R) 03 system (copyright 2003, Gaussian, Inc.),
 the Gaussian(R) 98 system (copyright 1998, Gaussian, Inc.),
 the Gaussian(R) 94 system (copyright 1995, Gaussian, Inc.),
 the Gaussian 92(TM) system (copyright 1992, Gaussian, Inc.),
 the Gaussian 90(TM) system (copyright 1990, Gaussian, Inc.),
 the Gaussian 88(TM) system (copyright 1988, Gaussian, Inc.),
 the Gaussian 86(TM) system (copyright 1986, Carnegie Mellon
 University), and the Gaussian 82(TM) system (copyright 1983,
 Carnegie Mellon University). Gaussian is a federally registered
 trademark of Gaussian, Inc.
  
 This software contains proprietary and confidential information,
 including trade secrets, belonging to Gaussian, Inc.
  
 This software is provided under written license and may be
 used, copied, transmitted, or stored only in accord with that
 written license.
  
 The following legend is applicable only to US Government
 contracts under FAR:
  
                    RESTRICTED RIGHTS LEGEND
  
 Use, reproduction and disclosure by the US Government is
 subject to restrictions as set forth in subparagraphs (a)
 and (c) of the Commercial Computer Software - Restricted
 Rights clause in FAR 52.227-19.
  
 Gaussian, Inc.
 340 Quinnipiac St., Bldg. 40, Wallingford CT 06492
  
  
 ---------------------------------------------------------------
 Warning -- This program may not be used in any manner that
 competes with the business of Gaussian, Inc. or will provide
 assistance to any competitor of Gaussian, Inc.  The licensee
 of this program is prohibited from giving any competitor of
 Gaussian, Inc. access to this program.  By using this program,
 the user acknowledges that Gaussian, Inc. is engaged in the
 business of creating and licensing software in the field of
 computational chemistry and represents and warrants to the
 licensee that it is not a competitor of Gaussian, Inc. and that
 it will not use this program in any manner prohibited above.
 ---------------------------------------------------------------
  

 Cite this work as:
 Gaussian 09, Revision D.01,
 M. J. Frisch, G. W. Trucks, H. B. Schlegel, G. E. Scuseria, 
 M. A. Robb, J. R. Cheeseman, G. Scalmani, V. Barone, B. Mennucci, 
 G. A. Petersson, H. Nakatsuji, M. Caricato, X. Li, H. P. Hratchian, 
 A. F. Izmaylov, J. Bloino, G. Zheng, J. L. Sonnenberg, M. Hada, 
 M. Ehara, K. Toyota, R. Fukuda, J. Hasegawa, M. Ishida, T. Nakajima, 
 Y. Honda, O. Kitao, H. Nakai, T. Vreven, J. A. Montgomery, Jr., 
 J. E. Peralta, F. Ogliaro, M. Bearpark, J. J. Heyd, E. Brothers, 
 K. N. Kudin, V. N. Staroverov, T. Keith, R. Kobayashi, J. Normand, 
 K. Raghavachari, A. Rendell, J. C. Burant, S. S. Iyengar, J. Tomasi, 
 M. Cossi, N. Rega, J. M. Millam, M. Klene, J. E. Knox, J. B. Cross, 
 V. Bakken, C. Adamo, J. Jaramillo, R. Gomperts, R. E. Stratmann, 
 O. Yazyev, A. J. Austin, R. Cammi, C. Pomelli, J. W. Ochterski, 
 R. L. Martin, K. Morokuma, V. G. Zakrzewski, G. A. Voth, 
 P. Salvador, J. J. Dannenberg, S. Dapprich, A. D. Daniels, 
 O. Farkas, J. B. Foresman, J. V. Ortiz, J. Cioslowski, 
 and D. J. Fox, Gaussian, Inc., Wallingford CT, 2013.
 
 ******************************************
 Gaussian 09:  ES64L-G09RevD.01 24-Apr-2013
                 9-Jan-2023 
 ******************************************
 %nprocshared=20
 Will use up to   20 processors via shared memory.
 %mem=4GB
 %chk=aryltrifluorborates1_Carreira.chk
 ----------------------------------------------------------------------
 # opt freq b3lyp/6-311+g(d,p) geom=connectivity pop=(hirshfeld,chelpg,
 mbs,npa)
 ----------------------------------------------------------------------
 1/14=-1,18=20,19=15,26=3,38=1,57=2/1,3;
 2/9=110,12=2,17=6,18=5,40=1/2;
 3/5=4,6=6,7=111,11=2,16=1,25=1,30=1,71=1,74=-5/1,2,3;
 4//1;
 5/5=2,38=5/2;
 6/7=2,8=2,9=2,10=2,15=8,20=3,27=100,28=1,40=-1,79=1/1,2,7;
 7//1,2,3,16;
 1/14=-1,18=20,19=15,26=3/3(2);
 2/9=110/2;
 99//99;
 2/9=110/2;
 3/5=4,6=6,7=111,11=2,16=1,25=1,30=1,71=1,74=-5/1,2,3;
 4/5=5,16=3,69=1/1;
 5/5=2,38=5/2;
 7//1,2,3,16;
 1/14=-1,18=20,19=15,26=3/3(-5);
 2/9=110/2;
 6/7=2,8=2,9=2,10=2,15=8,19=2,20=3,27=100,28=1,40=-1,79=1/1,2,7;
 99/9=1/99;
 -------------------
 Title Card Required
 -------------------
 Symbolic Z-matrix:
 Charge =  0 Multiplicity = 1
 C                    -1.12912  -0.12831  -0.00697 
 C                     0.08828  -0.80979  -0.00231 
 C                     1.28687  -0.09674  -0.01543 
 C                     1.2684    1.29843  -0.03442 
 C                     0.05126   1.97967  -0.03955 
 C                    -1.1476    1.26627  -0.02543 
 H                    -2.07399  -0.69067   0.00383 
 H                     2.24647  -0.63381  -0.01113 
 H                     2.21358   1.86043  -0.04482 
 H                     0.03638   3.07922  -0.05452 
 S                     0.11132  -2.58946   0.02251 
 F                    -1.01659  -2.61969  -1.09776 
 F                    -1.00917  -2.58824   1.1506 
 F                     0.13191  -4.17918   0.04467 
 F                     1.23923  -2.55924   1.14278 
 F                     1.23181  -2.59068  -1.10559 
 O                    -2.39528   1.96496  -0.03043 
 C                    -2.15315   3.37418  -0.05001 
 H                    -3.08699   3.89651  -0.05355 
 H                    -1.59246   3.65183   0.818 
 H                    -1.59881   3.62865  -0.92914 
 

 GradGradGradGradGradGradGradGradGradGradGradGradGradGradGradGradGradGrad
 Berny optimization.
 Initialization pass.
                           ----------------------------
                           !    Initial Parameters    !
                           ! (Angstroms and Degrees)  !
 --------------------------                            --------------------------
 ! Name  Definition              Value          Derivative Info.                !
 --------------------------------------------------------------------------------
 ! R1    R(1,2)                  1.3952         estimate D2E/DX2                !
 ! R2    R(1,6)                  1.3948         estimate D2E/DX2                !
 ! R3    R(1,7)                  1.0996         estimate D2E/DX2                !
 ! R4    R(2,3)                  1.3947         estimate D2E/DX2                !
 ! R5    R(2,11)                 1.78           estimate D2E/DX2                !
 ! R6    R(3,4)                  1.3954         estimate D2E/DX2                !
 ! R7    R(3,8)                  1.0997         estimate D2E/DX2                !
 ! R8    R(4,5)                  1.3948         estimate D2E/DX2                !
 ! R9    R(4,9)                  1.0997         estimate D2E/DX2                !
 ! R10   R(5,6)                  1.3951         estimate D2E/DX2                !
 ! R11   R(5,10)                 1.0998         estimate D2E/DX2                !
 ! R12   R(6,17)                 1.43           estimate D2E/DX2                !
 ! R13   R(11,12)                1.59           estimate D2E/DX2                !
 ! R14   R(11,13)                1.59           estimate D2E/DX2                !
 ! R15   R(11,14)                1.59           estimate D2E/DX2                !
 ! R16   R(11,15)                1.59           estimate D2E/DX2                !
 ! R17   R(11,16)                1.59           estimate D2E/DX2                !
 ! R18   R(17,18)                1.43           estimate D2E/DX2                !
 ! R19   R(18,19)                1.07           estimate D2E/DX2                !
 ! R20   R(18,20)                1.07           estimate D2E/DX2                !
 ! R21   R(18,21)                1.07           estimate D2E/DX2                !
 ! A1    A(2,1,6)              119.9985         estimate D2E/DX2                !
 ! A2    A(2,1,7)              119.9972         estimate D2E/DX2                !
 ! A3    A(6,1,7)              120.0043         estimate D2E/DX2                !
 ! A4    A(1,2,3)              120.0086         estimate D2E/DX2                !
 ! A5    A(1,2,11)             119.9808         estimate D2E/DX2                !
 ! A6    A(3,2,11)             120.0106         estimate D2E/DX2                !
 ! A7    A(2,3,4)              119.9942         estimate D2E/DX2                !
 ! A8    A(2,3,8)              120.0128         estimate D2E/DX2                !
 ! A9    A(4,3,8)              119.993          estimate D2E/DX2                !
 ! A10   A(3,4,5)              119.994          estimate D2E/DX2                !
 ! A11   A(3,4,9)              119.9811         estimate D2E/DX2                !
 ! A12   A(5,4,9)              120.0249         estimate D2E/DX2                !
 ! A13   A(4,5,6)              120.0047         estimate D2E/DX2                !
 ! A14   A(4,5,10)             120.0113         estimate D2E/DX2                !
 ! A15   A(6,5,10)             119.984          estimate D2E/DX2                !
 ! A16   A(1,6,5)              120.0            estimate D2E/DX2                !
 ! A17   A(1,6,17)             120.008          estimate D2E/DX2                !
 ! A18   A(5,6,17)             119.992          estimate D2E/DX2                !
 ! A19   A(2,11,12)             90.0            estimate D2E/DX2                !
 ! A20   A(2,11,13)             90.0            estimate D2E/DX2                !
 ! A21   A(2,11,15)             90.0            estimate D2E/DX2                !
 ! A22   A(2,11,16)             90.0            estimate D2E/DX2                !
 ! A23   A(12,11,13)            90.0            estimate D2E/DX2                !
 ! A24   A(12,11,14)            90.0            estimate D2E/DX2                !
 ! A25   A(12,11,16)            90.0            estimate D2E/DX2                !
 ! A26   A(13,11,14)            90.0            estimate D2E/DX2                !
 ! A27   A(13,11,15)            90.0            estimate D2E/DX2                !
 ! A28   A(14,11,15)            90.0            estimate D2E/DX2                !
 ! A29   A(14,11,16)            90.0            estimate D2E/DX2                !
 ! A30   A(15,11,16)            90.0            estimate D2E/DX2                !
 ! A31   A(6,17,18)            109.5            estimate D2E/DX2                !
 ! A32   A(17,18,19)           109.4712         estimate D2E/DX2                !
 ! A33   A(17,18,20)           109.4712         estimate D2E/DX2                !
 ! A34   A(17,18,21)           109.4712         estimate D2E/DX2                !
 ! A35   A(19,18,20)           109.4713         estimate D2E/DX2                !
 ! A36   A(19,18,21)           109.4712         estimate D2E/DX2                !
 ! A37   A(20,18,21)           109.4712         estimate D2E/DX2                !
 ! A38   L(2,11,14,12,-1)      180.0            estimate D2E/DX2                !
 ! A39   L(12,11,15,2,-1)      180.0            estimate D2E/DX2                !
 ! A40   L(13,11,16,2,-1)      180.0            estimate D2E/DX2                !
 ! A41   L(2,11,14,12,-2)      180.0            estimate D2E/DX2                !
 ! A42   L(12,11,15,2,-2)      180.0            estimate D2E/DX2                !
 ! A43   L(13,11,16,2,-2)      180.0            estimate D2E/DX2                !
 ! D1    D(6,1,2,3)              0.0323         estimate D2E/DX2                !
 ! D2    D(6,1,2,11)           179.9532         estimate D2E/DX2                !
 ! D3    D(7,1,2,3)           -179.9729         estimate D2E/DX2                !
 ! D4    D(7,1,2,11)            -0.052          estimate D2E/DX2                !
 ! D5    D(2,1,6,5)              0.0149         estimate D2E/DX2                !
 ! D6    D(2,1,6,17)           179.9892         estimate D2E/DX2                !
 ! D7    D(7,1,6,5)           -179.9798         estimate D2E/DX2                !
 ! D8    D(7,1,6,17)            -0.0056         estimate D2E/DX2                !
 ! D9    D(1,2,3,4)             -0.0568         estimate D2E/DX2                !
 ! D10   D(1,2,3,8)            179.9619         estimate D2E/DX2                !
 ! D11   D(11,2,3,4)          -179.9777         estimate D2E/DX2                !
 ! D12   D(11,2,3,8)             0.041          estimate D2E/DX2                !
 ! D13   D(1,2,11,12)           45.0407         estimate D2E/DX2                !
 ! D14   D(1,2,11,13)          -44.9593         estimate D2E/DX2                !
 ! D15   D(1,2,11,15)         -134.9593         estimate D2E/DX2                !
 ! D16   D(1,2,11,16)          135.0407         estimate D2E/DX2                !
 ! D17   D(3,2,11,12)         -135.0384         estimate D2E/DX2                !
 ! D18   D(3,2,11,13)          134.9616         estimate D2E/DX2                !
 ! D19   D(3,2,11,15)           44.9616         estimate D2E/DX2                !
 ! D20   D(3,2,11,16)          -45.0384         estimate D2E/DX2                !
 ! D21   D(2,3,4,5)              0.0341         estimate D2E/DX2                !
 ! D22   D(2,3,4,9)           -179.9964         estimate D2E/DX2                !
 ! D23   D(8,3,4,5)           -179.9846         estimate D2E/DX2                !
 ! D24   D(8,3,4,9)             -0.0151         estimate D2E/DX2                !
 ! D25   D(3,4,5,6)              0.0131         estimate D2E/DX2                !
 ! D26   D(3,4,5,10)          -179.9995         estimate D2E/DX2                !
 ! D27   D(9,4,5,6)           -179.9563         estimate D2E/DX2                !
 ! D28   D(9,4,5,10)             0.0311         estimate D2E/DX2                !
 ! D29   D(4,5,6,1)             -0.0376         estimate D2E/DX2                !
 ! D30   D(4,5,6,17)           179.9881         estimate D2E/DX2                !
 ! D31   D(10,5,6,1)           179.975          estimate D2E/DX2                !
 ! D32   D(10,5,6,17)            0.0007         estimate D2E/DX2                !
 ! D33   D(1,6,17,18)         -179.9986         estimate D2E/DX2                !
 ! D34   D(5,6,17,18)           -0.0243         estimate D2E/DX2                !
 ! D35   D(6,17,18,19)        -179.9884         estimate D2E/DX2                !
 ! D36   D(6,17,18,20)         -59.9884         estimate D2E/DX2                !
 ! D37   D(6,17,18,21)          60.0116         estimate D2E/DX2                !
 --------------------------------------------------------------------------------
 Trust Radius=3.00D-01 FncErr=1.00D-07 GrdErr=1.00D-06
 Number of steps in this run=    111 maximum allowed number of steps=    126.
 GradGradGradGradGradGradGradGradGradGradGradGradGradGradGradGradGradGrad

                          Input orientation:                          
 ---------------------------------------------------------------------
 Center     Atomic      Atomic             Coordinates (Angstroms)
 Number     Number       Type             X           Y           Z
 ---------------------------------------------------------------------
      1          6           0       -1.129117   -0.128314   -0.006967
      2          6           0        0.088277   -0.809786   -0.002312
      3          6           0        1.286868   -0.096743   -0.015432
      4          6           0        1.268403    1.298433   -0.034416
      5          6           0        0.051262    1.979666   -0.039548
      6          6           0       -1.147602    1.266270   -0.025426
      7          1           0       -2.073988   -0.690670    0.003830
      8          1           0        2.246471   -0.633808   -0.011130
      9          1           0        2.213576    1.860426   -0.044818
     10          1           0        0.036377    3.079225   -0.054517
     11         16           0        0.111323   -2.589463    0.022505
     12          9           0       -1.016587   -2.619691   -1.097765
     13          9           0       -1.009166   -2.588242    1.150603
     14          9           0        0.131909   -4.179176    0.044673
     15          9           0        1.239233   -2.559236    1.142775
     16          9           0        1.231811   -2.590685   -1.105592
     17          8           0       -2.395281    1.964964   -0.030434
     18          6           0       -2.153147    3.374179   -0.050013
     19          1           0       -3.086986    3.896511   -0.053549
     20          1           0       -1.592463    3.651827    0.817999
     21          1           0       -1.598813    3.628646   -0.929138
 ---------------------------------------------------------------------
                    Distance matrix (angstroms):
                    1          2          3          4          5
     1  C    0.000000
     2  C    1.395160   0.000000
     3  C    2.416205   1.394712   0.000000
     4  C    2.790065   2.416260   1.395427   0.000000
     5  C    2.416183   2.789946   2.416356   1.394825   0.000000
     6  C    1.394829   2.416183   2.790080   2.416236   1.395138
     7  H    1.099610   2.165553   3.412986   3.889675   3.413102
     8  H    3.413229   2.165375   1.099680   2.165806   3.413209
     9  H    3.889745   3.413024   2.165678   1.099680   2.165606
    10  H    3.413055   3.889707   3.413506   2.165528   1.099761
    11  S    2.756232   1.780000   2.756266   4.056823   4.569946
    12  F    2.722032   2.386734   3.583660   4.658711   4.838823
    13  F    2.721323   2.386734   3.583152   4.658093   4.838053
    14  F    4.242915   3.370000   4.243089   5.594825   6.159946
    15  F    3.583345   2.386734   2.721688   4.033391   4.838470
    16  F    3.583884   2.386734   2.722357   4.034104   4.839241
    17  O    2.446535   3.723988   4.220080   3.723823   2.446604
    18  C    3.649377   4.746769   4.886941   4.001995   2.608485
    19  H    4.476007   5.677513   5.922679   5.071468   3.677376
    20  H    3.896759   4.837746   4.799680   3.801267   2.496666
    21  H    3.896892   4.837867   4.800055   3.801493   2.496648
                    6          7          8          9         10
     6  C    0.000000
     7  H    2.165331   0.000000
     8  H    3.889760   4.320860   0.000000
     9  H    3.413344   4.989355   2.494678   0.000000
    10  H    2.165516   4.320781   4.321228   2.495147   0.000000
    11  S    4.056337   2.895056   2.895614   4.921942   5.669707
    12  F    4.033332   2.460230   3.971405   5.622642   5.888526
    13  F    4.032304   2.459617   3.970971   5.621899   5.887755
    14  F    5.594188   4.127629   4.128453   6.388907   7.259707
    15  F    4.657915   3.970664   2.460346   4.679010   5.888345
    16  F    4.658805   3.971044   2.461046   4.679903   5.889117
    17  O    1.430000   2.675218   5.319760   4.610065   2.674905
    18  C    2.335595   4.065976   5.951647   4.621660   2.209306
    19  H    3.268053   4.698051   6.997954   5.678176   3.228522
    20  H    2.569076   4.444324   5.813049   4.294124   1.934496
    21  H    2.569262   4.444402   5.813558   4.294524   1.934082
                   11         12         13         14         15
    11  S    0.000000
    12  F    1.590000   0.000000
    13  F    1.590000   2.248600   0.000000
    14  F    1.590000   2.248600   2.248600   0.000000
    15  F    1.590000   3.180000   2.248600   2.248600   0.000000
    16  F    1.590000   2.248600   3.180000   2.248600   2.248600
    17  O    5.198910   4.905002   4.903860   6.644003   5.920683
    18  C    6.379507   6.189994   6.188750   7.891996   6.938039
    19  H    7.232069   6.916489   6.915153   8.694116   7.862826
    20  H    6.518389   6.582835   6.276091   8.055811   6.833833
    21  H    6.518824   6.277669   6.581998   8.056412   7.115983
                   16         17         18         19         20
    16  F    0.000000
    17  O    5.921629   0.000000
    18  C    6.939149   1.430000   0.000000
    19  H    7.864001   2.051796   1.070000   0.000000
    20  H    7.116578   2.051796   1.070000   1.747303   0.000000
    21  H    6.835470   2.051796   1.070000   1.747303   1.747303
                   21
    21  H    0.000000
 Stoichiometry    C7H7F5OS
 Framework group  C1[X(C7H7F5OS)]
 Deg. of freedom    57
 Full point group                 C1      NOp   1
 Largest Abelian subgroup         C1      NOp   1
 Largest concise Abelian subgroup C1      NOp   1
                         Standard orientation:                         
 ---------------------------------------------------------------------
 Center     Atomic      Atomic             Coordinates (Angstroms)
 Number     Number       Type             X           Y           Z
 ---------------------------------------------------------------------
      1          6           0       -0.946838   -0.667190   -0.000471
      2          6           0        0.047340    0.311626   -0.000755
      3          6           0       -0.302935    1.661637    0.000024
      4          6           0       -1.647943    2.033350   -0.000112
      5          6           0       -2.641828    1.054713   -0.000308
      6          6           0       -2.291278   -0.295667   -0.000091
      7          1           0       -0.670465   -1.731502   -0.000636
      8          1           0        0.480631    2.433207    0.000435
      9          1           0       -1.923879    3.097847    0.000443
     10          1           0       -3.701941    1.347345   -0.000424
     11         16           0        1.762889   -0.163020    0.000019
     12          9           0        1.463627   -1.246497   -1.124535
     13          9           0        1.462551   -1.246725    1.124065
     14          9           0        3.295318   -0.587001    0.000709
     15          9           0        2.062151    0.920457    1.124572
     16          9           0        2.063228    0.920686   -1.124027
     17          8           0       -3.310450   -1.298756   -0.000035
     18          6           0       -4.596210   -0.672881    0.000345
     19          1           0       -5.358430   -1.423827    0.000591
     20          1           0       -4.695870   -0.063235    0.874016
     21          1           0       -4.696403   -0.063267   -0.873287
 ---------------------------------------------------------------------
 Rotational constants (GHZ):      1.4246068      0.3732835      0.3339300
 Standard basis: 6-311+G(d,p) (5D, 7F)
 There are   372 symmetry adapted cartesian basis functions of A   symmetry.
 There are   358 symmetry adapted basis functions of A   symmetry.
   358 basis functions,   574 primitive gaussians,   372 cartesian basis functions
    59 alpha electrons       59 beta electrons
       nuclear repulsion energy      1213.1225360299 Hartrees.
 NAtoms=   21 NActive=   21 NUniq=   21 SFac= 1.00D+00 NAtFMM=   60 NAOKFM=F Big=F
 Integral buffers will be    131072 words long.
 Raffenetti 2 integral format.
 Two-electron integral symmetry is turned on.
 One-electron integrals computed using PRISM.
 NBasis=   358 RedAO= T EigKep=  1.05D-06  NBF=   358
 NBsUse=   358 1.00D-06 EigRej= -1.00D+00 NBFU=   358
 ExpMin= 4.05D-02 ExpMax= 9.34D+04 ExpMxC= 3.17D+03 IAcc=2 IRadAn=         4 AccDes= 0.00D+00
 Harris functional with IExCor=  402 and IRadAn=       4 diagonalized for initial guess.
 HarFok:  IExCor=  402 AccDes= 0.00D+00 IRadAn=         4 IDoV= 1 UseB2=F ITyADJ=14
 ICtDFT=  3500011 ScaDFX=  1.000000  1.000000  1.000000  1.000000
 FoFCou: FMM=F IPFlag=           0 FMFlag=      100000 FMFlg1=           0
         NFxFlg=           0 DoJE=T BraDBF=F KetDBF=T FulRan=T
         wScrn=  0.000000 ICntrl=     500 IOpCl=  0 I1Cent=   200000004 NGrid=           0
         NMat0=    1 NMatS0=      1 NMatT0=    0 NMatD0=    1 NMtDS0=    0 NMtDT0=    0
 Petite list used in FoFCou.
 Requested convergence on RMS density matrix=1.00D-08 within 128 cycles.
 Requested convergence on MAX density matrix=1.00D-06.
 Requested convergence on             energy=1.00D-06.
 No special actions if energy rises.
 SCF Done:  E(RB3LYP) =  -1243.69219672     A.U. after   15 cycles
            NFock= 15  Conv=0.37D-08     -V/T= 2.0022

 **********************************************************************

            Population analysis using the SCF density.

 **********************************************************************

 Orbital symmetries:
       Occupied  (A) (A) (A) (A) (A) (A) (A) (A) (A) (A) (A) (A)
                 (A) (A) (A) (A) (A) (A) (A) (A) (A) (A) (A) (A)
                 (A) (A) (A) (A) (A) (A) (A) (A) (A) (A) (A) (A)
                 (A) (A) (A) (A) (A) (A) (A) (A) (A) (A) (A) (A)
                 (A) (A) (A) (A) (A) (A) (A) (A) (A) (A) (A)
       Virtual   (A) (A) (A) (A) (A) (A) (A) (A) (A) (A) (A) (A)
                 (A) (A) (A) (A) (A) (A) (A) (A) (A) (A) (A) (A)
                 (A) (A) (A) (A) (A) (A) (A) (A) (A) (A) (A) (A)
                 (A) (A) (A) (A) (A) (A) (A) (A) (A) (A) (A) (A)
                 (A) (A) (A) (A) (A) (A) (A) (A) (A) (A) (A) (A)
                 (A) (A) (A) (A) (A) (A) (A) (A) (A) (A) (A) (A)
                 (A) (A) (A) (A) (A) (A) (A) (A) (A) (A) (A) (A)
                 (A) (A) (A) (A) (A) (A) (A) (A) (A) (A) (A) (A)
                 (A) (A) (A) (A) (A) (A) (A) (A) (A) (A) (A) (A)
                 (A) (A) (A) (A) (A) (A) (A) (A) (A) (A) (A) (A)
                 (A) (A) (A) (A) (A) (A) (A) (A) (A) (A) (A) (A)
                 (A) (A) (A) (A) (A) (A) (A) (A) (A) (A) (A) (A)
                 (A) (A) (A) (A) (A) (A) (A) (A) (A) (A) (A) (A)
                 (A) (A) (A) (A) (A) (A) (A) (A) (A) (A) (A) (A)
                 (A) (A) (A) (A) (A) (A) (A) (A) (A) (A) (A) (A)
                 (A) (A) (A) (A) (A) (A) (A) (A) (A) (A) (A) (A)
                 (A) (A) (A) (A) (A) (A) (A) (A) (A) (A) (A) (A)
                 (A) (A) (A) (A) (A) (A) (A) (A) (A) (A) (A) (A)
                 (A) (A) (A) (A) (A) (A) (A) (A) (A) (A) (A) (A)
                 (A) (A) (A) (A) (A) (A) (A) (A) (A) (A) (A) (A)
                 (A) (A) (A) (A) (A) (A) (A) (A) (A) (A) (A) (A)
                 (A) (A) (A) (A) (A) (A) (A) (A) (A) (A) (A) (A)
                 (A) (A) (A) (A) (A) (A) (A) (A) (A) (A) (A) (A)
                 (A) (A) (A) (A) (A) (A) (A) (A) (A) (A) (A) (A)
                 (A) (A) (A) (A) (A) (A) (A) (A) (A) (A) (A)
 The electronic state is 1-A.
 Alpha  occ. eigenvalues --  -89.22611 -24.73720 -24.72502 -24.72501 -24.72446
 Alpha  occ. eigenvalues --  -24.72445 -19.17373 -10.26249 -10.23279 -10.23032
 Alpha  occ. eigenvalues --  -10.20957 -10.20717 -10.20503 -10.20251  -8.27214
 Alpha  occ. eigenvalues --   -6.23743  -6.23731  -6.23153  -1.38054  -1.27468
 Alpha  occ. eigenvalues --   -1.27396  -1.25296  -1.22619  -1.07183  -0.89741
 Alpha  occ. eigenvalues --   -0.84159  -0.78309  -0.77413  -0.72301  -0.67651
 Alpha  occ. eigenvalues --   -0.65679  -0.65369  -0.63588  -0.59737  -0.55835
 Alpha  occ. eigenvalues --   -0.54779  -0.53687  -0.53540  -0.51862  -0.50411
 Alpha  occ. eigenvalues --   -0.49992  -0.49015  -0.48919  -0.46978  -0.46389
 Alpha  occ. eigenvalues --   -0.46383  -0.45674  -0.44716  -0.44520  -0.43266
 Alpha  occ. eigenvalues --   -0.42378  -0.42287  -0.40150  -0.39564  -0.38741
 Alpha  occ. eigenvalues --   -0.35668  -0.34237  -0.28822  -0.25743
 Alpha virt. eigenvalues --   -0.06099  -0.05044  -0.02947  -0.00877   0.01068
 Alpha virt. eigenvalues --    0.01363   0.03167   0.03408   0.03897   0.04064
 Alpha virt. eigenvalues --    0.05041   0.05717   0.06251   0.07458   0.07500
 Alpha virt. eigenvalues --    0.09099   0.09177   0.09370   0.10337   0.10449
 Alpha virt. eigenvalues --    0.10808   0.11081   0.11526   0.12037   0.13346
 Alpha virt. eigenvalues --    0.13578   0.14438   0.15140   0.15684   0.15937
 Alpha virt. eigenvalues --    0.16829   0.16878   0.17585   0.18527   0.18942
 Alpha virt. eigenvalues --    0.19697   0.20368   0.20732   0.20942   0.21775
 Alpha virt. eigenvalues --    0.22184   0.23046   0.23803   0.24213   0.24549
 Alpha virt. eigenvalues --    0.25122   0.25805   0.26430   0.26446   0.27468
 Alpha virt. eigenvalues --    0.27995   0.29281   0.29552   0.30211   0.30437
 Alpha virt. eigenvalues --    0.30769   0.31344   0.31932   0.33552   0.34367
 Alpha virt. eigenvalues --    0.34727   0.35611   0.36001   0.36684   0.37711
 Alpha virt. eigenvalues --    0.38418   0.39482   0.39791   0.41199   0.41814
 Alpha virt. eigenvalues --    0.41970   0.44336   0.45031   0.46382   0.46636
 Alpha virt. eigenvalues --    0.47233   0.48200   0.48487   0.50601   0.51845
 Alpha virt. eigenvalues --    0.52063   0.52085   0.53198   0.53354   0.54731
 Alpha virt. eigenvalues --    0.56114   0.57086   0.57391   0.57806   0.58819
 Alpha virt. eigenvalues --    0.60380   0.62325   0.63138   0.63415   0.64792
 Alpha virt. eigenvalues --    0.66147   0.67099   0.68772   0.69212   0.69575
 Alpha virt. eigenvalues --    0.70392   0.70829   0.74523   0.76116   0.76265
 Alpha virt. eigenvalues --    0.78984   0.81537   0.83045   0.84874   0.85916
 Alpha virt. eigenvalues --    0.88797   0.90948   0.91862   0.93552   0.94429
 Alpha virt. eigenvalues --    0.98778   0.99151   0.99786   1.00151   1.01948
 Alpha virt. eigenvalues --    1.03849   1.03910   1.08308   1.08857   1.09761
 Alpha virt. eigenvalues --    1.09844   1.12317   1.12739   1.21810   1.25220
 Alpha virt. eigenvalues --    1.26441   1.27423   1.28135   1.30381   1.31666
 Alpha virt. eigenvalues --    1.31911   1.33770   1.34671   1.36166   1.39342
 Alpha virt. eigenvalues --    1.41088   1.43334   1.44327   1.44413   1.45335
 Alpha virt. eigenvalues --    1.47481   1.48167   1.49166   1.52264   1.52475
 Alpha virt. eigenvalues --    1.52594   1.53577   1.54767   1.55651   1.59137
 Alpha virt. eigenvalues --    1.59223   1.59560   1.60478   1.61414   1.65891
 Alpha virt. eigenvalues --    1.67097   1.68711   1.71748   1.73227   1.75889
 Alpha virt. eigenvalues --    1.77568   1.81301   1.82187   1.85208   1.88029
 Alpha virt. eigenvalues --    1.88335   1.90299   1.90638   1.92030   1.93912
 Alpha virt. eigenvalues --    1.94090   1.96827   1.98906   2.01284   2.01738
 Alpha virt. eigenvalues --    2.02434   2.05315   2.06400   2.10103   2.11977
 Alpha virt. eigenvalues --    2.14384   2.17317   2.18299   2.25646   2.25777
 Alpha virt. eigenvalues --    2.30780   2.32448   2.36399   2.36886   2.43375
 Alpha virt. eigenvalues --    2.47739   2.48574   2.51222   2.53252   2.56047
 Alpha virt. eigenvalues --    2.57962   2.61342   2.64516   2.67721   2.69790
 Alpha virt. eigenvalues --    2.73368   2.74267   2.75488   2.76162   2.78224
 Alpha virt. eigenvalues --    2.79631   2.81873   2.84518   2.87547   2.87560
 Alpha virt. eigenvalues --    2.90737   3.00271   3.04362   3.05549   3.06805
 Alpha virt. eigenvalues --    3.16200   3.19711   3.20194   3.30507   3.36227
 Alpha virt. eigenvalues --    3.37995   3.48587   3.56458   3.60934   3.69009
 Alpha virt. eigenvalues --    3.69135   3.69879   3.70024   3.72457   3.72487
 Alpha virt. eigenvalues --    3.72661   3.73607   3.73661   3.74174   3.75231
 Alpha virt. eigenvalues --    3.77419   3.78553   3.79819   3.81641   3.82840
 Alpha virt. eigenvalues --    3.82986   3.83544   3.83659   3.84306   3.85591
 Alpha virt. eigenvalues --    3.91381   4.01022   4.01979   4.06879   4.09690
 Alpha virt. eigenvalues --    4.12842   4.17409   4.23892   4.24386   4.26713
 Alpha virt. eigenvalues --    4.27170   4.29008   4.82862   5.01235   5.39264
 Alpha virt. eigenvalues --    5.65821   6.19544   6.23802   6.24786   6.25540
 Alpha virt. eigenvalues --    6.27144   6.29859   6.31397   6.37190   6.37582
 Alpha virt. eigenvalues --    6.39844   6.40603   6.48137   6.50043   6.51867
 Alpha virt. eigenvalues --    6.55362   8.10846  17.33723  17.37660  17.44128
 Alpha virt. eigenvalues --   23.55119  23.89486  23.93533  23.96159  24.03787
 Alpha virt. eigenvalues --   24.05144  24.15048  49.93561  66.75692  66.76251
 Alpha virt. eigenvalues --   66.83620  66.85385  66.94353 189.17993
          Condensed to atoms (all electrons):
               1          2          3          4          5          6
     1  C   44.928479 -10.181621 -11.929182  -2.443271  -1.828824 -12.974059
     2  C  -10.181621  29.422954  -9.512582   3.013277  -5.421806   2.218738
     3  C  -11.929182  -9.512582  30.075768  -3.844185   3.753675  -4.130839
     4  C   -2.443271   3.013277  -3.844185  12.773732  -2.843195  -0.121100
     5  C   -1.828824  -5.421806   3.753675  -2.843195  12.869397  -2.023125
     6  C  -12.974059   2.218738  -4.130839  -0.121100  -2.023125  24.149149
     7  H    0.360281  -0.010567  -0.045490  -0.012160  -0.013305   0.063540
     8  H   -0.037356  -0.001756   0.345505   0.031772  -0.006110  -0.021273
     9  H    0.018534   0.057313  -0.095155   0.333244   0.023560   0.001814
    10  H   -0.076397   0.020468  -0.026417   0.069427   0.409934  -0.047601
    11  S    1.270051  -2.709272   0.815206   0.106324   0.125669  -1.107999
    12  F   -0.565054   0.186609   0.498011  -0.002026   0.014434  -0.080420
    13  F   -0.564307   0.186901   0.497266  -0.001743   0.014276  -0.081234
    14  F    0.027514  -0.019511   0.083261  -0.017900   0.009681  -0.024179
    15  F    0.449886   0.156990  -0.503899   0.003416  -0.006411  -0.001990
    16  F    0.449681   0.157128  -0.503577   0.002884  -0.006282  -0.001352
    17  O   -0.691668   0.012460   0.063146   0.064625   0.242858   0.266259
    18  C   -0.351266  -0.143288   0.026452  -0.240525  -0.149341   0.470970
    19  H   -0.003859   0.006704  -0.000726  -0.001613  -0.011935   0.057847
    20  H   -0.002993  -0.005865  -0.000763   0.015097   0.015042  -0.049551
    21  H   -0.002503  -0.005898  -0.001021   0.015418   0.014591  -0.049376
               7          8          9         10         11         12
     1  C    0.360281  -0.037356   0.018534  -0.076397   1.270051  -0.565054
     2  C   -0.010567  -0.001756   0.057313   0.020468  -2.709272   0.186609
     3  C   -0.045490   0.345505  -0.095155  -0.026417   0.815206   0.498011
     4  C   -0.012160   0.031772   0.333244   0.069427   0.106324  -0.002026
     5  C   -0.013305  -0.006110   0.023560   0.409934   0.125669   0.014434
     6  C    0.063540  -0.021273   0.001814  -0.047601  -1.107999  -0.080420
     7  H    0.495660  -0.000069   0.000057  -0.000067   0.002803   0.002740
     8  H   -0.000069   0.517381  -0.006888  -0.000300   0.023969   0.000105
     9  H    0.000057  -0.006888   0.530701  -0.006783   0.002136   0.000034
    10  H   -0.000067  -0.000300  -0.006783   0.541278  -0.000532  -0.000012
    11  S    0.002803   0.023969   0.002136  -0.000532  17.146492  -0.022653
    12  F    0.002740   0.000105   0.000034  -0.000012  -0.022653   8.995599
    13  F    0.002676   0.000100   0.000034  -0.000012  -0.022535  -0.027175
    14  F   -0.000934  -0.001233   0.000001   0.000000  -0.052705  -0.017420
    15  F   -0.000269   0.003489   0.000072  -0.000003  -0.052719  -0.040397
    16  F   -0.000262   0.003542   0.000070  -0.000003  -0.053081   0.011326
    17  O   -0.002464   0.000220  -0.000474  -0.018226   0.003747   0.000063
    18  C    0.001869  -0.000357   0.002522   0.003235  -0.022658  -0.000923
    19  H   -0.000028   0.000000  -0.000007   0.001132   0.000098   0.000000
    20  H    0.000072   0.000001   0.000062  -0.004128  -0.000242  -0.000001
    21  H    0.000072   0.000001   0.000063  -0.004115  -0.000232  -0.000003
              13         14         15         16         17         18
     1  C   -0.564307   0.027514   0.449886   0.449681  -0.691668  -0.351266
     2  C    0.186901  -0.019511   0.156990   0.157128   0.012460  -0.143288
     3  C    0.497266   0.083261  -0.503899  -0.503577   0.063146   0.026452
     4  C   -0.001743  -0.017900   0.003416   0.002884   0.064625  -0.240525
     5  C    0.014276   0.009681  -0.006411  -0.006282   0.242858  -0.149341
     6  C   -0.081234  -0.024179  -0.001990  -0.001352   0.266259   0.470970
     7  H    0.002676  -0.000934  -0.000269  -0.000262  -0.002464   0.001869
     8  H    0.000100  -0.001233   0.003489   0.003542   0.000220  -0.000357
     9  H    0.000034   0.000001   0.000072   0.000070  -0.000474   0.002522
    10  H   -0.000012   0.000000  -0.000003  -0.000003  -0.018226   0.003235
    11  S   -0.022535  -0.052705  -0.052719  -0.053081   0.003747  -0.022658
    12  F   -0.027175  -0.017420  -0.040397   0.011326   0.000063  -0.000923
    13  F    8.995925  -0.017390   0.011353  -0.040422   0.000067  -0.000934
    14  F   -0.017390   9.014788  -0.024806  -0.024790  -0.000028   0.000082
    15  F    0.011353  -0.024806   8.982852  -0.030418   0.000052  -0.000112
    16  F   -0.040422  -0.024790  -0.030418   8.982669   0.000051  -0.000107
    17  O    0.000067  -0.000028   0.000052   0.000051   8.188869   0.174402
    18  C   -0.000934   0.000082  -0.000112  -0.000107   0.174402   5.208082
    19  H    0.000000   0.000000   0.000000   0.000000  -0.053815   0.385921
    20  H   -0.000003   0.000000  -0.000001   0.000000  -0.030547   0.428791
    21  H   -0.000001   0.000000   0.000000  -0.000001  -0.030587   0.428556
              19         20         21
     1  C   -0.003859  -0.002993  -0.002503
     2  C    0.006704  -0.005865  -0.005898
     3  C   -0.000726  -0.000763  -0.001021
     4  C   -0.001613   0.015097   0.015418
     5  C   -0.011935   0.015042   0.014591
     6  C    0.057847  -0.049551  -0.049376
     7  H   -0.000028   0.000072   0.000072
     8  H    0.000000   0.000001   0.000001
     9  H   -0.000007   0.000062   0.000063
    10  H    0.001132  -0.004128  -0.004115
    11  S    0.000098  -0.000242  -0.000232
    12  F    0.000000  -0.000001  -0.000003
    13  F    0.000000  -0.000003  -0.000001
    14  F    0.000000   0.000000   0.000000
    15  F    0.000000  -0.000001   0.000000
    16  F    0.000000   0.000000  -0.000001
    17  O   -0.053815  -0.030547  -0.030587
    18  C    0.385921   0.428791   0.428556
    19  H    0.506596  -0.025081  -0.025092
    20  H   -0.025081   0.571787  -0.057558
    21  H   -0.025092  -0.057558   0.571833
 Mulliken charges:
               1
     1  C    0.147932
     2  C   -1.427377
     3  C    0.435545
     4  C   -0.901501
     5  C    0.817220
     6  C   -0.514220
     7  H    0.155846
     8  H    0.149258
     9  H    0.139090
    10  H    0.139121
    11  S    0.548134
    12  F    0.047162
    13  F    0.047155
    14  F    0.065568
    15  F    0.052914
    16  F    0.052942
    17  O   -0.189009
    18  C   -0.221370
    19  H    0.163857
    20  H    0.145880
    21  H    0.145852
 Sum of Mulliken charges =   0.00000
 Mulliken charges with hydrogens summed into heavy atoms:
               1
     1  C    0.303778
     2  C   -1.427377
     3  C    0.584803
     4  C   -0.762411
     5  C    0.956341
     6  C   -0.514220
    11  S    0.548134
    12  F    0.047162
    13  F    0.047155
    14  F    0.065568
    15  F    0.052914
    16  F    0.052942
    17  O   -0.189009
    18  C    0.234220
 Electronic spatial extent (au):  <R**2>=           3213.3658
 Charge=              0.0000 electrons
 Dipole moment (field-independent basis, Debye):
    X=             -4.1893    Y=              1.9422    Z=              0.0008  Tot=              4.6176
 Quadrupole moment (field-independent basis, Debye-Ang):
   XX=            -75.3765   YY=            -84.2616   ZZ=            -90.7589
   XY=             -3.4533   XZ=             -0.0018   YZ=              0.0020
 Traceless Quadrupole moment (field-independent basis, Debye-Ang):
   XX=              8.0892   YY=             -0.7959   ZZ=             -7.2932
   XY=             -3.4533   XZ=             -0.0018   YZ=              0.0020
 Octapole moment (field-independent basis, Debye-Ang**2):
  XXX=            -33.6287  YYY=              1.6919  ZZZ=              0.0110  XYY=             18.3755
  XXY=              3.3120  XXZ=              0.0129  XZZ=             20.6377  YZZ=             -7.4564
  YYZ=              0.0095  XYZ=              0.0015
 Hexadecapole moment (field-independent basis, Debye-Ang**3):
 XXXX=          -2526.1736 YYYY=           -627.1281 ZZZZ=           -246.9956 XXXY=             12.7512
 XXXZ=             -0.0352 YYYX=            -18.9120 YYYZ=              0.0281 ZZZX=             -0.0020
 ZZZY=              0.0019 XXYY=           -601.6553 XXZZ=           -543.0913 YYZZ=           -165.1807
 XXYZ=             -0.0117 YYXZ=             -0.0067 ZZXY=              3.8260
 N-N= 1.213122536030D+03 E-N=-5.367879157294D+03  KE= 1.240909107015D+03
 There are a total of      173956 grid points.
 ElSum from          density=      118.0001026331
 ElSum from atomic densities=      118.0005654840

 Hirshfeld populations at iteration   1 (CX, CA, CB, DipXYZ):
               1          2          3          4          5          6
     1  C    0.000000   3.023860   3.023860  -0.025093  -0.051229   0.000005
     2  C    0.000000   3.025011   3.025011   0.044506  -0.014087  -0.000134
     3  C    0.000000   3.026553   3.026553   0.011311   0.053388   0.000088
     4  C    0.000000   3.018252   3.018252  -0.016108   0.068586  -0.000016
     5  C    0.000000   3.028218   3.028218  -0.051279   0.011952  -0.000047
     6  C    0.000000   2.961372   2.961372  -0.096603  -0.101658   0.000088
     7  H    0.000002   0.469056   0.469056   0.019343  -0.165304  -0.000033
     8  H    0.000002   0.473403   0.473403   0.093618   0.135291   0.000067
     9  H    0.000002   0.470788   0.470788  -0.040769   0.159987   0.000096
    10  H    0.000000   0.473714   0.473714  -0.145758   0.063356  -0.000025
    11  S    0.000000   7.732013   7.732013   0.110556  -0.030372   0.000078
    12  F    0.000015   4.558080   4.558080  -0.006628   0.075515   0.083107
    13  F    0.000015   4.558072   4.558072  -0.006586   0.075534  -0.083104
    14  F    0.000021   4.554463   4.554463  -0.096476   0.026448  -0.000045
    15  F    0.000013   4.558133   4.558133  -0.044643  -0.062224  -0.083234
    16  F    0.000013   4.558144   4.558144  -0.044688  -0.062261   0.083173
    17  O    0.000001   4.074852   4.074852  -0.042675   0.165333   0.000025
    18  C    0.000000   3.005745   3.005745   0.033130  -0.041076  -0.000014
    19  H    0.000001   0.472049   0.472049  -0.124948  -0.105622   0.000041
    20  H    0.000001   0.479137   0.479137  -0.032945   0.077879   0.123391
    21  H    0.000001   0.479137   0.479137  -0.033014   0.077880  -0.123377
       Tot   0.000085  59.000051  59.000051  -0.495749   0.357316   0.000130

 Dip from Atomic Chgs             -1.149915   0.406045   0.000175
         Total Dipole             -1.645664   0.763361   0.000304

 Hirshfeld charges, spin densities, dipoles, and CM5 charges using IRadAn=      4:
              Q-H        S-H        Dx         Dy         Dz        Q-CM5   
     1  C   -0.047720   0.000000  -0.025093  -0.051229   0.000005  -0.095594
     2  C   -0.050022   0.000000   0.044506  -0.014087  -0.000134  -0.074791
     3  C   -0.053107   0.000000   0.011311   0.053388   0.000088  -0.105863
     4  C   -0.036504   0.000000  -0.016108   0.068586  -0.000016  -0.090021
     5  C   -0.056437   0.000000  -0.051279   0.011952  -0.000047  -0.108051
     6  C    0.077257   0.000000  -0.096603  -0.101658   0.000088   0.088792
     7  H    0.061889   0.000000   0.019343  -0.165304  -0.000033   0.113479
     8  H    0.053194   0.000000   0.093618   0.135291   0.000067   0.102356
     9  H    0.058424   0.000000  -0.040769   0.159987   0.000096   0.112103
    10  H    0.052571   0.000000  -0.145758   0.063356  -0.000025   0.111632
    11  S    0.535974   0.000000   0.110556  -0.030372   0.000078   0.589462
    12  F   -0.116161   0.000000  -0.006628   0.075515   0.083107  -0.119721
    13  F   -0.116143   0.000000  -0.006586   0.075534  -0.083104  -0.119700
    14  F   -0.108925   0.000000  -0.096476   0.026448  -0.000045  -0.115966
    15  F   -0.116266   0.000000  -0.044643  -0.062224  -0.083234  -0.119823
    16  F   -0.116287   0.000000  -0.044688  -0.062261   0.083173  -0.119847
    17  O   -0.149704   0.000000  -0.042675   0.165333   0.000025  -0.234174
    18  C   -0.011491   0.000000   0.033130  -0.041076  -0.000014  -0.143930
    19  H    0.055902   0.000000  -0.124948  -0.105622   0.000041   0.117632
    20  H    0.041727   0.000000  -0.032945   0.077879   0.123391   0.105961
    21  H    0.041727   0.000000  -0.033014   0.077880  -0.123377   0.105960
       Tot  -0.000103   0.000000  -0.495749   0.357316   0.000130  -0.000103
 Hirshfeld charges with hydrogens summed into heavy atoms:
              Q-H       Q-CM5   
     1  C    0.014169   0.017886
     2  C   -0.050022  -0.074791
     3  C    0.000087  -0.003506
     4  C    0.021921   0.022082
     5  C   -0.003866   0.003581
     6  C    0.077257   0.088792
    11  S    0.535974   0.589462
    12  F   -0.116161  -0.119721
    13  F   -0.116143  -0.119700
    14  F   -0.108925  -0.115966
    15  F   -0.116266  -0.119823
    16  F   -0.116287  -0.119847
    17  O   -0.149704  -0.234174
    18  C    0.127865   0.185623
 
 EQQ= 0.000000000000E+00 EQD= 0.000000000000E+00 EDD= 0.245863072752E-02
 EQQ+QD+DD= 0.245863072752E-02
 
          MBS Condensed to atoms (all electrons):
               1          2          3          4          5          6
     1  C    4.825718   0.506563  -0.030805  -0.010793  -0.032933   0.497691
     2  C    0.506563   4.782137   0.501753  -0.029190  -0.011126  -0.025854
     3  C   -0.030805   0.501753   4.823250   0.505886  -0.031823  -0.011576
     4  C   -0.010793  -0.029190   0.505886   4.806333   0.502451  -0.027998
     5  C   -0.032933  -0.011126  -0.031823   0.502451   4.875566   0.498697
     6  C    0.497691  -0.025854  -0.011576  -0.027998   0.498697   4.697515
     7  H    0.380292  -0.023175   0.001335   0.000075   0.001348  -0.022640
     8  H    0.001379  -0.025338   0.384515  -0.023116   0.001437   0.000075
     9  H    0.000025   0.001400  -0.024767   0.388366  -0.024858   0.001363
    10  H    0.001288   0.000085   0.001446  -0.023519   0.389684  -0.025571
    11  S   -0.023097   0.345298  -0.023162   0.000623  -0.000001   0.000575
    12  F   -0.001542  -0.015536   0.000140  -0.000001   0.000000   0.000006
    13  F   -0.001547  -0.015539   0.000140  -0.000001   0.000000   0.000006
    14  F    0.000001   0.000062   0.000002   0.000000   0.000000   0.000000
    15  F    0.000137  -0.015440  -0.001522   0.000006   0.000000  -0.000001
    16  F    0.000137  -0.015439  -0.001517   0.000006   0.000000  -0.000001
    17  O   -0.020451   0.000260   0.000006   0.000300  -0.019699   0.292609
    18  C    0.001361  -0.000016  -0.000001   0.000184  -0.017407  -0.038283
    19  H   -0.000027   0.000000   0.000000  -0.000003   0.000391   0.002400
    20  H    0.000019   0.000000  -0.000004   0.000045  -0.002083  -0.004685
    21  H    0.000018   0.000000  -0.000004   0.000045  -0.002090  -0.004682
               7          8          9         10         11         12
     1  C    0.380292   0.001379   0.000025   0.001288  -0.023097  -0.001542
     2  C   -0.023175  -0.025338   0.001400   0.000085   0.345298  -0.015536
     3  C    0.001335   0.384515  -0.024767   0.001446  -0.023162   0.000140
     4  C    0.000075  -0.023116   0.388366  -0.023519   0.000623  -0.000001
     5  C    0.001348   0.001437  -0.024858   0.389684  -0.000001   0.000000
     6  C   -0.022640   0.000075   0.001363  -0.025571   0.000575   0.000006
     7  H    0.522215  -0.000040   0.000001  -0.000041  -0.003692   0.000862
     8  H   -0.000040   0.538640  -0.003760  -0.000033  -0.003465   0.000012
     9  H    0.000001  -0.003760   0.549625  -0.003804  -0.000012   0.000000
    10  H   -0.000041  -0.000033  -0.003804   0.555985   0.000000   0.000000
    11  S   -0.003692  -0.003465  -0.000012   0.000000  13.769130   0.265082
    12  F    0.000862   0.000012   0.000000   0.000000   0.265082   8.940619
    13  F    0.000862   0.000012   0.000000   0.000000   0.265084  -0.007140
    14  F    0.000002   0.000001   0.000000   0.000000   0.263016  -0.007934
    15  F    0.000013   0.000815   0.000000   0.000000   0.265273   0.000036
    16  F    0.000013   0.000814   0.000000   0.000000   0.265272  -0.006922
    17  O   -0.000591   0.000000  -0.000005  -0.001916   0.000000   0.000000
    18  C    0.000015   0.000000   0.000002  -0.006908   0.000000   0.000000
    19  H   -0.000003   0.000000   0.000000   0.000148   0.000000   0.000000
    20  H    0.000003   0.000000   0.000006  -0.001717   0.000000   0.000000
    21  H    0.000003   0.000000   0.000006  -0.001715   0.000000   0.000000
              13         14         15         16         17         18
     1  C   -0.001547   0.000001   0.000137   0.000137  -0.020451   0.001361
     2  C   -0.015539   0.000062  -0.015440  -0.015439   0.000260  -0.000016
     3  C    0.000140   0.000002  -0.001522  -0.001517   0.000006  -0.000001
     4  C   -0.000001   0.000000   0.000006   0.000006   0.000300   0.000184
     5  C    0.000000   0.000000   0.000000   0.000000  -0.019699  -0.017407
     6  C    0.000006   0.000000  -0.000001  -0.000001   0.292609  -0.038283
     7  H    0.000862   0.000002   0.000013   0.000013  -0.000591   0.000015
     8  H    0.000012   0.000001   0.000815   0.000814   0.000000   0.000000
     9  H    0.000000   0.000000   0.000000   0.000000  -0.000005   0.000002
    10  H    0.000000   0.000000   0.000000   0.000000  -0.001916  -0.006908
    11  S    0.265084   0.263016   0.265273   0.265272   0.000000   0.000000
    12  F   -0.007140  -0.007934   0.000036  -0.006922   0.000000   0.000000
    13  F    8.940618  -0.007934  -0.006923   0.000036   0.000000   0.000000
    14  F   -0.007934   8.905237  -0.007932  -0.007932   0.000000   0.000000
    15  F   -0.006923  -0.007932   8.940242  -0.007151   0.000000   0.000000
    16  F    0.000036  -0.007932  -0.007151   8.940244   0.000000   0.000000
    17  O    0.000000   0.000000   0.000000   0.000000   7.895744   0.271931
    18  C    0.000000   0.000000   0.000000   0.000000   0.271931   4.743373
    19  H    0.000000   0.000000   0.000000   0.000000  -0.017139   0.381510
    20  H    0.000000   0.000000   0.000000   0.000000  -0.018262   0.376691
    21  H    0.000000   0.000000   0.000000   0.000000  -0.018264   0.376693
              19         20         21
     1  C   -0.000027   0.000019   0.000018
     2  C    0.000000   0.000000   0.000000
     3  C    0.000000  -0.000004  -0.000004
     4  C   -0.000003   0.000045   0.000045
     5  C    0.000391  -0.002083  -0.002090
     6  C    0.002400  -0.004685  -0.004682
     7  H   -0.000003   0.000003   0.000003
     8  H    0.000000   0.000000   0.000000
     9  H    0.000000   0.000006   0.000006
    10  H    0.000148  -0.001717  -0.001715
    11  S    0.000000   0.000000   0.000000
    12  F    0.000000   0.000000   0.000000
    13  F    0.000000   0.000000   0.000000
    14  F    0.000000   0.000000   0.000000
    15  F    0.000000   0.000000   0.000000
    16  F    0.000000   0.000000   0.000000
    17  O   -0.017139  -0.018262  -0.018264
    18  C    0.381510   0.376691   0.376693
    19  H    0.555219  -0.023654  -0.023657
    20  H   -0.023654   0.596997  -0.029444
    21  H   -0.023657  -0.029444   0.597010
 MBS Mulliken charges:
               1
     1  C   -0.093434
     2  C    0.039096
     3  C   -0.093291
     4  C   -0.089699
     5  C   -0.127554
     6  C    0.170352
     7  H    0.143144
     8  H    0.128052
     9  H    0.116410
    10  H    0.116588
    11  S    0.614076
    12  F   -0.167682
    13  F   -0.167675
    14  F   -0.136589
    15  F   -0.167552
    16  F   -0.167558
    17  O   -0.364523
    18  C   -0.089144
    19  H    0.124814
    20  H    0.106088
    21  H    0.106080
 Sum of MBS Mulliken charges =   0.00000
 MBS Mulliken charges with hydrogens summed into heavy atoms:
               1
     1  C    0.049711
     2  C    0.039096
     3  C    0.034761
     4  C    0.026711
     5  C   -0.010966
     6  C    0.170352
    11  S    0.614076
    12  F   -0.167682
    13  F   -0.167675
    14  F   -0.136589
    15  F   -0.167552
    16  F   -0.167558
    17  O   -0.364523
    18  C    0.247838
 Breneman (CHELPG) radii used.
 Generate Potential Derived Charges using the Breneman model, NDens= 1.
 Grid spacing= 0.300 Box extension= 2.800
 NStep X,Y,Z=   49     36     28   Total possible points=       49392
 Number of Points to Fit=   13324

 **********************************************************************

            Electrostatic Properties Using The SCF Density

 **********************************************************************

       Atomic Center    1 is at  -0.946838 -0.667190 -0.000471
       Atomic Center    2 is at   0.047340  0.311626 -0.000755
       Atomic Center    3 is at  -0.302935  1.661637  0.000024
       Atomic Center    4 is at  -1.647943  2.033350 -0.000112
       Atomic Center    5 is at  -2.641828  1.054713 -0.000308
       Atomic Center    6 is at  -2.291278 -0.295667 -0.000091
       Atomic Center    7 is at  -0.670465 -1.731502 -0.000636
       Atomic Center    8 is at   0.480631  2.433207  0.000435
       Atomic Center    9 is at  -1.923879  3.097847  0.000443
       Atomic Center   10 is at  -3.701941  1.347345 -0.000424
       Atomic Center   11 is at   1.762889 -0.163020  0.000019
       Atomic Center   12 is at   1.463627 -1.246497 -1.124535
       Atomic Center   13 is at   1.462551 -1.246725  1.124065
       Atomic Center   14 is at   3.295318 -0.587001  0.000709
       Atomic Center   15 is at   2.062151  0.920457  1.124572
       Atomic Center   16 is at   2.063228  0.920686 -1.124027
       Atomic Center   17 is at  -3.310450 -1.298756 -0.000035
       Atomic Center   18 is at  -4.596210 -0.672881  0.000345
       Atomic Center   19 is at  -5.358430 -1.423827  0.000591
       Atomic Center   20 is at  -4.695870 -0.063235  0.874016
       Atomic Center   21 is at  -4.696403 -0.063267 -0.873287
   13324 points will be used for fitting atomic charges
 Fitting point charges to electrostatic potential
 Charges from ESP fit, RMS=   0.00318 RRMS=   0.22792:
 ESP charges:
               1
     1  C   -0.281230
     2  C    0.041478
     3  C   -0.150356
     4  C   -0.076445
     5  C   -0.218330
     6  C    0.429583
     7  H    0.180873
     8  H    0.139512
     9  H    0.104306
    10  H    0.135843
    11  S    1.011414
    12  F   -0.238826
    13  F   -0.238834
    14  F   -0.160501
    15  F   -0.242554
    16  F   -0.242572
    17  O   -0.449214
    18  C    0.250676
    19  H    0.039999
    20  H   -0.017416
    21  H   -0.017407
 Sum of ESP charges =   0.00000
 ESP charges with hydrogens summed into heavy atoms:
               1
     1  C   -0.100357
     2  C    0.041478
     3  C   -0.010843
     4  C    0.027861
     5  C   -0.082487
     6  C    0.429583
    11  S    1.011414
    12  F   -0.238826
    13  F   -0.238834
    14  F   -0.160501
    15  F   -0.242554
    16  F   -0.242572
    17  O   -0.449214
    18  C    0.255852
 Charge=   0.00000 Dipole=    -4.2593     1.9627     0.0003 Tot=     4.6898
 -----------------------------------------------------------------

              Electrostatic Properties (Atomic Units)

 -----------------------------------------------------------------
    Center     Electric         -------- Electric Field --------
               Potential          X             Y             Z
 -----------------------------------------------------------------
    1 Atom    -14.741131
    2 Atom    -14.719795
    3 Atom    -14.745823
    4 Atom    -14.743651
    5 Atom    -14.748504
    6 Atom    -14.686624
    7 Atom     -1.075743
    8 Atom     -1.082654
    9 Atom     -1.080374
   10 Atom     -1.073953
   11 Atom    -58.859007
   12 Atom    -26.560470
   13 Atom    -26.560470
   14 Atom    -26.548399
   15 Atom    -26.559899
   16 Atom    -26.559902
   17 Atom    -22.322030
   18 Atom    -14.716718
   19 Atom     -1.093850
   20 Atom     -1.095688
   21 Atom     -1.095689
 -----------------------------------------------------------------
 ******************************Gaussian NBO Version 3.1******************************
             N A T U R A L   A T O M I C   O R B I T A L   A N D
          N A T U R A L   B O N D   O R B I T A L   A N A L Y S I S
 ******************************Gaussian NBO Version 3.1******************************
       /RESON  / : Allow strongly delocalized NBO set

 Analyzing the SCF density

 Job title: Title Card Required                                             

 Storage needed:    386194 in NPA ( 536868413 available)


 NATURAL POPULATIONS:  Natural atomic orbital occupancies 
                                                          
   NAO  Atom  No  lang   Type(AO)    Occupancy      Energy
 ----------------------------------------------------------
     1    C    1  S      Cor( 1S)     1.99890     -10.05859
     2    C    1  S      Val( 2S)     0.94322      -0.18575
     3    C    1  S      Ryd( 4S)     0.00218       0.86381
     4    C    1  S      Ryd( 3S)     0.00016       0.76456
     5    C    1  S      Ryd( 5S)     0.00001      23.13300
     6    C    1  px     Val( 2p)     1.07783      -0.08826
     7    C    1  px     Ryd( 4p)     0.00430       0.88980
     8    C    1  px     Ryd( 3p)     0.00045       0.64391
     9    C    1  px     Ryd( 5p)     0.00013       3.19679
    10    C    1  py     Val( 2p)     1.19527      -0.10328
    11    C    1  py     Ryd( 4p)     0.00734       1.04151
    12    C    1  py     Ryd( 3p)     0.00032       0.33662
    13    C    1  py     Ryd( 5p)     0.00007       3.17681
    14    C    1  pz     Val( 2p)     0.99224      -0.13467
    15    C    1  pz     Ryd( 4p)     0.00104       0.53930
    16    C    1  pz     Ryd( 3p)     0.00050       0.35583
    17    C    1  pz     Ryd( 5p)     0.00002       2.71941
    18    C    1  dxy    Ryd( 3d)     0.00064       2.55950
    19    C    1  dxz    Ryd( 3d)     0.00061       1.65250
    20    C    1  dyz    Ryd( 3d)     0.00062       1.59485
    21    C    1  dx2y2  Ryd( 3d)     0.00074       2.51589
    22    C    1  dz2    Ryd( 3d)     0.00048       2.05466

    23    C    2  S      Cor( 1S)     1.99874     -10.09774
    24    C    2  S      Val( 2S)     0.96179      -0.23410
    25    C    2  S      Ryd( 3S)     0.00294       0.86007
    26    C    2  S      Ryd( 4S)     0.00017       1.18767
    27    C    2  S      Ryd( 5S)     0.00001      22.86014
    28    C    2  px     Val( 2p)     1.02082      -0.16703
    29    C    2  px     Ryd( 4p)     0.00869       1.15850
    30    C    2  px     Ryd( 3p)     0.00028       0.79899
    31    C    2  px     Ryd( 5p)     0.00019       3.28621
    32    C    2  py     Val( 2p)     1.10464      -0.11975
    33    C    2  py     Ryd( 4p)     0.00673       0.93406
    34    C    2  py     Ryd( 3p)     0.00035       0.61242
    35    C    2  py     Ryd( 5p)     0.00021       3.47243
    36    C    2  pz     Val( 2p)     1.10010      -0.17000
    37    C    2  pz     Ryd( 4p)     0.00239       0.53701
    38    C    2  pz     Ryd( 3p)     0.00044       0.45056
    39    C    2  pz     Ryd( 5p)     0.00005       2.74036
    40    C    2  dxy    Ryd( 3d)     0.00091       2.49959
    41    C    2  dxz    Ryd( 3d)     0.00053       1.64406
    42    C    2  dyz    Ryd( 3d)     0.00079       1.65803
    43    C    2  dx2y2  Ryd( 3d)     0.00123       2.34211
    44    C    2  dz2    Ryd( 3d)     0.00060       2.06193

    45    C    3  S      Cor( 1S)     1.99901     -10.05549
    46    C    3  S      Val( 2S)     0.94371      -0.18399
    47    C    3  S      Ryd( 3S)     0.00192       0.80403
    48    C    3  S      Ryd( 4S)     0.00012       0.89063
    49    C    3  S      Ryd( 5S)     0.00001      23.02820
    50    C    3  px     Val( 2p)     1.13587      -0.08507
    51    C    3  px     Ryd( 4p)     0.00622       0.99536
    52    C    3  px     Ryd( 3p)     0.00067       0.46646
    53    C    3  px     Ryd( 5p)     0.00010       3.19977
    54    C    3  py     Val( 2p)     1.12292      -0.08777
    55    C    3  py     Ryd( 4p)     0.00566       0.86879
    56    C    3  py     Ryd( 3p)     0.00036       0.35852
    57    C    3  py     Ryd( 5p)     0.00010       3.18093
    58    C    3  pz     Val( 2p)     0.99220      -0.13138
    59    C    3  pz     Ryd( 4p)     0.00133       0.52983
    60    C    3  pz     Ryd( 3p)     0.00051       0.33758
    61    C    3  pz     Ryd( 5p)     0.00002       2.70045
    62    C    3  dxy    Ryd( 3d)     0.00074       2.45020
    63    C    3  dxz    Ryd( 3d)     0.00054       1.62125
    64    C    3  dyz    Ryd( 3d)     0.00055       1.62779
    65    C    3  dx2y2  Ryd( 3d)     0.00069       2.58561
    66    C    3  dz2    Ryd( 3d)     0.00043       2.02635

    67    C    4  S      Cor( 1S)     1.99914     -10.06135
    68    C    4  S      Val( 2S)     0.94941      -0.18687
    69    C    4  S      Ryd( 3S)     0.00158       0.91048
    70    C    4  S      Ryd( 4S)     0.00014       1.05020
    71    C    4  S      Ryd( 5S)     0.00000      22.61407
    72    C    4  px     Val( 2p)     1.06014      -0.06775
    73    C    4  px     Ryd( 4p)     0.00498       0.78303
    74    C    4  px     Ryd( 3p)     0.00038       0.40717
    75    C    4  px     Ryd( 5p)     0.00015       3.04785
    76    C    4  py     Val( 2p)     1.16635      -0.08193
    77    C    4  py     Ryd( 4p)     0.00682       1.05329
    78    C    4  py     Ryd( 3p)     0.00029       0.28666
    79    C    4  py     Ryd( 5p)     0.00007       3.14448
    80    C    4  pz     Val( 2p)     0.98624      -0.13145
    81    C    4  pz     Ryd( 4p)     0.00077       0.51888
    82    C    4  pz     Ryd( 3p)     0.00027       0.31946
    83    C    4  pz     Ryd( 5p)     0.00002       2.64187
    84    C    4  dxy    Ryd( 3d)     0.00069       2.53559
    85    C    4  dxz    Ryd( 3d)     0.00054       1.65103
    86    C    4  dyz    Ryd( 3d)     0.00043       1.58767
    87    C    4  dx2y2  Ryd( 3d)     0.00073       2.47588
    88    C    4  dz2    Ryd( 3d)     0.00042       2.03870

    89    C    5  S      Cor( 1S)     1.99902     -10.05561
    90    C    5  S      Val( 2S)     0.95251      -0.19085
    91    C    5  S      Ryd( 3S)     0.00158       0.74346
    92    C    5  S      Ryd( 4S)     0.00013       0.77756
    93    C    5  S      Ryd( 5S)     0.00001      23.16886
    94    C    5  px     Val( 2p)     1.18290      -0.09404
    95    C    5  px     Ryd( 4p)     0.00434       1.06913
    96    C    5  px     Ryd( 3p)     0.00035       0.41589
    97    C    5  px     Ryd( 5p)     0.00007       3.20915
    98    C    5  py     Val( 2p)     1.08370      -0.08274
    99    C    5  py     Ryd( 4p)     0.00366       0.87855
   100    C    5  py     Ryd( 3p)     0.00041       0.51954
   101    C    5  py     Ryd( 5p)     0.00012       3.18750
   102    C    5  pz     Val( 2p)     1.03978      -0.13970
   103    C    5  pz     Ryd( 4p)     0.00147       0.50909
   104    C    5  pz     Ryd( 3p)     0.00044       0.34296
   105    C    5  pz     Ryd( 5p)     0.00002       2.66677
   106    C    5  dxy    Ryd( 3d)     0.00059       2.57194
   107    C    5  dxz    Ryd( 3d)     0.00046       1.58497
   108    C    5  dyz    Ryd( 3d)     0.00055       1.65281
   109    C    5  dx2y2  Ryd( 3d)     0.00083       2.50757
   110    C    5  dz2    Ryd( 3d)     0.00043       2.06618

   111    C    6  S      Cor( 1S)     1.99866     -10.13089
   112    C    6  S      Val( 2S)     0.83982      -0.16405
   113    C    6  S      Ryd( 3S)     0.00082       0.87999
   114    C    6  S      Ryd( 4S)     0.00015       0.88840
   115    C    6  S      Ryd( 5S)     0.00002      22.79602
   116    C    6  px     Val( 2p)     0.92014      -0.07442
   117    C    6  px     Ryd( 4p)     0.00419       1.11806
   118    C    6  px     Ryd( 3p)     0.00026       0.80037
   119    C    6  px     Ryd( 5p)     0.00013       2.82847
   120    C    6  py     Val( 2p)     0.91291      -0.07394
   121    C    6  py     Ryd( 4p)     0.00864       1.03472
   122    C    6  py     Ryd( 3p)     0.00025       0.81096
   123    C    6  py     Ryd( 5p)     0.00015       2.80545
   124    C    6  pz     Val( 2p)     0.99017      -0.14202
   125    C    6  pz     Ryd( 3p)     0.00065       0.59100
   126    C    6  pz     Ryd( 4p)     0.00022       0.68243
   127    C    6  pz     Ryd( 5p)     0.00005       2.39175
   128    C    6  dxy    Ryd( 3d)     0.00174       2.40685
   129    C    6  dxz    Ryd( 3d)     0.00159       1.58796
   130    C    6  dyz    Ryd( 3d)     0.00145       1.60357
   131    C    6  dx2y2  Ryd( 3d)     0.00145       2.57001
   132    C    6  dz2    Ryd( 3d)     0.00062       2.02188

   133    H    7  S      Val( 1S)     0.74796       0.02758
   134    H    7  S      Ryd( 2S)     0.00110       1.13227
   135    H    7  S      Ryd( 3S)     0.00016       1.55878
   136    H    7  px     Ryd( 2p)     0.00024       2.08226
   137    H    7  py     Ryd( 2p)     0.00042       2.64331
   138    H    7  pz     Ryd( 2p)     0.00018       1.59804

   139    H    8  S      Val( 1S)     0.76329       0.02897
   140    H    8  S      Ryd( 2S)     0.00064       0.94633
   141    H    8  S      Ryd( 3S)     0.00016       1.78340
   142    H    8  px     Ryd( 2p)     0.00034       2.34912
   143    H    8  py     Ryd( 2p)     0.00032       2.31783
   144    H    8  pz     Ryd( 2p)     0.00023       1.59378

   145    H    9  S      Val( 1S)     0.77974       0.01906
   146    H    9  S      Ryd( 2S)     0.00051       0.61063
   147    H    9  S      Ryd( 3S)     0.00017       2.13061
   148    H    9  px     Ryd( 2p)     0.00013       2.01839
   149    H    9  py     Ryd( 2p)     0.00043       2.61164
   150    H    9  pz     Ryd( 2p)     0.00019       1.57422

   151    H   10  S      Val( 1S)     0.77469       0.01297
   152    H   10  S      Ryd( 2S)     0.00096       0.80524
   153    H   10  S      Ryd( 3S)     0.00017       1.83705
   154    H   10  px     Ryd( 2p)     0.00045       2.62824
   155    H   10  py     Ryd( 2p)     0.00019       2.06484
   156    H   10  pz     Ryd( 2p)     0.00026       1.57656

   157    S   11  S      Cor( 1S)     2.00000     -87.96758
   158    S   11  S      Cor( 2S)     1.99844      -9.37007
   159    S   11  S      Val( 3S)     1.08910      -0.68066
   160    S   11  S      Ryd( 4S)     0.00357       0.90165
   161    S   11  S      Ryd( 5S)     0.00073       0.90215
   162    S   11  S      Ryd( 6S)     0.00005      15.50989
   163    S   11  S      Ryd( 7S)     0.00000     181.05718
   164    S   11  px     Cor( 2p)     1.99981      -6.22075
   165    S   11  px     Val( 3p)     0.91250      -0.27311
   166    S   11  px     Ryd( 6p)     0.00659       1.84641
   167    S   11  px     Ryd( 5p)     0.00111       1.01092
   168    S   11  px     Ryd( 4p)     0.00020       0.61884
   169    S   11  px     Ryd( 7p)     0.00001      16.06462
   170    S   11  py     Cor( 2p)     1.99992      -6.22595
   171    S   11  py     Val( 3p)     0.72144      -0.25897
   172    S   11  py     Ryd( 6p)     0.00914       1.65332
   173    S   11  py     Ryd( 5p)     0.00114       1.02135
   174    S   11  py     Ryd( 4p)     0.00014       0.42477
   175    S   11  py     Ryd( 7p)     0.00001      16.05657
   176    S   11  pz     Cor( 2p)     1.99994      -6.22630
   177    S   11  pz     Val( 3p)     0.70728      -0.25387
   178    S   11  pz     Ryd( 6p)     0.00856       1.55527
   179    S   11  pz     Ryd( 5p)     0.00095       0.92688
   180    S   11  pz     Ryd( 4p)     0.00034       0.41587
   181    S   11  pz     Ryd( 7p)     0.00000      16.09658
   182    S   11  dxy    Ryd( 3d)     0.02693       0.75351
   183    S   11  dxz    Ryd( 3d)     0.02278       0.64878
   184    S   11  dyz    Ryd( 3d)     0.04490       0.90805
   185    S   11  dx2y2  Ryd( 3d)     0.03914       0.81277
   186    S   11  dz2    Ryd( 3d)     0.03082       0.68916

   187    F   12  S      Cor( 1S)     1.99995     -24.47627
   188    F   12  S      Val( 2S)     1.91615      -1.36914
   189    F   12  S      Ryd( 4S)     0.00105       1.67600
   190    F   12  S      Ryd( 3S)     0.00043       1.50175
   191    F   12  S      Ryd( 5S)     0.00000      66.52394
   192    F   12  px     Val( 2p)     1.94844      -0.46920
   193    F   12  px     Ryd( 3p)     0.00074       0.62736
   194    F   12  px     Ryd( 4p)     0.00012       1.34528
   195    F   12  px     Ryd( 5p)     0.00001       6.25331
   196    F   12  py     Val( 2p)     1.80879      -0.47409
   197    F   12  py     Ryd( 3p)     0.00093       0.56575
   198    F   12  py     Ryd( 4p)     0.00028       1.37342
   199    F   12  py     Ryd( 5p)     0.00002       6.19224
   200    F   12  pz     Val( 2p)     1.78612      -0.47444
   201    F   12  pz     Ryd( 3p)     0.00091       0.56424
   202    F   12  pz     Ryd( 4p)     0.00027       1.36447
   203    F   12  pz     Ryd( 5p)     0.00002       6.17497
   204    F   12  dxy    Ryd( 3d)     0.00031       3.79166
   205    F   12  dxz    Ryd( 3d)     0.00034       3.79394
   206    F   12  dyz    Ryd( 3d)     0.00081       3.97078
   207    F   12  dx2y2  Ryd( 3d)     0.00033       3.81294
   208    F   12  dz2    Ryd( 3d)     0.00050       3.82070

   209    F   13  S      Cor( 1S)     1.99995     -24.47627
   210    F   13  S      Val( 2S)     1.91615      -1.36915
   211    F   13  S      Ryd( 4S)     0.00105       1.67557
   212    F   13  S      Ryd( 3S)     0.00043       1.50210
   213    F   13  S      Ryd( 5S)     0.00000      66.52397
   214    F   13  px     Val( 2p)     1.94833      -0.46921
   215    F   13  px     Ryd( 3p)     0.00073       0.62740
   216    F   13  px     Ryd( 4p)     0.00012       1.34546
   217    F   13  px     Ryd( 5p)     0.00001       6.25326
   218    F   13  py     Val( 2p)     1.80871      -0.47410
   219    F   13  py     Ryd( 3p)     0.00093       0.56567
   220    F   13  py     Ryd( 4p)     0.00028       1.37359
   221    F   13  py     Ryd( 5p)     0.00002       6.19216
   222    F   13  pz     Val( 2p)     1.78630      -0.47444
   223    F   13  pz     Ryd( 3p)     0.00091       0.56420
   224    F   13  pz     Ryd( 4p)     0.00027       1.36444
   225    F   13  pz     Ryd( 5p)     0.00002       6.17487
   226    F   13  dxy    Ryd( 3d)     0.00031       3.79171
   227    F   13  dxz    Ryd( 3d)     0.00034       3.79403
   228    F   13  dyz    Ryd( 3d)     0.00081       3.97070
   229    F   13  dx2y2  Ryd( 3d)     0.00033       3.81296
   230    F   13  dz2    Ryd( 3d)     0.00050       3.82056

   231    F   14  S      Cor( 1S)     1.99995     -24.49121
   232    F   14  S      Val( 2S)     1.91568      -1.37491
   233    F   14  S      Ryd( 3S)     0.00197       1.05153
   234    F   14  S      Ryd( 4S)     0.00049       1.75145
   235    F   14  S      Ryd( 5S)     0.00000      66.61031
   236    F   14  px     Val( 2p)     1.60190      -0.48262
   237    F   14  px     Ryd( 3p)     0.00054       0.78184
   238    F   14  px     Ryd( 4p)     0.00035       1.65806
   239    F   14  px     Ryd( 5p)     0.00005       6.17008
   240    F   14  py     Val( 2p)     1.93977      -0.47750
   241    F   14  py     Ryd( 3p)     0.00056       0.45207
   242    F   14  py     Ryd( 4p)     0.00009       1.51012
   243    F   14  py     Ryd( 5p)     0.00001       6.12977
   244    F   14  pz     Val( 2p)     1.96811      -0.47714
   245    F   14  pz     Ryd( 3p)     0.00053       0.41975
   246    F   14  pz     Ryd( 4p)     0.00006       1.47869
   247    F   14  pz     Ryd( 5p)     0.00001       6.11601
   248    F   14  dxy    Ryd( 3d)     0.00081       3.83038
   249    F   14  dxz    Ryd( 3d)     0.00060       3.78906
   250    F   14  dyz    Ryd( 3d)     0.00006       3.74254
   251    F   14  dx2y2  Ryd( 3d)     0.00107       3.89249
   252    F   14  dz2    Ryd( 3d)     0.00041       3.79101

   253    F   15  S      Cor( 1S)     1.99995     -24.47699
   254    F   15  S      Val( 2S)     1.91605      -1.36946
   255    F   15  S      Ryd( 4S)     0.00106       1.63063
   256    F   15  S      Ryd( 3S)     0.00043       1.54083
   257    F   15  S      Ryd( 5S)     0.00000      66.52370
   258    F   15  px     Val( 2p)     1.96297      -0.46942
   259    F   15  px     Ryd( 3p)     0.00084       0.59420
   260    F   15  px     Ryd( 4p)     0.00013       1.32991
   261    F   15  px     Ryd( 5p)     0.00001       6.23085
   262    F   15  py     Val( 2p)     1.79423      -0.47489
   263    F   15  py     Ryd( 3p)     0.00085       0.59752
   264    F   15  py     Ryd( 4p)     0.00028       1.37857
   265    F   15  py     Ryd( 5p)     0.00002       6.20314
   266    F   15  pz     Val( 2p)     1.78604      -0.47498
   267    F   15  pz     Ryd( 3p)     0.00090       0.56224
   268    F   15  pz     Ryd( 4p)     0.00027       1.36363
   269    F   15  pz     Ryd( 5p)     0.00002       6.17358
   270    F   15  dxy    Ryd( 3d)     0.00030       3.78436
   271    F   15  dxz    Ryd( 3d)     0.00033       3.79641
   272    F   15  dyz    Ryd( 3d)     0.00082       3.96682
   273    F   15  dx2y2  Ryd( 3d)     0.00034       3.81817
   274    F   15  dz2    Ryd( 3d)     0.00050       3.82008

   275    F   16  S      Cor( 1S)     1.99995     -24.47699
   276    F   16  S      Val( 2S)     1.91605      -1.36945
   277    F   16  S      Ryd( 4S)     0.00106       1.63084
   278    F   16  S      Ryd( 3S)     0.00043       1.54070
   279    F   16  S      Ryd( 5S)     0.00000      66.52373
   280    F   16  px     Val( 2p)     1.96291      -0.46942
   281    F   16  px     Ryd( 3p)     0.00084       0.59420
   282    F   16  px     Ryd( 4p)     0.00013       1.32989
   283    F   16  px     Ryd( 5p)     0.00001       6.23101
   284    F   16  py     Val( 2p)     1.79416      -0.47488
   285    F   16  py     Ryd( 3p)     0.00085       0.59746
   286    F   16  py     Ryd( 4p)     0.00028       1.37844
   287    F   16  py     Ryd( 5p)     0.00002       6.20315
   288    F   16  pz     Val( 2p)     1.78618      -0.47497
   289    F   16  pz     Ryd( 3p)     0.00090       0.56240
   290    F   16  pz     Ryd( 4p)     0.00027       1.36348
   291    F   16  pz     Ryd( 5p)     0.00002       6.17363
   292    F   16  dxy    Ryd( 3d)     0.00030       3.78447
   293    F   16  dxz    Ryd( 3d)     0.00033       3.79645
   294    F   16  dyz    Ryd( 3d)     0.00082       3.96672
   295    F   16  dx2y2  Ryd( 3d)     0.00034       3.81827
   296    F   16  dz2    Ryd( 3d)     0.00050       3.82001

   297    O   17  S      Cor( 1S)     1.99977     -18.97591
   298    O   17  S      Val( 2S)     1.63346      -0.89795
   299    O   17  S      Ryd( 3S)     0.00228       0.99863
   300    O   17  S      Ryd( 4S)     0.00004       1.58244
   301    O   17  S      Ryd( 5S)     0.00000      49.35767
   302    O   17  px     Val( 2p)     1.35558      -0.30899
   303    O   17  px     Ryd( 4p)     0.00200       0.98414
   304    O   17  px     Ryd( 3p)     0.00057       0.85816
   305    O   17  px     Ryd( 5p)     0.00001       5.17095
   306    O   17  py     Val( 2p)     1.67478      -0.34182
   307    O   17  py     Ryd( 3p)     0.00262       0.62086
   308    O   17  py     Ryd( 4p)     0.00066       0.84556
   309    O   17  py     Ryd( 5p)     0.00007       5.02817
   310    O   17  pz     Val( 2p)     1.85885      -0.32415
   311    O   17  pz     Ryd( 3p)     0.00289       0.55613
   312    O   17  pz     Ryd( 4p)     0.00023       0.69188
   313    O   17  pz     Ryd( 5p)     0.00000       4.93859
   314    O   17  dxy    Ryd( 3d)     0.00131       3.48831
   315    O   17  dxz    Ryd( 3d)     0.00013       2.93906
   316    O   17  dyz    Ryd( 3d)     0.00091       2.89367
   317    O   17  dx2y2  Ryd( 3d)     0.00074       3.15995
   318    O   17  dz2    Ryd( 3d)     0.00060       3.23688

   319    C   18  S      Cor( 1S)     1.99918     -10.09995
   320    C   18  S      Val( 2S)     1.06764      -0.27522
   321    C   18  S      Ryd( 4S)     0.00194       0.88838
   322    C   18  S      Ryd( 3S)     0.00011       0.63152
   323    C   18  S      Ryd( 5S)     0.00001      23.36152
   324    C   18  px     Val( 2p)     0.82733      -0.10078
   325    C   18  px     Ryd( 3p)     0.00235       0.79818
   326    C   18  px     Ryd( 4p)     0.00024       1.16315
   327    C   18  px     Ryd( 5p)     0.00007       1.95043
   328    C   18  py     Val( 2p)     1.10980      -0.11867
   329    C   18  py     Ryd( 3p)     0.00380       0.77234
   330    C   18  py     Ryd( 4p)     0.00018       1.27516
   331    C   18  py     Ryd( 5p)     0.00007       1.99434
   332    C   18  pz     Val( 2p)     1.18117      -0.12236
   333    C   18  pz     Ryd( 3p)     0.00021       0.59917
   334    C   18  pz     Ryd( 4p)     0.00056       1.13606
   335    C   18  pz     Ryd( 5p)     0.00004       2.05322
   336    C   18  dxy    Ryd( 3d)     0.00184       2.18223
   337    C   18  dxz    Ryd( 3d)     0.00142       1.71212
   338    C   18  dyz    Ryd( 3d)     0.00115       2.23156
   339    C   18  dx2y2  Ryd( 3d)     0.00161       1.96113
   340    C   18  dz2    Ryd( 3d)     0.00101       2.11300

   341    H   19  S      Val( 1S)     0.80617       0.01554
   342    H   19  S      Ryd( 2S)     0.00031       0.43653
   343    H   19  S      Ryd( 3S)     0.00012       2.20991
   344    H   19  px     Ryd( 2p)     0.00020       2.21467
   345    H   19  py     Ryd( 2p)     0.00029       2.21844
   346    H   19  pz     Ryd( 2p)     0.00016       1.71743

   347    H   20  S      Val( 1S)     0.83087      -0.00370
   348    H   20  S      Ryd( 2S)     0.00126       0.53443
   349    H   20  S      Ryd( 3S)     0.00017       2.21894
   350    H   20  px     Ryd( 2p)     0.00011       1.73552
   351    H   20  py     Ryd( 2p)     0.00024       2.07089
   352    H   20  pz     Ryd( 2p)     0.00037       2.43716

   353    H   21  S      Val( 1S)     0.83089      -0.00371
   354    H   21  S      Ryd( 2S)     0.00126       0.53446
   355    H   21  S      Ryd( 3S)     0.00017       2.21895
   356    H   21  px     Ryd( 2p)     0.00011       1.73568
   357    H   21  py     Ryd( 2p)     0.00024       2.07083
   358    H   21  pz     Ryd( 2p)     0.00037       2.43696

 WARNING:  1 low occupancy (<1.9990e) core orbital  found on  C    1
           1 low occupancy (<1.9990e) core orbital  found on  C    2
           1 low occupancy (<1.9990e) core orbital  found on  C    6
           1 low occupancy (<1.9990e) core orbital  found on  S   11

 WARNING:  Population inversion found on atom  C    1
           Population inversion found on atom  C    2
           Population inversion found on atom  C    3
           Population inversion found on atom  C    4
           Population inversion found on atom  C    5
           Population inversion found on atom  C    6
           Population inversion found on atom  S   11
           Population inversion found on atom  F   12
           Population inversion found on atom  F   13
           Population inversion found on atom  F   15
           Population inversion found on atom  F   16
           Population inversion found on atom  O   17
           Population inversion found on atom  C   18


 Summary of Natural Population Analysis:                  
                                                          
                                       Natural Population 
                Natural  -----------------------------------------------
    Atom  No    Charge         Core      Valence    Rydberg      Total
 -----------------------------------------------------------------------
[...]
 3700,0.00422469,0.00177615,-0.01081121,0.00019148,0.00028120,-0.000478
 84,0.00000073,-0.00024574,-0.00053799,0.00001223,0.00009519,0.00088620
 ,-0.00006707,0.01238016,0.36290651,0.00007152,0.00008132,0.00555182,0.
 00000784,-0.00001741,-0.00022851,-0.00000190,0.00007273,0.00675652,0.0
 0002431,0.00009856,0.00234144,0.00030944,0.00422210,-0.03351801,-0.000
 03164,0.00029413,0.00375740,-0.00000568,0.00000639,-0.00035187,0.00000
 379,0.00000725,0.00029927,-0.00001887,-0.00006541,-0.00403162,-0.00029
 590,-0.00464900,0.02355363,0.00797139,0.01921538,-0.00029596,-0.056950
 48,-0.00140450,0.00007533,0.00801929,-0.01984999,0.00023231,-0.0057316
 9,-0.00494968,0.00009889,-0.00403636,0.00023764,0.00001024,-0.00189593
 ,0.00421995,-0.00003488,-0.00386883,0.00437516,-0.00004383,-0.00451148
 ,-0.00395404,0.00007323,0.00012533,-0.00126292,0.00001841,-0.00054885,
 0.00000576,0.00000114,0.53612630,0.01007617,-0.02303202,0.00024886,-0.
 00255746,-0.09481386,0.00073534,-0.00980709,-0.02118539,0.00028745,-0.
 00379256,0.00320666,0.00001489,-0.00144923,0.00313360,-0.00004001,0.01
 006538,0.00018378,0.00002323,-0.00014790,0.00038296,0.00000274,0.00067
 080,0.00046061,0.00000596,0.00066834,0.00035043,-0.00000049,0.00011133
 ,0.00016485,-0.00000540,-0.00073093,0.54422577,-0.00017223,0.00021644,
 -0.00209469,0.00009070,0.00073126,-0.04128719,0.00009582,0.00032323,-0
 .00251113,0.00008344,0.00001872,0.00331380,0.00003302,-0.00004598,-0.0
 0019252,-0.00011384,0.00004396,0.00450624,0.00001758,-0.00001325,0.000
 55531,0.00001051,0.00002218,0.00105969,-0.00000781,0.00000629,0.000487
 30,-0.00000027,-0.00000500,-0.00020315,-0.00007063,-0.00041148,0.51369
 795,-0.00251006,-0.00185594,0.00050370,-0.00910939,0.00675769,-0.01013
 277,0.00318285,-0.00382218,-0.00134310,-0.00115496,0.00009170,0.000868
 62,0.00026578,-0.00018531,-0.00024548,-0.00011389,0.00070804,0.0010602
 3,0.00141204,-0.00048862,-0.00121453,0.00042578,0.00062474,-0.00023707
 ,0.00009947,-0.00051284,0.00019244,0.00012142,-0.00003228,-0.00018947,
 -0.10453692,-0.01305749,-0.04749561,0.14586355,-0.00009501,-0.00439028
 ,-0.00265982,-0.01840515,-0.00380331,-0.01376300,0.00364433,-0.0025064
 8,-0.00220937,-0.00094133,-0.00113831,0.00120436,-0.00061274,-0.000496
 86,-0.00012170,-0.00188645,0.00211426,0.00003112,-0.00100954,-0.001533
 01,-0.00021572,-0.00010149,0.00003787,-0.00034501,0.00000763,-0.000469
 96,0.00019540,-0.00007269,-0.00008275,-0.00005009,-0.01361141,-0.06657
 206,-0.01442385,0.00007187,0.07895062,-0.00017167,-0.00301680,0.000331
 87,-0.01299517,0.00870239,-0.00354802,0.00315745,-0.00511661,-0.001000
 36,-0.00203438,0.00014488,0.00052624,0.00037417,-0.00026581,-0.0001134
 8,-0.00074138,0.00077944,0.00031713,0.00002156,-0.00101338,-0.00122217
 ,0.00015577,0.00033328,-0.00034588,0.00012952,-0.00060029,0.00013828,0
 .00002218,-0.00006759,-0.00013042,-0.04785908,-0.01371362,-0.10416677,
 0.07837369,0.00242383,0.14450226,-0.00251248,-0.00184673,-0.00043444,-
 0.00895051,0.00697065,0.00998336,0.00317053,-0.00374958,0.00141618,-0.
 00114702,0.00006732,-0.00085884,0.00026488,-0.00017661,0.00024770,-0.0
 0011583,0.00067377,-0.00107570,0.00142029,-0.00044807,0.00120836,0.000
 42631,0.00062846,0.00021460,0.00009729,-0.00051371,-0.00017831,0.00012
 263,-0.00002668,0.00018847,-0.10388036,-0.01167345,0.04782771,0.007394
 08,0.00062909,-0.01014351,0.14479016,-0.00007014,-0.00423413,0.0027844
 9,-0.01795041,-0.00366381,0.01388874,0.00357259,-0.00230731,0.00221986
 ,-0.00089429,-0.00117344,-0.00115183,-0.00062165,-0.00048600,0.0001361
 5,-0.00186630,0.00209097,-0.00006576,-0.00100875,-0.00150066,0.0002307
 4,-0.00010334,0.00003789,0.00033522,0.00000281,-0.00045852,-0.00017922
 ,-0.00007296,-0.00007960,0.00004919,-0.01221107,-0.06583563,0.01346259
 ,0.00088771,0.00828042,-0.00237999,-0.00206676,0.07887157,0.00019303,0
 .00315372,0.00017634,0.01352492,-0.00874925,-0.00384713,-0.00328487,0.
 00517841,-0.00118696,0.00207101,-0.00009955,0.00055288,-0.00036020,0.0
 0027715,-0.00012347,0.00079539,-0.00083218,0.00034225,-0.00001271,0.00
 102467,-0.00126418,-0.00015840,-0.00034805,-0.00034619,-0.00012941,0.0
 0062005,0.00012897,-0.00002200,0.00006639,-0.00013471,0.04820614,0.012
 74969,-0.10556226,0.00983158,0.00119606,-0.03515607,-0.07834936,-0.000
 62147,0.14566260,-0.00051689,-0.00079799,0.00001269,0.00287584,-0.0000
 6485,-0.00000167,-0.00056495,0.00072561,-0.00000722,0.00037660,0.00039
 791,-0.00000644,0.00028416,-0.00000328,-0.00000155,-0.00000753,-0.0003
 0851,0.00000462,0.00024571,-0.00027208,0.00000199,0.00031916,0.0002331
 4,-0.00000518,-0.00000639,0.00006739,-0.00000105,0.00004775,-0.0000041
 5,-0.00000015,-0.05789066,-0.00244929,0.00003526,-0.00659414,0.0280471
 8,-0.01581943,-0.00638199,0.02826650,0.01505071,0.08488368,-0.00031922
 ,-0.00000855,0.00000169,0.00001528,-0.00134889,0.00004763,0.00030353,-
 0.00002540,0.00000187,-0.00010242,0.00014910,-0.00000050,0.00041239,-0
 .00029454,0.00000011,-0.00139740,0.00070750,-0.00000312,-0.00026058,0.
 00020758,-0.00000527,0.00023073,0.00012821,-0.00000620,-0.00004581,-0.
 00008929,0.00000077,-0.00001373,-0.00007429,0.00000089,-0.00257376,-0.
 14795642,0.00123776,0.01196911,-0.02234678,0.01314120,0.01230117,-0.02
 348858,-0.01279810,0.00417185,0.23646077,0.00000623,0.00000329,0.00002
 807,-0.00000265,0.00004797,0.00216916,-0.00000145,0.00000044,0.0001942
 2,0.00000033,-0.00000224,0.00008402,-0.00000719,0.00000159,-0.00017847
 ,0.00001936,-0.00000698,0.00011631,0.00000178,-0.00000519,-0.00024892,
 -0.00000522,-0.00000626,-0.00026940,0.00000049,0.00000038,-0.00004392,
 -0.00000003,0.00000086,-0.00001199,0.00003681,0.00123720,-0.05740188,-
 0.01567927,0.02920580,-0.00766109,0.01534544,-0.02897270,-0.00673255,-
 0.00005760,-0.00207269,0.08477620,0.00278024,0.00347138,-0.00122831,-0
 .00860110,-0.00675788,-0.00927328,-0.00284085,0.00170402,0.00068886,0.
 00174421,0.00020255,0.00105660,-0.00003156,0.00033640,-0.00024756,-0.0
 0027058,-0.00089961,0.00087064,0.00040745,-0.00071239,-0.00028864,0.00
 184296,0.00033623,-0.00117784,-0.00002147,0.00043628,0.00004493,0.0001
 4630,0.00001479,-0.00019031,-0.10322144,0.01436385,-0.04724657,-0.0005
 1421,-0.00150156,-0.00402816,-0.03550488,0.00419792,-0.01038421,-0.008
 80469,-0.01316280,-0.01698597,0.14579933,-0.00360769,-0.00238656,0.002
 21581,0.01887574,-0.00449273,0.01450890,-0.00038641,-0.00435635,0.0024
 7718,0.00016465,0.00145459,0.00016307,0.00154419,-0.00073960,0.0000595
 3,-0.00123555,-0.00034028,-0.00125902,0.00001270,0.00006767,0.00045546
 ,0.00081712,-0.00143588,0.00024833,-0.00010140,-0.00010468,-0.00002524
 ,0.00003676,-0.00007668,-0.00002126,0.01476894,-0.06732510,0.01645514,
 0.00181806,0.00773760,0.00123385,-0.00173305,0.00698949,-0.00007336,-0
 .02925079,-0.02122982,-0.02785975,-0.00224975,0.07894661,0.00291432,0.
 00519292,-0.00105788,-0.01405091,-0.00780685,-0.00395793,-0.00021030,0
 .00313512,0.00018942,0.00072206,-0.00016387,0.00046141,-0.00015681,0.0
 0044256,-0.00009880,-0.00057862,-0.00101276,0.00045410,0.00020055,-0.0
 0039195,-0.00041164,0.00005866,0.00087862,-0.00116965,0.00001119,0.000
 31437,-0.00004520,0.00004080,0.00006226,-0.00011469,-0.04776087,0.0156
 1418,-0.10520877,-0.00417182,-0.00126551,-0.00188497,0.01057283,-0.000
 70366,0.00933362,-0.01581514,-0.01185839,-0.00675217,0.07869498,-0.005
 40143,0.14528087,0.00276893,0.00346782,0.00110818,-0.00844260,-0.00644
 995,0.00948425,-0.00284461,0.00166308,-0.00071303,0.00173205,0.0001745
 1,-0.00107057,-0.00002905,0.00033990,0.00023801,-0.00027263,-0.0009158
 0,-0.00084104,0.00040819,-0.00070165,0.00030202,0.00185104,0.00036165,
 0.00114701,-0.00002191,0.00043273,-0.00005685,0.00014737,0.00001948,0.
 00018800,-0.10256957,0.01552975,0.04682489,-0.03550398,0.00448719,0.01
 057373,-0.00045820,-0.00138429,0.00405741,-0.00857590,-0.01261404,0.01
 734473,0.00723108,-0.00082991,-0.00985121,0.14471729,-0.00370118,-0.00
 258725,-0.00214845,0.01915056,-0.00467450,-0.01462240,-0.00039806,-0.0
 0450670,-0.00234712,0.00014392,0.00145376,-0.00019121,0.00154739,-0.00
 075291,-0.00005263,-0.00121009,-0.00027767,0.00128726,0.00000391,0.000
 06570,-0.00046837,0.00081380,-0.00146737,-0.00024663,-0.00010149,-0.00
 011249,0.00002777,0.00003579,-0.00007785,0.00002003,0.01594129,-0.0682
 2721,-0.01757276,-0.00201433,0.00701203,0.00014912,0.00192128,0.007731
 45,-0.00150855,-0.02861779,-0.02013793,0.02841886,-0.00054933,0.008321
 22,0.00186278,-0.00433952,0.07929279,-0.00284097,-0.00517536,-0.000845
 77,0.01356637,0.00787010,-0.00393513,0.00024232,-0.00301939,0.00034171
 ,-0.00073488,0.00013560,0.00047462,0.00011422,-0.00042715,-0.00008815,
 0.00061687,0.00103914,0.00039328,-0.00020652,0.00038391,-0.00041009,-0
 .00010162,-0.00087363,-0.00114685,-0.00000857,-0.00031552,-0.00003697,
 -0.00004362,-0.00006339,-0.00011453,0.04732785,-0.01672996,-0.10495669
 ,-0.01021454,0.00073686,0.00931037,0.00411116,0.00101374,-0.00193498,0
 .01660934,0.01230721,-0.00807337,0.00957963,-0.00303836,-0.03515432,-0
 .07860155,0.00723072,0.14601825,-0.00764927,0.02566019,-0.00029739,0.0
 0082745,-0.00481069,0.00007647,-0.00457126,0.00488787,-0.00005454,0.00
 224686,-0.00801681,0.00012330,-0.05132608,0.02143408,-0.00007916,-0.25
 538883,0.04605924,0.00011975,-0.00002355,-0.00043530,-0.00000551,0.000
 32960,-0.00013019,-0.00000095,-0.00153981,0.00110487,-0.00001004,0.001
 46393,0.00043284,-0.00001988,-0.00236125,-0.00640260,0.00009468,0.0012
 5302,0.00145579,0.00099157,0.00124514,0.00142785,-0.00103813,0.0002828
 6,0.00120825,-0.00001730,-0.00009729,0.00141088,-0.00055237,-0.0000945
 3,0.00142663,0.00051560,0.39260646,0.05630855,-0.04127668,0.00045348,-
 0.00894527,-0.00158085,0.00010676,0.00641086,0.00195101,-0.00006572,-0
 .00165556,-0.00666590,0.00018338,-0.00593664,0.01445525,-0.00005383,0.
 08601260,-0.13695397,0.00097396,0.00060788,0.00284439,-0.00008470,-0.0
 0003311,0.00039504,-0.00001148,-0.00047747,0.00036656,-0.00000509,0.00
 190108,-0.00040341,-0.00003585,0.00156663,0.00521428,-0.00007850,-0.00
 112496,-0.00129886,-0.00097139,-0.00112168,-0.00127360,0.00101847,-0.0
 0011540,-0.00116773,0.00001662,0.00105440,-0.00161299,0.00140235,0.001
 04121,-0.00164614,-0.00136057,-0.11151056,0.47245436,-0.00071277,0.000
 56158,0.00673875,0.00013300,0.00009196,0.00397260,-0.00007556,-0.00006
 086,-0.00122862,0.00003687,0.00020647,0.00642430,0.00029335,-0.0001504
 6,0.00896822,-0.00041978,0.00111230,-0.04278055,-0.00001958,-0.0000810
 9,-0.00324750,-0.00000232,-0.00001115,-0.00046040,0.00001144,-0.000010
 70,-0.00013545,-0.00003983,-0.00003070,-0.00254917,-0.00001345,-0.0000
 5038,-0.00016226,0.00014375,0.00007853,0.00017532,-0.00012093,-0.00004
 926,0.00015812,0.00000066,0.00001195,0.00002671,0.00012256,-0.00014565
 ,0.00015836,-0.00014902,0.00018448,0.00018840,0.00037100,-0.00508595,0
 .06732311,-0.00439870,-0.00057968,0.00003259,-0.00021146,0.00113828,-0
 .00001015,0.00042788,0.00034890,-0.00000538,0.00052718,0.00051481,-0.0
 0000813,-0.00188999,0.00305894,-0.00003809,-0.00819501,0.04262144,-0.0
 0056487,0.00021118,0.00033358,-0.00000779,-0.00000047,0.00003176,-0.00
 000114,0.00008756,-0.00007423,0.00000068,-0.00195329,0.00175916,-0.000
 01773,-0.00029573,0.00031250,-0.00000241,0.00003386,-0.00005372,0.0000
 3127,0.00003406,-0.00005445,-0.00003063,0.00003044,-0.00006824,0.00000
 071,-0.00007640,0.00004221,-0.00010633,-0.00007555,0.00004506,0.000105
 35,-0.08538688,-0.02480120,0.00042919,0.61738055,-0.00081237,0.0056735
 4,-0.00003869,-0.00000608,-0.00198488,0.00004494,-0.00165947,0.0019353
 6,-0.00001720,0.00009627,-0.00279390,0.00004007,-0.00671946,0.00642845
 ,-0.00007698,0.02193179,-0.03127185,0.00027569,-0.00010943,-0.00037017
 ,-0.00000454,0.00007149,-0.00018915,-0.00000026,-0.00057165,0.00025122
 ,-0.00000146,-0.00092464,-0.00094101,0.00001302,0.00018471,-0.00329530
 ,0.00004722,0.00030939,0.00076567,0.00040110,0.00030811,0.00075488,-0.
 00042613,-0.00001458,0.00072493,-0.00001020,-0.00047315,0.00083731,-0.
 00053413,-0.00046910,0.00085151,0.00051325,0.00655073,-0.21132645,0.00
 204394,-0.00070184,0.43878089,0.00003536,-0.00003885,0.00263559,0.0000
 0531,0.00004092,0.00132521,0.00002188,-0.00002400,0.00023743,-0.000002
 40,0.00003827,0.00018870,0.00009382,-0.00011114,-0.00099594,-0.0002853
 8,0.00020395,-0.00517685,-0.00000186,-0.00000615,-0.00073189,-0.000001
 65,-0.00000015,-0.00019187,0.00000739,-0.00000318,-0.00000383,0.000018
 62,0.00000325,-0.00022842,-0.00000065,0.00004661,0.00022824,-0.0000645
 3,-0.00002597,-0.00009076,0.00005535,0.00000344,-0.00008017,-0.0000000
 2,-0.00000998,-0.00003004,-0.00000965,-0.00000978,-0.00003544,0.000022
 54,-0.00001449,-0.00005035,0.00000620,0.00215181,-0.05836570,-0.000166
 05,0.00173589,0.56721600,0.00003925,-0.00003546,0.00000130,-0.00011947
 ,0.00004302,-0.00000029,-0.00006371,0.00016022,-0.00000223,0.00023226,
 0.00011587,-0.00000155,-0.00029467,-0.00043265,0.00000782,0.00214797,-
 0.00114344,0.00001024,-0.00002144,0.00000120,0.00000014,0.00000566,0.0
 0002086,-0.00000039,-0.00000344,-0.00000710,0.00000023,0.00014905,0.00
 043575,-0.00000807,-0.00005640,-0.00042506,0.00000612,0.00006242,0.000
 08302,0.00005229,0.00006216,0.00008155,-0.00005515,0.00000758,0.000074
 62,-0.00000107,-0.00003908,0.00008662,-0.00004598,-0.00003871,0.000087
 71,0.00004377,0.00185198,0.00313035,-0.00004817,-0.31411632,0.05830211
 ,0.00015002,0.33243254,0.00172071,-0.00073490,0.00000743,-0.00045033,-
 0.00021367,0.00000409,0.00009503,0.00011101,-0.00000293,0.00036633,0.0
 0027077,-0.00000189,-0.00091635,-0.00079813,0.00001753,-0.00208953,-0.
 00496734,0.00008211,-0.00001302,0.00000565,0.00000026,0.00000554,0.000
 04532,-0.00000092,0.00005443,-0.00003921,0.00000081,0.00006546,0.00071
 872,-0.00001605,0.00016170,0.00025339,-0.00000343,-0.00008300,-0.00006
 735,-0.00005661,-0.00008217,-0.00006585,0.00005825,-0.00001369,-0.0000
 4978,0.00000061,0.00006760,-0.00009600,0.00009062,0.00006720,-0.000098
 93,-0.00008882,0.04140976,-0.02439288,0.00018703,0.04437362,-0.0540530
 5,-0.00011434,-0.06391347,0.07581247,-0.00002244,0.00001351,0.00025970
 ,0.00000631,0.00000228,-0.00003354,-0.00000129,-0.00000308,-0.00007818
 ,-0.00000494,-0.00000106,0.00022508,0.00001423,0.00001581,0.00025168,0
 .00002258,0.00007964,0.00061013,0.00000033,0.00000024,0.00002373,-0.00
 000017,-0.00000098,-0.00002145,-0.00000060,0.00000102,0.00003469,-0.00
 000303,-0.00001730,-0.00044830,-0.00000184,-0.00000136,0.00004259,-0.0
 0001560,0.00000229,-0.00002690,0.00001721,-0.00000182,-0.00002813,0.00
 000013,0.00000030,-0.00000805,-0.00000875,0.00001895,-0.00001565,0.000
 00710,-0.00001731,-0.00001309,-0.00056486,0.00032234,0.00029870,0.0003
 3831,-0.00016380,-0.05079616,-0.00015374,-0.00016465,0.04679421,-0.000
 22832,0.00036690,-0.00028479,0.00065607,0.00009216,-0.00007495,-0.0001
 7620,-0.00071372,-0.00001795,-0.00044320,0.00065022,-0.00048505,0.0004
 2628,-0.00084318,0.00020557,0.00108745,0.00040788,0.00146823,-0.000001
 64,0.00001190,0.00001361,-0.00001112,-0.00000258,0.00008026,0.00002988
 ,0.00000379,0.00003988,-0.00090649,0.00078357,0.00106356,0.00005636,0.
 00034675,-0.00004963,-0.00002313,-0.00006885,-0.00002526,-0.00005295,-
 0.00006435,0.00006730,-0.00000526,-0.00006443,0.00000778,0.00004140,-0
 .00010059,0.00005380,0.00003038,-0.00008356,-0.00002907,0.00319088,-0.
 00112381,0.00360465,-0.10172934,-0.03916439,-0.09366210,-0.01120957,-0
 .01076273,-0.02610083,0.10265025,0.00093837,-0.00173838,0.00060625,-0.
 00087647,0.00034364,0.00038686,0.00066798,0.00035608,-0.00009823,0.000
 32653,-0.00036712,0.00031008,0.00078810,0.00069378,0.00018204,-0.00710
 726,0.00389576,-0.00139509,0.00003062,0.00020621,-0.00022857,0.0000041
 4,0.00003659,-0.00005835,0.00005641,-0.00002682,-0.00001283,0.00067189
 ,-0.00008485,-0.00066906,-0.00006611,0.00033105,-0.00013933,-0.0000269
 4,-0.00009211,-0.00003312,-0.00003327,-0.00009824,0.00007680,0.0000016
 0,-0.00008013,0.00001075,0.00006168,-0.00006931,0.00008652,0.00005901,
 -0.00008999,-0.00005397,-0.01163425,-0.03448797,-0.02789462,-0.0356075
 8,-0.07723729,-0.06799563,0.00169816,0.00427869,0.00581906,0.04485671,
 0.09758881,0.00039030,-0.00037121,-0.00021505,-0.00009406,0.00019378,-
 0.00003692,0.00005604,-0.00006396,-0.00004492,0.00017516,0.00049052,-0
 .00009319,-0.00041148,-0.00110363,-0.00001165,-0.00167178,0.00086504,0
 .00066787,-0.00000615,0.00008230,0.00000054,-0.00000148,0.00005711,0.0
 0002710,0.00003049,-0.00002906,0.00000924,0.00050542,0.00051583,-0.000
 10103,-0.00008884,-0.00003846,-0.00006920,0.00005164,0.00000609,0.0000
 4412,0.00002315,0.00000348,-0.00000140,0.00001236,-0.00001499,0.000008
 62,0.00001256,-0.00000316,0.00002161,-0.00000023,0.00000245,0.00000942
 ,0.00377229,-0.00404711,0.00766989,-0.09247394,-0.07269007,-0.22501605
 ,0.00077389,0.00145709,0.00145666,0.10170266,0.08327680,0.23595418,-0.
 00022923,0.00037718,0.00027487,0.00065723,0.00009270,0.00006760,-0.000
 17642,-0.00071243,0.00003821,-0.00044103,0.00065957,0.00046980,0.00042
 784,-0.00084071,-0.00018596,0.00108927,0.00036161,-0.00148131,-0.00000
 169,0.00001093,-0.00001392,-0.00001167,-0.00000516,-0.00007988,0.00002
 937,0.00000292,-0.00004012,-0.00091744,0.00075074,-0.00107846,0.000057
 28,0.00034818,0.00003927,-0.00005358,-0.00006616,-0.00006517,-0.000023
 30,-0.00006817,0.00002758,-0.00000540,-0.00006450,-0.00000593,0.000030
 58,-0.00008274,0.00003118,0.00004093,-0.00010198,-0.00005115,0.0031405
 6,-0.00118791,-0.00354506,-0.10040357,-0.03612842,0.09377777,-0.011028
 06,-0.01006309,0.02647189,0.00661830,0.00519068,-0.01275801,0.10120002
 ,0.00092348,-0.00174379,-0.00057130,-0.00087628,0.00032767,-0.00039061
 ,0.00066679,0.00036008,0.00008257,0.00031948,-0.00038855,-0.00030433,0
 .00079763,0.00071805,-0.00020737,-0.00704981,0.00390788,0.00135711,0.0
 0003237,0.00021005,0.00022268,0.00000459,0.00003662,0.00005806,0.00005
 566,-0.00002567,0.00001338,0.00066275,-0.00008074,0.00066393,-0.000062
 74,0.00033560,0.00012878,-0.00003442,-0.00010033,-0.00007390,-0.000028
 08,-0.00009128,0.00003698,0.00000120,-0.00007996,-0.00000836,0.0000593
 9,-0.00008853,0.00005624,0.00006074,-0.00007152,-0.00008442,-0.0115285
 7,-0.03359346,0.02909256,-0.03263931,-0.07354071,0.06412951,0.00163610
 ,0.00408108,-0.00590411,0.00547230,0.00664160,-0.00858886,0.04152675,0
 .09318591,-0.00041528,0.00040977,-0.00020888,0.00011289,-0.00020426,-0
 .00002223,-0.00007315,0.00005805,-0.00004875,-0.00018137,-0.00048722,-
 0.00007380,0.00038693,0.00108991,-0.00003764,0.00185993,-0.00095528,0.
 00065318,0.00000530,-0.00008804,-0.00000319,0.00000163,-0.00005733,0.0
 0002765,-0.00003216,0.00002999,0.00000858,-0.00051763,-0.00052164,-0.0
 0009365,0.00008966,0.00002500,-0.00007463,-0.00002186,-0.00000033,0.00
 000131,-0.00005043,-0.00000193,0.00004345,-0.00001230,0.00001785,0.000
 00857,-0.00000152,0.00000079,0.00000775,-0.00001436,0.00000642,0.00002
 426,-0.00343073,0.00517102,0.00682719,0.09249452,0.06884833,-0.2300377
 2,-0.00072920,-0.00145618,0.00147228,0.01242233,0.00782365,-0.02027983
 ,-0.10189322,-0.07970855,0.24180612\\0.00006483,-0.00005992,0.00000055
 ,-0.00006156,0.00006837,-0.00000087,0.00002428,-0.00000089,-0.00000015
 ,0.00001234,0.00000945,-0.00000019,-0.00000085,-0.00005056,0.00000062,
 0.00001010,0.00003784,0.00000011,-0.00000767,0.00001087,-0.00000004,-0
 .00000839,0.00000067,0.00000002,-0.00001290,-0.00000160,0.00000002,0.0
 0000688,-0.00000099,-0.00000009,0.00001132,0.00004405,0.00000047,-0.00
 000213,0.00000727,0.00000326,-0.00000159,0.00000707,-0.00000393,-0.000
 00713,-0.00009992,0.00000141,0.00000025,0.00000821,0.00000509,0.000000
 62,0.00000816,-0.00000580,-0.00000791,0.00006223,-0.00000158,-0.000018
 61,-0.00007118,0.00000137,0.00002072,0.00001432,-0.00000014,-0.0000112
 5,0.00000288,-0.00002463,-0.00001135,0.00000366,0.00002449\\\@


 WE DON'T KNOW ONE MILLIONTH OF ONE PERCENT ABOUT
 ANYTHING.
                                     T. A. EDISON.
 Job cpu time:       0 days  1 hours 27 minutes 36.0 seconds.
 File lengths (MBytes):  RWF=    310 Int=      0 D2E=      0 Chk=     11 Scr=      1
 Normal termination of Gaussian 09 at Mon Jan  9 17:17:11 2023.
