 Entering Gaussian System, Link 0=g09
 Initial command:
 /cm/shared/apps/gaussian/g09revD.01/g09/l1.exe "//home/sweav003/CHB/validation/natProd2/G09-ChemRevAminoAcids9_Brimble.com.o9824395.tmp/Gau-12996.inp" -scrdir="//home/sweav003/CHB/validation/natProd2/G09-ChemRevAminoAcids9_Brimble.com.o9824395.tmp/"
 Entering Link 1 = /cm/shared/apps/gaussian/g09revD.01/g09/l1.exe PID=     12997.
  
 Copyright (c) 1988,1990,1992,1993,1995,1998,2003,2009,2013,
            Gaussian, Inc.  All Rights Reserved.
  
 This is part of the Gaussian(R) 09 program.  It is based on
 the Gaussian(R) 03 system (copyright 2003, Gaussian, Inc.),
 the Gaussian(R) 98 system (copyright 1998, Gaussian, Inc.),
 the Gaussian(R) 94 system (copyright 1995, Gaussian, Inc.),
 the Gaussian 92(TM) system (copyright 1992, Gaussian, Inc.),
 the Gaussian 90(TM) system (copyright 1990, Gaussian, Inc.),
 the Gaussian 88(TM) system (copyright 1988, Gaussian, Inc.),
 the Gaussian 86(TM) system (copyright 1986, Carnegie Mellon
 University), and the Gaussian 82(TM) system (copyright 1983,
 Carnegie Mellon University). Gaussian is a federally registered
 trademark of Gaussian, Inc.
  
 This software contains proprietary and confidential information,
 including trade secrets, belonging to Gaussian, Inc.
  
 This software is provided under written license and may be
 used, copied, transmitted, or stored only in accord with that
 written license.
  
 The following legend is applicable only to US Government
 contracts under FAR:
  
                    RESTRICTED RIGHTS LEGEND
  
 Use, reproduction and disclosure by the US Government is
 subject to restrictions as set forth in subparagraphs (a)
 and (c) of the Commercial Computer Software - Restricted
 Rights clause in FAR 52.227-19.
  
 Gaussian, Inc.
 340 Quinnipiac St., Bldg. 40, Wallingford CT 06492
  
  
 ---------------------------------------------------------------
 Warning -- This program may not be used in any manner that
 competes with the business of Gaussian, Inc. or will provide
 assistance to any competitor of Gaussian, Inc.  The licensee
 of this program is prohibited from giving any competitor of
 Gaussian, Inc. access to this program.  By using this program,
 the user acknowledges that Gaussian, Inc. is engaged in the
 business of creating and licensing software in the field of
 computational chemistry and represents and warrants to the
 licensee that it is not a competitor of Gaussian, Inc. and that
 it will not use this program in any manner prohibited above.
 ---------------------------------------------------------------
  

 Cite this work as:
 Gaussian 09, Revision D.01,
 M. J. Frisch, G. W. Trucks, H. B. Schlegel, G. E. Scuseria, 
 M. A. Robb, J. R. Cheeseman, G. Scalmani, V. Barone, B. Mennucci, 
 G. A. Petersson, H. Nakatsuji, M. Caricato, X. Li, H. P. Hratchian, 
 A. F. Izmaylov, J. Bloino, G. Zheng, J. L. Sonnenberg, M. Hada, 
 M. Ehara, K. Toyota, R. Fukuda, J. Hasegawa, M. Ishida, T. Nakajima, 
 Y. Honda, O. Kitao, H. Nakai, T. Vreven, J. A. Montgomery, Jr., 
 J. E. Peralta, F. Ogliaro, M. Bearpark, J. J. Heyd, E. Brothers, 
 K. N. Kudin, V. N. Staroverov, T. Keith, R. Kobayashi, J. Normand, 
 K. Raghavachari, A. Rendell, J. C. Burant, S. S. Iyengar, J. Tomasi, 
 M. Cossi, N. Rega, J. M. Millam, M. Klene, J. E. Knox, J. B. Cross, 
 V. Bakken, C. Adamo, J. Jaramillo, R. Gomperts, R. E. Stratmann, 
 O. Yazyev, A. J. Austin, R. Cammi, C. Pomelli, J. W. Ochterski, 
 R. L. Martin, K. Morokuma, V. G. Zakrzewski, G. A. Voth, 
 P. Salvador, J. J. Dannenberg, S. Dapprich, A. D. Daniels, 
 O. Farkas, J. B. Foresman, J. V. Ortiz, J. Cioslowski, 
 and D. J. Fox, Gaussian, Inc., Wallingford CT, 2013.
 
 ******************************************
 Gaussian 09:  ES64L-G09RevD.01 24-Apr-2013
                24-Jan-2023 
 ******************************************
 %nprocshared=20
 Will use up to   20 processors via shared memory.
 %mem=4GB
 %chk=ChemRevAminoAcids9_Brimble.chk
 ----------------------------------------------------------------------
 # opt=rcfc freq=noraman b3lyp/6-311+g(d,p) pop=(npa,hirshfeld,chelpg,m
 bs) geom=allcheck guess=read
 ----------------------------------------------------------------------
 1/10=5,14=-1,18=20,19=15,26=3,29=7,38=1/1,3;
 2/9=110,12=2,40=1/2;
 3/5=4,6=6,7=111,11=2,14=-4,16=1,25=1,30=1,71=1,74=-5,116=-2/1,2,3;
 4/5=1/1;
 5/5=2,38=6/2;
 6/7=2,8=2,9=2,10=2,15=8,20=3,27=100,28=1,40=-1,79=1/1,2,7;
 7//1,2,3,16;
 1/14=-1,18=20,19=15,26=3/3(2);
 2/9=110/2;
 99//99;
 2/9=110/2;
 3/5=4,6=6,7=111,11=2,14=-2,16=1,25=1,30=1,71=1,74=-5/1,2,3;
 4/5=5,16=3,69=1/1;
 5/5=2,38=5/2;
 7//1,2,3,16;
 1/14=-1,18=20,19=15,26=3/3(-5);
 2/9=110/2;
 6/7=2,8=2,9=2,10=2,15=8,19=2,20=3,27=100,28=1,40=-1,79=1/1,2,7;
 99/9=1/99;
 Structure from the checkpoint file:  "ChemRevAminoAcids9_Brimble.chk"
 -------------------
 Title Card Required
 -------------------
 Charge =  0 Multiplicity = 1
 Redundant internal coordinates found in file.
 C,0,-1.4539501223,-0.0580947296,-1.3573495419
 C,0,-2.6178238607,0.4331086273,-2.011369373
 C,0,-3.1072234144,-0.2576290301,-3.130500874
 C,0,-2.4413987838,-1.3954290612,-3.5670505414
 C,0,-1.2901517179,-1.8614932859,-2.9060306094
 C,0,-0.7822285921,-1.2000476783,-1.7936925432
 C,0,-2.1380650872,1.795574985,-0.2764181322
 C,0,-3.0311397284,1.6120325386,-1.2959814307
 H,0,-3.9924495502,0.0927065691,-3.6502442552
 H,0,-2.8110297102,-1.9353045915,-4.4314670698
 H,0,-0.7900889071,-2.7519101739,-3.2696454669
 H,0,0.104997177,-1.5628822102,-1.2858527156
 H,0,-0.3993817086,0.7163077005,0.3246652421
 N,0,-1.1875748659,0.790198277,-0.296503373
 C,0,-4.1930942938,2.5366135856,-1.5149204847
 H,0,-4.0031065434,3.2149494338,-2.3550881647
 H,0,-5.1056986603,1.9820424838,-1.7475070689
 C,0,-2.1999860046,2.9043574557,0.7253780349
 H,0,-2.4980536652,2.4991328857,1.711931734
 H,0,-1.2172671853,3.372025547,0.8536544648
 H,0,-3.2844801661,4.6612320699,0.8855434088
 N,0,-3.1289251672,3.9135434143,0.2194912486
 C,0,-4.4026266715,3.3591525339,-0.2283593832
 H,0,-4.8422955852,2.6770819991,0.5275477646
 C,0,-5.4085829243,4.4932583949,-0.3579435174
 O,0,-5.3033696964,5.5631437081,0.1928930025
 O,0,-6.4634330521,4.1455883584,-1.1151807204
 C,0,-7.5064851089,5.1327118535,-1.2400847217
 H,0,-8.2601380332,4.6772832623,-1.8782973741
 H,0,-7.9232958002,5.3709244958,-0.2606682968
 H,0,-7.1144559104,6.0427601111,-1.6952071324
 Recover connectivity data from disk.

 GradGradGradGradGradGradGradGradGradGradGradGradGradGradGradGradGradGrad
 Berny optimization.
 Initialization pass.
 Cartesian force constants read from checkpoint file:
 "ChemRevAminoAcids9_Brimble.chk"
 FormGI is forming the generalized inverse of G from B-inverse, IUseBI=4.
                           ----------------------------
                           !    Initial Parameters    !
                           ! (Angstroms and Degrees)  !
 --------------------------                            --------------------------
 ! Name  Definition              Value          Derivative Info.                !
 --------------------------------------------------------------------------------
 ! R1    R(1,2)                  1.4225         D2E/DX2 =    0.2705             !
 ! R2    R(1,6)                  1.3949         D2E/DX2 =    0.3862             !
 ! R3    R(1,14)                 1.3842         D2E/DX2 =    0.3357             !
 ! R4    R(2,3)                  1.4032         D2E/DX2 =    0.3741             !
 ! R5    R(2,8)                  1.4396         D2E/DX2 =    0.2943             !
 ! R6    R(3,4)                  1.3887         D2E/DX2 =    0.4015             !
 ! R7    R(3,9)                  1.0847         D2E/DX2 =    0.3544             !
 ! R8    R(4,5)                  1.407          D2E/DX2 =    0.3611             !
 ! R9    R(4,10)                 1.0841         D2E/DX2 =    0.3554             !
 ! R10   R(5,6)                  1.3902         D2E/DX2 =    0.3996             !
 ! R11   R(5,11)                 1.084          D2E/DX2 =    0.3558             !
 ! R12   R(6,12)                 1.0848         D2E/DX2 =    0.3539             !
 ! R13   R(7,8)                  1.3678         D2E/DX2 =    0.3386             !
 ! R14   R(7,14)                 1.3837         D2E/DX2 =    0.3308             !
 ! R15   R(7,18)                 1.4956         D2E/DX2 =    0.2726             !
 ! R16   R(8,15)                 1.501          D2E/DX2 =    0.271              !
 ! R17   R(13,14)                1.0063         D2E/DX2 =    0.4782             !
 ! R18   R(15,16)                1.0964         D2E/DX2 =    0.3241             !
 ! R19   R(15,17)                1.0929         D2E/DX2 =    0.3336             !
 ! R20   R(15,23)                1.5413         D2E/DX2 =    0.2324             !
 ! R21   R(18,19)                1.1074         D2E/DX2 =    0.2963             !
 ! R22   R(18,20)                1.0959         D2E/DX2 =    0.3251             !
 ! R23   R(18,22)                1.462          D2E/DX2 =    0.2838             !
 ! R24   R(21,22)                1.0133         D2E/DX2 =    0.4498             !
 ! R25   R(22,23)                1.4595         D2E/DX2 =    0.2704             !
 ! R26   R(23,24)                1.109          D2E/DX2 =    0.2947             !
 ! R27   R(23,25)                1.5215         D2E/DX2 =    0.2754             !
 ! R28   R(25,26)                1.208          D2E/DX2 =    0.8281             !
 ! R29   R(25,27)                1.3442         D2E/DX2 =    0.3954             !
 ! R30   R(27,28)                1.4415         D2E/DX2 =    0.3083             !
 ! R31   R(28,29)                1.0875         D2E/DX2 =    0.3488             !
 ! R32   R(28,30)                1.0907         D2E/DX2 =    0.3401             !
 ! R33   R(28,31)                1.0904         D2E/DX2 =    0.3409             !
 ! A1    A(2,1,6)              122.1996         D2E/DX2 =    0.0771             !
 ! A2    A(2,1,14)             107.3491         D2E/DX2 =    0.0876             !
 ! A3    A(6,1,14)             130.4513         D2E/DX2 =    0.0938             !
 ! A4    A(1,2,3)              118.819          D2E/DX2 =    0.0746             !
 ! A5    A(1,2,8)              106.8103         D2E/DX2 =    0.0824             !
 ! A6    A(3,2,8)              134.3707         D2E/DX2 =    0.0857             !
 ! A7    A(2,3,4)              119.1307         D2E/DX2 =    0.0807             !
 ! A8    A(2,3,9)              120.5177         D2E/DX2 =    0.0796             !
 ! A9    A(4,3,9)              120.3515         D2E/DX2 =    0.0797             !
 ! A10   A(3,4,5)              121.0666         D2E/DX2 =    0.0818             !
 ! A11   A(3,4,10)             119.6826         D2E/DX2 =    0.0818             !
 ! A12   A(5,4,10)             119.2508         D2E/DX2 =    0.0816             !
 ! A13   A(4,5,6)              121.1477         D2E/DX2 =    0.0812             !
 ! A14   A(4,5,11)             119.4695         D2E/DX2 =    0.0814             !
 ! A15   A(6,5,11)             119.3827         D2E/DX2 =    0.0816             !
 ! A16   A(1,6,5)              117.6362         D2E/DX2 =    0.0798             !
 ! A17   A(1,6,12)             121.4165         D2E/DX2 =    0.078              !
 ! A18   A(5,6,12)             120.9473         D2E/DX2 =    0.0787             !
 ! A19   A(8,7,14)             109.889          D2E/DX2 =    0.0867             !
 ! A20   A(8,7,18)             124.8728         D2E/DX2 =    0.0728             !
 ! A21   A(14,7,18)            125.2277         D2E/DX2 =    0.0944             !
 ! A22   A(2,8,7)              107.0289         D2E/DX2 =    0.0832             !
 ! A23   A(2,8,15)             130.8602         D2E/DX2 =    0.0852             !
 ! A24   A(7,8,15)             122.1094         D2E/DX2 =    0.0675             !
 ! A25   A(1,14,7)             108.9184         D2E/DX2 =    0.0902             !
 ! A26   A(1,14,13)            125.3693         D2E/DX2 =    0.0765             !
 ! A27   A(7,14,13)            125.6232         D2E/DX2 =    0.0765             !
 ! A28   A(8,15,16)            111.0225         D2E/DX2 =    0.0336             !
 ! A29   A(8,15,17)            111.4006         D2E/DX2 =    0.0364             !
 ! A30   A(8,15,23)            108.1923         D2E/DX2 =    0.0622             !
 ! A31   A(16,15,17)           107.1905         D2E/DX2 =    0.0185             !
 ! A32   A(16,15,23)           109.452          D2E/DX2 =    0.0385             !
 ! A33   A(17,15,23)           109.5669         D2E/DX2 =    0.0414             !
 ! A34   A(7,18,19)            109.6694         D2E/DX2 =    0.0418             !
 ! A35   A(7,18,20)            110.9567         D2E/DX2 =    0.0427             !
 ! A36   A(7,18,22)            107.8355         D2E/DX2 =    0.0664             !
 ! A37   A(19,18,20)           107.0527         D2E/DX2 =    0.0229             !
 ! A38   A(19,18,22)           112.9448         D2E/DX2 =    0.0433             !
 ! A39   A(20,18,22)           108.4044         D2E/DX2 =    0.0477             !
 ! A40   A(18,22,21)           112.2984         D2E/DX2 =    0.0479             !
 ! A41   A(18,22,23)           113.4834         D2E/DX2 =    0.0606             !
 ! A42   A(21,22,23)           110.3642         D2E/DX2 =    0.0476             !
 ! A43   A(15,23,22)           109.8888         D2E/DX2 =    0.0465             !
 ! A44   A(15,23,24)           107.1348         D2E/DX2 =    0.0251             !
 ! A45   A(15,23,25)           114.6182         D2E/DX2 =    0.069              !
 ! A46   A(22,23,24)           111.7425         D2E/DX2 =    0.0221             !
 ! A47   A(22,23,25)           108.6621         D2E/DX2 =    0.0679             !
 ! A48   A(24,23,25)           104.736          D2E/DX2 =    0.0208             !
 ! A49   A(23,25,26)           124.3169         D2E/DX2 =    0.1688             !
 ! A50   A(23,25,27)           111.9637         D2E/DX2 =    0.1765             !
 ! A51   A(26,25,27)           123.6627         D2E/DX2 =    0.2129             !
 ! A52   A(25,27,28)           116.0723         D2E/DX2 =    0.2885             !
 ! A53   A(27,28,29)           105.3977         D2E/DX2 =    0.1421             !
 ! A54   A(27,28,30)           110.3804         D2E/DX2 =    0.1417             !
 ! A55   A(27,28,31)           110.3364         D2E/DX2 =    0.1415             !
 ! A56   A(29,28,30)           110.7069         D2E/DX2 =    0.0686             !
 ! A57   A(29,28,31)           110.7144         D2E/DX2 =    0.0685             !
 ! A58   A(30,28,31)           109.2626         D2E/DX2 =    0.0703             !
 ! D1    D(6,1,2,3)              0.18           D2E/DX2 =    0.0039             !
 ! D2    D(6,1,2,8)           -179.8863         D2E/DX2 =    0.0034             !
 ! D3    D(14,1,2,3)          -179.8092         D2E/DX2 =    0.0038             !
 ! D4    D(14,1,2,8)             0.1245         D2E/DX2 =    0.006              !
 ! D5    D(2,1,6,5)             -0.0924         D2E/DX2 =    0.0064             !
 ! D6    D(2,1,6,12)           179.9363         D2E/DX2 =    0.0062             !
 ! D7    D(14,1,6,5)           179.8941         D2E/DX2 =    0.0075             !
 ! D8    D(14,1,6,12)           -0.0772         D2E/DX2 =    0.007              !
 ! D9    D(2,1,14,7)            -0.4913         D2E/DX2 =    0.0068             !
 ! D10   D(2,1,14,13)         -177.2091         D2E/DX2 =    0.0028             !
 ! D11   D(6,1,14,7)           179.5207         D2E/DX2 =    0.0043             !
 ! D12   D(6,1,14,13)            2.8029         D2E/DX2 =    0.0023             !
 ! D13   D(1,2,3,4)             -0.1317         D2E/DX2 =    0.0066             !
 ! D14   D(1,2,3,9)           -179.9847         D2E/DX2 =    0.0066             !
 ! D15   D(8,2,3,4)            179.9571         D2E/DX2 =    0.0072             !
 ! D16   D(8,2,3,9)              0.1041         D2E/DX2 =    0.007              !
 ! D17   D(1,2,8,7)              0.2881         D2E/DX2 =    0.0057             !
 ! D18   D(1,2,8,15)          -179.266          D2E/DX2 =    0.0053             !
 ! D19   D(3,2,8,7)           -179.7932         D2E/DX2 =    0.0042             !
 ! D20   D(3,2,8,15)             0.6527         D2E/DX2 =    0.0042             !
 ! D21   D(2,3,4,5)              0.0045         D2E/DX2 =    0.0092             !
 ! D22   D(2,3,4,10)          -179.9265         D2E/DX2 =    0.0085             !
 ! D23   D(9,3,4,5)            179.8578         D2E/DX2 =    0.0076             !
 ! D24   D(9,3,4,10)            -0.0732         D2E/DX2 =    0.0085             !
 ! D25   D(3,4,5,6)              0.0852         D2E/DX2 =    0.0092             !
 ! D26   D(3,4,5,11)          -179.9308         D2E/DX2 =    0.0078             !
 ! D27   D(10,4,5,6)          -179.9835         D2E/DX2 =    0.008              !
 ! D28   D(10,4,5,11)            0.0005         D2E/DX2 =    0.0083             !
 ! D29   D(4,5,6,1)             -0.0403         D2E/DX2 =    0.009              !
 ! D30   D(4,5,6,12)           179.9312         D2E/DX2 =    0.0073             !
 ! D31   D(11,5,6,1)           179.9757         D2E/DX2 =    0.0083             !
 ! D32   D(11,5,6,12)           -0.0528         D2E/DX2 =    0.0082             !
 ! D33   D(14,7,8,2)            -0.6            D2E/DX2 =    0.0064             !
 ! D34   D(14,7,8,15)          179.0019         D2E/DX2 =    0.0055             !
 ! D35   D(18,7,8,2)          -179.4689         D2E/DX2 =    0.0048             !
 ! D36   D(18,7,8,15)            0.133          D2E/DX2 =    0.0046             !
 ! D37   D(8,7,14,1)             0.6941         D2E/DX2 =    0.0073             !
 ! D38   D(8,7,14,13)          177.4015         D2E/DX2 =    0.0027             !
 ! D39   D(18,7,14,1)          179.5581         D2E/DX2 =    0.0054             !
 ! D40   D(18,7,14,13)          -3.7346         D2E/DX2 =    0.0018             !
 ! D41   D(8,7,18,19)          108.6286         D2E/DX2 =    0.018              !
 ! D42   D(8,7,18,20)         -133.3122         D2E/DX2 =    0.0168             !
 ! D43   D(8,7,18,22)          -14.7323         D2E/DX2 =    0.0122             !
 ! D44   D(14,7,18,19)         -70.0693         D2E/DX2 =    0.0171             !
 ! D45   D(14,7,18,20)          47.9899         D2E/DX2 =    0.016              !
 ! D46   D(14,7,18,22)         166.5698         D2E/DX2 =    0.0118             !
 ! D47   D(2,8,15,16)          -77.0192         D2E/DX2 =    0.0153             !
 ! D48   D(2,8,15,17)           42.3667         D2E/DX2 =    0.0147             !
 ! D49   D(2,8,15,23)          162.8594         D2E/DX2 =    0.0094             !
 ! D50   D(7,8,15,16)          103.4842         D2E/DX2 =    0.0175             !
 ! D51   D(7,8,15,17)         -137.13           D2E/DX2 =    0.0164             !
 ! D52   D(7,8,15,23)          -16.6373         D2E/DX2 =    0.0098             !
 ! D53   D(8,15,23,22)          48.4478         D2E/DX2 =    0.0179             !
 ! D54   D(8,15,23,24)         -73.1375         D2E/DX2 =    0.0147             !
 ! D55   D(8,15,23,25)         171.1368         D2E/DX2 =    0.0209             !
 ! D56   D(16,15,23,22)        -72.6523         D2E/DX2 =    0.0196             !
 ! D57   D(16,15,23,24)        165.7625         D2E/DX2 =    0.0146             !
 ! D58   D(16,15,23,25)         50.0367         D2E/DX2 =    0.0171             !
 ! D59   D(17,15,23,22)        170.0779         D2E/DX2 =    0.0186             !
 ! D60   D(17,15,23,24)         48.4926         D2E/DX2 =    0.0141             !
 ! D61   D(17,15,23,25)        -67.2332         D2E/DX2 =    0.0174             !
 ! D62   D(7,18,22,21)         175.0112         D2E/DX2 =    0.0172             !
 ! D63   D(7,18,22,23)          48.9783         D2E/DX2 =    0.0141             !
 ! D64   D(19,18,22,21)         53.6673         D2E/DX2 =    0.0182             !
 ! D65   D(19,18,22,23)        -72.3656         D2E/DX2 =    0.021              !
 ! D66   D(20,18,22,21)        -64.788          D2E/DX2 =    0.0174             !
 ! D67   D(20,18,22,23)        169.1791         D2E/DX2 =    0.0202             !
 ! D68   D(18,22,23,15)        -69.5396         D2E/DX2 =    0.0202             !
 ! D69   D(18,22,23,24)         49.2492         D2E/DX2 =    0.0163             !
 ! D70   D(18,22,23,25)        164.3202         D2E/DX2 =    0.0242             !
 ! D71   D(21,22,23,15)        163.4082         D2E/DX2 =    0.0188             !
 ! D72   D(21,22,23,24)        -77.803          D2E/DX2 =    0.0146             !
 ! D73   D(21,22,23,25)         37.2679         D2E/DX2 =    0.018              !
 ! D74   D(15,23,25,26)       -143.8891         D2E/DX2 =    0.0138             !
 ! D75   D(15,23,25,27)         38.7697         D2E/DX2 =    0.0139             !
 ! D76   D(22,23,25,26)        -20.5401         D2E/DX2 =    0.0155             !
 ! D77   D(22,23,25,27)        162.1188         D2E/DX2 =    0.0154             !
 ! D78   D(24,23,25,26)         99.0061         D2E/DX2 =    0.0138             !
 ! D79   D(24,23,25,27)        -78.3351         D2E/DX2 =    0.0142             !
 ! D80   D(23,25,27,28)        176.9043         D2E/DX2 =    0.0171             !
 ! D81   D(26,25,27,28)         -0.4572         D2E/DX2 =    0.0173             !
 ! D82   D(25,27,28,29)        179.9935         D2E/DX2 =    0.0241             !
 ! D83   D(25,27,28,30)        -60.4318         D2E/DX2 =    0.0235             !
 ! D84   D(25,27,28,31)         60.4331         D2E/DX2 =    0.0235             !
 --------------------------------------------------------------------------------
 Trust Radius=3.00D-01 FncErr=1.00D-07 GrdErr=1.00D-06
 Number of steps in this run=    185 maximum allowed number of steps=    186.
 GradGradGradGradGradGradGradGradGradGradGradGradGradGradGradGradGradGrad

                          Input orientation:                          
 ---------------------------------------------------------------------
 Center     Atomic      Atomic             Coordinates (Angstroms)
 Number     Number       Type             X           Y           Z
 ---------------------------------------------------------------------
      1          6           0       -1.453950   -0.058095   -1.357350
      2          6           0       -2.617824    0.433109   -2.011369
      3          6           0       -3.107223   -0.257629   -3.130501
      4          6           0       -2.441399   -1.395429   -3.567051
      5          6           0       -1.290152   -1.861493   -2.906031
      6          6           0       -0.782229   -1.200048   -1.793693
      7          6           0       -2.138065    1.795575   -0.276418
      8          6           0       -3.031140    1.612033   -1.295981
      9          1           0       -3.992450    0.092707   -3.650244
     10          1           0       -2.811030   -1.935305   -4.431467
     11          1           0       -0.790089   -2.751910   -3.269645
     12          1           0        0.104997   -1.562882   -1.285853
     13          1           0       -0.399382    0.716308    0.324665
     14          7           0       -1.187575    0.790198   -0.296503
     15          6           0       -4.193094    2.536614   -1.514920
     16          1           0       -4.003107    3.214949   -2.355088
     17          1           0       -5.105699    1.982042   -1.747507
     18          6           0       -2.199986    2.904357    0.725378
     19          1           0       -2.498054    2.499133    1.711932
     20          1           0       -1.217267    3.372026    0.853654
     21          1           0       -3.284480    4.661232    0.885543
     22          7           0       -3.128925    3.913543    0.219491
     23          6           0       -4.402627    3.359153   -0.228359
     24          1           0       -4.842296    2.677082    0.527548
     25          6           0       -5.408583    4.493258   -0.357944
     26          8           0       -5.303370    5.563144    0.192893
     27          8           0       -6.463433    4.145588   -1.115181
     28          6           0       -7.506485    5.132712   -1.240085
     29          1           0       -8.260138    4.677283   -1.878297
     30          1           0       -7.923296    5.370924   -0.260668
     31          1           0       -7.114456    6.042760   -1.695207
 ---------------------------------------------------------------------
                    Distance matrix (angstroms):
                    1          2          3          4          5
     1  C    0.000000
     2  C    1.422542   0.000000
     3  C    2.432528   1.403241   0.000000
     4  C    2.765194   2.407243   1.388700   0.000000
     5  C    2.382748   2.797915   2.434033   1.406959   0.000000
     6  C    1.394870   2.466575   2.842677   2.436353   1.390249
     7  C    2.252225   2.257552   3.647013   4.593776   4.583445
     8  C    2.297960   1.439608   2.620474   3.814495   4.205791
     9  H    3.424045   2.165959   1.084663   2.151099   3.416894
    10  H    3.849127   3.391693   2.143558   1.084116   2.155336
    11  H    3.369604   3.881780   3.407332   2.157618   1.084030
    12  H    2.167905   3.453130   3.927439   3.422870   2.158839
    13  H    2.130959   3.233998   4.496569   4.875932   4.227993
    14  N    1.384179   2.261391   3.579739   4.128622   3.721777
    15  C    3.776275   2.674448   3.405438   4.768714   5.450285
    16  H    4.266907   3.126626   3.669151   5.016311   5.782208
    17  H    4.201149   2.942506   3.304951   4.670819   5.538352
    18  C    3.697357   3.710990   5.068436   6.080410   6.060385
    19  H    4.129171   4.259785   5.605353   6.560372   6.465266
    20  H    4.087821   4.336721   5.711376   6.615871   6.444398
    21  H    5.536556   5.168516   6.352576   7.564359   7.803802
    22  N    4.589758   4.165500   5.349916   6.557117   6.819166
    23  C    4.652622   3.863467   4.814728   6.131828   6.641729
    24  H    4.744988   4.053368   5.000432   6.254230   6.708640
    25  C    6.111689   5.196823   5.962739   7.333430   7.989812
    26  O    6.987103   6.195820   7.053326   8.411289   8.990800
    27  O    6.544044   5.419813   5.891857   7.272640   8.127424
    28  C    7.974422   6.824966   7.209920   8.584084   9.504582
    29  H    8.307791   7.061617   7.243887   8.578313   9.612104
    30  H    8.516419   7.456206   7.944250   9.314875  10.163878
    31  H    8.329220   7.196377   7.603478   8.981532   9.892716
                    6          7          8          9         10
     6  C    0.000000
     7  C    3.621349   0.000000
     8  C    3.634985   1.367764   0.000000
     9  H    3.927278   4.209656   2.962266   0.000000
    10  H    3.408004   5.624658   4.739548   2.473639   0.000000
    11  H    2.141676   5.608571   5.287878   4.300211   2.469995
    12  H    1.084767   4.162874   4.462683   5.012025   4.305439
    13  H    2.882088   2.132871   3.217914   5.394342   5.955492
    14  N    2.523284   1.383697   2.252354   4.427346   5.211708
    15  C    5.066987   2.511209   1.500974   3.251545   5.514925
    16  H    5.493762   3.132710   2.153084   3.380228   5.679570
    17  H    5.368447   3.317487   2.155128   2.903330   5.273970
    18  C    5.020149   1.495603   2.539058   5.501307   7.098504
    19  H    5.377490   2.139654   3.180986   6.064407   7.583109
    20  H    5.301090   2.147121   3.317928   6.224201   7.657698
    21  H    6.913333   3.297941   3.757772   6.476574   8.485815
    22  N    5.975676   2.390297   2.757385   5.506298   7.479405
    23  C    6.028587   2.752331   2.464391   4.748390   6.944823
    24  H    6.074902   2.955720   2.782063   4.985497   7.070501
    25  C    7.475177   4.240334   3.851443   5.675344   8.041598
    26  O    8.374246   4.943074   4.794899   6.812775   9.155501
    27  O    7.830216   4.993485   4.269922   5.381278   7.830394
    28  C    9.253429   6.394143   5.694473   6.599922   9.065819
    29  H    9.511535   6.953419   6.089111   6.509324   8.940793
    30  H    9.824596   6.800902   6.255744   7.402727   9.844380
    31  H    9.621074   6.694476   6.038559   6.998016   9.468691
                   11         12         13         14         15
    11  H    0.000000
    12  H    2.480000   0.000000
    13  H    5.010016   2.835996   0.000000
    14  N    4.641562   2.861213   1.006260   0.000000
    15  C    6.529011   5.944067   4.592368   3.683430   0.000000
    16  H    6.838370   6.391201   5.139175   4.247871   1.096411
    17  H    6.584201   6.319095   5.295791   4.344836   1.092928
    18  C    7.066922   5.414261   2.861871   2.557125   3.021035
    19  H    7.436848   5.680013   3.083407   2.944762   3.645153
    20  H    7.395044   5.538880   2.828711   2.826584   3.894048
    21  H    8.856764   7.412362   4.919431   4.558415   3.331938
    22  N    7.878610   6.535714   4.205209   3.713540   2.456944
    23  C    7.723014   6.757469   4.828709   4.115912   1.541335
    24  H    7.766145   6.763241   4.860584   4.194803   2.147759
    25  C    9.071988   8.242416   6.310579   5.615455   2.577686
    26  O   10.074671   9.067379   6.896251   6.321415   3.648181
    27  O    9.187167   8.704024   7.113778   6.305835   2.811233
    28  C   10.554447  10.137442   8.512578   7.725050   4.218272
    29  H   10.626872  10.453045   9.073801   8.223907   4.610353
    30  H   11.221276  10.657493   8.866643   8.145813   4.849832
    31  H   10.946356  10.494468   8.805862   8.041996   4.567266
                   16         17         18         19         20
    16  H    0.000000
    17  H    1.762079   0.000000
    18  C    3.582874   3.925429   0.000000
    19  H    4.395251   4.362902   1.107402   0.000000
    20  H    4.252247   4.880368   1.095858   1.771721   0.000000
    21  H    3.620753   4.174667   2.070843   2.444598   2.436481
    22  N    2.807256   3.392258   1.461953   2.150799   2.085627
    23  C    2.168729   2.167614   2.442965   2.851624   3.364140
    24  H    3.050103   2.393394   2.659434   2.632471   3.705418
    25  C    2.756451   2.885971   3.740760   4.090489   4.504693
    26  O    3.700933   4.077807   4.121125   4.423284   4.683358
    27  O    2.908035   2.631389   4.806796   5.140780   5.656586
    28  C    4.146650   3.993491   6.081738   6.382360   6.858427
    29  H    4.526375   4.151134   6.829922   7.129916   7.666113
    30  H    4.939910   4.651243   6.309716   6.447603   7.085770
    31  H    4.255873   4.530703   6.313542   6.743668   6.957467
                   21         22         23         24         25
    21  H    0.000000
    22  N    1.013342   0.000000
    23  C    2.046080   1.459532   0.000000
    24  H    2.547901   2.135269   1.109020   0.000000
    25  C    2.467040   2.422053   1.521491   2.098398   0.000000
    26  O    2.317137   2.729487   2.417927   2.941757   1.207951
    27  O    3.791375   3.599186   2.377363   2.735536   1.344244
    28  C    4.750359   4.772815   3.715244   4.031445   2.363952
    29  H    5.691770   5.595834   4.397745   4.633632   3.236774
    30  H    4.830743   5.033935   4.055044   4.167809   2.665247
    31  H    4.820540   4.907554   4.087470   4.629378   2.664438
                   26         27         28         29         30
    26  O    0.000000
    27  O    2.250837   0.000000
    28  C    2.663159   1.441517   0.000000
    29  H    3.717130   2.023165   1.087531   0.000000
    30  H    2.665835   2.088741   1.090749   1.792017   0.000000
    31  H    2.659885   2.087947   1.090418   1.791825   1.778619
                   31
    31  H    0.000000
 Stoichiometry    C13H14N2O2
 Framework group  C1[X(C13H14N2O2)]
 Deg. of freedom    87
 Full point group                 C1      NOp   1
 Largest Abelian subgroup         C1      NOp   1
 Largest concise Abelian subgroup C1      NOp   1
                         Standard orientation:                         
 ---------------------------------------------------------------------
 Center     Atomic      Atomic             Coordinates (Angstroms)
 Number     Number       Type             X           Y           Z
 ---------------------------------------------------------------------
      1          6           0        2.817147    0.565148    0.068517
      2          6           0        1.910219   -0.522533   -0.065857
      3          6           0        2.424283   -1.825575   -0.148952
      4          6           0        3.799255   -2.014230   -0.100498
      5          6           0        4.677670   -0.922959    0.030063
      6          6           0        4.198746    0.379322    0.116604
      7          6           0        0.724025    1.395803    0.031463
      8          6           0        0.585105    0.039857   -0.082076
      9          1           0        1.757805   -2.675080   -0.252115
     10          1           0        4.206154   -3.017009   -0.165134
     11          1           0        5.746620   -1.099903    0.064099
     12          1           0        4.878911    1.218221    0.218316
     13          1           0        2.435904    2.658265    0.188951
     14          7           0        2.064220    1.724871    0.132518
     15          6           0       -0.759773   -0.618364   -0.186809
     16          1           0       -0.968122   -0.925415   -1.218520
     17          1           0       -0.813980   -1.515864    0.434518
     18          6           0       -0.408988    2.371388    0.068123
     19          1           0       -0.510220    2.786864    1.089627
     20          1           0       -0.221293    3.215533   -0.605000
     21          1           0       -2.441353    2.255388   -0.311914
     22          7           0       -1.612541    1.677160   -0.386645
     23          6           0       -1.827788    0.393258    0.273279
     24          1           0       -1.743395    0.478769    1.375772
     25          6           0       -3.263819   -0.045555    0.027934
     26          8           0       -4.159554    0.700938   -0.287583
     27          8           0       -3.434826   -1.358625    0.259440
     28          6           0       -4.780527   -1.856428    0.120690
     29          1           0       -4.719641   -2.919212    0.343191
     30          1           0       -5.446109   -1.352879    0.822953
     31          1           0       -5.141324   -1.695191   -0.895597
 ---------------------------------------------------------------------
 Rotational constants (GHZ):      1.1352073      0.2443557      0.2033522
 Standard basis: 6-311+G(d,p) (5D, 7F)
 There are   475 symmetry adapted cartesian basis functions of A   symmetry.
 There are   458 symmetry adapted basis functions of A   symmetry.
   458 basis functions,   724 primitive gaussians,   475 cartesian basis functions
    61 alpha electrons       61 beta electrons
       nuclear repulsion energy      1161.4274021305 Hartrees.
 NAtoms=   31 NActive=   31 NUniq=   31 SFac= 1.00D+00 NAtFMM=   60 NAOKFM=F Big=F
 Integral buffers will be    131072 words long.
 Raffenetti 2 integral format.
 Two-electron integral symmetry is turned on.
 One-electron integrals computed using PRISM.
 NBasis=   458 RedAO= T EigKep=  1.49D-06  NBF=   458
 NBsUse=   455 1.00D-06 EigRej=  8.47D-07 NBFU=   455
 Initial guess from the checkpoint file:  "ChemRevAminoAcids9_Brimble.chk"
 B after Tr=     0.000000    0.000000    0.000000
         Rot=    1.000000    0.000000    0.000000    0.000000 Ang=   0.00 deg.
 Requested convergence on RMS density matrix=1.00D-08 within 128 cycles.
 Requested convergence on MAX density matrix=1.00D-06.
 Requested convergence on             energy=1.00D-06.
 No special actions if energy rises.
 SCF Done:  E(RB3LYP) =  -763.982821562     A.U. after    1 cycles
            NFock=  1  Conv=0.57D-08     -V/T= 2.0042

 **********************************************************************

            Population analysis using the SCF density.

 **********************************************************************

 Orbital symmetries:
       Occupied  (A) (A) (A) (A) (A) (A) (A) (A) (A) (A) (A) (A)
                 (A) (A) (A) (A) (A) (A) (A) (A) (A) (A) (A) (A)
                 (A) (A) (A) (A) (A) (A) (A) (A) (A) (A) (A) (A)
                 (A) (A) (A) (A) (A) (A) (A) (A) (A) (A) (A) (A)
                 (A) (A) (A) (A) (A) (A) (A) (A) (A) (A) (A) (A)
                 (A)
       Virtual   (A) (A) (A) (A) (A) (A) (A) (A) (A) (A) (A) (A)
                 (A) (A) (A) (A) (A) (A) (A) (A) (A) (A) (A) (A)
                 (A) (A) (A) (A) (A) (A) (A) (A) (A) (A) (A) (A)
                 (A) (A) (A) (A) (A) (A) (A) (A) (A) (A) (A) (A)
                 (A) (A) (A) (A) (A) (A) (A) (A) (A) (A) (A) (A)
                 (A) (A) (A) (A) (A) (A) (A) (A) (A) (A) (A) (A)
                 (A) (A) (A) (A) (A) (A) (A) (A) (A) (A) (A) (A)
                 (A) (A) (A) (A) (A) (A) (A) (A) (A) (A) (A) (A)
                 (A) (A) (A) (A) (A) (A) (A) (A) (A) (A) (A) (A)
                 (A) (A) (A) (A) (A) (A) (A) (A) (A) (A) (A) (A)
                 (A) (A) (A) (A) (A) (A) (A) (A) (A) (A) (A) (A)
                 (A) (A) (A) (A) (A) (A) (A) (A) (A) (A) (A) (A)
                 (A) (A) (A) (A) (A) (A) (A) (A) (A) (A) (A) (A)
                 (A) (A) (A) (A) (A) (A) (A) (A) (A) (A) (A) (A)
                 (A) (A) (A) (A) (A) (A) (A) (A) (A) (A) (A) (A)
                 (A) (A) (A) (A) (A) (A) (A) (A) (A) (A) (A) (A)
                 (A) (A) (A) (A) (A) (A) (A) (A) (A) (A) (A) (A)
                 (A) (A) (A) (A) (A) (A) (A) (A) (A) (A) (A) (A)
                 (A) (A) (A) (A) (A) (A) (A) (A) (A) (A) (A) (A)
                 (A) (A) (A) (A) (A) (A) (A) (A) (A) (A) (A) (A)
                 (A) (A) (A) (A) (A) (A) (A) (A) (A) (A) (A) (A)
                 (A) (A) (A) (A) (A) (A) (A) (A) (A) (A) (A) (A)
                 (A) (A) (A) (A) (A) (A) (A) (A) (A) (A) (A) (A)
                 (A) (A) (A) (A) (A) (A) (A) (A) (A) (A) (A) (A)
                 (A) (A) (A) (A) (A) (A) (A) (A) (A) (A) (A) (A)
                 (A) (A) (A) (A) (A) (A) (A) (A) (A) (A) (A) (A)
                 (A) (A) (A) (A) (A) (A) (A) (A) (A) (A) (A) (A)
                 (A) (A) (A) (A) (A) (A) (A) (A) (A) (A) (A) (A)
                 (A) (A) (A) (A) (A) (A) (A) (A) (A) (A) (A) (A)
                 (A) (A) (A) (A) (A) (A) (A) (A) (A) (A) (A) (A)
                 (A) (A) (A) (A) (A) (A) (A) (A) (A) (A) (A) (A)
                 (A) (A) (A) (A) (A) (A) (A) (A) (A) (A) (A) (A)
                 (A) (A) (A) (A) (A) (A) (A) (A) (A) (A)
 The electronic state is 1-A.
 Alpha  occ. eigenvalues --  -19.18083 -19.12319 -14.35843 -14.30877 -10.31047
 Alpha  occ. eigenvalues --  -10.23427 -10.22388 -10.21684 -10.20782 -10.20632
 Alpha  occ. eigenvalues --  -10.17924 -10.17389 -10.17070 -10.16901 -10.16795
 Alpha  occ. eigenvalues --  -10.16515 -10.16366  -1.12215  -1.03487  -0.98583
 Alpha  occ. eigenvalues --   -0.92789  -0.84325  -0.80414  -0.78507  -0.74593
 Alpha  occ. eigenvalues --   -0.73840  -0.72904  -0.67365  -0.65004  -0.61085
 Alpha  occ. eigenvalues --   -0.59336  -0.57400  -0.55720  -0.54356  -0.52957
 Alpha  occ. eigenvalues --   -0.51158  -0.49112  -0.48837  -0.47473  -0.46508
 Alpha  occ. eigenvalues --   -0.45444  -0.45285  -0.43317  -0.43287  -0.42416
 Alpha  occ. eigenvalues --   -0.41861  -0.41248  -0.40472  -0.38520  -0.37846
 Alpha  occ. eigenvalues --   -0.37030  -0.36443  -0.34805  -0.33914  -0.33417
 Alpha  occ. eigenvalues --   -0.32209  -0.29237  -0.27625  -0.24061  -0.22448
 Alpha  occ. eigenvalues --   -0.20528
 Alpha virt. eigenvalues --   -0.01965  -0.01357  -0.00578   0.00306   0.00912
 Alpha virt. eigenvalues --    0.01133   0.01649   0.02444   0.02622   0.03325
 Alpha virt. eigenvalues --    0.03843   0.04370   0.04569   0.04745   0.05900
 Alpha virt. eigenvalues --    0.06205   0.06283   0.07018   0.07748   0.08003
 Alpha virt. eigenvalues --    0.08570   0.08695   0.09393   0.09981   0.10756
 Alpha virt. eigenvalues --    0.11519   0.11748   0.12106   0.12834   0.13062
 Alpha virt. eigenvalues --    0.13503   0.13806   0.14216   0.14527   0.14742
 Alpha virt. eigenvalues --    0.15590   0.15751   0.15878   0.16584   0.16742
 Alpha virt. eigenvalues --    0.16840   0.17270   0.17632   0.18230   0.18534
 Alpha virt. eigenvalues --    0.18756   0.19186   0.19472   0.19850   0.20254
 Alpha virt. eigenvalues --    0.20448   0.20740   0.21152   0.21588   0.21735
 Alpha virt. eigenvalues --    0.22415   0.22573   0.22783   0.23431   0.23652
 Alpha virt. eigenvalues --    0.24083   0.24342   0.24554   0.24856   0.25159
 Alpha virt. eigenvalues --    0.25566   0.25920   0.26503   0.26514   0.27288
 Alpha virt. eigenvalues --    0.27923   0.28289   0.28659   0.28809   0.29340
 Alpha virt. eigenvalues --    0.29615   0.30274   0.30628   0.31049   0.31700
 Alpha virt. eigenvalues --    0.32390   0.33195   0.33389   0.33559   0.34120
 Alpha virt. eigenvalues --    0.34327   0.34898   0.35002   0.35867   0.36365
 Alpha virt. eigenvalues --    0.37404   0.38577   0.39174   0.39464   0.40252
 Alpha virt. eigenvalues --    0.41759   0.42630   0.44256   0.44787   0.46454
 Alpha virt. eigenvalues --    0.47859   0.48414   0.50068   0.50957   0.51573
 Alpha virt. eigenvalues --    0.52436   0.53206   0.53946   0.54662   0.55297
 Alpha virt. eigenvalues --    0.56049   0.56353   0.56918   0.58120   0.58268
 Alpha virt. eigenvalues --    0.59624   0.59801   0.60232   0.61417   0.61657
 Alpha virt. eigenvalues --    0.62367   0.62774   0.63869   0.64858   0.65647
 Alpha virt. eigenvalues --    0.66362   0.66746   0.67110   0.67504   0.68431
 Alpha virt. eigenvalues --    0.70141   0.70529   0.71090   0.71713   0.71987
 Alpha virt. eigenvalues --    0.72302   0.72811   0.72923   0.73527   0.74096
 Alpha virt. eigenvalues --    0.75293   0.75679   0.77402   0.78336   0.78631
 Alpha virt. eigenvalues --    0.79127   0.80754   0.82100   0.82929   0.84141
 Alpha virt. eigenvalues --    0.85771   0.86450   0.86928   0.88030   0.88961
 Alpha virt. eigenvalues --    0.90369   0.91317   0.91864   0.92831   0.94525
 Alpha virt. eigenvalues --    0.95028   0.96606   0.97452   0.99667   1.00400
 Alpha virt. eigenvalues --    1.01288   1.02180   1.03229   1.03961   1.04783
 Alpha virt. eigenvalues --    1.05189   1.06310   1.08771   1.09835   1.11450
 Alpha virt. eigenvalues --    1.12870   1.13933   1.14188   1.14835   1.16850
 Alpha virt. eigenvalues --    1.17069   1.18161   1.18778   1.19896   1.21954
 Alpha virt. eigenvalues --    1.22758   1.25932   1.26570   1.31325   1.31504
 Alpha virt. eigenvalues --    1.32467   1.33818   1.35233   1.36699   1.37643
 Alpha virt. eigenvalues --    1.39763   1.41859   1.43166   1.43366   1.44924
 Alpha virt. eigenvalues --    1.47578   1.49818   1.50486   1.51398   1.52644
 Alpha virt. eigenvalues --    1.53101   1.53607   1.55559   1.56713   1.57176
 Alpha virt. eigenvalues --    1.57500   1.57942   1.59938   1.60162   1.61904
 Alpha virt. eigenvalues --    1.62327   1.63240   1.64791   1.65052   1.67055
 Alpha virt. eigenvalues --    1.67462   1.68115   1.68807   1.69671   1.71820
 Alpha virt. eigenvalues --    1.72127   1.72984   1.74982   1.75525   1.75996
 Alpha virt. eigenvalues --    1.76671   1.77459   1.79326   1.80854   1.82564
 Alpha virt. eigenvalues --    1.84497   1.85651   1.87056   1.87453   1.88690
 Alpha virt. eigenvalues --    1.90921   1.91017   1.91867   1.92539   1.93892
 Alpha virt. eigenvalues --    1.94509   1.95657   1.96158   1.98763   1.99371
 Alpha virt. eigenvalues --    2.00815   2.01894   2.03274   2.04793   2.07272
 Alpha virt. eigenvalues --    2.08968   2.10028   2.10770   2.11156   2.11716
 Alpha virt. eigenvalues --    2.12350   2.16101   2.17486   2.18027   2.20130
 Alpha virt. eigenvalues --    2.21454   2.23622   2.27649   2.28982   2.29551
 Alpha virt. eigenvalues --    2.32328   2.33265   2.38949   2.41512   2.42199
 Alpha virt. eigenvalues --    2.42320   2.43757   2.44669   2.46149   2.47432
 Alpha virt. eigenvalues --    2.49348   2.49867   2.51941   2.53650   2.55120
 Alpha virt. eigenvalues --    2.55717   2.56142   2.57335   2.61431   2.62319
 Alpha virt. eigenvalues --    2.64025   2.65203   2.66795   2.67704   2.69424
 Alpha virt. eigenvalues --    2.71574   2.72161   2.72517   2.73681   2.73975
 Alpha virt. eigenvalues --    2.76772   2.77395   2.78106   2.79809   2.80496
 Alpha virt. eigenvalues --    2.81378   2.81425   2.82265   2.83525   2.84566
 Alpha virt. eigenvalues --    2.86807   2.87781   2.88741   2.90022   2.92689
 Alpha virt. eigenvalues --    2.93858   2.95560   2.96172   2.96919   2.97756
 Alpha virt. eigenvalues --    3.00097   3.02811   3.02933   3.06525   3.06728
 Alpha virt. eigenvalues --    3.08320   3.11258   3.12679   3.13507   3.20322
 Alpha virt. eigenvalues --    3.21724   3.22839   3.24274   3.26053   3.31083
 Alpha virt. eigenvalues --    3.34981   3.37497   3.39473   3.44814   3.47256
 Alpha virt. eigenvalues --    3.51117   3.52935   3.55206   3.58741   3.59506
 Alpha virt. eigenvalues --    3.63955   3.66877   3.67899   3.75038   3.76667
 Alpha virt. eigenvalues --    3.78144   3.81150   3.84846   3.88904   3.91314
 Alpha virt. eigenvalues --    3.95933   4.01695   4.03976   4.04526   4.11081
 Alpha virt. eigenvalues --    4.13402   4.18647   4.21925   4.30496   4.38619
 Alpha virt. eigenvalues --    4.51176   4.82374   4.83766   4.89634   4.96980
 Alpha virt. eigenvalues --    5.01042   5.06741   5.19921   5.23234   5.35833
 Alpha virt. eigenvalues --    5.62542   5.84834  23.61023  23.79496  23.81509
 Alpha virt. eigenvalues --   23.83358  23.88998  23.91024  23.93176  23.93632
 Alpha virt. eigenvalues --   24.00479  24.05874  24.10989  24.15365  24.19606
 Alpha virt. eigenvalues --   35.58789  35.67732  49.88497  50.00963
          Condensed to atoms (all electrons):
               1          2          3          4          5          6
     1  C   15.618766   0.532304  -1.162718  -0.719408   0.624833  -2.303555
     2  C    0.532304   9.152688  -1.090733  -0.326711  -0.893987  -1.046574
     3  C   -1.162718  -1.090733  10.717053  -1.139786   0.620882   1.753142
     4  C   -0.719408  -0.326711  -1.139786   7.069541   0.225526  -0.462415
     5  C    0.624833  -0.893987   0.620882   0.225526   5.881690   0.625400
     6  C   -2.303555  -1.046574   1.753142  -0.462415   0.625400   9.462072
     7  C    0.539118  -1.704487  -2.864814   0.436801  -0.313060  -1.307970
     8  C   -2.417970   2.747511  -1.810165   0.737228  -0.659537  -0.756800
     9  H   -0.017150  -0.037027   0.364629  -0.037508  -0.002544  -0.003385
    10  H    0.002897   0.054359  -0.108825   0.411297  -0.008036  -0.011412
    11  H    0.062555   0.056290  -0.064565   0.006109   0.351827  -0.090774
    12  H   -0.062443  -0.003043  -0.015223   0.000008   0.043650   0.366886
    13  H   -0.023519   0.051613  -0.006766   0.002993  -0.005246  -0.052591
    14  N    0.160434   0.177676   0.035435   0.029611  -0.017462  -0.239831
    15  C   -3.181039  -2.326847   1.727121   0.086724  -0.232127   1.119509
    16  H   -0.023449  -0.005534  -0.023160   0.000788  -0.000822  -0.007144
    17  H    0.022567   0.028915   0.032601   0.005274   0.002525  -0.004419
    18  C   -1.129143  -0.651561  -0.140386   0.068595  -0.030823  -0.333573
    19  H   -0.043155  -0.023470  -0.004587   0.001408  -0.001310  -0.012818
    20  H    0.049074   0.007507   0.000020  -0.001182   0.001190   0.003886
    21  H    0.003935   0.006951  -0.000073  -0.000144   0.000040   0.000565
    22  N   -0.054954  -0.024814   0.032069   0.001197  -0.001166   0.005023
    23  C   -0.109148   0.193922  -0.657111  -0.018457  -0.022507  -0.057548
    24  H   -0.056407  -0.012826  -0.002564   0.003759  -0.000686  -0.007417
    25  C    0.040156  -0.180347   0.260701  -0.029549   0.006305   0.050267
    26  O   -0.003615   0.000586  -0.001902   0.000224  -0.000040  -0.000413
    27  O   -0.002864  -0.003286  -0.003854  -0.000097  -0.000058   0.000122
    28  C   -0.003982  -0.021933   0.005960   0.000486  -0.000017   0.000289
    29  H    0.000046   0.000454   0.000096   0.000008   0.000001  -0.000001
    30  H    0.000016   0.000059  -0.000024   0.000001   0.000000  -0.000001
    31  H   -0.000029  -0.000052  -0.000103  -0.000006  -0.000001   0.000002
               7          8          9         10         11         12
     1  C    0.539118  -2.417970  -0.017150   0.002897   0.062555  -0.062443
     2  C   -1.704487   2.747511  -0.037027   0.054359   0.056290  -0.003043
     3  C   -2.864814  -1.810165   0.364629  -0.108825  -0.064565  -0.015223
     4  C    0.436801   0.737228  -0.037508   0.411297   0.006109   0.000008
     5  C   -0.313060  -0.659537  -0.002544  -0.008036   0.351827   0.043650
     6  C   -1.307970  -0.756800  -0.003385  -0.011412  -0.090774   0.366886
     7  C   12.848906  -0.966459   0.016011   0.004014   0.012737   0.028782
     8  C   -0.966459  12.470392   0.012061   0.002035   0.011626  -0.007654
     9  H    0.016011   0.012061   0.555633  -0.007712  -0.000259   0.000069
    10  H    0.004014   0.002035  -0.007712   0.550671  -0.007665  -0.000279
    11  H    0.012737   0.011626  -0.000259  -0.007665   0.550652  -0.007733
    12  H    0.028782  -0.007654   0.000069  -0.000279  -0.007733   0.558212
    13  H   -0.051462   0.042184   0.000013  -0.000001   0.000018   0.002636
    14  N    0.023431   0.096038  -0.001402   0.000779  -0.000900  -0.007680
    15  C    0.982809  -5.808108   0.043835  -0.001062  -0.000338  -0.001165
    16  H    0.001967   0.078122  -0.000484   0.000001   0.000000   0.000000
    17  H   -0.050922   0.095958  -0.000029   0.000007   0.000000   0.000000
    18  C   -1.340833   1.119457  -0.001568   0.000251   0.000448   0.001321
    19  H   -0.065381  -0.004237   0.000001   0.000000   0.000000  -0.000001
    20  H   -0.054656   0.034748   0.000000   0.000000   0.000000   0.000005
    21  H    0.014488   0.018033   0.000000   0.000000   0.000000   0.000000
    22  N    0.105742   0.061833  -0.000131  -0.000004   0.000003   0.000009
    23  C    0.609857  -0.059174   0.002599  -0.000098   0.000037   0.000221
    24  H   -0.075846   0.118639  -0.000025   0.000000   0.000000   0.000000
    25  C   -0.268021  -0.549155  -0.000388   0.000000  -0.000002   0.000002
    26  O   -0.003980   0.032480   0.000001   0.000000   0.000000   0.000000
    27  O    0.006444   0.001749   0.000007   0.000000   0.000000   0.000000
    28  C    0.005397  -0.043005   0.000029   0.000000   0.000000   0.000000
    29  H    0.000032   0.002635   0.000000   0.000000   0.000000   0.000000
    30  H    0.000037   0.000372   0.000000   0.000000   0.000000   0.000000
    31  H    0.000039  -0.004721   0.000000   0.000000   0.000000   0.000000
              13         14         15         16         17         18
     1  C   -0.023519   0.160434  -3.181039  -0.023449   0.022567  -1.129143
     2  C    0.051613   0.177676  -2.326847  -0.005534   0.028915  -0.651561
     3  C   -0.006766   0.035435   1.727121  -0.023160   0.032601  -0.140386
     4  C    0.002993   0.029611   0.086724   0.000788   0.005274   0.068595
     5  C   -0.005246  -0.017462  -0.232127  -0.000822   0.002525  -0.030823
     6  C   -0.052591  -0.239831   1.119509  -0.007144  -0.004419  -0.333573
     7  C   -0.051462   0.023431   0.982809   0.001967  -0.050922  -1.340833
     8  C    0.042184   0.096038  -5.808108   0.078122   0.095958   1.119457
     9  H    0.000013  -0.001402   0.043835  -0.000484  -0.000029  -0.001568
    10  H   -0.000001   0.000779  -0.001062   0.000001   0.000007   0.000251
    11  H    0.000018  -0.000900  -0.000338   0.000000   0.000000   0.000448
    12  H    0.002636  -0.007680  -0.001165   0.000000   0.000000   0.001321
    13  H    0.401639   0.378145  -0.008649   0.000054   0.000009  -0.016224
    14  N    0.378145   6.850424   0.015439   0.002614  -0.000498  -0.384562
    15  C   -0.008649   0.015439  16.623223   0.318556   0.214517  -1.389377
    16  H    0.000054   0.002614   0.318556   0.528439  -0.031486   0.026525
    17  H    0.000009  -0.000498   0.214517  -0.031486   0.547610   0.029088
    18  C   -0.016224  -0.384562  -1.389377   0.026525   0.029088  10.163545
    19  H    0.000887   0.002444  -0.006484  -0.000018   0.000779   0.501990
    20  H    0.001624   0.004005  -0.044726   0.000364  -0.000061   0.379330
    21  H    0.000008  -0.001847  -0.030776  -0.000151  -0.000162  -0.080549
    22  N   -0.001144  -0.001789   0.045698  -0.008422   0.017172   0.184853
    23  C    0.002730  -0.038604  -2.136555  -0.012124  -0.084461  -0.751369
    24  H    0.000095   0.000768  -0.190157   0.009281   0.000070   0.093768
    25  C   -0.000175   0.013567   1.141725  -0.034047   0.006363  -0.083377
    26  O    0.000002  -0.000049  -0.019412   0.002720  -0.000895   0.035471
    27  O    0.000001   0.000149   0.016764  -0.001679   0.005063   0.018554
    28  C    0.000000   0.000175   0.062930  -0.000343  -0.000929   0.005440
    29  H    0.000000   0.000000   0.005881   0.000022   0.000071  -0.000219
    30  H    0.000000   0.000000  -0.007213  -0.000019  -0.000015  -0.000136
    31  H    0.000000  -0.000001   0.002089  -0.000009   0.000007  -0.000085
              19         20         21         22         23         24
     1  C   -0.043155   0.049074   0.003935  -0.054954  -0.109148  -0.056407
     2  C   -0.023470   0.007507   0.006951  -0.024814   0.193922  -0.012826
     3  C   -0.004587   0.000020  -0.000073   0.032069  -0.657111  -0.002564
     4  C    0.001408  -0.001182  -0.000144   0.001197  -0.018457   0.003759
     5  C   -0.001310   0.001190   0.000040  -0.001166  -0.022507  -0.000686
     6  C   -0.012818   0.003886   0.000565   0.005023  -0.057548  -0.007417
     7  C   -0.065381  -0.054656   0.014488   0.105742   0.609857  -0.075846
     8  C   -0.004237   0.034748   0.018033   0.061833  -0.059174   0.118639
     9  H    0.000001   0.000000   0.000000  -0.000131   0.002599  -0.000025
    10  H    0.000000   0.000000   0.000000  -0.000004  -0.000098   0.000000
    11  H    0.000000   0.000000   0.000000   0.000003   0.000037   0.000000
    12  H   -0.000001   0.000005   0.000000   0.000009   0.000221   0.000000
    13  H    0.000887   0.001624   0.000008  -0.001144   0.002730   0.000095
    14  N    0.002444   0.004005  -0.001847  -0.001789  -0.038604   0.000768
    15  C   -0.006484  -0.044726  -0.030776   0.045698  -2.136555  -0.190157
    16  H   -0.000018   0.000364  -0.000151  -0.008422  -0.012124   0.009281
    17  H    0.000779  -0.000061  -0.000162   0.017172  -0.084461   0.000070
    18  C    0.501990   0.379330  -0.080549   0.184853  -0.751369   0.093768
    19  H    0.622265  -0.052417  -0.002544  -0.067702  -0.001545   0.019760
    20  H   -0.052417   0.562162  -0.005590  -0.076415   0.032890  -0.000617
    21  H   -0.002544  -0.005590   0.433086   0.371925  -0.120943   0.000548
    22  N   -0.067702  -0.076415   0.371925   6.792852  -0.298766  -0.136565
    23  C   -0.001545   0.032890  -0.120943  -0.298766  16.777697   0.602268
    24  H    0.019760  -0.000617   0.000548  -0.136565   0.602268   0.597943
    25  C   -0.010879   0.009485   0.118285   0.143364  -6.346483  -0.147632
    26  O    0.000928  -0.000379   0.007209   0.014247   0.131307   0.003188
    27  O    0.000384   0.000098   0.004387   0.025372  -0.546538   0.005260
    28  C    0.000441  -0.000090   0.004908   0.007131  -0.565270   0.002230
    29  H    0.000000   0.000000  -0.000009   0.000375   0.004684   0.000043
    30  H    0.000001   0.000000  -0.000030  -0.000902   0.035409   0.000127
    31  H    0.000000   0.000000   0.000020  -0.000300  -0.004671  -0.000102
              25         26         27         28         29         30
     1  C    0.040156  -0.003615  -0.002864  -0.003982   0.000046   0.000016
     2  C   -0.180347   0.000586  -0.003286  -0.021933   0.000454   0.000059
     3  C    0.260701  -0.001902  -0.003854   0.005960   0.000096  -0.000024
     4  C   -0.029549   0.000224  -0.000097   0.000486   0.000008   0.000001
     5  C    0.006305  -0.000040  -0.000058  -0.000017   0.000001   0.000000
     6  C    0.050267  -0.000413   0.000122   0.000289  -0.000001  -0.000001
     7  C   -0.268021  -0.003980   0.006444   0.005397   0.000032   0.000037
     8  C   -0.549155   0.032480   0.001749  -0.043005   0.002635   0.000372
     9  H   -0.000388   0.000001   0.000007   0.000029   0.000000   0.000000
    10  H    0.000000   0.000000   0.000000   0.000000   0.000000   0.000000
    11  H   -0.000002   0.000000   0.000000   0.000000   0.000000   0.000000
    12  H    0.000002   0.000000   0.000000   0.000000   0.000000   0.000000
    13  H   -0.000175   0.000002   0.000001   0.000000   0.000000   0.000000
    14  N    0.013567  -0.000049   0.000149   0.000175   0.000000   0.000000
    15  C    1.141725  -0.019412   0.016764   0.062930   0.005881  -0.007213
    16  H   -0.034047   0.002720  -0.001679  -0.000343   0.000022  -0.000019
    17  H    0.006363  -0.000895   0.005063  -0.000929   0.000071  -0.000015
    18  C   -0.083377   0.035471   0.018554   0.005440  -0.000219  -0.000136
    19  H   -0.010879   0.000928   0.000384   0.000441   0.000000   0.000001
    20  H    0.009485  -0.000379   0.000098  -0.000090   0.000000   0.000000
    21  H    0.118285   0.007209   0.004387   0.004908  -0.000009  -0.000030
    22  N    0.143364   0.014247   0.025372   0.007131   0.000375  -0.000902
    23  C   -6.346483   0.131307  -0.546538  -0.565270   0.004684   0.035409
    24  H   -0.147632   0.003188   0.005260   0.002230   0.000043   0.000127
    25  C   10.935956   0.218918   0.265161   0.214018   0.013486  -0.028214
    26  O    0.218918   8.081300  -0.149030  -0.070270   0.003114  -0.000075
    27  O    0.265161  -0.149030   8.344874   0.250975  -0.063506  -0.033657
    28  C    0.214018  -0.070270   0.250975   5.088868   0.398224   0.411940
    29  H    0.013486   0.003114  -0.063506   0.398224   0.534706  -0.027846
    30  H   -0.028214  -0.000075  -0.033657   0.411940  -0.027846   0.526023
    31  H    0.001651  -0.000414  -0.024472   0.411342  -0.027091  -0.035654
              31
     1  C   -0.000029
     2  C   -0.000052
     3  C   -0.000103
     4  C   -0.000006
     5  C   -0.000001
     6  C    0.000002
     7  C    0.000039
     8  C   -0.004721
     9  H    0.000000
    10  H    0.000000
    11  H    0.000000
    12  H    0.000000
    13  H    0.000000
    14  N   -0.000001
    15  C    0.002089
    16  H   -0.000009
    17  H    0.000007
    18  C   -0.000085
    19  H    0.000000
    20  H    0.000000
    21  H    0.000020
    22  N   -0.000300
    23  C   -0.004671
    24  H   -0.000102
    25  C    0.001651
    26  O   -0.000414
    27  O   -0.024472
    28  C    0.411342
    29  H   -0.027091
    30  H   -0.035654
    31  H    0.518364
 Mulliken charges:
               1
     1  C   -0.342155
     2  C    1.342401
     3  C   -0.452350
     4  C   -0.352317
     5  C   -0.194441
     6  C   -0.688522
     7  C   -0.568721
     8  C    1.403883
     9  H    0.114723
    10  H    0.118783
    11  H    0.119934
    12  H    0.103418
    13  H    0.281125
    14  N   -0.096510
    15  C   -1.022783
    16  H    0.179437
    17  H    0.165284
    18  C   -0.294851
    19  H    0.145264
    20  H    0.149746
    21  H    0.258430
    22  N   -0.135792
    23  C   -0.562248
    24  H    0.173100
    25  C    0.238858
    26  O   -0.281220
    27  O   -0.116322
    28  C   -0.164944
    29  H    0.154795
    30  H    0.159802
    31  H    0.164195
 Sum of Mulliken charges =   0.00000
 Mulliken charges with hydrogens summed into heavy atoms:
               1
     1  C   -0.342155
     2  C    1.342401
     3  C   -0.337626
     4  C   -0.233534
     5  C   -0.074507
     6  C   -0.585104
     7  C   -0.568721
     8  C    1.403883
    14  N    0.184615
    15  C   -0.678062
    18  C    0.000159
    22  N    0.122637
    23  C   -0.389149
    25  C    0.238858
    26  O   -0.281220
    27  O   -0.116322
    28  C    0.313847
 Electronic spatial extent (au):  <R**2>=           5112.4917
 Charge=              0.0000 electrons
 Dipole moment (field-independent basis, Debye):
    X=             -0.2117    Y=              0.7566    Z=              1.3950  Tot=              1.6010
 Quadrupole moment (field-independent basis, Debye-Ang):
   XX=            -96.9006   YY=            -86.1266   ZZ=           -105.3169
   XY=             15.1548   XZ=             -3.1770   YZ=              3.0616
 Traceless Quadrupole moment (field-independent basis, Debye-Ang):
   XX=             -0.7859   YY=              9.9881   ZZ=             -9.2022
   XY=             15.1548   XZ=             -3.1770   YZ=              3.0616
 Octapole moment (field-independent basis, Debye-Ang**2):
  XXX=            -29.7655  YYY=             23.7499  ZZZ=              1.7998  XYY=             -5.8271
  XXY=            -36.6356  XXZ=             15.9652  XZZ=            -30.0293  YZZ=              1.0870
  YYZ=              0.7057  XYZ=             -2.6874
 Hexadecapole moment (field-independent basis, Debye-Ang**3):
 XXXX=          -5188.5680 YYYY=          -1141.0429 ZZZZ=           -169.0751 XXXY=            340.3138
 XXXZ=            -39.9377 YYYX=             75.9410 YYYZ=             -2.7655 ZZZX=             -1.5954
 ZZZY=              1.8480 XXYY=           -984.8298 XXZZ=           -991.3408 YYZZ=           -257.0447
 XXYZ=             21.7275 YYXZ=             -2.8229 ZZXY=             26.0471
 N-N= 1.161427402131D+03 E-N=-4.103496296757D+03  KE= 7.608250564695D+02
 There are a total of      258142 grid points.
 ElSum from          density=      122.0000156670
 ElSum from atomic densities=      122.0002574823

 Hirshfeld populations at iteration   1 (CX, CA, CB, DipXYZ):
               1          2          3          4          5          6
     1  C    0.000001   2.982167   2.982167  -0.009637   0.076261   0.003995
     2  C    0.000000   3.013841   3.013841  -0.021203  -0.025558  -0.006759
     3  C    0.000000   3.027327   3.027327  -0.053933  -0.034372  -0.006867
     4  C    0.000000   3.032755   3.032755   0.029739  -0.043175  -0.003098
     5  C    0.000001   3.030277   3.030277   0.050163  -0.019482   0.000085
     6  C    0.000001   3.033906   3.033906   0.023246   0.059067   0.005032
     7  C    0.000000   2.984090   2.984090   0.010555   0.130990   0.004470
     8  C    0.000000   3.022306   3.022306  -0.055800  -0.098590  -0.018124
     9  H    0.000002   0.477862   0.477862  -0.093709  -0.124742  -0.015795
    10  H    0.000003   0.479503   0.479503   0.059820  -0.146594  -0.009650
    11  H    0.000003   0.478854   0.478854   0.156903  -0.027216   0.004759
    12  H    0.000002   0.478445   0.478445   0.102516   0.119515   0.014566
    13  H    0.000001   0.427060   0.427060   0.079645   0.197724   0.011027
    14  N    0.000000   3.548641   3.548641   0.027404   0.059363  -0.000911
    15  C    0.000000   3.029745   3.029745   0.017218   0.008579   0.002896
    16  H    0.000001   0.480816   0.480816  -0.020754  -0.047824  -0.136828
    17  H    0.000000   0.480392   0.480392   0.007467  -0.121083   0.083027
    18  C    0.000000   3.003775   3.003775  -0.025500  -0.006017  -0.010321
    19  H    0.000001   0.486058   0.486058  -0.018865   0.053963   0.114312
    20  H    0.000001   0.477081   0.477081   0.020281   0.116275  -0.088889
    21  H    0.000001   0.448694   0.448694  -0.119623   0.136539   0.022525
    22  N    0.000000   3.593323   3.593323   0.000959   0.023878   0.163575
    23  C    0.000000   2.987961   2.987961   0.000397   0.018891  -0.024220
    24  H    0.000001   0.481684   0.481684   0.007080   0.011182   0.132139
    25  C    0.000000   2.885315   2.885315   0.000442  -0.072702   0.001623
    26  O    0.000002   4.139951   4.139951   0.084865  -0.058372   0.024063
    27  O    0.000000   4.062122   4.062122  -0.111350   0.056760  -0.037285
    28  C    0.000000   3.003395   3.003395   0.054442   0.004020   0.007230
    29  H    0.000000   0.473055   0.473055  -0.000571  -0.158225   0.030948
    30  H    0.000001   0.475132   0.475132  -0.105383   0.052012   0.102111
    31  H    0.000000   0.474474   0.474474  -0.062065   0.003159  -0.144323
       Tot   0.000022  61.000008  61.000008   0.034750   0.144225   0.225311

 Dip from Atomic Chgs             -0.117276   0.153192   0.323174
         Total Dipole             -0.082526   0.297417   0.548484

 Hirshfeld charges, spin densities, dipoles, and CM5 charges using IRadAn=      4:
              Q-H        S-H        Dx         Dy         Dz        Q-CM5   
     1  C    0.035665   0.000000  -0.009637   0.076261   0.003995   0.095334
     2  C   -0.027682   0.000000  -0.021203  -0.025558  -0.006759  -0.024741
     3  C   -0.054654   0.000000  -0.053933  -0.034372  -0.006867  -0.106786
     4  C   -0.065510   0.000000   0.029739  -0.043175  -0.003098  -0.120939
     5  C   -0.060554   0.000000   0.050163  -0.019482   0.000085  -0.115827
     6  C   -0.067811   0.000000   0.023246   0.059067   0.005032  -0.116516
     7  C    0.031820   0.000000   0.010555   0.130990   0.004470   0.092650
     8  C   -0.044613   0.000000  -0.055800  -0.098590  -0.018124  -0.043371
     9  H    0.044275   0.000000  -0.093709  -0.124742  -0.015795   0.100590
    10  H    0.040995   0.000000   0.059820  -0.146594  -0.009650   0.096801
    11  H    0.042292   0.000000   0.156903  -0.027216   0.004759   0.098124
    12  H    0.043110   0.000000   0.102516   0.119515   0.014566   0.100472
    13  H    0.145879   0.000000   0.079645   0.197724   0.011027   0.340168
    14  N   -0.097282   0.000000   0.027404   0.059363  -0.000911  -0.446570
    15  C   -0.059491   0.000000   0.017218   0.008579   0.002896  -0.152283
    16  H    0.038369   0.000000  -0.020754  -0.047824  -0.136828   0.097518
    17  H    0.039217   0.000000   0.007467  -0.121083   0.083027   0.098251
    18  C   -0.007550   0.000000  -0.025500  -0.006017  -0.010321  -0.047301
    19  H    0.027884   0.000000  -0.018865   0.053963   0.114312   0.090735
    20  H    0.045838   0.000000   0.020281   0.116275  -0.088889   0.111784
    21  H    0.102612   0.000000  -0.119623   0.136539   0.022525   0.301414
    22  N   -0.186646   0.000000   0.000959   0.023878   0.163575  -0.536589
    23  C    0.024077   0.000000   0.000397   0.018891  -0.024220   0.026124
    24  H    0.036632   0.000000   0.007080   0.011182   0.132139   0.106621
    25  C    0.229371   0.000000   0.000442  -0.072702   0.001623   0.288357
    26  O   -0.279901   0.000000   0.084865  -0.058372   0.024063  -0.330943
    27  O   -0.124244   0.000000  -0.111350   0.056760  -0.037285  -0.212462
    28  C   -0.006791   0.000000   0.054442   0.004020   0.007230  -0.128757
    29  H    0.053890   0.000000  -0.000571  -0.158225   0.030948   0.114442
    30  H    0.049737   0.000000  -0.105383   0.052012   0.102111   0.111133
    31  H    0.051052   0.000000  -0.062065   0.003159  -0.144323   0.112551
       Tot  -0.000016   0.000000   0.034750   0.144225   0.225311  -0.000016
 Hirshfeld charges with hydrogens summed into heavy atoms:
              Q-H       Q-CM5   
     1  C    0.035665   0.095334
     2  C   -0.027682  -0.024741
     3  C   -0.010379  -0.006196
     4  C   -0.024515  -0.024138
     5  C   -0.018262  -0.017703
     6  C   -0.024702  -0.016044
     7  C    0.031820   0.092650
     8  C   -0.044613  -0.043371
    14  N    0.048597  -0.106402
    15  C    0.018095   0.043486
    18  C    0.066171   0.155218
    22  N   -0.084034  -0.235175
    23  C    0.060709   0.132745
    25  C    0.229371   0.288357
    26  O   -0.279901  -0.330943
    27  O   -0.124244  -0.212462
    28  C    0.147888   0.209369
 
 EQQ= 0.000000000000E+00 EQD= 0.000000000000E+00 EDD= 0.692711705096E-02
 EQQ+QD+DD= 0.692711705096E-02
 
          MBS Condensed to atoms (all electrons):
               1          2          3          4          5          6
     1  C    4.739074   0.481562  -0.028161  -0.012582  -0.032836   0.498673
     2  C    0.481562   4.807492   0.490840  -0.031736  -0.011478  -0.025566
     3  C   -0.028161   0.490840   4.829566   0.518550  -0.030656  -0.009219
     4  C   -0.012582  -0.031736   0.518550   4.840610   0.495202  -0.030569
     5  C   -0.032836  -0.011478  -0.030656   0.495202   4.835781   0.515720
     6  C    0.498673  -0.025566  -0.009219  -0.030569   0.515720   4.838551
     7  C   -0.062740  -0.053050   0.000997  -0.000012  -0.000012   0.001227
     8  C   -0.050422   0.459623  -0.019167   0.000742   0.000056   0.001042
     9  H    0.001489  -0.025773   0.388361  -0.025023   0.001469   0.000017
    10  H    0.000073   0.001533  -0.026187   0.390766  -0.025946   0.001470
    11  H    0.001548   0.000061   0.001472  -0.025478   0.390767  -0.026426
    12  H   -0.025324   0.001310   0.000021   0.001427  -0.023652   0.388116
    13  H   -0.025073   0.002258  -0.000032   0.000000  -0.000013  -0.001128
    14  N    0.406894  -0.050308   0.000794   0.000034   0.000547  -0.020579
    15  C    0.000917  -0.017477  -0.000886   0.000001   0.000000  -0.000005
    16  H   -0.000005  -0.000488   0.000101   0.000000   0.000000   0.000000
    17  H    0.000008  -0.002095   0.000215  -0.000002   0.000000   0.000000
    18  C    0.001165   0.001054  -0.000006   0.000000   0.000000  -0.000006
    19  H   -0.000001  -0.000028   0.000000   0.000000   0.000000   0.000000
    20  H    0.000017  -0.000027   0.000000   0.000000   0.000000   0.000000
    21  H    0.000000   0.000001   0.000000   0.000000   0.000000   0.000000
    22  N   -0.000008   0.000013   0.000000   0.000000   0.000000   0.000000
    23  C   -0.000011   0.000677   0.000002   0.000000   0.000000   0.000000
    24  H   -0.000002   0.000012   0.000000   0.000000   0.000000   0.000000
    25  C    0.000000  -0.000003   0.000000   0.000000   0.000000   0.000000
    26  O    0.000000   0.000000   0.000000   0.000000   0.000000   0.000000
    27  O    0.000000   0.000000   0.000000   0.000000   0.000000   0.000000
    28  C    0.000000   0.000000   0.000000   0.000000   0.000000   0.000000
    29  H    0.000000   0.000000   0.000000   0.000000   0.000000   0.000000
    30  H    0.000000   0.000000   0.000000   0.000000   0.000000   0.000000
    31  H    0.000000   0.000000   0.000000   0.000000   0.000000   0.000000
               7          8          9         10         11         12
     1  C   -0.062740  -0.050422   0.001489   0.000073   0.001548  -0.025324
     2  C   -0.053050   0.459623  -0.025773   0.001533   0.000061   0.001310
     3  C    0.000997  -0.019167   0.388361  -0.026187   0.001472   0.000021
     4  C   -0.000012   0.000742  -0.025023   0.390766  -0.025478   0.001427
     5  C   -0.000012   0.000056   0.001469  -0.025946   0.390767  -0.023652
     6  C    0.001227   0.001042   0.000017   0.001470  -0.026426   0.388116
     7  C    4.803029   0.550937   0.000001   0.000000   0.000000  -0.000005
     8  C    0.550937   4.885674  -0.002152  -0.000016   0.000000  -0.000029
     9  H    0.000001  -0.002152   0.562480  -0.003933  -0.000040   0.000002
    10  H    0.000000  -0.000016  -0.003933   0.564910  -0.003741  -0.000038
    11  H    0.000000   0.000000  -0.000040  -0.003741   0.563082  -0.003952
    12  H   -0.000005  -0.000029   0.000002  -0.000038  -0.003952   0.562810
    13  H   -0.025429   0.002123   0.000001   0.000000   0.000000   0.000832
    14  N    0.407958  -0.049910  -0.000015   0.000000  -0.000010  -0.001708
    15  C   -0.025745   0.387231   0.000319   0.000000   0.000000   0.000000
    16  H   -0.000233  -0.024220  -0.000004   0.000000   0.000000   0.000000
    17  H    0.000990  -0.022427   0.000244   0.000000   0.000000   0.000000
    18  C    0.389995  -0.024012   0.000000   0.000000   0.000000   0.000000
    19  H   -0.027537  -0.000143   0.000000   0.000000   0.000000   0.000000
    20  H   -0.022347   0.000727   0.000000   0.000000   0.000000   0.000000
    21  H    0.001842   0.000103   0.000000   0.000000   0.000000   0.000000
    22  N   -0.024875  -0.005250   0.000000   0.000000   0.000000   0.000000
    23  C   -0.008908  -0.023136  -0.000004   0.000000   0.000000   0.000000
    24  H    0.000194  -0.001619   0.000000   0.000000   0.000000   0.000000
    25  C    0.000041   0.000710   0.000000   0.000000   0.000000   0.000000
    26  O    0.000000  -0.000001   0.000000   0.000000   0.000000   0.000000
    27  O    0.000000   0.000009   0.000000   0.000000   0.000000   0.000000
    28  C    0.000000   0.000000   0.000000   0.000000   0.000000   0.000000
    29  H    0.000000   0.000000   0.000000   0.000000   0.000000   0.000000
    30  H    0.000000   0.000000   0.000000   0.000000   0.000000   0.000000
    31  H    0.000000   0.000000   0.000000   0.000000   0.000000   0.000000
              13         14         15         16         17         18
     1  C   -0.025073   0.406894   0.000917  -0.000005   0.000008   0.001165
     2  C    0.002258  -0.050308  -0.017477  -0.000488  -0.002095   0.001054
     3  C   -0.000032   0.000794  -0.000886   0.000101   0.000215  -0.000006
     4  C    0.000000   0.000034   0.000001   0.000000  -0.000002   0.000000
     5  C   -0.000013   0.000547   0.000000   0.000000   0.000000   0.000000
     6  C   -0.001128  -0.020579  -0.000005   0.000000   0.000000  -0.000006
     7  C   -0.025429   0.407958  -0.025745  -0.000233   0.000990   0.389995
     8  C    0.002123  -0.049910   0.387231  -0.024220  -0.022427  -0.024012
     9  H    0.000001  -0.000015   0.000319  -0.000004   0.000244   0.000000
    10  H    0.000000   0.000000   0.000000   0.000000   0.000000   0.000000
    11  H    0.000000  -0.000010   0.000000   0.000000   0.000000   0.000000
    12  H    0.000832  -0.001708   0.000000   0.000000   0.000000   0.000000
    13  H    0.415769   0.345367  -0.000025   0.000001   0.000001  -0.001209
    14  N    0.345367   6.350709   0.000662  -0.000002  -0.000010  -0.019003
    15  C   -0.000025   0.000662   4.774446   0.369081   0.371519  -0.002836
    16  H    0.000001  -0.000002   0.369081   0.602698  -0.024309   0.000074
    17  H    0.000001  -0.000010   0.371519  -0.024309   0.595047  -0.000015
    18  C   -0.001209  -0.019003  -0.002836   0.000074  -0.000015   4.679887
    19  H    0.000186  -0.000281  -0.000079  -0.000015   0.000031   0.358619
    20  H    0.000533  -0.001403   0.000013   0.000025  -0.000002   0.374363
    21  H    0.000000  -0.000013   0.001924  -0.000019  -0.000063  -0.027623
    22  N   -0.000004   0.000288  -0.026264  -0.000117   0.001140   0.335059
    23  C    0.000000   0.000024   0.359207  -0.023152  -0.019804  -0.029870
    24  H    0.000001  -0.000011  -0.028564   0.002367  -0.002520  -0.004043
    25  C    0.000000   0.000000  -0.018149  -0.002606  -0.001382   0.001171
    26  O    0.000000   0.000000   0.000215   0.000027   0.000004   0.000019
    27  O    0.000000   0.000000  -0.001334   0.000326   0.000866  -0.000002
    28  C    0.000000   0.000000   0.000028  -0.000027  -0.000015   0.000000
    29  H    0.000000   0.000000  -0.000001   0.000001   0.000000   0.000000
    30  H    0.000000   0.000000  -0.000002   0.000001   0.000000   0.000000
    31  H    0.000000   0.000000   0.000000   0.000000   0.000001   0.000000
              19         20         21         22         23         24
     1  C   -0.000001   0.000017   0.000000  -0.000008  -0.000011  -0.000002
     2  C   -0.000028  -0.000027   0.000001   0.000013   0.000677   0.000012
     3  C    0.000000   0.000000   0.000000   0.000000   0.000002   0.000000
     4  C    0.000000   0.000000   0.000000   0.000000   0.000000   0.000000
     5  C    0.000000   0.000000   0.000000   0.000000   0.000000   0.000000
     6  C    0.000000   0.000000   0.000000   0.000000   0.000000   0.000000
     7  C   -0.027537  -0.022347   0.001842  -0.024875  -0.008908   0.000194
     8  C   -0.000143   0.000727   0.000103  -0.005250  -0.023136  -0.001619
     9  H    0.000000   0.000000   0.000000   0.000000  -0.000004   0.000000
    10  H    0.000000   0.000000   0.000000   0.000000   0.000000   0.000000
    11  H    0.000000   0.000000   0.000000   0.000000   0.000000   0.000000
    12  H    0.000000   0.000000   0.000000   0.000000   0.000000   0.000000
    13  H    0.000186   0.000533   0.000000  -0.000004   0.000000   0.000001
    14  N   -0.000281  -0.001403  -0.000013   0.000288   0.000024  -0.000011
    15  C   -0.000079   0.000013   0.001924  -0.026264   0.359207  -0.028564
    16  H   -0.000015   0.000025  -0.000019  -0.000117  -0.023152   0.002367
    17  H    0.000031  -0.000002  -0.000063   0.001140  -0.019804  -0.002520
    18  C    0.358619   0.374363  -0.027623   0.335059  -0.029870  -0.004043
    19  H    0.644470  -0.028298  -0.002445  -0.021843  -0.002304   0.002640
    20  H   -0.028298   0.594285  -0.001815  -0.022737   0.001950  -0.000019
    21  H   -0.002445  -0.001815   0.472872   0.326303  -0.031729  -0.000452
    22  N   -0.021843  -0.022737   0.326303   6.635266   0.336345  -0.023537
    23  C   -0.002304   0.001950  -0.031729   0.336345   4.734056   0.352599
    24  H    0.002640  -0.000019  -0.000452  -0.023537   0.352599   0.639630
    25  C   -0.000018  -0.000023  -0.005559  -0.023337   0.359775  -0.023727
    26  O    0.000002   0.000000   0.006890  -0.003114  -0.025303  -0.000151
    27  O    0.000000   0.000000   0.000078   0.000139  -0.032270  -0.000061
    28  C    0.000000   0.000000  -0.000002  -0.000007   0.001571  -0.000052
    29  H    0.000000   0.000000   0.000000   0.000000  -0.000024   0.000001
    30  H    0.000000   0.000000   0.000000   0.000000  -0.000001   0.000017
    31  H    0.000000   0.000000  -0.000001   0.000001   0.000005  -0.000004
              25         26         27         28         29         30
     1  C    0.000000   0.000000   0.000000   0.000000   0.000000   0.000000
     2  C   -0.000003   0.000000   0.000000   0.000000   0.000000   0.000000
     3  C    0.000000   0.000000   0.000000   0.000000   0.000000   0.000000
     4  C    0.000000   0.000000   0.000000   0.000000   0.000000   0.000000
     5  C    0.000000   0.000000   0.000000   0.000000   0.000000   0.000000
     6  C    0.000000   0.000000   0.000000   0.000000   0.000000   0.000000
     7  C    0.000041   0.000000   0.000000   0.000000   0.000000   0.000000
     8  C    0.000710  -0.000001   0.000009   0.000000   0.000000   0.000000
     9  H    0.000000   0.000000   0.000000   0.000000   0.000000   0.000000
    10  H    0.000000   0.000000   0.000000   0.000000   0.000000   0.000000
    11  H    0.000000   0.000000   0.000000   0.000000   0.000000   0.000000
    12  H    0.000000   0.000000   0.000000   0.000000   0.000000   0.000000
    13  H    0.000000   0.000000   0.000000   0.000000   0.000000   0.000000
    14  N    0.000000   0.000000   0.000000   0.000000   0.000000   0.000000
    15  C   -0.018149   0.000215  -0.001334   0.000028  -0.000001  -0.000002
    16  H   -0.002606   0.000027   0.000326  -0.000027   0.000001   0.000001
    17  H   -0.001382   0.000004   0.000866  -0.000015   0.000000   0.000000
    18  C    0.001171   0.000019  -0.000002   0.000000   0.000000   0.000000
    19  H   -0.000018   0.000002   0.000000   0.000000   0.000000   0.000000
    20  H   -0.000023   0.000000   0.000000   0.000000   0.000000   0.000000
    21  H   -0.005559   0.006890   0.000078  -0.000002   0.000000   0.000000
    22  N   -0.023337  -0.003114   0.000139  -0.000007   0.000000   0.000000
    23  C    0.359775  -0.025303  -0.032270   0.001571  -0.000024  -0.000001
    24  H   -0.023727  -0.000151  -0.000061  -0.000052   0.000001   0.000017
    25  C    4.504487   0.459329   0.294935  -0.032917   0.002404  -0.003631
    26  O    0.459329   8.053457  -0.023957  -0.001746   0.000076   0.001230
    27  O    0.294935  -0.023957   7.924741   0.256201  -0.019650  -0.016115
    28  C   -0.032917  -0.001746   0.256201   4.733673   0.379154   0.373116
    29  H    0.002404   0.000076  -0.019650   0.379154   0.560671  -0.021891
[...]
 0005078,-0.00000361,-0.00002053,-0.00001879,0.00004044,-0.00004852,-0.
 00001163,-0.00004425,0.00007504,0.00004922,-0.00036326,0.00002911,-0.0
 0043744,0.02170985,-0.01928685,0.00823658,0.00161061,0.00024193,-0.000
 76495,-0.00079301,-0.00137060,-0.00009832,-0.00377315,-0.00105950,-0.0
 0142331,0.00043692,-0.00050826,0.00032104,-0.00050770,0.00035156,0.000
 00141,-0.00512697,0.00148072,-0.00166634,-0.00809415,0.00530632,-0.004
 42953,-0.00057471,0.00885238,-0.08397206,-0.01550266,0.02023520,-0.003
 41436,0.13246414,0.25116864,0.42195670,-0.00046579,0.00027423,-0.00019
 858,0.00000912,-0.00033577,-0.00013844,-0.00011866,0.00001012,-0.00012
 160,-0.00002745,0.00011415,0.00004359,-0.00000431,0.00015579,0.0001492
 6,0.00010507,-0.00013139,-0.00005403,-0.00023129,0.00008839,-0.0005554
 8,-0.00005633,0.00091197,0.00133891,0.00003006,-0.00003361,0.00002618,
 -0.00000542,0.00004329,0.00004774,-0.00000962,0.00003069,0.00002445,-0
 .00003426,0.00001673,-0.00001201,0.00005839,-0.00005981,0.00001410,0.0
 0005674,0.00043264,0.00053251,-0.00164240,0.00179684,-0.00188460,-0.00
 029438,-0.00036147,0.00016917,0.00019720,0.00070966,0.00019711,0.00186
 845,0.00024824,0.00165511,-0.00019475,0.00047640,-0.00024948,-0.000115
 36,-0.00003796,0.00000404,0.00084409,0.00031172,0.00295834,-0.00167240
 ,0.00482773,-0.00049592,0.00984233,0.01762493,0.00422689,-0.00194488,0
 .00319221,-0.00054075,-0.10575522,-0.02434562,-0.02836451,0.10330027,0
 .00035460,-0.00042701,0.00004453,0.00087169,0.00044838,0.00086101,0.00
 004387,-0.00000946,0.00000558,-0.00000611,-0.00002418,-0.00005053,0.00
 005668,-0.00014704,-0.00009799,0.00005926,0.00007743,0.00017111,-0.001
 26556,0.00027928,-0.00096493,-0.00037150,-0.00094873,-0.00322288,-0.00
 002443,0.00007669,0.00009412,-0.00000974,-0.00005919,-0.00005377,0.000
 03085,-0.00006204,-0.00002079,0.00008119,-0.00007785,0.00001627,-0.000
 04060,-0.00012129,-0.00012342,0.00112520,-0.00072182,0.00030532,0.0048
 0460,-0.00237432,0.00665946,0.00012525,-0.00021562,-0.00072365,-0.0000
 1468,0.00044598,0.00004680,0.00031414,0.00109734,-0.00004703,-0.000308
 72,0.00002682,0.00003917,0.00049124,-0.00022079,0.00016544,0.00169614,
 -0.00269384,0.00182456,-0.00237665,0.00175744,-0.00189417,0.00131413,-
 0.03956499,-0.02584771,0.00169454,-0.00007163,-0.00012344,-0.01382767,
 -0.58820080,-0.24160647,0.04966574,0.65979207,-0.00006591,0.00010558,0
 .00006596,0.00006344,0.00010189,0.00007778,-0.00005815,-0.00002911,-0.
 00013593,-0.00005474,0.00006072,0.00004231,0.00005130,0.00002662,0.000
 05124,0.00003409,-0.00007059,-0.00000801,-0.00063614,0.00015685,-0.000
 71588,0.00039275,0.00053570,0.00054533,0.00002433,0.00000943,0.0000443
 8,-0.00000788,0.00000942,0.00000490,0.00001035,-0.00000393,0.00000134,
 0.00001118,-0.00000742,0.00000191,0.00001785,-0.00006242,-0.00006372,0
 .00046851,-0.00012684,0.00032963,-0.00166740,0.00085350,-0.00059658,-0
 .00017179,-0.00007089,0.00005522,0.00010493,0.00064633,0.00022930,0.00
 069272,0.00016686,0.00096991,-0.00009746,0.00002465,-0.00008064,0.0001
 4151,-0.00004147,0.00000744,0.00290779,0.00023699,0.00039665,-0.003144
 17,0.00246291,-0.00000678,-0.00642598,-0.01227815,0.01560386,0.0030943
 4,-0.00294956,-0.00028501,-0.02092910,-0.24737587,-0.20465386,0.062355
 18,0.31376705,0.21059304,-0.00074688,0.00037225,-0.00038317,0.00018324
 ,-0.00057948,-0.00038837,-0.00020006,0.00000683,-0.00022172,-0.0000677
 0,0.00020452,0.00008815,0.00000369,0.00028885,0.00026495,0.00014977,-0
 .00026434,-0.00010831,0.00029330,-0.00060536,-0.00049892,0.00022432,0.
 00029106,0.00107594,0.00004452,-0.00007741,0.00001772,-0.00000869,0.00
 008653,0.00009153,-0.00002347,0.00005984,0.00004233,-0.00006260,0.0000
 3070,-0.00001937,0.00009089,-0.00008434,0.00003082,-0.00014677,0.00074
 918,0.00058355,-0.00204031,-0.00013547,-0.00267382,-0.00020747,-0.0000
 5830,0.00036199,-0.00101272,0.00112941,0.00039489,-0.00027157,-0.00285
 809,0.00054076,0.00010966,0.00059116,-0.00040739,-0.00083976,0.0006892
 6,-0.00035474,0.00204390,-0.00081897,0.00077562,-0.00422941,0.00774024
 ,-0.00022860,-0.02822549,-0.00238709,-0.02139242,-0.00189285,0.0017853
 4,-0.00123809,-0.19808891,-0.01248639,-0.08102789,-0.00820854,-0.04868
 275,-0.04462891,0.41254073,0.00020864,-0.00007485,0.00014256,0.0000177
 0,0.00019216,0.00021697,0.00001521,0.00001578,-0.00003025,0.00002852,-
 0.00001247,-0.00001577,0.00001884,-0.00008653,-0.00006482,-0.00000770,
 0.00006230,0.00003550,-0.00038028,0.00024920,-0.00030110,0.00022519,0.
 00074121,0.00003639,-0.00001294,0.00002356,0.00006665,-0.00001067,-0.0
 0002931,-0.00002349,0.00001547,-0.00003322,-0.00001029,0.00003094,-0.0
 0002365,0.00001455,-0.00004015,-0.00003716,-0.00003525,0.00042163,-0.0
 0040264,0.00009986,0.00136175,-0.00212000,0.00014596,-0.00004647,-0.00
 003794,-0.00006115,0.00167043,0.00044697,0.00030823,0.00131177,0.00157
 062,0.00038096,-0.00006224,-0.00011218,0.00010139,0.00057400,-0.000448
 37,0.00024299,0.00113480,-0.00121057,0.00056872,0.00362975,-0.00398486
 ,0.00086053,0.02122704,0.00958727,0.01107557,-0.00012750,0.00068353,-0
 .00005381,-0.00070700,-0.11827497,-0.02389741,-0.04836001,-0.02540713,
 -0.05317759,-0.06467362,0.31053656,-0.00026219,0.00026132,-0.00006340,
 0.00000722,-0.00013332,-0.00007706,-0.00016652,-0.00003562,-0.00017801
 ,-0.00005161,0.00012017,0.00006004,0.00003079,0.00011135,0.00014115,0.
 00008430,-0.00014582,-0.00006004,-0.00012001,-0.00031737,-0.00065175,0
 .00030929,0.00067885,0.00163542,0.00004827,0.00000221,0.00003891,-0.00
 000799,0.00004164,0.00003239,0.00000239,0.00001638,0.00001495,-0.00001
 225,0.00000972,-0.00000606,0.00005520,-0.00007556,-0.00004541,0.000352
 71,0.00006255,0.00043317,-0.00074138,-0.00085250,-0.00230828,-0.000723
 86,-0.00066824,0.00097584,0.00060938,0.00077922,-0.00003255,0.00055685
 ,-0.00119856,0.00068909,0.00000491,0.00034262,-0.00013063,-0.00026795,
 0.00027589,-0.00012549,0.00160248,-0.00106922,0.00086591,-0.00109197,0
 .00295996,0.00134917,-0.01365255,0.00079767,-0.00056397,-0.00000537,-0
 .00087456,0.00045603,-0.07528560,-0.03211704,-0.12238663,-0.04321738,-
 0.05280636,-0.02011268,0.15922686,0.07233646,0.20186805,0.00029430,-0.
 00008629,0.00018078,0.00000048,0.00028560,0.00024239,0.00003176,-0.000
 01385,0.00003575,0.00001920,-0.00004150,-0.00002307,0.00001879,-0.0001
 0952,-0.00007940,-0.00003161,0.00007526,0.00004273,-0.00025503,0.00006
 177,-0.00018557,-0.00000287,0.00014553,-0.00013478,-0.00000563,0.00004
 729,0.00003880,-0.00000122,-0.00003543,-0.00003896,0.00001766,-0.00003
 216,-0.00001592,0.00003340,-0.00001947,0.00001006,-0.00003059,-0.00001
 479,-0.00004425,0.00036987,-0.00048217,-0.00005121,0.00036335,-0.00065
 170,0.00015180,-0.00012670,-0.00007076,0.00028975,0.00014841,0.0005444
 9,0.00023839,-0.00044178,0.00024925,-0.00037241,-0.00002640,-0.0001638
 6,0.00016004,0.00013066,-0.00001717,0.00005135,-0.00038327,0.00018756,
 -0.00017484,0.00096433,0.00022504,-0.00020163,0.00086375,-0.00249135,-
 0.00297561,-0.00007459,0.00080554,-0.00034737,-0.05162351,0.01653406,-
 0.02223585,0.00379329,0.01001321,0.01057317,-0.12151935,0.04208991,-0.
 01181217,0.51298945,-0.00019939,0.00008688,-0.00011751,0.00000002,-0.0
 0017346,-0.00015222,-0.00001690,-0.00000651,-0.00000568,-0.00002889,0.
 00002763,0.00001385,-0.00001103,0.00007851,0.00006637,0.00002143,-0.00
 006188,-0.00003017,0.00021357,-0.00011435,0.00006116,0.00001316,-0.000
 04242,0.00018977,0.00001289,-0.00002244,-0.00003699,0.00000650,0.00002
 432,0.00002306,-0.00001147,0.00002662,0.00000969,-0.00002414,0.0000159
 2,-0.00001135,0.00003071,0.00000125,0.00002321,-0.00021824,0.00030392,
 0.00006750,-0.00012525,-0.00028926,-0.00039727,0.00011405,0.00008895,-
 0.00004199,0.00009659,-0.00019070,0.00003255,0.00008946,-0.00043119,0.
 00012221,0.00003110,0.00013635,-0.00010664,-0.00019218,0.00008400,-0.0
 0005712,0.00033129,-0.00004978,0.00011810,-0.00145412,0.00071145,-0.00
 024340,-0.00147730,0.00114200,-0.00331806,-0.00047350,0.00017683,0.000
 02331,0.01151910,0.01752446,0.01363780,-0.00691017,-0.00877049,-0.0050
 9214,0.06323994,-0.14051217,0.00058086,0.09356179,0.51761158,0.0000670
 3,-0.00002345,0.00005996,-0.00001862,0.00008616,0.00007368,0.00002799,
 -0.00000588,0.00001424,0.00000089,-0.00000915,-0.00001491,0.00000836,-
 0.00002205,-0.00001887,-0.00000678,0.00001828,0.00000771,-0.00002453,-
 0.00005113,-0.00006729,0.00011056,0.00020563,-0.00001372,-0.00000729,0
 .00000532,0.00000896,0.00000050,-0.00001298,-0.00000840,0.00000136,-0.
 00000662,-0.00000195,0.00000344,-0.00000550,0.00000246,-0.00000604,-0.
 00002023,-0.00000472,0.00010382,-0.00009946,-0.00000157,0.00009573,0.0
 0005155,0.00032279,-0.00012134,0.00006620,0.00002385,0.00013777,0.0003
 1954,0.00015842,-0.00025711,-0.00025993,0.00000421,-0.00002162,0.00000
 554,-0.00001975,-0.00005130,0.00008831,-0.00004691,-0.00005185,0.00005
 248,0.00003856,-0.00031908,0.00123551,0.00006466,-0.00406575,-0.004826
 62,0.00203308,0.00079100,-0.00056194,0.00005807,-0.02489916,0.01698462
 ,-0.00524873,0.00245583,0.00446615,-0.00283287,-0.00209858,-0.01072415
 ,-0.07151168,0.00347730,0.02074088,0.59624214,-0.00004644,0.00002405,-
 0.00002448,0.00001234,-0.00004104,-0.00002412,-0.00002540,0.00000007,-
 0.00001943,-0.00000116,0.00001467,0.00000914,-0.00000073,0.00001609,0.
 00001739,0.00001148,-0.00001759,-0.00000655,0.00001723,-0.00004112,-0.
 00002904,0.00002056,0.00004334,0.00009060,0.00000544,-0.00000169,0.000
 00296,-0.00000132,0.00000704,0.00000518,0.00000002,0.00000271,0.000002
 21,-0.00000238,0.00000194,-0.00000068,0.00000472,-0.00000533,-0.000000
 34,0.00000158,0.00004111,0.00004051,-0.00003837,-0.00008973,-0.0001253
 7,-0.00002990,-0.00001055,0.00002310,0.00000177,0.00005656,-0.00001059
 ,-0.00002502,-0.00018908,0.00001562,0.00000114,0.00003645,-0.00001633,
 -0.00005335,0.00004666,-0.00001982,0.00005684,0.00000290,0.00004065,-0
 .00032015,0.00046714,-0.00005242,-0.00049551,-0.00077502,-0.00062980,-
 0.00006966,0.00008420,-0.00002837,-0.00038528,0.00525721,0.00205522,0.
 00078685,-0.00081474,-0.00032060,-0.02826615,-0.00396623,-0.01781669,-
 0.17090564,-0.08145311,-0.10518544,0.19470708,0.00000295,-0.00000510,-
 0.00000255,0.00000266,0.00000441,-0.00000241,0.00000035,-0.00000511,0.
 00000975,-0.00000087,-0.00000355,-0.00000299,-0.00000189,-0.00000208,-
 0.00000018,-0.00000232,0.00000205,0.00000099,-0.00000776,0.00001763,0.
 00002314,-0.00001940,-0.00003623,-0.00002388,0.00000203,0.00000196,-0.
 00000740,0.00000151,0.00000057,-0.00000069,-0.00000061,0.00000123,-0.0
 0000053,-0.00000018,0.00000035,-0.00000080,0.00000107,0.00000413,0.000
 00050,-0.00001508,0.00000688,-0.00000958,0.00001044,0.00012874,0.00004
 477,-0.00000527,-0.00001350,-0.00001863,-0.00001774,-0.00004957,-0.000
 02243,0.00009285,0.00010765,0.00002405,-0.00000343,-0.00000655,0.00000
 187,0.00003244,-0.00003309,0.00001414,0.00002675,-0.00003434,0.0000181
 6,0.00019426,-0.00032939,0.00004304,0.00070588,0.00084151,0.00053558,-
 0.00000340,-0.00003014,0.00004395,0.00207815,-0.00654536,-0.00186319,-
 0.00159193,0.00257317,0.00002075,0.02858537,0.00673636,0.01925551,-0.0
 9193957,-0.10328074,-0.07583940,0.08187013,0.10969392,-0.00002593,0.00
 000775,-0.00001108,0.00000026,-0.00001711,-0.00001439,0.00000470,0.000
 00317,-0.00000579,-0.00000280,0.00000646,0.00000104,0.00000079,0.00001
 037,0.00000629,0.00000363,-0.00000610,-0.00000523,0.00002170,-0.000007
 05,-0.00000579,0.00000783,0.00000661,0.00002043,-0.00000261,-0.0000074
 0,0.00000183,-0.00000068,0.00000112,0.00000417,-0.00000197,0.00000211,
 0.00000189,-0.00000321,0.00000088,-0.00000047,0.00000122,-0.00000260,0
 .00000357,-0.00001885,0.00003255,0.00000956,-0.00004866,-0.00001061,-0
 .00003579,0.00002295,0.00002056,-0.00000499,-0.00001791,-0.00001341,0.
 00001886,0.00002076,-0.00005856,0.00002573,-0.00000197,0.00001617,-0.0
 0001405,-0.00001529,0.00001069,-0.00000742,0.00004204,-0.00001305,0.00
 002544,-0.00010595,0.00014367,-0.00001809,-0.00008989,-0.00016411,0.00
 011104,-0.00000490,-0.00000227,-0.00002343,0.00064860,-0.00018865,0.00
 053089,-0.00062341,0.00046738,0.00047212,-0.00253745,0.00095259,-0.001
 01180,-0.11014757,-0.06994120,-0.14749011,0.12195161,0.07579191,0.1513
 9287,-0.00003308,0.00000776,-0.00002121,0.00000189,-0.00003177,-0.0000
 3829,-0.00000513,0.00000200,-0.00000131,0.00000045,0.00000315,0.000002
 63,-0.00000472,0.00001046,0.00000919,0.00000271,-0.00000493,-0.0000057
 4,0.00004465,-0.00000108,0.00003321,-0.00000074,-0.00006685,-0.0000104
 5,0.00000059,-0.00000448,-0.00000563,0.00000008,0.00000434,0.00000390,
 -0.00000175,0.00000351,0.00000148,-0.00000363,0.00000278,-0.00000119,0
 .00000163,0.00000517,0.00000806,-0.00006122,0.00005758,-0.00000838,0.0
 0003146,-0.00006502,-0.00009470,0.00005548,-0.00000717,-0.00004290,-0.
 00003107,-0.00010542,-0.00003706,-0.00000814,-0.00005706,0.00001238,0.
 00001291,0.00001362,-0.00001656,-0.00002424,0.00000756,-0.00000613,-0.
 00004567,0.00002823,-0.00002093,-0.00008231,-0.00004729,-0.00006091,0.
 00031136,0.00041657,-0.00072614,-0.00022989,0.00017967,-0.00005935,0.0
 0391575,0.00525262,0.00623745,0.00036674,-0.00331798,-0.00153555,-0.02
 224401,0.01320783,0.01849279,-0.08224796,0.01597954,0.08225541,0.01118
 606,-0.00395211,-0.01973756,0.09213629,0.00004930,-0.00001643,0.000025
 98,0.00000140,0.00003607,0.00004492,0.00000313,-0.00000127,0.00000459,
 0.00000288,-0.00000827,-0.00000374,0.00000365,-0.00001744,-0.00001383,
 -0.00000490,0.00001034,0.00000830,-0.00003868,0.00000367,-0.00001820,-
 0.00000318,0.00003195,-0.00003358,-0.00000183,0.00000724,0.00000483,0.
 00000024,-0.00000531,-0.00000618,0.00000269,-0.00000441,-0.00000243,0.
 00000534,-0.00000308,0.00000108,-0.00000230,-0.00000214,-0.00000707,0.
 00005731,-0.00007124,-0.00000510,0.00004723,-0.00002627,0.00015036,-0.
 00005092,-0.00000150,0.00003251,0.00002626,0.00011180,0.00000811,-0.00
 002571,0.00007381,-0.00004500,-0.00000459,-0.00002258,0.00002623,0.000
 02496,-0.00000919,0.00001182,-0.00004948,0.00004801,-0.00002337,0.0000
 7191,-0.00009300,0.00005908,-0.00013777,-0.00034061,0.00022428,0.00011
 684,-0.00014871,0.00007383,-0.00338371,-0.00066964,-0.00282996,0.00100
 667,0.00110393,0.00088394,0.02035764,-0.01227423,-0.01941756,0.0159881
 8,-0.05846205,-0.04286000,0.00475796,-0.00164490,-0.01234417,-0.028716
 05,0.06490019,0.00000909,-0.00000445,0.00000656,0.00000720,0.00000313,
 0.00001423,-0.00000924,-0.00000021,-0.00000358,0.00000192,-0.00000141,
 0.00000308,-0.00000023,-0.00000527,-0.00000199,0.00000166,0.00000291,0
 .00000211,-0.00002427,0.00000876,-0.00001713,-0.00001597,-0.00000038,0
 .00000162,0.00000345,0.00000550,0.00000254,-0.00000043,0.00000044,-0.0
 0000231,0.00000224,-0.00000211,-0.00000131,0.00000319,-0.00000092,0.00
 000067,-0.00000137,0.00000045,-0.00000489,0.00002711,-0.00002834,0.000
 00713,0.00004963,-0.00003819,-0.00003127,-0.00002290,-0.00001992,0.000
 02588,0.00000117,0.00002722,-0.00000438,-0.00001102,0.00002718,-0.0000
 1670,0.00000341,-0.00001063,0.00001692,0.00000800,-0.00000441,0.000005
 32,-0.00000424,0.00001767,-0.00000727,0.00010295,-0.00007367,0.0000262
 6,0.00045254,0.00035044,-0.00057159,-0.00010582,0.00016396,-0.00004902
 ,-0.00210661,-0.00054221,0.00043755,-0.00056990,0.00083135,0.00030371,
 -0.00119291,-0.00123692,0.01115950,0.08988929,-0.04694603,-0.27420592,
 0.00663689,-0.00144596,-0.01390645,-0.09648591,0.05202623,0.28790585,-
 0.00001528,0.00001556,-0.00000735,-0.00000944,-0.00002164,-0.00001869,
 -0.00000371,0.00000271,-0.00000497,-0.00000130,0.00000607,0.00000326,0
 .,0.00000867,0.00000383,0.00000050,-0.00000974,-0.00000284,0.00001158,
 -0.00001327,0.00000849,0.00002441,-0.00000409,0.00004038,0.00000035,-0
 .00000486,-0.00000037,-0.00000066,0.00000246,0.00000307,-0.00000099,0.
 00000151,0.00000146,-0.00000276,0.00000179,0.00000004,0.00000172,0.000
 00123,0.00000226,-0.00002030,0.00003028,-0.00000154,0.00001453,0.00011
 290,-0.00011597,-0.00001532,-0.00000246,0.00001872,-0.00002999,-0.0000
 5613,-0.00001472,-0.00001657,-0.00008099,0.00002343,0.00000407,0.00001
 306,-0.00001044,-0.00002664,0.00002254,-0.00001774,-0.00000017,0.00000
 457,-0.00001101,-0.00013294,0.00012212,0.00006462,-0.00064331,-0.00042
 458,0.00082256,0.00004890,-0.00017851,0.00003939,0.00351870,0.00433300
 ,0.00172006,-0.00047755,-0.00168120,-0.00119965,0.00261869,0.03120540,
 -0.01614795,-0.09236256,-0.09266546,0.04759749,-0.00614664,-0.01604525
 ,0.01066054,-0.00304447,-0.01010444,0.00335105,0.09670716,0.00004349,-
 0.00001711,0.00002712,-0.00000783,0.00004235,0.00003035,0.00001403,0.0
 0000247,0.00000444,0.00000628,-0.00000644,-0.00000758,0.00000217,-0.00
 001704,-0.00001416,-0.00000607,0.00001550,0.00000489,-0.00002626,0.000
 02866,-0.00001325,0.00001995,0.00004697,-0.00005208,-0.00000703,0.0000
 0125,0.00000880,-0.00000129,-0.00000720,-0.00000433,0.00000134,-0.0000
 0512,-0.00000158,0.00000377,-0.00000327,0.00000212,-0.00000786,-0.0000
 0292,-0.00000069,0.00003753,-0.00006097,-0.00001656,-0.00012164,-0.000
 09603,0.00011725,0.00004652,0.00000810,-0.00002621,0.00002958,0.000096
 85,0.00005002,-0.00001763,0.00011067,-0.00003535,-0.00001072,-0.000025
 40,0.00001688,0.00003819,-0.00002686,0.00001854,-0.00004320,0.00000004
 ,-0.00000115,0.00023288,-0.00010325,-0.00004988,0.00016903,0.00011393,
 0.00002082,0.00000866,0.00009231,-0.00007463,-0.00477065,-0.00254346,-
 0.00397774,0.00022960,0.00243969,0.00121678,0.00750351,-0.02576329,0.0
 1107937,-0.08464491,-0.22563325,0.09100232,-0.00532501,-0.00810092,0.0
 0530231,0.00119483,0.00749527,-0.00310422,0.08540874,0.25191845,0.0000
 0690,-0.00000434,-0.00000011,-0.00000106,-0.00000309,-0.00000274,0.000
 00381,0.00000139,0.00000434,0.00000258,-0.00000104,-0.00000286,-0.0000
 0130,-0.00000263,-0.00000248,-0.00000324,0.00000298,0.00000011,0.00001
 616,-0.00000305,0.00002646,0.00000447,-0.00000794,-0.00004451,-0.00000
 353,-0.00000213,-0.00000094,0.00000029,-0.00000107,-0.00000022,-0.0000
 0053,0.00000030,0.00000009,-0.00000046,0.00000016,-0.00000029,0.000000
 30,0.00000228,0.00000281,-0.00001863,0.00000769,-0.00001361,0.00003130
 ,-0.00004829,0.00005530,0.00002250,0.00001626,-0.00002936,-0.00000983,
 -0.00001752,-0.00000754,-0.00003303,0.00000399,-0.00002046,0.00000550,
 -0.00000832,0.00000416,-0.00000476,0.00000258,-0.00000090,-0.00005630,
 0.00004986,-0.00004095,-0.00003631,-0.00005014,-0.00000726,-0.00008180
 ,-0.00017939,-0.00005374,0.00001058,-0.00005773,-0.00000279,0.00148318
 ,0.00373376,0.00244335,0.00082767,-0.00218215,-0.00030408,-0.00409445,
 0.00204609,-0.00045419,0.04345901,0.09078746,-0.09762537,-0.00658101,-
 0.01658748,0.00992911,0.01185939,0.02402411,-0.01109512,-0.04680742,-0
 .10152260,0.09724380\\-0.00000049,-0.00000039,-0.00000093,-0.00000046,
 0.00000004,-0.00000059,-0.00000077,0.00000052,-0.00000064,-0.00000113,
 0.00000049,-0.00000112,-0.00000112,0.,-0.00000144,-0.00000080,-0.00000
 042,-0.00000134,0.00000007,-0.00000055,-0.00000030,-0.00000012,-0.0000
 0008,-0.00000018,-0.00000074,0.00000081,-0.00000045,-0.00000132,0.0000
 0079,-0.00000122,-0.00000133,0.,-0.00000176,-0.00000077,-0.00000076,-0
 .00000153,-0.00000003,-0.00000111,-0.00000079,-0.00000007,-0.00000080,
 -0.00000064,0.00000010,0.00000020,0.00000020,0.00000010,0.00000045,0.0
 0000045,-0.00000006,0.00000054,0.00000025,0.00000046,-0.00000082,0.000
 00011,0.00000053,-0.00000106,0.00000002,0.00000062,-0.00000107,0.00000
 008,0.00000089,-0.00000063,0.00000075,0.00000059,-0.00000049,0.0000004
 8,0.00000044,-0.00000008,0.00000055,0.00000041,-0.00000020,0.00000041,
 0.00000064,0.00000019,0.00000098,0.00000098,0.,0.00000130,0.00000049,0
 .00000061,0.00000105,0.00000071,0.00000090,0.00000152,0.00000050,0.000
 00124,0.00000147,0.00000087,0.00000071,0.00000162,0.00000081,0.0000009
 5,0.00000171\\\@


 ... THE UNIVERSE IS NOT ONLY QUEERER THAN WE SUPPOSE,
 BUT QUEERER THAN WE CAN SUPPOSE ... 

                                   -- J. B. S. HALDANE
 Job cpu time:       0 days  5 hours 49 minutes  6.6 seconds.
 File lengths (MBytes):  RWF=    637 Int=      0 D2E=      0 Chk=     17 Scr=      1
 Normal termination of Gaussian 09 at Tue Jan 24 11:55:42 2023.
