 Entering Gaussian System, Link 0=g09
 Initial command:
 /cm/shared/apps/gaussian/g09revD.01/g09/l1.exe "//home/sweav003/CHB/CHActivation_Mkhalid/non_select/G09-Table7_2.com.o9715488.tmp/Gau-46214.inp" -scrdir="//home/sweav003/CHB/CHActivation_Mkhalid/non_select/G09-Table7_2.com.o9715488.tmp/"
 Entering Link 1 = /cm/shared/apps/gaussian/g09revD.01/g09/l1.exe PID=     46215.
  
 Copyright (c) 1988,1990,1992,1993,1995,1998,2003,2009,2013,
            Gaussian, Inc.  All Rights Reserved.
  
 This is part of the Gaussian(R) 09 program.  It is based on
 the Gaussian(R) 03 system (copyright 2003, Gaussian, Inc.),
 the Gaussian(R) 98 system (copyright 1998, Gaussian, Inc.),
 the Gaussian(R) 94 system (copyright 1995, Gaussian, Inc.),
 the Gaussian 92(TM) system (copyright 1992, Gaussian, Inc.),
 the Gaussian 90(TM) system (copyright 1990, Gaussian, Inc.),
 the Gaussian 88(TM) system (copyright 1988, Gaussian, Inc.),
 the Gaussian 86(TM) system (copyright 1986, Carnegie Mellon
 University), and the Gaussian 82(TM) system (copyright 1983,
 Carnegie Mellon University). Gaussian is a federally registered
 trademark of Gaussian, Inc.
  
 This software contains proprietary and confidential information,
 including trade secrets, belonging to Gaussian, Inc.
  
 This software is provided under written license and may be
 used, copied, transmitted, or stored only in accord with that
 written license.
  
 The following legend is applicable only to US Government
 contracts under FAR:
  
                    RESTRICTED RIGHTS LEGEND
  
 Use, reproduction and disclosure by the US Government is
 subject to restrictions as set forth in subparagraphs (a)
 and (c) of the Commercial Computer Software - Restricted
 Rights clause in FAR 52.227-19.
  
 Gaussian, Inc.
 340 Quinnipiac St., Bldg. 40, Wallingford CT 06492
  
  
 ---------------------------------------------------------------
 Warning -- This program may not be used in any manner that
 competes with the business of Gaussian, Inc. or will provide
 assistance to any competitor of Gaussian, Inc.  The licensee
 of this program is prohibited from giving any competitor of
 Gaussian, Inc. access to this program.  By using this program,
 the user acknowledges that Gaussian, Inc. is engaged in the
 business of creating and licensing software in the field of
 computational chemistry and represents and warrants to the
 licensee that it is not a competitor of Gaussian, Inc. and that
 it will not use this program in any manner prohibited above.
 ---------------------------------------------------------------
  

 Cite this work as:
 Gaussian 09, Revision D.01,
 M. J. Frisch, G. W. Trucks, H. B. Schlegel, G. E. Scuseria, 
 M. A. Robb, J. R. Cheeseman, G. Scalmani, V. Barone, B. Mennucci, 
 G. A. Petersson, H. Nakatsuji, M. Caricato, X. Li, H. P. Hratchian, 
 A. F. Izmaylov, J. Bloino, G. Zheng, J. L. Sonnenberg, M. Hada, 
 M. Ehara, K. Toyota, R. Fukuda, J. Hasegawa, M. Ishida, T. Nakajima, 
 Y. Honda, O. Kitao, H. Nakai, T. Vreven, J. A. Montgomery, Jr., 
 J. E. Peralta, F. Ogliaro, M. Bearpark, J. J. Heyd, E. Brothers, 
 K. N. Kudin, V. N. Staroverov, T. Keith, R. Kobayashi, J. Normand, 
 K. Raghavachari, A. Rendell, J. C. Burant, S. S. Iyengar, J. Tomasi, 
 M. Cossi, N. Rega, J. M. Millam, M. Klene, J. E. Knox, J. B. Cross, 
 V. Bakken, C. Adamo, J. Jaramillo, R. Gomperts, R. E. Stratmann, 
 O. Yazyev, A. J. Austin, R. Cammi, C. Pomelli, J. W. Ochterski, 
 R. L. Martin, K. Morokuma, V. G. Zakrzewski, G. A. Voth, 
 P. Salvador, J. J. Dannenberg, S. Dapprich, A. D. Daniels, 
 O. Farkas, J. B. Foresman, J. V. Ortiz, J. Cioslowski, 
 and D. J. Fox, Gaussian, Inc., Wallingford CT, 2013.
 
 ******************************************
 Gaussian 09:  ES64L-G09RevD.01 24-Apr-2013
                23-Feb-2022 
 ******************************************
 %chk=Table7_2.chk
 ----------------------------------------------------------------------
 # opt freq b3lyp/6-311+g(d,p) geom=connectivity pop=(hirshfeld,npa,mbs
 ,chelpg)
 ----------------------------------------------------------------------
 1/14=-1,18=20,19=15,26=3,38=1,57=2/1,3;
 2/9=110,12=2,17=6,18=5,40=1/2;
 3/5=4,6=6,7=111,11=2,16=1,25=1,30=1,71=1,74=-5/1,2,3;
 4//1;
 5/5=2,38=5/2;
 6/7=2,8=2,9=2,10=2,15=8,20=3,27=100,28=1,40=-1,79=1/1,2,7;
 7//1,2,3,16;
 1/14=-1,18=20,19=15,26=3/3(2);
 2/9=110/2;
 99//99;
 2/9=110/2;
 3/5=4,6=6,7=111,11=2,16=1,25=1,30=1,71=1,74=-5/1,2,3;
 4/5=5,16=3,69=1/1;
 5/5=2,38=5/2;
 7//1,2,3,16;
 1/14=-1,18=20,19=15,26=3/3(-5);
 2/9=110/2;
 6/7=2,8=2,9=2,10=2,15=8,19=2,20=3,27=100,28=1,40=-1,79=1/1,2,7;
 99/9=1/99;
 -------------------
 Title Card Required
 -------------------
 Symbolic Z-matrix:
 Charge =  0 Multiplicity = 1
 C                    -0.35321  -0.08559   0.15428 
 C                     0.98647  -0.20979  -0.04261 
 C                     1.70557   1.16561  -0.05501 
 C                     0.84052   2.1976    0.13368 
 S                    -0.77233   1.5908    0.54319 
 H                    -1.05688  -0.88827   0.08041 
 H                     2.7577    1.28809  -0.20646 
 H                     1.09752   3.23233   0.04325 
 Cl                    1.8068   -1.74932  -0.27601 
 

 GradGradGradGradGradGradGradGradGradGradGradGradGradGradGradGradGradGrad
 Berny optimization.
 Initialization pass.
                           ----------------------------
                           !    Initial Parameters    !
                           ! (Angstroms and Degrees)  !
 --------------------------                            --------------------------
 ! Name  Definition              Value          Derivative Info.                !
 --------------------------------------------------------------------------------
 ! R1    R(1,2)                  1.3598         estimate D2E/DX2                !
 ! R2    R(1,5)                  1.7712         estimate D2E/DX2                !
 ! R3    R(1,6)                  1.07           estimate D2E/DX2                !
 ! R4    R(2,3)                  1.5521         estimate D2E/DX2                !
 ! R5    R(2,9)                  1.76           estimate D2E/DX2                !
 ! R6    R(3,4)                  1.3598         estimate D2E/DX2                !
 ! R7    R(3,7)                  1.07           estimate D2E/DX2                !
 ! R8    R(4,5)                  1.7712         estimate D2E/DX2                !
 ! R9    R(4,8)                  1.07           estimate D2E/DX2                !
 ! A1    A(2,1,5)              110.5717         estimate D2E/DX2                !
 ! A2    A(2,1,6)              124.7089         estimate D2E/DX2                !
 ! A3    A(5,1,6)              124.7189         estimate D2E/DX2                !
 ! A4    A(1,2,3)              112.1288         estimate D2E/DX2                !
 ! A5    A(1,2,9)              123.9397         estimate D2E/DX2                !
 ! A6    A(3,2,9)              123.9275         estimate D2E/DX2                !
 ! A7    A(2,3,4)              112.1288         estimate D2E/DX2                !
 ! A8    A(2,3,7)              123.9275         estimate D2E/DX2                !
 ! A9    A(4,3,7)              123.9397         estimate D2E/DX2                !
 ! A10   A(3,4,5)              110.5717         estimate D2E/DX2                !
 ! A11   A(3,4,8)              124.7089         estimate D2E/DX2                !
 ! A12   A(5,4,8)              124.7189         estimate D2E/DX2                !
 ! A13   A(1,5,4)               93.3257         estimate D2E/DX2                !
 ! D1    D(5,1,2,3)             -7.5816         estimate D2E/DX2                !
 ! D2    D(5,1,2,9)            173.1237         estimate D2E/DX2                !
 ! D3    D(6,1,2,3)            172.1783         estimate D2E/DX2                !
 ! D4    D(6,1,2,9)             -7.1164         estimate D2E/DX2                !
 ! D5    D(2,1,5,4)             10.2583         estimate D2E/DX2                !
 ! D6    D(6,1,5,4)           -169.5015         estimate D2E/DX2                !
 ! D7    D(1,2,3,4)              0.0            estimate D2E/DX2                !
 ! D8    D(1,2,3,7)           -179.2948         estimate D2E/DX2                !
 ! D9    D(9,2,3,4)            179.2948         estimate D2E/DX2                !
 ! D10   D(9,2,3,7)              0.0            estimate D2E/DX2                !
 ! D11   D(2,3,4,5)              7.5816         estimate D2E/DX2                !
 ! D12   D(2,3,4,8)           -172.1783         estimate D2E/DX2                !
 ! D13   D(7,3,4,5)           -173.1237         estimate D2E/DX2                !
 ! D14   D(7,3,4,8)              7.1164         estimate D2E/DX2                !
 ! D15   D(3,4,5,1)            -10.2583         estimate D2E/DX2                !
 ! D16   D(8,4,5,1)            169.5015         estimate D2E/DX2                !
 --------------------------------------------------------------------------------
 Trust Radius=3.00D-01 FncErr=1.00D-07 GrdErr=1.00D-06
 Number of steps in this run=     48 maximum allowed number of steps=    100.
 GradGradGradGradGradGradGradGradGradGradGradGradGradGradGradGradGradGrad

                          Input orientation:                          
 ---------------------------------------------------------------------
 Center     Atomic      Atomic             Coordinates (Angstroms)
 Number     Number       Type             X           Y           Z
 ---------------------------------------------------------------------
      1          6           0       -0.353211   -0.085588    0.154276
      2          6           0        0.986469   -0.209788   -0.042606
      3          6           0        1.705573    1.165607   -0.055011
      4          6           0        0.840518    2.197596    0.133684
      5         16           0       -0.772328    1.590796    0.543194
      6          1           0       -1.056877   -0.888269    0.080413
      7          1           0        2.757696    1.288091   -0.206459
      8          1           0        1.097516    3.232330    0.043249
      9         17           0        1.806805   -1.749324   -0.276015
 ---------------------------------------------------------------------
                    Distance matrix (angstroms):
                    1          2          3          4          5
     1  C    0.000000
     2  C    1.359753   0.000000
     3  C    2.418239   1.552088   0.000000
     4  C    2.576498   2.418239   1.359753   0.000000
     5  S    1.771208   2.584305   2.584305   1.771208   0.000000
     6  H    1.070000   2.156556   3.444979   3.622915   2.537892
     7  H    3.419775   2.325453   1.070000   2.149062   3.621420
     8  H    3.622915   3.444979   2.156556   1.070000   2.537892
     9  Cl   2.760223   1.760000   2.925049   4.084084   4.298770
                    6          7          8          9
     6  H    0.000000
     7  H    4.401114   0.000000
     8  H    4.649960   2.568777   0.000000
     9  Cl   3.011500   3.183538   5.042013   0.000000
 Stoichiometry    C4H3ClS
 Framework group  C1[X(C4H3ClS)]
 Deg. of freedom    21
 Full point group                 C1      NOp   1
 Largest Abelian subgroup         C1      NOp   1
 Largest concise Abelian subgroup C1      NOp   1
                         Standard orientation:                         
 ---------------------------------------------------------------------
 Center     Atomic      Atomic             Coordinates (Angstroms)
 Number     Number       Type             X           Y           Z
 ---------------------------------------------------------------------
      1          6           0        0.208008   -1.069517    0.106616
      2          6           0       -0.608981    0.014261    0.023656
      3          6           0        0.187548    1.346068   -0.004783
      4          6           0        1.530262    1.141309    0.059407
      5         16           0        1.903136   -0.585693   -0.065523
      6          1           0       -0.126481   -2.074421    0.258885
      7          1           0       -0.267486    2.313100   -0.056675
      8          1           0        2.259872    1.915590    0.173684
      9         17           0       -2.365712   -0.080936   -0.025700
 ---------------------------------------------------------------------
 Rotational constants (GHZ):      6.6428491      1.4415422      1.1869702
 Standard basis: 6-311+G(d,p) (5D, 7F)
 There are   172 symmetry adapted cartesian basis functions of A   symmetry.
 There are   166 symmetry adapted basis functions of A   symmetry.
   166 basis functions,   271 primitive gaussians,   172 cartesian basis functions
    30 alpha electrons       30 beta electrons
       nuclear repulsion energy       311.7590473708 Hartrees.
 NAtoms=    9 NActive=    9 NUniq=    9 SFac= 1.00D+00 NAtFMM=   60 NAOKFM=F Big=F
 Integral buffers will be    131072 words long.
 Raffenetti 2 integral format.
 Two-electron integral symmetry is turned on.
 One-electron integrals computed using PRISM.
 NBasis=   166 RedAO= T EigKep=  1.77D-05  NBF=   166
 NBsUse=   166 1.00D-06 EigRej= -1.00D+00 NBFU=   166
 ExpMin= 4.05D-02 ExpMax= 1.06D+05 ExpMxC= 3.62D+03 IAcc=2 IRadAn=         4 AccDes= 0.00D+00
 Harris functional with IExCor=  402 and IRadAn=       4 diagonalized for initial guess.
 HarFok:  IExCor=  402 AccDes= 0.00D+00 IRadAn=         4 IDoV= 1 UseB2=F ITyADJ=14
 ICtDFT=  3500011 ScaDFX=  1.000000  1.000000  1.000000  1.000000
 FoFCou: FMM=F IPFlag=           0 FMFlag=      100000 FMFlg1=           0
         NFxFlg=           0 DoJE=T BraDBF=F KetDBF=T FulRan=T
         wScrn=  0.000000 ICntrl=     500 IOpCl=  0 I1Cent=   200000004 NGrid=           0
         NMat0=    1 NMatS0=      1 NMatT0=    0 NMatD0=    1 NMtDS0=    0 NMtDT0=    0
 Petite list used in FoFCou.
 Requested convergence on RMS density matrix=1.00D-08 within 128 cycles.
 Requested convergence on MAX density matrix=1.00D-06.
 Requested convergence on             energy=1.00D-06.
 No special actions if energy rises.
 SCF Done:  E(RB3LYP) =  -1012.67703794     A.U. after   14 cycles
            NFock= 14  Conv=0.59D-08     -V/T= 2.0026

 **********************************************************************

            Population analysis using the SCF density.

 **********************************************************************

 Orbital symmetries:
       Occupied  (A) (A) (A) (A) (A) (A) (A) (A) (A) (A) (A) (A)
                 (A) (A) (A) (A) (A) (A) (A) (A) (A) (A) (A) (A)
                 (A) (A) (A) (A) (A) (A)
       Virtual   (A) (A) (A) (A) (A) (A) (A) (A) (A) (A) (A) (A)
                 (A) (A) (A) (A) (A) (A) (A) (A) (A) (A) (A) (A)
                 (A) (A) (A) (A) (A) (A) (A) (A) (A) (A) (A) (A)
                 (A) (A) (A) (A) (A) (A) (A) (A) (A) (A) (A) (A)
                 (A) (A) (A) (A) (A) (A) (A) (A) (A) (A) (A) (A)
                 (A) (A) (A) (A) (A) (A) (A) (A) (A) (A) (A) (A)
                 (A) (A) (A) (A) (A) (A) (A) (A) (A) (A) (A) (A)
                 (A) (A) (A) (A) (A) (A) (A) (A) (A) (A) (A) (A)
                 (A) (A) (A) (A) (A) (A) (A) (A) (A) (A) (A) (A)
                 (A) (A) (A) (A) (A) (A) (A) (A) (A) (A) (A) (A)
                 (A) (A) (A) (A) (A) (A) (A) (A) (A) (A) (A) (A)
                 (A) (A) (A) (A)
 The electronic state is 1-A.
 Alpha  occ. eigenvalues -- -101.56650 -88.89397 -10.25613 -10.22257 -10.22088
 Alpha  occ. eigenvalues --  -10.20734  -9.48021  -7.97877  -7.24512  -7.23493
 Alpha  occ. eigenvalues --   -7.23471  -5.94214  -5.93831  -5.93414  -0.90190
 Alpha  occ. eigenvalues --   -0.85304  -0.75160  -0.72105  -0.59054  -0.56315
 Alpha  occ. eigenvalues --   -0.51465  -0.44927  -0.42555  -0.41864  -0.40181
 Alpha  occ. eigenvalues --   -0.35945  -0.34562  -0.32325  -0.26556  -0.25027
 Alpha virt. eigenvalues --   -0.04072  -0.01581   0.00293   0.00679   0.01561
 Alpha virt. eigenvalues --    0.02676   0.03116   0.03813   0.04890   0.05504
 Alpha virt. eigenvalues --    0.06085   0.08009   0.08546   0.08791   0.09430
 Alpha virt. eigenvalues --    0.09905   0.12010   0.12107   0.13355   0.13595
 Alpha virt. eigenvalues --    0.14230   0.15359   0.15701   0.17155   0.17809
 Alpha virt. eigenvalues --    0.18921   0.19320   0.19967   0.21762   0.21851
 Alpha virt. eigenvalues --    0.22449   0.23772   0.26605   0.26885   0.32370
 Alpha virt. eigenvalues --    0.35020   0.35882   0.38592   0.40040   0.44828
 Alpha virt. eigenvalues --    0.46085   0.48115   0.48398   0.51414   0.53470
 Alpha virt. eigenvalues --    0.54770   0.58051   0.59235   0.59874   0.61420
 Alpha virt. eigenvalues --    0.64544   0.68051   0.69675   0.70273   0.72418
 Alpha virt. eigenvalues --    0.75184   0.77154   0.78924   0.80317   0.81818
 Alpha virt. eigenvalues --    0.83654   0.84294   0.85639   0.87522   0.89838
 Alpha virt. eigenvalues --    0.92347   0.94738   0.96398   0.98702   1.00329
 Alpha virt. eigenvalues --    1.04702   1.06909   1.13993   1.18440   1.21035
 Alpha virt. eigenvalues --    1.31576   1.36763   1.39390   1.47600   1.52390
 Alpha virt. eigenvalues --    1.54489   1.55556   1.59519   1.64545   1.66702
 Alpha virt. eigenvalues --    1.71321   1.76982   1.79865   1.84378   1.87360
 Alpha virt. eigenvalues --    1.93705   1.94589   1.98314   1.99925   2.00314
 Alpha virt. eigenvalues --    2.03493   2.08323   2.13332   2.26852   2.27743
 Alpha virt. eigenvalues --    2.33521   2.35979   2.42622   2.50844   2.53863
 Alpha virt. eigenvalues --    2.62079   2.66825   2.68053   2.70489   2.71307
 Alpha virt. eigenvalues --    2.72985   2.83678   2.92164   2.92654   3.01156
 Alpha virt. eigenvalues --    3.21109   3.24319   3.33098   3.47497   3.73033
 Alpha virt. eigenvalues --    4.00418   4.21799   7.86867   9.76207  17.26534
 Alpha virt. eigenvalues --   17.39988  17.44028  23.50127  23.65488  24.06824
 Alpha virt. eigenvalues --   24.13251  25.81121  26.00148  26.51386 189.01346
 Alpha virt. eigenvalues --  215.75127
          Condensed to atoms (all electrons):
               1          2          3          4          5          6
     1  C    8.433310  -1.276904  -0.555977  -0.664012   0.079106   0.356354
     2  C   -1.276904   7.019026   0.447781   0.050964  -0.028928   0.010244
     3  C   -0.555977   0.447781   5.782132   0.429622   0.063771  -0.006108
     4  C   -0.664012   0.050964   0.429622   5.785965   0.205806   0.007701
     5  S    0.079106  -0.028928   0.063771   0.205806  15.710603  -0.017732
     6  H    0.356354   0.010244  -0.006108   0.007701  -0.017732   0.453113
     7  H    0.007576  -0.031371   0.397206  -0.032890   0.009135  -0.000131
     8  H   -0.010486   0.016957  -0.035933   0.402093  -0.016745  -0.000094
     9  Cl  -0.016822  -0.340888  -0.122394   0.043508   0.003466   0.007849
               7          8          9
     1  C    0.007576  -0.010486  -0.016822
     2  C   -0.031371   0.016957  -0.340888
     3  C    0.397206  -0.035933  -0.122394
     4  C   -0.032890   0.402093   0.043508
     5  S    0.009135  -0.016745   0.003466
     6  H   -0.000131  -0.000094   0.007849
     7  H    0.500059  -0.005563   0.002820
     8  H   -0.005563   0.468665   0.001657
     9  Cl   0.002820   0.001657  17.085855
 Mulliken charges:
               1
     1  C   -0.352144
     2  C    0.133120
     3  C   -0.400099
     4  C   -0.228757
     5  S   -0.008481
     6  H    0.188803
     7  H    0.153160
     8  H    0.179449
     9  Cl   0.334949
 Sum of Mulliken charges =   0.00000
 Mulliken charges with hydrogens summed into heavy atoms:
               1
     1  C   -0.163342
     2  C    0.133120
     3  C   -0.246939
     4  C   -0.049308
     5  S   -0.008481
     9  Cl   0.334949
 Electronic spatial extent (au):  <R**2>=            893.0625
 Charge=              0.0000 electrons
 Dipole moment (field-independent basis, Debye):
    X=              1.1305    Y=              0.5278    Z=              0.1180  Tot=              1.2532
 Quadrupole moment (field-independent basis, Debye-Ang):
   XX=            -49.6928   YY=            -43.2671   ZZ=            -52.5863
   XY=              2.3092   XZ=              0.0448   YZ=             -0.1983
 Traceless Quadrupole moment (field-independent basis, Debye-Ang):
   XX=             -1.1774   YY=              5.2483   ZZ=             -4.0709
   XY=              2.3092   XZ=              0.0448   YZ=             -0.1983
 Octapole moment (field-independent basis, Debye-Ang**2):
  XXX=             -2.7179  YYY=              0.2206  ZZZ=             -0.5414  XYY=              1.0981
  XXY=              6.8511  XXZ=             -0.5698  XZZ=             -4.5403  YZZ=             -1.3891
  YYZ=              1.2087  XYZ=              1.3674
 Hexadecapole moment (field-independent basis, Debye-Ang**3):
 XXXX=           -840.4887 YYYY=           -236.2468 ZZZZ=            -67.8528 XXXY=             22.1623
 XXXZ=              0.3579 YYYX=              5.2634 YYYZ=             -1.4999 ZZZX=              0.0840
 ZZZY=              0.0051 XXYY=           -183.4165 XXZZ=           -165.4213 YYZZ=            -61.9385
 XXYZ=              2.6493 YYXZ=              1.1786 ZZXY=             -0.6082
 N-N= 3.117590473708D+02 E-N=-3.021824855730D+03  KE= 1.010070293272D+03
 There are a total of       73168 grid points.
 ElSum from          density=       60.0000690940
 ElSum from atomic densities=       60.0000057289

 Hirshfeld populations at iteration   1 (CX, CA, CB, DipXYZ):
               1          2          3          4          5          6
     1  C    0.000001   3.038841   3.038841   0.044545  -0.100848   0.011932
     2  C    0.000001   2.994166   2.994166  -0.136195   0.055643  -0.003795
     3  C    0.000001   3.031114   3.031114  -0.089736   0.061864  -0.008024
     4  C    0.000001   3.033463   3.033463   0.107383   0.021991   0.011250
     5  S    0.000004   7.963119   7.963119  -0.043637   0.027800  -0.027858
     6  H    0.000005   0.465898   0.465898  -0.058852  -0.173146   0.031819
     7  H    0.000003   0.471011   0.471011  -0.063758   0.161589  -0.011328
     8  H    0.000003   0.465804   0.465804   0.117582   0.142989   0.025160
     9  Cl   0.000009   8.536618   8.536618  -0.011968  -0.008018  -0.004835
       Tot   0.000028  30.000035  30.000035  -0.134637   0.189865   0.024321

 Dip from Atomic Chgs              0.579595   0.017882   0.021948
         Total Dipole              0.444958   0.207747   0.046269

 Hirshfeld charges, spin densities, dipoles, and CM5 charges using IRadAn=      4:
              Q-H        S-H        Dx         Dy         Dz        Q-CM5   
     1  C   -0.077682   0.000000   0.044545  -0.100848   0.011932  -0.140573
     2  C    0.011668   0.000000  -0.136195   0.055643  -0.003795   0.004393
     3  C   -0.062228   0.000000  -0.089736   0.061864  -0.008024  -0.117640
     4  C   -0.066926   0.000000   0.107383   0.021991   0.011250  -0.133160
     5  S    0.073763   0.000000  -0.043637   0.027800  -0.027858   0.095107
     6  H    0.068204   0.000000  -0.058852  -0.173146   0.031819   0.124657
     7  H    0.057978   0.000000  -0.063758   0.161589  -0.011328   0.113787
     8  H    0.068391   0.000000   0.117582   0.142989   0.025160   0.125601
     9  Cl  -0.073237   0.000000  -0.011968  -0.008018  -0.004835  -0.072241
       Tot  -0.000069   0.000000  -0.134637   0.189865   0.024321  -0.000069
 Hirshfeld charges with hydrogens summed into heavy atoms:
              Q-H       Q-CM5   
     1  C   -0.009479  -0.015916
     2  C    0.011668   0.004393
     3  C   -0.004250  -0.003852
     4  C    0.001465  -0.007559
     5  S    0.073763   0.095107
     9  Cl  -0.073237  -0.072241
 
 EQQ= 0.000000000000E+00 EQD= 0.000000000000E+00 EDD= 0.475931184342E-02
 EQQ+QD+DD= 0.475931184342E-02
 
          MBS Condensed to atoms (all electrons):
               1          2          3          4          5          6
     1  C    4.957418   0.544624  -0.042015  -0.023242   0.346758   0.385369
     2  C    0.544624   4.787921   0.415118  -0.036688  -0.037600  -0.021285
     3  C   -0.042015   0.415118   4.885528   0.551076  -0.039695   0.001364
     4  C   -0.023242  -0.036688   0.551076   4.944712   0.345478   0.000658
     5  S    0.346758  -0.037600  -0.039695   0.345478  15.354835  -0.014745
     6  H    0.385369  -0.021285   0.001364   0.000658  -0.014745   0.493046
     7  H    0.001124  -0.018879   0.386817  -0.021913   0.001374  -0.000025
     8  H    0.000619   0.001335  -0.020904   0.386662  -0.015701  -0.000010
     9  Cl  -0.024635   0.264390  -0.018123   0.000441   0.000479  -0.001232
               7          8          9
     1  C    0.001124   0.000619  -0.024635
     2  C   -0.018879   0.001335   0.264390
     3  C    0.386817  -0.020904  -0.018123
     4  C   -0.021913   0.386662   0.000441
     5  S    0.001374  -0.015701   0.000479
     6  H   -0.000025  -0.000010  -0.001232
     7  H    0.518667  -0.002491   0.000033
     8  H   -0.002491   0.498382  -0.000007
     9  Cl   0.000033  -0.000007  16.970428
 MBS Mulliken charges:
               1
     1  C   -0.146021
     2  C    0.101063
     3  C   -0.119166
     4  C   -0.147185
     5  S    0.058817
     6  H    0.156859
     7  H    0.135292
     8  H    0.152115
     9  Cl  -0.191774
 Sum of MBS Mulliken charges =   0.00000
 MBS Mulliken charges with hydrogens summed into heavy atoms:
               1
     1  C    0.010839
     2  C    0.101063
     3  C    0.016126
     4  C    0.004929
     5  S    0.058817
     9  Cl  -0.191774
 Breneman (CHELPG) radii used.
 Generate Potential Derived Charges using the Breneman model, NDens= 1.
 Grid spacing= 0.300 Box extension= 2.800
 NStep X,Y,Z=   36     35     21   Total possible points=       26460
 Number of Points to Fit=    7739

 **********************************************************************

            Electrostatic Properties Using The SCF Density

 **********************************************************************

       Atomic Center    1 is at   0.208008 -1.069517  0.106616
       Atomic Center    2 is at  -0.608981  0.014261  0.023656
       Atomic Center    3 is at   0.187548  1.346068 -0.004783
       Atomic Center    4 is at   1.530262  1.141309  0.059407
       Atomic Center    5 is at   1.903136 -0.585693 -0.065523
       Atomic Center    6 is at  -0.126481 -2.074421  0.258885
       Atomic Center    7 is at  -0.267486  2.313100 -0.056675
       Atomic Center    8 is at   2.259872  1.915590  0.173684
       Atomic Center    9 is at  -2.365712 -0.080936 -0.025700
    7739 points will be used for fitting atomic charges
 Fitting point charges to electrostatic potential
 Charges from ESP fit, RMS=   0.00537 RRMS=   0.49311:
 ESP charges:
               1
     1  C   -0.164087
     2  C    0.100802
     3  C   -0.107813
     4  C   -0.174978
     5  S    0.003599
     6  H    0.172389
     7  H    0.117753
     8  H    0.181392
     9  Cl  -0.129056
 Sum of ESP charges =   0.00000
 ESP charges with hydrogens summed into heavy atoms:
               1
     1  C    0.008302
     2  C    0.100802
     3  C    0.009940
     4  C    0.006413
     5  S    0.003599
     9  Cl  -0.129056
 Charge=   0.00000 Dipole=     1.3703     0.4932     0.2284 Tot=     1.4741
 -----------------------------------------------------------------

              Electrostatic Properties (Atomic Units)

 -----------------------------------------------------------------
    Center     Electric         -------- Electric Field --------
               Potential          X             Y             Z
 -----------------------------------------------------------------
    1 Atom    -14.730157
    2 Atom    -14.692434
    3 Atom    -14.742782
    4 Atom    -14.728514
    5 Atom    -59.200656
    6 Atom     -1.060351
    7 Atom     -1.079839
    8 Atom     -1.060092
    9 Atom    -64.384275
 -----------------------------------------------------------------
 ******************************Gaussian NBO Version 3.1******************************
             N A T U R A L   A T O M I C   O R B I T A L   A N D
          N A T U R A L   B O N D   O R B I T A L   A N A L Y S I S
 ******************************Gaussian NBO Version 3.1******************************
       /RESON  / : Allow strongly delocalized NBO set

 Analyzing the SCF density

 Job title: Title Card Required                                             

 Storage needed:     83542 in NPA (  33553955 available)


 NATURAL POPULATIONS:  Natural atomic orbital occupancies 
                                                          
   NAO  Atom  No  lang   Type(AO)    Occupancy      Energy
 ----------------------------------------------------------
     1    C    1  S      Cor( 1S)     1.99868     -10.08829
     2    C    1  S      Val( 2S)     1.04302      -0.28054
     3    C    1  S      Ryd( 4S)     0.00164       0.67130
     4    C    1  S      Ryd( 3S)     0.00080       0.55930
     5    C    1  S      Ryd( 5S)     0.00001      23.35330
     6    C    1  px     Val( 2p)     1.01625      -0.15784
     7    C    1  px     Ryd( 4p)     0.00541       0.62643
     8    C    1  px     Ryd( 3p)     0.00058       0.60640
     9    C    1  px     Ryd( 5p)     0.00017       2.78078
    10    C    1  py     Val( 2p)     1.20575      -0.12156
    11    C    1  py     Ryd( 3p)     0.00374       0.66266
    12    C    1  py     Ryd( 4p)     0.00046       0.69579
    13    C    1  py     Ryd( 5p)     0.00013       2.97690
    14    C    1  pz     Val( 2p)     1.11491      -0.16095
    15    C    1  pz     Ryd( 4p)     0.00249       0.45253
    16    C    1  pz     Ryd( 3p)     0.00053       0.43287
    17    C    1  pz     Ryd( 5p)     0.00002       2.55103
    18    C    1  dxy    Ryd( 3d)     0.00206       1.76087
    19    C    1  dxz    Ryd( 3d)     0.00069       1.32144
    20    C    1  dyz    Ryd( 3d)     0.00108       1.33645
    21    C    1  dx2y2  Ryd( 3d)     0.00243       1.61014
    22    C    1  dz2    Ryd( 3d)     0.00231       1.61220

    23    C    2  S      Cor( 1S)     1.99855     -10.13699
    24    C    2  S      Val( 2S)     0.97734      -0.26903
    25    C    2  S      Ryd( 4S)     0.00151       0.61299
    26    C    2  S      Ryd( 3S)     0.00037       0.49729
    27    C    2  S      Ryd( 5S)     0.00001      23.46044
    28    C    2  px     Val( 2p)     0.93319      -0.17567
    29    C    2  px     Ryd( 4p)     0.00684       0.81766
    30    C    2  px     Ryd( 3p)     0.00030       0.45547
    31    C    2  px     Ryd( 5p)     0.00055       2.95818
    32    C    2  py     Val( 2p)     1.07493      -0.11532
    33    C    2  py     Ryd( 4p)     0.00751       0.68519
    34    C    2  py     Ryd( 3p)     0.00038       0.47727
    35    C    2  py     Ryd( 5p)     0.00017       3.04867
    36    C    2  pz     Val( 2p)     1.09824      -0.15907
    37    C    2  pz     Ryd( 4p)     0.00116       0.57454
    38    C    2  pz     Ryd( 3p)     0.00042       0.44344
    39    C    2  pz     Ryd( 5p)     0.00005       2.49727
    40    C    2  dxy    Ryd( 3d)     0.00122       2.47469
    41    C    2  dxz    Ryd( 3d)     0.00127       1.57654
    42    C    2  dyz    Ryd( 3d)     0.00063       1.67840
    43    C    2  dx2y2  Ryd( 3d)     0.00196       2.17091
    44    C    2  dz2    Ryd( 3d)     0.00073       1.93364

    45    C    3  S      Cor( 1S)     1.99899     -10.06544
    46    C    3  S      Val( 2S)     0.98538      -0.21764
    47    C    3  S      Ryd( 3S)     0.00227       0.63860
    48    C    3  S      Ryd( 4S)     0.00030       0.69431
    49    C    3  S      Ryd( 5S)     0.00000      23.23522
    50    C    3  px     Val( 2p)     1.07448      -0.09404
    51    C    3  px     Ryd( 4p)     0.00566       0.68396
    52    C    3  px     Ryd( 3p)     0.00059       0.35166
    53    C    3  px     Ryd( 5p)     0.00015       3.14326
    54    C    3  py     Val( 2p)     1.12611      -0.07835
    55    C    3  py     Ryd( 4p)     0.00471       0.81142
    56    C    3  py     Ryd( 3p)     0.00036       0.29563
    57    C    3  py     Ryd( 5p)     0.00009       3.15256
    58    C    3  pz     Val( 2p)     1.03659      -0.13339
    59    C    3  pz     Ryd( 4p)     0.00140       0.50862
    60    C    3  pz     Ryd( 3p)     0.00044       0.25089
    61    C    3  pz     Ryd( 5p)     0.00002       2.68450
    62    C    3  dxy    Ryd( 3d)     0.00069       2.32536
    63    C    3  dxz    Ryd( 3d)     0.00067       1.62807
    64    C    3  dyz    Ryd( 3d)     0.00039       1.57474
    65    C    3  dx2y2  Ryd( 3d)     0.00079       2.45571
    66    C    3  dz2    Ryd( 3d)     0.00045       1.94494

    67    C    4  S      Cor( 1S)     1.99899     -10.09534
    68    C    4  S      Val( 2S)     1.04946      -0.28586
    69    C    4  S      Ryd( 3S)     0.00152       0.48382
    70    C    4  S      Ryd( 4S)     0.00066       0.65113
    71    C    4  S      Ryd( 5S)     0.00001      23.36885
    72    C    4  px     Val( 2p)     1.14145      -0.11034
    73    C    4  px     Ryd( 3p)     0.00448       0.55990
    74    C    4  px     Ryd( 4p)     0.00024       0.57445
    75    C    4  px     Ryd( 5p)     0.00021       2.93351
    76    C    4  py     Val( 2p)     1.05593      -0.14400
    77    C    4  py     Ryd( 4p)     0.00469       0.77571
    78    C    4  py     Ryd( 3p)     0.00075       0.65236
    79    C    4  py     Ryd( 5p)     0.00012       2.66212
    80    C    4  pz     Val( 2p)     1.10241      -0.16173
    81    C    4  pz     Ryd( 4p)     0.00194       0.46775
    82    C    4  pz     Ryd( 3p)     0.00032       0.42504
    83    C    4  pz     Ryd( 5p)     0.00001       2.52399
    84    C    4  dxy    Ryd( 3d)     0.00103       2.17510
    85    C    4  dxz    Ryd( 3d)     0.00079       1.62666
    86    C    4  dyz    Ryd( 3d)     0.00081       1.46473
    87    C    4  dx2y2  Ryd( 3d)     0.00145       2.23189
    88    C    4  dz2    Ryd( 3d)     0.00095       1.85799

    89    S    5  S      Cor( 1S)     2.00000     -87.73432
    90    S    5  S      Cor( 2S)     1.99935      -8.87899
    91    S    5  S      Val( 3S)     1.65434      -0.74450
    92    S    5  S      Ryd( 5S)     0.00780       0.60309
    93    S    5  S      Ryd( 4S)     0.00037       0.58011
    94    S    5  S      Ryd( 6S)     0.00001      14.20105
    95    S    5  S      Ryd( 7S)     0.00000     182.24743
    96    S    5  px     Cor( 2p)     1.99988      -5.93225
    97    S    5  px     Val( 3p)     1.21828      -0.21199
    98    S    5  px     Ryd( 5p)     0.00308       0.39129
    99    S    5  px     Ryd( 4p)     0.00021       0.31950
   100    S    5  px     Ryd( 6p)     0.00019       2.23017
   101    S    5  px     Ryd( 7p)     0.00000      16.49782
   102    S    5  py     Cor( 2p)     1.99989      -5.93360
   103    S    5  py     Val( 3p)     1.02828      -0.19799
   104    S    5  py     Ryd( 5p)     0.00524       0.41463
   105    S    5  py     Ryd( 4p)     0.00037       0.34512
   106    S    5  py     Ryd( 6p)     0.00013       2.21787
   107    S    5  py     Ryd( 7p)     0.00000      16.53528
   108    S    5  pz     Cor( 2p)     1.99997      -5.92938
   109    S    5  pz     Val( 3p)     1.66921      -0.25939
   110    S    5  pz     Ryd( 5p)     0.00561       0.33671
   111    S    5  pz     Ryd( 4p)     0.00011       0.33662
   112    S    5  pz     Ryd( 6p)     0.00007       2.04052
   113    S    5  pz     Ryd( 7p)     0.00000      16.61552
   114    S    5  dxy    Ryd( 3d)     0.00333       1.11544
   115    S    5  dxz    Ryd( 3d)     0.00322       0.89787
   116    S    5  dyz    Ryd( 3d)     0.00410       0.84295
   117    S    5  dx2y2  Ryd( 3d)     0.00658       1.31752
   118    S    5  dz2    Ryd( 3d)     0.00247       1.15905

   119    H    6  S      Val( 1S)     0.75455       0.03444
   120    H    6  S      Ryd( 2S)     0.00072       1.15220
   121    H    6  S      Ryd( 3S)     0.00031       1.51842
   122    H    6  px     Ryd( 2p)     0.00017       1.97563
   123    H    6  py     Ryd( 2p)     0.00019       2.76133
   124    H    6  pz     Ryd( 2p)     0.00031       1.73137

   125    H    7  S      Val( 1S)     0.77295       0.04505
   126    H    7  S      Ryd( 2S)     0.00054       1.00814
   127    H    7  S      Ryd( 3S)     0.00023       1.61340
   128    H    7  px     Ryd( 2p)     0.00020       2.01324
   129    H    7  py     Ryd( 2p)     0.00040       2.55452
   130    H    7  pz     Ryd( 2p)     0.00024       1.58234

   131    H    8  S      Val( 1S)     0.76273       0.03480
   132    H    8  S      Ryd( 2S)     0.00043       1.28790
   133    H    8  S      Ryd( 3S)     0.00037       1.34889
   134    H    8  px     Ryd( 2p)     0.00028       2.21380
   135    H    8  py     Ryd( 2p)     0.00028       2.22128
   136    H    8  pz     Ryd( 2p)     0.00018       1.56801

   137   Cl    9  S      Cor( 1S)     2.00000    -100.20992
   138   Cl    9  S      Cor( 2S)     1.99969     -10.50704
   139   Cl    9  S      Val( 3S)     1.83617      -1.01598
   140   Cl    9  S      Ryd( 4S)     0.00228       0.59336
   141   Cl    9  S      Ryd( 5S)     0.00015       1.21763
   142   Cl    9  S      Ryd( 6S)     0.00000      16.83241
   143   Cl    9  S      Ryd( 7S)     0.00000     208.15398
   144   Cl    9  px     Cor( 2p)     1.99990      -7.23816
   145   Cl    9  px     Val( 3p)     1.22843      -0.27989
   146   Cl    9  px     Ryd( 4p)     0.00388       0.34217
   147   Cl    9  px     Ryd( 5p)     0.00018       0.46280
   148   Cl    9  px     Ryd( 6p)     0.00002       6.06885
   149   Cl    9  px     Ryd( 7p)     0.00000      22.52331
   150   Cl    9  py     Cor( 2p)     1.99999      -7.22983
   151   Cl    9  py     Val( 3p)     1.96043      -0.32914
   152   Cl    9  py     Ryd( 4p)     0.00196       0.36353
   153   Cl    9  py     Ryd( 5p)     0.00013       0.53830
   154   Cl    9  py     Ryd( 6p)     0.00000       5.17472
   155   Cl    9  py     Ryd( 7p)     0.00000      22.72685
   156   Cl    9  pz     Cor( 2p)     1.99999      -7.22999
   157   Cl    9  pz     Val( 3p)     1.92865      -0.32770
   158   Cl    9  pz     Ryd( 4p)     0.00181       0.37468
   159   Cl    9  pz     Ryd( 5p)     0.00012       0.49626
   160   Cl    9  pz     Ryd( 6p)     0.00000       4.99518
   161   Cl    9  pz     Ryd( 7p)     0.00000      22.75394
   162   Cl    9  dxy    Ryd( 3d)     0.00136       1.07495
   163   Cl    9  dxz    Ryd( 3d)     0.00259       0.92702
   164   Cl    9  dyz    Ryd( 3d)     0.00003       0.85989
   165   Cl    9  dx2y2  Ryd( 3d)     0.00430       1.18968
   166   Cl    9  dz2    Ryd( 3d)     0.00144       0.96233

 WARNING:  1 low occupancy (<1.9990e) core orbital  found on  C    1
           1 low occupancy (<1.9990e) core orbital  found on  C    2
           1 low occupancy (<1.9990e) core orbital  found on  C    3
           1 low occupancy (<1.9990e) core orbital  found on  C    4

 WARNING:  Population inversion found on atom  C    1
           Population inversion found on atom  C    2
           Population inversion found on atom  C    3
           Population inversion found on atom  C    4
           Population inversion found on atom  S    5


 Summary of Natural Population Analysis:                  
                                                          
                                       Natural Population 
                Natural  -----------------------------------------------
    Atom  No    Charge         Core      Valence    Rydberg      Total
 -----------------------------------------------------------------------
      C    1   -0.40317      1.99868     4.37992    0.02457     6.40317
      C    2   -0.10735      1.99855     4.08370    0.02510     6.10735
      C    3   -0.24054      1.99899     4.22255    0.01899     6.24054
      C    4   -0.36823      1.99899     4.34925    0.01998     6.36823
      S    5    0.38790      9.99909     5.57011    0.04290    15.61210
      H    6    0.24374      0.00000     0.75455    0.00171     0.75626
      H    7    0.22542      0.00000     0.77295    0.00162     0.77458
      H    8    0.23573      0.00000     0.76273    0.00154     0.76427
     Cl    9    0.02648      9.99958     6.95368    0.02026    16.97352
 =======================================================================
   * Total *    0.00000     27.99389    31.84945    0.15666    60.00000

                                 Natural Population      
 --------------------------------------------------------
   Core                      27.99389 ( 99.9782% of  28)
   Valence                   31.84945 ( 99.5295% of  32)
   Natural Minimal Basis     59.84334 ( 99.7389% of  60)
   Natural Rydberg Basis      0.15666 (  0.2611% of  60)
 --------------------------------------------------------

    Atom  No          Natural Electron Configuration
 ----------------------------------------------------------------------------
      C    1      [core]2S( 1.04)2p( 3.34)3d( 0.01)4p( 0.01)
      C    2      [core]2S( 0.98)2p( 3.11)3d( 0.01)4p( 0.02)
      C    3      [core]2S( 0.99)2p( 3.24)4p( 0.01)
      C    4      [core]2S( 1.05)2p( 3.30)3p( 0.01)3d( 0.01)4p( 0.01)
      S    5      [core]3S( 1.65)3p( 3.92)3d( 0.02)5S( 0.01)5p( 0.01)
      H    6            1S( 0.75)
      H    7            1S( 0.77)
      H    8            1S( 0.76)
     Cl    9      [core]3S( 1.84)3p( 5.12)3d( 0.01)4p( 0.01)


 NBO analysis skipped by request.
 Calling FoFJK, ICntrl=      2127 FMM=F ISym2X=0 I1Cent= 0 IOpClX= 0 NMat=1 NMatS=1 NMatT=0.
 ***** Axes restored to original set *****
 -------------------------------------------------------------------
 Center     Atomic                   Forces (Hartrees/Bohr)
 Number     Number              X              Y              Z
 -------------------------------------------------------------------
      1        6           0.021549911    0.014677251    0.005720816
      2        6           0.021546788    0.049067361   -0.000513410
      3        6          -0.030277920   -0.044929918   -0.000959679
      4        6          -0.002077082   -0.034251133    0.006639612
      5       16          -0.001618967    0.000085826   -0.018371405
      6        1          -0.009103722   -0.000899320    0.006509272
      7        1           0.007515502   -0.002325729   -0.004634552
      8        1          -0.004453904    0.008351845    0.006779195
      9       17          -0.003080605    0.010223818   -0.001169851
 -------------------------------------------------------------------
 Cartesian Forces:  Max     0.049067361 RMS     0.017787938

 GradGradGradGradGradGradGradGradGradGradGradGradGradGradGradGradGradGrad
 Berny optimization.
 FormGI is forming the generalized inverse of G from B-inverse, IUseBI=4.
 Internal  Forces:  Max     0.060835804 RMS     0.012249076
 Search for a local minimum.
 Step number   1 out of a maximum of   48
 All quantities printed in internal units (Hartrees-Bohrs-Radians)
 Mixed Optimization -- RFO/linear search
 Second derivative matrix not updated -- first step.
 ITU=  0
     Eigenvalues ---    0.00964   0.01207   0.01517   0.01964   0.02031
     Eigenvalues ---    0.02110   0.15998   0.16000   0.16000   0.22393
     Eigenvalues ---    0.23414   0.24997   0.27165   0.27944   0.28275
     Eigenvalues ---    0.29539   0.37230   0.37230   0.37230   0.49114
     Eigenvalues ---    0.52451
 RFO step:  Lambda=-2.66182536D-02 EMin= 9.63646271D-03
 Linear search not attempted -- first point.
 Iteration  1 RMS(Cart)=  0.08569065 RMS(Int)=  0.00631067
 Iteration  2 RMS(Cart)=  0.00619108 RMS(Int)=  0.00253877
 Iteration  3 RMS(Cart)=  0.00001225 RMS(Int)=  0.00253875
 Iteration  4 RMS(Cart)=  0.00000001 RMS(Int)=  0.00253875
 Variable       Old X    -DE/DX   Delta X   Delta X   Delta X     New X
                                 (Linear)    (Quad)   (Total)
    R1        2.56956  -0.00490   0.00000  -0.00907  -0.00863   2.56093
    R2        3.34710  -0.01616   0.00000  -0.05031  -0.05049   3.29660
    R3        2.02201   0.00621   0.00000   0.01557   0.01557   2.03758
    R4        2.93302  -0.06084   0.00000  -0.20381  -0.20329   2.72973
    R5        3.32592  -0.01022   0.00000  -0.03175  -0.03175   3.29417
    R6        2.56956  -0.00575   0.00000  -0.01086  -0.01090   2.55866
    R7        2.02201   0.00778   0.00000   0.01950   0.01950   2.04151
    R8        3.34710  -0.01305   0.00000  -0.04062  -0.04118   3.30592
    R9        2.02201   0.00643   0.00000   0.01613   0.01613   2.03813
    A1        1.92984   0.00575   0.00000   0.03129   0.02597   1.95581
    A2        2.17658   0.00483   0.00000   0.02558   0.02693   2.20351
    A3        2.17676  -0.01060   0.00000  -0.05718  -0.05598   2.12078
    A4        1.95702   0.00611   0.00000   0.02660   0.02269   1.97971
    A5        2.16316   0.00078   0.00000   0.00069   0.00245   2.16561
    A6        2.16294  -0.00689   0.00000  -0.02696  -0.02523   2.13772
    A7        1.95702  -0.00417   0.00000  -0.01247  -0.01712   1.93990
    A8        2.16294  -0.00137   0.00000  -0.01199  -0.01026   2.15268
    A9        2.16316   0.00555   0.00000   0.02502   0.02678   2.18994
   A10        1.92984   0.01139   0.00000   0.05346   0.04721   1.97705
   A11        2.17658   0.00222   0.00000   0.01557   0.01718   2.19376
   A12        2.17676  -0.01362   0.00000  -0.06934  -0.06767   2.10908
   A13        1.62884  -0.01697   0.00000  -0.04855  -0.05692   1.57192
    D1       -0.13232   0.00510   0.00000   0.13794   0.14056   0.00823
    D2        3.02158   0.00511   0.00000   0.10881   0.10972   3.13130
    D3        3.00508   0.00155   0.00000   0.05947   0.06094   3.06601
    D4       -0.12420   0.00156   0.00000   0.03033   0.03010  -0.09410
    D5        0.17904  -0.00937   0.00000  -0.20217  -0.19758  -0.01854
    D6       -2.95836  -0.00586   0.00000  -0.12392  -0.12251  -3.08087
    D7        0.00000   0.00057   0.00000   0.01153   0.01085   0.01085
    D8       -3.12929  -0.00043   0.00000  -0.03783  -0.03868   3.11522
    D9        3.12929   0.00062   0.00000   0.04089   0.04135  -3.11255
   D10        0.00000  -0.00037   0.00000  -0.00847  -0.00819  -0.00819
   D11        0.13232  -0.00579   0.00000  -0.15444  -0.15740  -0.02508
   D12       -3.00508  -0.00246   0.00000  -0.07418  -0.07458  -3.07966
   D13       -3.02158  -0.00485   0.00000  -0.10538  -0.10690  -3.12848
   D14        0.12420  -0.00152   0.00000  -0.02512  -0.02409   0.10012
   D15       -0.17904   0.00884   0.00000   0.20575   0.20435   0.02531
   D16        2.95836   0.00556   0.00000   0.12572   0.12625   3.08461
         Item               Value     Threshold  Converged?
 Maximum Force            0.060836     0.000450     NO 
 RMS     Force            0.012249     0.000300     NO 
 Maximum Displacement     0.304450     0.001800     NO 
 RMS     Displacement     0.087065     0.001200     NO 
 Predicted change in Energy=-1.676885D-02
 GradGradGradGradGradGradGradGradGradGradGradGradGradGradGradGradGradGrad

                          Input orientation:                          
 ---------------------------------------------------------------------
 Center     Atomic      Atomic             Coordinates (Angstroms)
 Number     Number       Type             X           Y           Z
 ---------------------------------------------------------------------
      1          6           0       -0.324090   -0.048030    0.181475
      2          6           0        1.005203   -0.155013   -0.059488
      3          6           0        1.689058    1.117171   -0.081938
      4          6           0        0.831830    2.136899    0.160122
      5         16           0       -0.822087    1.611787    0.382086
      6          1           0       -1.039618   -0.854637    0.178240
      7          1           0        2.753647    1.216352   -0.236545
      8          1           0        1.081490    3.186023    0.144455
      9         17           0        1.836727   -1.669101   -0.293681
 ---------------------------------------------------------------------
                    Distance matrix (angstroms):
                    1          2          3          4          5
     1  C    0.000000
     2  C    1.355186   0.000000
     3  C    2.340908   1.444511   0.000000
     4  C    2.471948   2.308927   1.353986   0.000000
     5  S    1.744488   2.579837   2.601118   1.749415   0.000000
     6  H    1.078241   2.174231   3.376595   3.528730   2.484375
     7  H    3.353487   2.229136   1.080319   2.167517   3.650335
     8  H    3.526489   3.348123   2.168073   1.078534   2.481591
     9  Cl   2.742768   1.743199   2.798206   3.962499   4.276702
                    6          7          8          9
     6  H    0.000000
     7  H    4.341647   0.000000
     8  H    4.563680   2.611680   0.000000
     9  Cl   3.026453   3.028176   4.933009   0.000000
 Stoichiometry    C4H3ClS
 Framework group  C1[X(C4H3ClS)]
 Deg. of freedom    21
 Full point group                 C1      NOp   1
 Largest Abelian subgroup         C1      NOp   1
 Largest concise Abelian subgroup C1      NOp   1
                         Standard orientation:                         
 ---------------------------------------------------------------------
 Center     Atomic      Atomic             Coordinates (Angstroms)
 Number     Number       Type             X           Y           Z
 ---------------------------------------------------------------------
      1          6           0        0.254640   -1.037105   -0.004753
      2          6           0       -0.591452    0.021415    0.009191
      3          6           0        0.085258    1.297609    0.011720
      4          6           0        1.429524    1.137770   -0.014328
      5         16           0        1.926646   -0.539483   -0.002310
      6          1           0       -0.023980   -2.076921    0.056549
      7          1           0       -0.433842    2.244946   -0.001608
      8          1           0        2.158622    1.930946    0.035913
      9         17           0       -2.329115   -0.116787   -0.003817
 ---------------------------------------------------------------------
 Rotational constants (GHZ):      7.0627323      1.4744499      1.2198605
 Standard basis: 6-311+G(d,p) (5D, 7F)
 There are   172 symmetry adapted cartesian basis functions of A   symmetry.
 There are   166 symmetry adapted basis functions of A   symmetry.
   166 basis functions,   271 primitive gaussians,   172 cartesian basis functions
    30 alpha electrons       30 beta electrons
       nuclear repulsion energy       316.6265891887 Hartrees.
 NAtoms=    9 NActive=    9 NUniq=    9 SFac= 1.00D+00 NAtFMM=   60 NAOKFM=F Big=F
 Integral buffers will be    131072 words long.
 Raffenetti 2 integral format.
 Two-electron integral symmetry is turned on.
 One-electron integrals computed using PRISM.
 NBasis=   166 RedAO= T EigKep=  1.46D-05  NBF=   166
 NBsUse=   166 1.00D-06 EigRej= -1.00D+00 NBFU=   166
 Initial guess from the checkpoint file:  "Table7_2.chk"
 B after Tr=     0.000000    0.000000    0.000000
         Rot=    0.999913   -0.000083    0.000065   -0.013180 Ang=  -1.51 deg.
 ExpMin= 4.05D-02 ExpMax= 1.06D+05 ExpMxC= 3.62D+03 IAcc=2 IRadAn=         4 AccDes= 0.00D+00
 Harris functional with IExCor=  402 and IRadAn=       4 diagonalized for initial guess.
 HarFok:  IExCor=  402 AccDes= 0.00D+00 IRadAn=         4 IDoV= 1 UseB2=F ITyADJ=14
 ICtDFT=  3500011 ScaDFX=  1.000000  1.000000  1.000000  1.000000
 FoFCou: FMM=F IPFlag=           0 FMFlag=      100000 FMFlg1=           0
         NFxFlg=           0 DoJE=T BraDBF=F KetDBF=T FulRan=T
         wScrn=  0.000000 ICntrl=     500 IOpCl=  0 I1Cent=   200000004 NGrid=           0
         NMat0=    1 NMatS0=      1 NMatT0=    0 NMatD0=    1 NMtDS0=    0 NMtDT0=    0
 Petite list used in FoFCou.
 Requested convergence on RMS density matrix=1.00D-08 within 128 cycles.
 Requested convergence on MAX density matrix=1.00D-06.
 Requested convergence on             energy=1.00D-06.
 No special actions if energy rises.
 SCF Done:  E(RB3LYP) =  -1012.69189150     A.U. after   12 cycles
            NFock= 12  Conv=0.83D-08     -V/T= 2.0023
 Calling FoFJK, ICntrl=      2127 FMM=F ISym2X=0 I1Cent= 0 IOpClX= 0 NMat=1 NMatS=1 NMatT=0.
 ***** Axes restored to original set *****
 -------------------------------------------------------------------
 Center     Atomic                   Forces (Hartrees/Bohr)
 Number     Number              X              Y              Z
 -------------------------------------------------------------------
      1        6          -0.008502814   -0.003127159   -0.002942152
      2        6           0.008306363    0.012624815    0.001227453
      3        6          -0.003582767   -0.015898315    0.003115589
      4        6          -0.003931641    0.008305103   -0.003791868
      5       16           0.012363204   -0.005022072   -0.001763557
      6        1          -0.001653483    0.001039495    0.002905716
      7        1          -0.000141319    0.001183977   -0.000983747
      8        1          -0.002473313    0.001529146    0.003010960
      9       17          -0.000384231   -0.000634991   -0.000778393
 -------------------------------------------------------------------
 Cartesian Forces:  Max     0.015898315 RMS     0.005803056

 GradGradGradGradGradGradGradGradGradGradGradGradGradGradGradGradGradGrad
 Berny optimization.
 Using GEDIIS/GDIIS optimizer.
 FormGI is forming the generalized inverse of G from B-inverse, IUseBI=4.
 Internal  Forces:  Max     0.006963349 RMS     0.003147708
 Search for a local minimum.
 Step number   2 out of a maximum of   48
 All quantities printed in internal units (Hartrees-Bohrs-Radians)
 Mixed Optimization -- RFO/linear search
 Update second derivatives using D2CorX and points    1    2
 DE= -1.49D-02 DEPred=-1.68D-02 R= 8.86D-01
 TightC=F SS=  1.41D+00  RLast= 5.09D-01 DXNew= 5.0454D-01 1.5259D+00
 Trust test= 8.86D-01 RLast= 5.09D-01 DXMaxT set to 5.05D-01
 ITU=  1  0
 Use linear search instead of GDIIS.
     Eigenvalues ---    0.00993   0.01385   0.01545   0.02084   0.02122
     Eigenvalues ---    0.02509   0.14901   0.15943   0.16043   0.21507
     Eigenvalues ---    0.23038   0.24950   0.25918   0.27917   0.28769
     Eigenvalues ---    0.29743   0.37161   0.37230   0.37241   0.48906
     Eigenvalues ---    0.53168
 RFO step:  Lambda=-2.18280608D-03 EMin= 9.92801423D-03
 Quartic linear search produced a step of  0.04385.
 Iteration  1 RMS(Cart)=  0.02108650 RMS(Int)=  0.00091985
 Iteration  2 RMS(Cart)=  0.00063893 RMS(Int)=  0.00065485
 Iteration  3 RMS(Cart)=  0.00000035 RMS(Int)=  0.00065485
 Variable       Old X    -DE/DX   Delta X   Delta X   Delta X     New X
                                 (Linear)    (Quad)   (Total)
    R1        2.56093   0.00430  -0.00038   0.00795   0.00753   2.56846
    R2        3.29660  -0.00497  -0.00221  -0.02152  -0.02373   3.27288
    R3        2.03758   0.00031   0.00068   0.00191   0.00260   2.04018
    R4        2.72973  -0.00696  -0.00891  -0.03911  -0.04805   2.68168
    R5        3.29417   0.00047  -0.00139  -0.00041  -0.00180   3.29236
    R6        2.55866   0.00551  -0.00048   0.01010   0.00963   2.56829
    R7        2.04151   0.00011   0.00086   0.00161   0.00247   2.04397
    R8        3.30592  -0.00650  -0.00181  -0.02656  -0.02832   3.27759
    R9        2.03813   0.00087   0.00071   0.00351   0.00421   2.04235
    A1        1.95581  -0.00575   0.00114  -0.02379  -0.02344   1.93237
    A2        2.20351   0.00543   0.00118   0.03332   0.03382   2.23733
    A3        2.12078   0.00043  -0.00245  -0.00425  -0.00741   2.11337
    A4        1.97971   0.00254   0.00100   0.01299   0.01385   1.99356
    A5        2.16561  -0.00216   0.00011  -0.00916  -0.00905   2.15656
    A6        2.13772  -0.00037  -0.00111  -0.00355  -0.00465   2.13307
    A7        1.93990   0.00206  -0.00075   0.00989   0.00888   1.94878
    A8        2.15268   0.00009  -0.00045   0.00171   0.00104   2.15373
    A9        2.18994  -0.00212   0.00117  -0.01022  -0.00926   2.18068
   A10        1.97705  -0.00556   0.00207  -0.02127  -0.02046   1.95659
   A11        2.19376   0.00624   0.00075   0.03881   0.03827   2.23202
   A12        2.10908  -0.00053  -0.00297  -0.01027  -0.01453   2.09456
   A13        1.57192   0.00674  -0.00250   0.02382   0.02134   1.59325
    D1        0.00823  -0.00023   0.00616  -0.01544  -0.00881  -0.00057
    D2        3.13130   0.00005   0.00481   0.00168   0.00640   3.13770
    D3        3.06601   0.00126   0.00267   0.05569   0.05927   3.12528
    D4       -0.09410   0.00154   0.00132   0.07281   0.07447  -0.01963
    D5       -0.01854   0.00050  -0.00866   0.03760   0.02901   0.01046
    D6       -3.08087  -0.00119  -0.00537  -0.03180  -0.03582  -3.11669
    D7        0.01085  -0.00037   0.00048  -0.02446  -0.02419  -0.01333
    D8        3.11522   0.00027  -0.00170   0.01424   0.01204   3.12725
    D9       -3.11255  -0.00062   0.00181  -0.04120  -0.03911   3.13153
   D10       -0.00819   0.00002  -0.00036  -0.00250  -0.00288  -0.01107
   D11       -0.02508   0.00084  -0.00690   0.05358   0.04609   0.02102
   D12       -3.07966  -0.00095  -0.00327  -0.04145  -0.04594  -3.12561
   D13       -3.12848   0.00012  -0.00469   0.01356   0.00893  -3.11955
   D14        0.10012  -0.00167  -0.00106  -0.08148  -0.08311   0.01701
   D15        0.02531  -0.00078   0.00896  -0.05297  -0.04361  -0.01831
   D16        3.08461   0.00130   0.00554   0.03970   0.04326   3.12787
         Item               Value     Threshold  Converged?
 Maximum Force            0.006963     0.000450     NO 
 RMS     Force            0.003148     0.000300     NO 
 Maximum Displacement     0.054912     0.001800     NO 
 RMS     Displacement     0.021234     0.001200     NO 
 Predicted change in Energy=-1.157250D-03
 GradGradGradGradGradGradGradGradGradGradGradGradGradGradGradGradGradGrad

                          Input orientation:                          
 ---------------------------------------------------------------------
 Center     Atomic      Atomic             Coordinates (Angstroms)
 Number     Number       Type             X           Y           Z
 ---------------------------------------------------------------------
      1          6           0       -0.326411   -0.051035    0.165644
      2          6           0        1.010796   -0.144364   -0.059120
      3          6           0        1.687575    1.102882   -0.071340
      4          6           0        0.832488    2.139522    0.131903
      5         16           0       -0.798888    1.602240    0.373097
      6          1           0       -1.053490   -0.848023    0.207298
      7          1           0        2.753947    1.200189   -0.223953
      8          1           0        1.063604    3.194934    0.159157
      9         17           0        1.842539   -1.654892   -0.307960
 ---------------------------------------------------------------------
                    Distance matrix (angstroms):
                    1          2          3          4          5
     1  C    0.000000
     2  C    1.359173   0.000000
     3  C    2.333201   1.419084   0.000000
     4  C    2.478453   2.298786   1.359082   0.000000
     5  S    1.731933   2.551939   2.574758   1.734427   0.000000
     6  H    1.079615   2.197132   3.375960   3.533840   2.469029
     7  H    3.347530   2.207616   1.081624   2.168176   3.625018
     8  H    3.531076   3.346841   2.195256   1.080764   2.459943
     9  Cl   2.738796   1.742244   2.772241   3.951109   4.248516
                    6          7          8          9
     6  H    0.000000
     7  H    4.344851   0.000000
     8  H    4.563979   2.642545   0.000000
     9  Cl   3.050166   2.998201   4.934141   0.000000
 Stoichiometry    C4H3ClS
 Framework group  C1[X(C4H3ClS)]
 Deg. of freedom    21
 Full point group                 C1      NOp   1
 Largest Abelian subgroup         C1      NOp   1
 Largest concise Abelian subgroup C1      NOp   1
                         Standard orientation:                         
 ---------------------------------------------------------------------
 Center     Atomic      Atomic             Coordinates (Angstroms)
 Number     Number       Type             X           Y           Z
 ---------------------------------------------------------------------
      1          6           0        0.255976   -1.046756    0.002250
      2          6           0       -0.581105    0.024058    0.000585
      3          6           0        0.079903    1.279779   -0.005120
      4          6           0        1.431212    1.135330    0.009118
      5         16           0        1.909561   -0.531776   -0.004177
      6          1           0       -0.001329   -2.095108    0.020179
      7          1           0       -0.441756    2.227175   -0.020041
      8          1           0        2.181692    1.912924    0.022469
      9         17           0       -2.318088   -0.111238    0.000190
 ---------------------------------------------------------------------
 Rotational constants (GHZ):      7.1387066      1.4913308      1.2336378
 Standard basis: 6-311+G(d,p) (5D, 7F)
 There are   172 symmetry adapted cartesian basis functions of A   symmetry.
 There are   166 symmetry adapted basis functions of A   symmetry.
   166 basis functions,   271 primitive gaussians,   172 cartesian basis functions
    30 alpha electrons       30 beta electrons
       nuclear repulsion energy       318.2155506638 Hartrees.
 NAtoms=    9 NActive=    9 NUniq=    9 SFac= 1.00D+00 NAtFMM=   60 NAOKFM=F Big=F
 Integral buffers will be    131072 words long.
 Raffenetti 2 integral format.
 Two-electron integral symmetry is turned on.
 One-electron integrals computed using PRISM.
 NBasis=   166 RedAO= T EigKep=  1.50D-05  NBF=   166
 NBsUse=   166 1.00D-06 EigRej= -1.00D+00 NBFU=   166
 Initial guess from the checkpoint file:  "Table7_2.chk"
 B after Tr=     0.000000    0.000000    0.000000
         Rot=    1.000000   -0.000042   -0.000014    0.000318 Ang=  -0.04 deg.
 ExpMin= 4.05D-02 ExpMax= 1.06D+05 ExpMxC= 3.62D+03 IAcc=2 IRadAn=         4 AccDes= 0.00D+00
 Harris functional with IExCor=  402 and IRadAn=       4 diagonalized for initial guess.
 HarFok:  IExCor=  402 AccDes= 0.00D+00 IRadAn=         4 IDoV= 1 UseB2=F ITyADJ=14
 ICtDFT=  3500011 ScaDFX=  1.000000  1.000000  1.000000  1.000000
 FoFCou: FMM=F IPFlag=           0 FMFlag=      100000 FMFlg1=           0
         NFxFlg=           0 DoJE=T BraDBF=F KetDBF=T FulRan=T
         wScrn=  0.000000 ICntrl=     500 IOpCl=  0 I1Cent=   200000004 NGrid=           0
         NMat0=    1 NMatS0=      1 NMatT0=    0 NMatD0=    1 NMtDS0=    0 NMtDT0=    0
 Petite list used in FoFCou.
 Requested convergence on RMS density matrix=1.00D-08 within 128 cycles.
 Requested convergence on MAX density matrix=1.00D-06.
 Requested convergence on             energy=1.00D-06.
 No special actions if energy rises.
 SCF Done:  E(RB3LYP) =  -1012.69295893     A.U. after   12 cycles
            NFock= 12  Conv=0.92D-08     -V/T= 2.0023
 Calling FoFJK, ICntrl=      2127 FMM=F ISym2X=0 I1Cent= 0 IOpClX= 0 NMat=1 NMatS=1 NMatT=0.
 ***** Axes restored to original set *****
 -------------------------------------------------------------------
 Center     Atomic                   Forces (Hartrees/Bohr)
 Number     Number              X              Y              Z
 -------------------------------------------------------------------
      1        6          -0.005554788   -0.002174340    0.000482400
      2        6           0.000544582   -0.003094159    0.000545606
      3        6           0.005168553    0.001006162   -0.001495996
      4        6          -0.001682926    0.006192149    0.001907722
      5       16           0.001314624   -0.000070227   -0.001899212
      6        1           0.000763599    0.000941568    0.000626897
      7        1          -0.000761609    0.000733734   -0.000514850
      8        1          -0.000524364   -0.001099834    0.000736601
      9       17           0.000732329   -0.002435052   -0.000389168
 -------------------------------------------------------------------
 Cartesian Forces:  Max     0.006192149 RMS     0.002260724

 GradGradGradGradGradGradGradGradGradGradGradGradGradGradGradGradGradGrad
 Berny optimization.
 Using GEDIIS/GDIIS optimizer.
 FormGI is forming the generalized inverse of G from B-inverse, IUseBI=4.
 Internal  Forces:  Max     0.006255415 RMS     0.001657142
 Search for a local minimum.
 Step number   3 out of a maximum of   48
 All quantities printed in internal units (Hartrees-Bohrs-Radians)
 Mixed Optimization -- RFO/linear search
 Update second derivatives using D2CorX and points    1    2    3
 DE= -1.07D-03 DEPred=-1.16D-03 R= 9.22D-01
 TightC=F SS=  1.41D+00  RLast= 1.93D-01 DXNew= 8.4853D-01 5.7847D-01
 Trust test= 9.22D-01 RLast= 1.93D-01 DXMaxT set to 5.78D-01
 ITU=  1  1  0
 Use linear search instead of GDIIS.
     Eigenvalues ---    0.00991   0.01368   0.01552   0.01936   0.02098
     Eigenvalues ---    0.02681   0.14483   0.15999   0.16069   0.22785
     Eigenvalues ---    0.23065   0.24958   0.26970   0.27919   0.28893
     Eigenvalues ---    0.31503   0.37223   0.37235   0.37553   0.48891
     Eigenvalues ---    0.52756
 RFO step:  Lambda=-6.33563195D-04 EMin= 9.90594704D-03
 Quartic linear search produced a step of -0.05224.
 Iteration  1 RMS(Cart)=  0.02550785 RMS(Int)=  0.00051492
 Iteration  2 RMS(Cart)=  0.00057981 RMS(Int)=  0.00020064
 Iteration  3 RMS(Cart)=  0.00000017 RMS(Int)=  0.00020064
 Variable       Old X    -DE/DX   Delta X   Delta X   Delta X     New X
                                 (Linear)    (Quad)   (Total)
    R1        2.56846   0.00386  -0.00039   0.00918   0.00888   2.57734
    R2        3.27288   0.00067   0.00124  -0.00255  -0.00124   3.27164
    R3        2.04018  -0.00118  -0.00014  -0.00291  -0.00304   2.03713
    R4        2.68168   0.00626   0.00251   0.01711   0.01962   2.70130
    R5        3.29236   0.00252   0.00009   0.00873   0.00882   3.30119
    R6        2.56829   0.00439  -0.00050   0.01092   0.01032   2.57861
    R7        2.04397  -0.00061  -0.00013  -0.00172  -0.00185   2.04213
    R8        3.27759  -0.00019   0.00148  -0.00682  -0.00541   3.27218
    R9        2.04235  -0.00117  -0.00022  -0.00245  -0.00267   2.03968
    A1        1.93237  -0.00089   0.00122  -0.01118  -0.01014   1.92223
    A2        2.23733   0.00063  -0.00177   0.01072   0.00904   2.24637
    A3        2.11337   0.00026   0.00039   0.00074   0.00121   2.11458
    A4        1.99356  -0.00077  -0.00072   0.00114   0.00015   1.99371
    A5        2.15656  -0.00047   0.00047  -0.00493  -0.00433   2.15223
    A6        2.13307   0.00124   0.00024   0.00377   0.00413   2.13720
    A7        1.94878  -0.00017  -0.00046   0.00414   0.00315   1.95193
    A8        2.15373   0.00085  -0.00005   0.00452   0.00460   2.15833
    A9        2.18068  -0.00069   0.00048  -0.00868  -0.00806   2.17262
   A10        1.95659  -0.00116   0.00107  -0.01191  -0.01132   1.94528
   A11        2.23202   0.00100  -0.00200   0.01388   0.01216   2.24418
   A12        2.09456   0.00016   0.00076  -0.00192  -0.00088   2.09368
   A13        1.59325   0.00301  -0.00111   0.01909   0.01747   1.61072
    D1       -0.00057   0.00022   0.00046   0.01326   0.01356   0.01298
    D2        3.13770   0.00037  -0.00033   0.00673   0.00639  -3.13909
    D3        3.12528   0.00016  -0.00310   0.03365   0.03040  -3.12750
    D4       -0.01963   0.00031  -0.00389   0.02712   0.02324   0.00361
    D5        0.01046  -0.00067  -0.00152  -0.03761  -0.03928  -0.02881
    D6       -3.11669  -0.00062   0.00187  -0.05643  -0.05473   3.11177
    D7       -0.01333   0.00055   0.00126   0.02788   0.02926   0.01592
    D8        3.12725   0.00020  -0.00063   0.00492   0.00440   3.13166
    D9        3.13153   0.00040   0.00204   0.03432   0.03637  -3.11529
   D10       -0.01107   0.00005   0.00015   0.01137   0.01151   0.00044
   D11        0.02102  -0.00107  -0.00241  -0.05624  -0.05837  -0.03735
   D12       -3.12561  -0.00052   0.00240  -0.04514  -0.04246   3.11512
   D13       -3.11955  -0.00071  -0.00047  -0.03287  -0.03328   3.13036
   D14        0.01701  -0.00017   0.00434  -0.02177  -0.01738  -0.00036
   D15       -0.01831   0.00100   0.00228   0.05440   0.05672   0.03841
   D16        3.12787   0.00050  -0.00226   0.04423   0.04232  -3.11299
         Item               Value     Threshold  Converged?
 Maximum Force            0.006255     0.000450     NO 
 RMS     Force            0.001657     0.000300     NO 
 Maximum Displacement     0.088199     0.001800     NO 
 RMS     Displacement     0.025472     0.001200     NO 
 Predicted change in Energy=-3.280030D-04
 GradGradGradGradGradGradGradGradGradGradGradGradGradGradGradGradGradGrad

                          Input orientation:                          
 ---------------------------------------------------------------------
 Center     Atomic      Atomic             Coordinates (Angstroms)
 Number     Number       Type             X           Y           Z
 ---------------------------------------------------------------------
      1          6           0       -0.331744   -0.057989    0.158604
      2          6           0        1.010307   -0.150375   -0.066140
      3          6           0        1.689221    1.107366   -0.089351
      4          6           0        0.837629    2.148186    0.141867
      5         16           0       -0.794870    1.601609    0.327634
      6          1           0       -1.058757   -0.850371    0.233954
      7          1           0        2.753402    1.210833   -0.246228
      8          1           0        1.063926    3.201610    0.205830
      9         17           0        1.843045   -1.669419   -0.291444
 ---------------------------------------------------------------------
                    Distance matrix (angstroms):
                    1          2          3          4          5
     1  C    0.000000
     2  C    1.363871   0.000000
     3  C    2.346025   1.429467   0.000000
     4  C    2.496983   2.314404   1.364542   0.000000
     5  S    1.731278   2.546207   2.566877   1.731562   0.000000
     6  H    1.078005   2.204785   3.389490   3.549099   2.467918
     7  H    3.360346   2.218941   1.080647   2.167818   3.615557
     8  H    3.546141   3.363428   2.205444   1.079354   2.455598
     9  Cl   2.743894   1.746914   2.788375   3.971489   4.247526
                    6          7          8          9
     6  H    0.000000
     7  H    4.360240   0.000000
     8  H    4.574399   2.649883   0.000000
     9  Cl   3.060611   3.021034   4.957946   0.000000
 Stoichiometry    C4H3ClS
 Framework group  C1[X(C4H3ClS)]
 Deg. of freedom    21
 Full point group                 C1      NOp   1
 Largest Abelian subgroup         C1      NOp   1
 Largest concise Abelian subgroup C1      NOp   1
                         Standard orientation:                         
 ---------------------------------------------------------------------
 Center     Atomic      Atomic             Coordinates (Angstroms)
 Number     Number       Type             X           Y           Z
 ---------------------------------------------------------------------
      1          6           0        0.250428   -1.055597   -0.008996
      2          6           0       -0.581381    0.025158    0.005408
      3          6           0        0.093812    1.285093    0.012803
      4          6           0        1.449706    1.134518   -0.016456
      5         16           0        1.902050   -0.536748    0.007305
      6          1           0       -0.005072   -2.102699   -0.028740
      7          1           0       -0.416026    2.237908    0.015287
      8          1           0        2.211460    1.898795   -0.041271
      9         17           0       -2.323444   -0.104769   -0.001101
 ---------------------------------------------------------------------
 Rotational constants (GHZ):      7.0868126      1.4882210      1.2300020
 Standard basis: 6-311+G(d,p) (5D, 7F)
 There are   172 symmetry adapted cartesian basis functions of A   symmetry.
 There are   166 symmetry adapted basis functions of A   symmetry.
   166 basis functions,   271 primitive gaussians,   172 cartesian basis functions
    30 alpha electrons       30 beta electrons
       nuclear repulsion energy       317.6700810279 Hartrees.
 NAtoms=    9 NActive=    9 NUniq=    9 SFac= 1.00D+00 NAtFMM=   60 NAOKFM=F Big=F
 Integral buffers will be    131072 words long.
 Raffenetti 2 integral format.
 Two-electron integral symmetry is turned on.
 One-electron integrals computed using PRISM.
 NBasis=   166 RedAO= T EigKep=  1.57D-05  NBF=   166
 NBsUse=   166 1.00D-06 EigRej= -1.00D+00 NBFU=   166
 Initial guess from the checkpoint file:  "Table7_2.chk"
 B after Tr=     0.000000    0.000000    0.000000
         Rot=    0.999998    0.000007    0.000003    0.002193 Ang=   0.25 deg.
 ExpMin= 4.05D-02 ExpMax= 1.06D+05 ExpMxC= 3.62D+03 IAcc=2 IRadAn=         4 AccDes= 0.00D+00
 Harris functional with IExCor=  402 and IRadAn=       4 diagonalized for initial guess.
 HarFok:  IExCor=  402 AccDes= 0.00D+00 IRadAn=         4 IDoV= 1 UseB2=F ITyADJ=14
 ICtDFT=  3500011 ScaDFX=  1.000000  1.000000  1.000000  1.000000
 FoFCou: FMM=F IPFlag=           0 FMFlag=      100000 FMFlg1=           0
         NFxFlg=           0 DoJE=T BraDBF=F KetDBF=T FulRan=T
         wScrn=  0.000000 ICntrl=     500 IOpCl=  0 I1Cent=   200000004 NGrid=           0
         NMat0=    1 NMatS0=      1 NMatT0=    0 NMatD0=    1 NMtDS0=    0 NMtDT0=    0
 Petite list used in FoFCou.
 Requested convergence on RMS density matrix=1.00D-08 within 128 cycles.
 Requested convergence on MAX density matrix=1.00D-06.
 Requested convergence on             energy=1.00D-06.
 No special actions if energy rises.
 SCF Done:  E(RB3LYP) =  -1012.69291432     A.U. after   12 cycles
            NFock= 12  Conv=0.38D-08     -V/T= 2.0023
 Calling FoFJK, ICntrl=      2127 FMM=F ISym2X=0 I1Cent= 0 IOpClX= 0 NMat=1 NMatS=1 NMatT=0.
 ***** Axes restored to original set *****
 -------------------------------------------------------------------
 Center     Atomic                   Forces (Hartrees/Bohr)
 Number     Number              X              Y              Z
 -------------------------------------------------------------------
      1        6           0.001844723    0.001851020   -0.001498583
      2        6           0.000702288    0.001502393   -0.000006606
      3        6           0.000506522   -0.001311972    0.002504877
      4        6          -0.000760093   -0.002705515   -0.002764229
      5       16          -0.002675264    0.001151292    0.003599886
      6        1           0.000136645    0.000148203   -0.000725101
      7        1           0.000111370   -0.000260805    0.000101561
      8        1           0.000020708   -0.000374355   -0.001055833
      9       17           0.000113100   -0.000000260   -0.000155971
 -------------------------------------------------------------------
 Cartesian Forces:  Max     0.003599886 RMS     0.001478331

 GradGradGradGradGradGradGradGradGradGradGradGradGradGradGradGradGradGrad
 Berny optimization.
 Using GEDIIS/GDIIS optimizer.
 FormGI is forming the generalized inverse of G from B-inverse, IUseBI=4.
 Internal  Forces:  Max     0.003259161 RMS     0.001199334
 Search for a local minimum.
 Step number   4 out of a maximum of   48
 All quantities printed in internal units (Hartrees-Bohrs-Radians)
 Mixed Optimization -- RFO/linear search
 Update second derivatives using D2CorX and points    1    2    4    3
 DE=  4.46D-05 DEPred=-3.28D-04 R=-1.36D-01
 Trust test=-1.36D-01 RLast= 1.48D-01 DXMaxT set to 2.89D-01
 ITU= -1  1  1  0
 Use linear search instead of GDIIS.
 Energy rises -- skip Quadratic/GDIIS search.
 Quartic linear search produced a step of -0.53456.
 Iteration  1 RMS(Cart)=  0.01356872 RMS(Int)=  0.00014474
 Iteration  2 RMS(Cart)=  0.00016725 RMS(Int)=  0.00004679
 Iteration  3 RMS(Cart)=  0.00000001 RMS(Int)=  0.00004679
 Variable       Old X    -DE/DX   Delta X   Delta X   Delta X     New X
                                 (Linear)    (Quad)   (Total)
    R1        2.57734  -0.00028  -0.00475   0.00000  -0.00477   2.57257
    R2        3.27164   0.00022   0.00066   0.00000   0.00064   3.27228
    R3        2.03713  -0.00025   0.00163   0.00000   0.00163   2.03876
    R4        2.70130  -0.00326  -0.01049   0.00000  -0.01049   2.69081
    R5        3.30119   0.00007  -0.00472   0.00000  -0.00472   3.29647
    R6        2.57861  -0.00039  -0.00552   0.00000  -0.00549   2.57312
    R7        2.04213   0.00007   0.00099   0.00000   0.00099   2.04311
    R8        3.27218   0.00065   0.00289   0.00000   0.00291   3.27509
    R9        2.03968  -0.00042   0.00142   0.00000   0.00142   2.04111
    A1        1.92223   0.00215   0.00542   0.00000   0.00547   1.92771
    A2        2.24637  -0.00119  -0.00483   0.00000  -0.00484   2.24153
    A3        2.11458  -0.00095  -0.00065   0.00000  -0.00066   2.11392
    A4        1.99371  -0.00034  -0.00008   0.00000  -0.00002   1.99369
    A5        2.15223   0.00037   0.00232   0.00000   0.00229   2.15451
    A6        2.13720  -0.00003  -0.00221   0.00000  -0.00224   2.13496
    A7        1.95193  -0.00096  -0.00169   0.00000  -0.00155   1.95038
    A8        2.15833   0.00024  -0.00246   0.00000  -0.00249   2.15584
    A9        2.17262   0.00074   0.00431   0.00000   0.00428   2.17690
   A10        1.94528   0.00244   0.00605   0.00000   0.00618   1.95146
   A11        2.24418  -0.00148  -0.00650   0.00000  -0.00655   2.23763
   A12        2.09368  -0.00095   0.00047   0.00000   0.00042   2.09410
   A13        1.61072  -0.00320  -0.00934   0.00000  -0.00921   1.60150
    D1        0.01298  -0.00077  -0.00725   0.00000  -0.00721   0.00577
    D2       -3.13909  -0.00052  -0.00342   0.00000  -0.00341   3.14068
    D3       -3.12750  -0.00021  -0.01625   0.00000  -0.01622   3.13946
    D4        0.00361   0.00004  -0.01242   0.00000  -0.01243  -0.00882
    D5       -0.02881   0.00155   0.02100   0.00000   0.02104  -0.00778
    D6        3.11177   0.00103   0.02926   0.00000   0.02928   3.14105
    D7        0.01592  -0.00068  -0.01564   0.00000  -0.01567   0.00026
    D8        3.13166   0.00031  -0.00235   0.00000  -0.00237   3.12928
    D9       -3.11529  -0.00093  -0.01944   0.00000  -0.01945  -3.13474
   D10        0.00044   0.00006  -0.00615   0.00000  -0.00615  -0.00571
   D11       -0.03735   0.00177   0.03120   0.00000   0.03114  -0.00621
   D12        3.11512   0.00080   0.02270   0.00000   0.02265   3.13776
   D13        3.13036   0.00079   0.01779   0.00000   0.01777  -3.13506
   D14       -0.00036  -0.00018   0.00929   0.00000   0.00928   0.00892
   D15        0.03841  -0.00194  -0.03032   0.00000  -0.03034   0.00808
   D16       -3.11299  -0.00107  -0.02263   0.00000  -0.02269  -3.13568
         Item               Value     Threshold  Converged?
 Maximum Force            0.003259     0.000450     NO 
 RMS     Force            0.001199     0.000300     NO 
 Maximum Displacement     0.047082     0.001800     NO 
 RMS     Displacement     0.013594     0.001200     NO 
 Predicted change in Energy=-1.458000D-04
 GradGradGradGradGradGradGradGradGradGradGradGradGradGradGradGradGradGrad

                          Input orientation:                          
 ---------------------------------------------------------------------
 Center     Atomic      Atomic             Coordinates (Angstroms)
 Number     Number       Type             X           Y           Z
 ---------------------------------------------------------------------
      1          6           0       -0.328917   -0.054320    0.162346
      2          6           0        1.010536   -0.147162   -0.062407
      3          6           0        1.688350    1.104959   -0.079725
      4          6           0        0.834921    2.143687    0.136508
[...]
 Temperature   298.150 Kelvin.  Pressure   1.00000 Atm.
 Atom     1 has atomic number  6 and mass  12.00000
 Atom     2 has atomic number  6 and mass  12.00000
 Atom     3 has atomic number  6 and mass  12.00000
 Atom     4 has atomic number  6 and mass  12.00000
 Atom     5 has atomic number 16 and mass  31.97207
 Atom     6 has atomic number  1 and mass   1.00783
 Atom     7 has atomic number  1 and mass   1.00783
 Atom     8 has atomic number  1 and mass   1.00783
 Atom     9 has atomic number 17 and mass  34.96885
 Molecular mass:   117.96440 amu.
 Principal axes and moments of inertia in atomic units:
                           1         2         3
     Eigenvalues --   254.092201214.296561468.38874
           X            0.99994   0.01124   0.00000
           Y           -0.01124   0.99994   0.00000
           Z            0.00000   0.00000   1.00000
 This molecule is an asymmetric top.
 Rotational symmetry number  1.
 Rotational temperatures (Kelvin)      0.34088     0.07133     0.05899
 Rotational constants (GHZ):           7.10270     1.48624     1.22906
 Zero-point vibrational energy     149847.2 (Joules/Mol)
                                   35.81433 (Kcal/Mol)
 Warning -- explicit consideration of   5 degrees of freedom as
           vibrations may cause significant error
 Vibrational temperatures:    300.38   410.53   607.54   655.47   871.92
          (Kelvin)            915.43   970.23  1113.29  1156.64  1225.58
                             1279.14  1299.46  1576.26  1605.88  1759.14
                             1994.67  2074.12  2228.96  4636.02  4675.17
                             4689.08
 
 Zero-point correction=                           0.057074 (Hartree/Particle)
 Thermal correction to Energy=                    0.062281
 Thermal correction to Enthalpy=                  0.063225
 Thermal correction to Gibbs Free Energy=         0.027450
 Sum of electronic and zero-point Energies=          -1012.636064
 Sum of electronic and thermal Energies=             -1012.630857
 Sum of electronic and thermal Enthalpies=           -1012.629913
 Sum of electronic and thermal Free Energies=        -1012.665688
 
                     E (Thermal)             CV                S
                      KCal/Mol        Cal/Mol-Kelvin    Cal/Mol-Kelvin
 Total                   39.082             19.040             75.295
 Electronic               0.000              0.000              0.000
 Translational            0.889              2.981             40.211
 Rotational               0.889              2.981             27.607
 Vibrational             37.304             13.079              7.478
 Vibration     1          0.642              1.827              2.054
 Vibration     2          0.683              1.701              1.501
 Vibration     3          0.785              1.422              0.884
 Vibration     4          0.814              1.349              0.779
 Vibration     5          0.965              1.019              0.439
                       Q            Log10(Q)             Ln(Q)
 Total Bot       0.236560D-12        -12.626058        -29.072574
 Total V=0       0.422666D+14         13.625997         31.375019
 Vib (Bot)       0.194955D-25        -25.710065        -59.199612
 Vib (Bot)    1  0.951823D+00         -0.021444         -0.049376
 Vib (Bot)    2  0.671905D+00         -0.172692         -0.397638
 Vib (Bot)    3  0.415115D+00         -0.381832         -0.879200
 Vib (Bot)    4  0.374708D+00         -0.426307         -0.981608
 Vib (Bot)    5  0.244868D+00         -0.611068         -1.407035
 Vib (V=0)       0.348330D+01          0.541991          1.247980
 Vib (V=0)    1  0.157516D+01          0.197324          0.454356
 Vib (V=0)    2  0.133753D+01          0.126303          0.290824
 Vib (V=0)    3  0.114986D+01          0.060646          0.139642
 Vib (V=0)    4  0.112482D+01          0.051085          0.117627
 Vib (V=0)    5  0.105674D+01          0.023969          0.055190
 Electronic      0.100000D+01          0.000000          0.000000
 Translational   0.503595D+08          7.702082         17.734698
 Rotational      0.240949D+06          5.381925         12.392340
 ***** Axes restored to original set *****
 -------------------------------------------------------------------
 Center     Atomic                   Forces (Hartrees/Bohr)
 Number     Number              X              Y              Z
 -------------------------------------------------------------------
      1        6          -0.000030788    0.000016550   -0.000008209
      2        6           0.000020061   -0.000003114   -0.000017191
      3        6           0.000022446   -0.000027812    0.000001282
      4        6          -0.000037445    0.000013098    0.000000412
      5       16           0.000006481    0.000013708    0.000015238
      6        1           0.000000501    0.000001223    0.000001608
      7        1           0.000008822    0.000001662   -0.000003639
      8        1           0.000013969    0.000000447   -0.000001106
      9       17          -0.000004046   -0.000015762    0.000011605
 -------------------------------------------------------------------
 Cartesian Forces:  Max     0.000037445 RMS     0.000014914
 FormGI is forming the generalized inverse of G from B-inverse, IUseBI=4.

 GradGradGradGradGradGradGradGradGradGradGradGradGradGradGradGradGradGrad
 Berny optimization.
 Internal  Forces:  Max     0.000033734 RMS     0.000009624
 Search for a local minimum.
 Step number   1 out of a maximum of    2
 All quantities printed in internal units (Hartrees-Bohrs-Radians)
 Second derivative matrix not updated -- analytic derivatives used.
 ITU=  0
     Eigenvalues ---    0.01346   0.01458   0.01808   0.02732   0.03917
     Eigenvalues ---    0.05052   0.09212   0.09572   0.10592   0.15932
     Eigenvalues ---    0.16762   0.20887   0.21484   0.24526   0.29570
     Eigenvalues ---    0.36715   0.37019   0.37299   0.39882   0.46046
     Eigenvalues ---    0.50317
 Angle between quadratic step and forces=  57.07 degrees.
 Linear search not attempted -- first point.
 Iteration  1 RMS(Cart)=  0.00014593 RMS(Int)=  0.00000002
 Iteration  2 RMS(Cart)=  0.00000002 RMS(Int)=  0.00000001
 Variable       Old X    -DE/DX   Delta X   Delta X   Delta X     New X
                                 (Linear)    (Quad)   (Total)
    R1        2.57600   0.00003   0.00000   0.00006   0.00006   2.57606
    R2        3.27273   0.00001   0.00000  -0.00001  -0.00001   3.27273
    R3        2.03676   0.00000   0.00000   0.00000   0.00000   2.03676
    R4        2.69506   0.00000   0.00000  -0.00001  -0.00001   2.69506
    R5        3.30142   0.00001   0.00000   0.00003   0.00003   3.30145
    R6        2.57724   0.00003   0.00000   0.00008   0.00008   2.57732
    R7        2.04208   0.00001   0.00000   0.00002   0.00002   2.04210
    R8        3.27451  -0.00001   0.00000  -0.00006  -0.00006   3.27444
    R9        2.03893   0.00000   0.00000   0.00001   0.00001   2.03893
    A1        1.92931   0.00001   0.00000   0.00003   0.00003   1.92934
    A2        2.24065  -0.00001   0.00000  -0.00009  -0.00009   2.24056
    A3        2.11322   0.00000   0.00000   0.00006   0.00006   2.11329
    A4        1.99251  -0.00001   0.00000  -0.00003  -0.00003   1.99248
    A5        2.15273   0.00000   0.00000  -0.00005  -0.00005   2.15268
    A6        2.13795   0.00001   0.00000   0.00007   0.00007   2.13802
    A7        1.94810  -0.00001   0.00000  -0.00003  -0.00003   1.94807
    A8        2.16004   0.00001   0.00000   0.00010   0.00010   2.16014
    A9        2.17504   0.00000   0.00000  -0.00007  -0.00007   2.17497
   A10        1.95376   0.00001   0.00000   0.00004   0.00004   1.95380
   A11        2.23681  -0.00001   0.00000  -0.00010  -0.00010   2.23671
   A12        2.09261   0.00000   0.00000   0.00006   0.00006   2.09268
   A13        1.60110   0.00000   0.00000  -0.00001  -0.00001   1.60108
    D1        0.00014  -0.00001   0.00000  -0.00014  -0.00014   0.00000
    D2       -3.14111  -0.00001   0.00000  -0.00048  -0.00048  -3.14159
    D3        3.14139   0.00000   0.00000   0.00020   0.00020  -3.14159
    D4        0.00014   0.00000   0.00000  -0.00014  -0.00014   0.00000
    D5       -0.00014   0.00001   0.00000   0.00014   0.00014   0.00000
    D6       -3.14143   0.00000   0.00000  -0.00017  -0.00017   3.14159
    D7       -0.00005   0.00000   0.00000   0.00005   0.00005   0.00000
    D8        3.14149   0.00000   0.00000   0.00011   0.00011   3.14159
    D9        3.14120   0.00001   0.00000   0.00039   0.00039   3.14159
   D10       -0.00044   0.00001   0.00000   0.00044   0.00044   0.00000
   D11       -0.00006   0.00000   0.00000   0.00006   0.00006   0.00000
   D12       -3.14158   0.00000   0.00000  -0.00001  -0.00001  -3.14159
   D13        3.14159   0.00001   0.00000   0.00001   0.00001   3.14159
   D14        0.00007   0.00000   0.00000  -0.00007  -0.00007   0.00000
   D15        0.00012  -0.00001   0.00000  -0.00012  -0.00012   0.00000
   D16       -3.14154   0.00000   0.00000  -0.00005  -0.00005   3.14159
         Item               Value     Threshold  Converged?
 Maximum Force            0.000034     0.000450     YES
 RMS     Force            0.000010     0.000300     YES
 Maximum Displacement     0.000548     0.001800     YES
 RMS     Displacement     0.000146     0.001200     YES
 Predicted change in Energy=-1.459734D-08
 Optimization completed.
    -- Stationary point found.
                           ----------------------------
                           !   Optimized Parameters   !
                           ! (Angstroms and Degrees)  !
 --------------------------                            --------------------------
 ! Name  Definition              Value          Derivative Info.                !
 --------------------------------------------------------------------------------
 ! R1    R(1,2)                  1.3632         -DE/DX =    0.0                 !
 ! R2    R(1,5)                  1.7319         -DE/DX =    0.0                 !
 ! R3    R(1,6)                  1.0778         -DE/DX =    0.0                 !
 ! R4    R(2,3)                  1.4262         -DE/DX =    0.0                 !
 ! R5    R(2,9)                  1.747          -DE/DX =    0.0                 !
 ! R6    R(3,4)                  1.3638         -DE/DX =    0.0                 !
 ! R7    R(3,7)                  1.0806         -DE/DX =    0.0                 !
 ! R8    R(4,5)                  1.7328         -DE/DX =    0.0                 !
 ! R9    R(4,8)                  1.079          -DE/DX =    0.0                 !
 ! A1    A(2,1,5)              110.5412         -DE/DX =    0.0                 !
 ! A2    A(2,1,6)              128.3799         -DE/DX =    0.0                 !
 ! A3    A(5,1,6)              121.0788         -DE/DX =    0.0                 !
 ! A4    A(1,2,3)              114.1624         -DE/DX =    0.0                 !
 ! A5    A(1,2,9)              123.3421         -DE/DX =    0.0                 !
 ! A6    A(3,2,9)              122.4956         -DE/DX =    0.0                 !
 ! A7    A(2,3,4)              111.6181         -DE/DX =    0.0                 !
 ! A8    A(2,3,7)              123.7611         -DE/DX =    0.0                 !
 ! A9    A(4,3,7)              124.6208         -DE/DX =    0.0                 !
 ! A10   A(3,4,5)              111.9423         -DE/DX =    0.0                 !
 ! A11   A(3,4,8)              128.1597         -DE/DX =    0.0                 !
 ! A12   A(5,4,8)              119.898          -DE/DX =    0.0                 !
 ! A13   A(1,5,4)               91.736          -DE/DX =    0.0                 !
 ! D1    D(5,1,2,3)              0.008          -DE/DX =    0.0                 !
 ! D2    D(5,1,2,9)           -179.9724         -DE/DX =    0.0                 !
 ! D3    D(6,1,2,3)           -180.0113         -DE/DX =    0.0                 !
 ! D4    D(6,1,2,9)              0.0083         -DE/DX =    0.0                 !
 ! D5    D(2,1,5,4)             -0.0082         -DE/DX =    0.0                 !
 ! D6    D(6,1,5,4)            180.0094         -DE/DX =    0.0                 !
 ! D7    D(1,2,3,4)             -0.0031         -DE/DX =    0.0                 !
 ! D8    D(1,2,3,7)            179.994          -DE/DX =    0.0                 !
 ! D9    D(9,2,3,4)            179.9775         -DE/DX =    0.0                 !
 ! D10   D(9,2,3,7)             -0.0255         -DE/DX =    0.0                 !
 ! D11   D(2,3,4,5)             -0.0033         -DE/DX =    0.0                 !
 ! D12   D(2,3,4,8)           -179.9992         -DE/DX =    0.0                 !
 ! D13   D(7,3,4,5)            179.9997         -DE/DX =    0.0                 !
 ! D14   D(7,3,4,8)              0.0038         -DE/DX =    0.0                 !
 ! D15   D(3,4,5,1)              0.0066         -DE/DX =    0.0                 !
 ! D16   D(8,4,5,1)            180.0029         -DE/DX =    0.0                 !
 --------------------------------------------------------------------------------
 GradGradGradGradGradGradGradGradGradGradGradGradGradGradGradGradGradGrad

 1\1\GINC-COREV1-22-003\Freq\RB3LYP\6-311+G(d,p)\C4H3Cl1S1\ROOT\23-Feb-
 2022\0\\#N Geom=AllCheck Guess=TCheck SCRF=Check GenChk RB3LYP/6-311+G
 (d,p) Freq\\Title Card Required\\0,1\C,-0.3294204156,-0.0536281758,0.1
 604736377\C,1.012545823,-0.1488237447,-0.0592225891\C,1.6918413384,1.1
 050698829,-0.0753184999\C,0.8340549168,2.1439796463,0.1364865839\S,-0.
 7973087008,1.6023960476,0.3553863183\H,-1.0561497704,-0.8475319545,0.2
 175203361\H,2.7552678533,1.2099370508,-0.2361475174\H,1.060884822,3.19
 8022458,0.1774932777\Cl,1.8404436932,-1.6679701106,-0.3019460873\\Vers
 ion=ES64L-G09RevD.01\State=1-A\HF=-1012.693138\RMSD=5.725e-09\RMSF=1.4
 91e-05\ZeroPoint=0.0570738\Thermal=0.062281\Dipole=-0.1483648,0.533573
 ,0.0624489\DipoleDeriv=-0.0709878,-0.1208974,-0.0339618,-0.1959252,-0.
 0054604,0.047418,-0.0391974,0.0355074,-0.221073,0.1755827,-0.3095471,-
 0.0575978,-0.4848736,0.8694177,0.1437361,-0.0707786,0.1162524,-0.02382
 89,-0.1636295,0.157277,0.0191011,0.2283934,-0.2204426,-0.0437794,0.024
 3577,-0.0326827,-0.1226674,0.3576944,-0.1114772,-0.1042255,0.0103382,-
 0.1669988,0.0041864,-0.095331,0.023656,-0.2325876,-0.1794072,0.1616821
 ,0.0617698,0.1411171,-0.0345482,-0.0348216,0.0601059,-0.0380191,0.1237
 878,0.0915539,0.0037065,0.015418,-0.0302072,0.0305106,-0.0066563,0.012
 9482,-0.0121168,0.1843347,-0.012351,-0.0161364,0.0286171,0.0198904,0.0
 95634,-0.0090162,0.0311921,-0.0032547,0.1708159,0.0596574,-0.0369974,0
 .0167283,-0.0134765,0.0160549,-0.0099712,0.0183267,-0.0062015,0.178939
 8,-0.258113,0.2723898,0.0541507,0.3247432,-0.5841672,-0.0910959,0.0583
 764,-0.0831409,-0.0577213\Polar=82.2405681,-11.6345358,89.0461953,-6.6
 444715,5.0146724,46.999549\PG=C01 [X(C4H3Cl1S1)]\NImag=0\\0.71461465,0
 .14840401,0.52734693,-0.08958334,0.00912340,0.09571298,-0.39105773,-0.
 00642838,0.05275790,0.62920886,0.02843406,-0.09125137,-0.00713911,-0.0
 0153741,0.52047580,0.05531634,-0.00162032,-0.06415550,-0.08201874,0.03
 006951,0.12784934,-0.03497337,-0.01685045,0.00562008,-0.14548816,-0.10
 004875,0.00625286,0.79048759,-0.06307914,0.00934214,0.01007663,-0.0532
 0468,-0.21526618,-0.00291472,-0.03427868,0.58933331,0.00225090,0.00275
 123,0.00813286,0.00967344,0.00451545,-0.06115815,-0.10923156,0.0399339
 7,0.13719137,-0.03073938,-0.01560543,0.00541094,0.03696558,0.03156291,
 -0.00226071,-0.22585908,0.12853566,0.03655676,0.44816230,-0.01063768,-
 0.04578909,-0.00242719,-0.01997218,-0.06310588,-0.00204140,0.16555135,
 -0.27566295,-0.04239202,-0.04520502,0.78658786,0.00577382,-0.00164156,
 0.00953964,-0.00602074,-0.01020728,0.00839413,0.03925651,-0.03652341,-
 0.06329690,-0.06067878,0.05831341,0.09991639,-0.04683050,0.01317218,0.
 00358985,-0.04568175,0.00272437,0.00854319,-0.05734805,0.03807174,0.01
 346271,-0.15066210,-0.02698444,0.01671532,0.29768838,0.04860750,-0.165
 73009,-0.01759523,0.04575448,-0.02139380,-0.00931311,-0.00249206,-0.01
 409262,-0.00137033,-0.06167534,-0.05664219,0.00802420,-0.02101303,0.27
 532237,0.00617212,-0.01197076,-0.03206092,0.01168533,-0.00250320,0.004
 93898,0.01050549,-0.00779728,0.00784389,0.01418380,0.00252586,-0.03476
 897,-0.04208036,0.02037630,0.04991440,-0.19246088,-0.15292179,0.016006
 40,-0.00804903,-0.02179751,-0.00006140,-0.00480327,0.00097308,0.001551
 54,-0.00123254,0.00472359,0.00049305,0.00833412,0.00833783,-0.00125693
 ,0.19613908,-0.15737643,-0.21586396,0.01066554,0.00612780,0.00692763,-
 0.00058369,0.00152025,0.00060860,-0.00052896,0.00235032,-0.00432973,-0
 .00066676,-0.01323345,-0.01104202,0.00154035,0.16206941,0.22225762,0.0
 1567544,0.00995306,-0.02255810,0.00198333,0.00384265,0.00159881,0.0015
 9366,-0.00044325,0.00425350,0.00031779,-0.00104306,-0.00042364,-0.0028
 3144,-0.00187324,-0.00313920,-0.01642082,-0.01070918,0.01945507,-0.000
 65516,-0.00095454,0.00032551,-0.00615625,0.00402939,0.00130509,-0.3379
 6956,-0.03073717,0.04653589,-0.01110887,-0.00415090,0.00206816,-0.0000
 0675,0.00080378,0.00110334,-0.00015731,0.00006963,0.00017368,0.3550072
 8,-0.00260462,-0.00559870,-0.00013024,-0.02554786,0.00267994,0.0042281
 0,-0.02793509,-0.05765570,0.00241289,0.02250846,0.00671286,-0.00335770
 ,0.00441113,-0.00176448,-0.00130934,-0.00117094,0.00050501,0.00015642,
 0.03090834,0.05342724,0.00020325,-0.00039109,0.00177362,-0.00085129,-0
 .00045719,0.00032402,0.04673761,0.00285454,-0.03729251,0.00401483,0.00
 086715,0.00328045,0.00136789,-0.00073802,0.00632120,0.00008343,-0.0000
 4032,0.00089166,-0.05047675,-0.00261565,0.02998943,-0.00677301,-0.0012
 0427,0.00100514,-0.00186974,0.00268118,0.00141693,0.01071205,0.0184714
 6,0.00000088,-0.06272174,-0.06286029,0.00175214,-0.00293965,-0.0216395
 8,-0.00169426,0.00116686,-0.00120089,0.00017929,0.00039024,-0.00087604
 ,-0.00079734,0.06171408,0.00023367,0.00105339,0.00002948,0.00284313,-0
 .00116590,-0.00096189,-0.00911574,-0.01046152,0.00052002,-0.06029061,-
 0.34392472,-0.01389845,0.00073841,-0.00100849,0.00007738,-0.00001320,0
 .00022857,-0.00018885,0.00027280,0.00041320,0.00029624,0.06549083,0.35
 565560,0.00111246,0.00025785,-0.00002614,0.00142703,-0.00093744,0.0055
 4091,-0.00201281,-0.00385254,0.00224532,0.00193997,-0.01348917,-0.0239
 8781,-0.00006089,0.00362219,-0.00339115,0.00026507,-0.00000073,0.00280
 647,-0.00071316,0.00047843,-0.00408908,-0.00196083,0.01418882,0.020508
 53,-0.01112462,0.03238867,0.00486751,-0.06787179,0.05395176,0.01150642
 ,0.00524184,-0.00475227,-0.00080055,-0.00280418,-0.00046442,0.00064052
 ,-0.00255369,0.00331642,0.00138147,0.00106298,-0.00032664,-0.00067092,
 0.00065639,0.00030662,-0.00028163,0.00032090,-0.00015928,0.00000316,0.
 07707216,0.00801864,-0.01350925,-0.00260328,0.05196510,-0.13790025,-0.
 01686247,0.02364917,-0.02614508,-0.00584225,-0.00218096,-0.00384616,-0
 .00004246,0.00211310,-0.00364869,-0.00093932,-0.00020047,0.00070829,0.
 00030544,-0.00024133,0.00128064,0.00022433,0.00113759,-0.00079014,-0.0
 0026741,-0.08426085,0.18385064,0.00307901,-0.00646182,0.00364156,0.011
 36374,-0.01718339,-0.02333255,0.00127815,-0.00133394,0.00208062,0.0005
 1542,-0.00031357,0.00134671,0.00129373,-0.00113276,0.00434178,-0.00066
 033,0.00032373,-0.00288457,-0.00032177,0.00013707,-0.00119880,0.000098
 04,-0.00006275,0.00039296,-0.01664599,0.02602742,0.01561229\\0.0000307
 9,-0.00001655,0.00000821,-0.00002006,0.00000311,0.00001719,-0.00002245
 ,0.00002781,-0.00000128,0.00003744,-0.00001310,-0.00000041,-0.00000648
 ,-0.00001371,-0.00001524,-0.00000050,-0.00000122,-0.00000161,-0.000008
 82,-0.00000166,0.00000364,-0.00001397,-0.00000045,0.00000111,0.0000040
 5,0.00001576,-0.00001160\\\@


 IF IT HAPPENS, IT MUST BE POSSIBLE.

 -- THE UNNAMED LAW FROM PAUL DICKSON'S 
    "THE OFFICIAL RULES"
 Job cpu time:       0 days  0 hours  7 minutes 40.1 seconds.
 File lengths (MBytes):  RWF=     71 Int=      0 D2E=      0 Chk=      3 Scr=      1
 Normal termination of Gaussian 09 at Wed Feb 23 13:59:01 2022.
