 Entering Gaussian System, Link 0=g09
 Initial command:
 /cm/shared/apps/gaussian/g09revD.01/g09/l1.exe "//home/sweav003/CHB/CHActivation_Mkhalid/non_select/G09-Table7_4.com.o9715490.tmp/Gau-63042.inp" -scrdir="//home/sweav003/CHB/CHActivation_Mkhalid/non_select/G09-Table7_4.com.o9715490.tmp/"
 Entering Link 1 = /cm/shared/apps/gaussian/g09revD.01/g09/l1.exe PID=     63043.
  
 Copyright (c) 1988,1990,1992,1993,1995,1998,2003,2009,2013,
            Gaussian, Inc.  All Rights Reserved.
  
 This is part of the Gaussian(R) 09 program.  It is based on
 the Gaussian(R) 03 system (copyright 2003, Gaussian, Inc.),
 the Gaussian(R) 98 system (copyright 1998, Gaussian, Inc.),
 the Gaussian(R) 94 system (copyright 1995, Gaussian, Inc.),
 the Gaussian 92(TM) system (copyright 1992, Gaussian, Inc.),
 the Gaussian 90(TM) system (copyright 1990, Gaussian, Inc.),
 the Gaussian 88(TM) system (copyright 1988, Gaussian, Inc.),
 the Gaussian 86(TM) system (copyright 1986, Carnegie Mellon
 University), and the Gaussian 82(TM) system (copyright 1983,
 Carnegie Mellon University). Gaussian is a federally registered
 trademark of Gaussian, Inc.
  
 This software contains proprietary and confidential information,
 including trade secrets, belonging to Gaussian, Inc.
  
 This software is provided under written license and may be
 used, copied, transmitted, or stored only in accord with that
 written license.
  
 The following legend is applicable only to US Government
 contracts under FAR:
  
                    RESTRICTED RIGHTS LEGEND
  
 Use, reproduction and disclosure by the US Government is
 subject to restrictions as set forth in subparagraphs (a)
 and (c) of the Commercial Computer Software - Restricted
 Rights clause in FAR 52.227-19.
  
 Gaussian, Inc.
 340 Quinnipiac St., Bldg. 40, Wallingford CT 06492
  
  
 ---------------------------------------------------------------
 Warning -- This program may not be used in any manner that
 competes with the business of Gaussian, Inc. or will provide
 assistance to any competitor of Gaussian, Inc.  The licensee
 of this program is prohibited from giving any competitor of
 Gaussian, Inc. access to this program.  By using this program,
 the user acknowledges that Gaussian, Inc. is engaged in the
 business of creating and licensing software in the field of
 computational chemistry and represents and warrants to the
 licensee that it is not a competitor of Gaussian, Inc. and that
 it will not use this program in any manner prohibited above.
 ---------------------------------------------------------------
  

 Cite this work as:
 Gaussian 09, Revision D.01,
 M. J. Frisch, G. W. Trucks, H. B. Schlegel, G. E. Scuseria, 
 M. A. Robb, J. R. Cheeseman, G. Scalmani, V. Barone, B. Mennucci, 
 G. A. Petersson, H. Nakatsuji, M. Caricato, X. Li, H. P. Hratchian, 
 A. F. Izmaylov, J. Bloino, G. Zheng, J. L. Sonnenberg, M. Hada, 
 M. Ehara, K. Toyota, R. Fukuda, J. Hasegawa, M. Ishida, T. Nakajima, 
 Y. Honda, O. Kitao, H. Nakai, T. Vreven, J. A. Montgomery, Jr., 
 J. E. Peralta, F. Ogliaro, M. Bearpark, J. J. Heyd, E. Brothers, 
 K. N. Kudin, V. N. Staroverov, T. Keith, R. Kobayashi, J. Normand, 
 K. Raghavachari, A. Rendell, J. C. Burant, S. S. Iyengar, J. Tomasi, 
 M. Cossi, N. Rega, J. M. Millam, M. Klene, J. E. Knox, J. B. Cross, 
 V. Bakken, C. Adamo, J. Jaramillo, R. Gomperts, R. E. Stratmann, 
 O. Yazyev, A. J. Austin, R. Cammi, C. Pomelli, J. W. Ochterski, 
 R. L. Martin, K. Morokuma, V. G. Zakrzewski, G. A. Voth, 
 P. Salvador, J. J. Dannenberg, S. Dapprich, A. D. Daniels, 
 O. Farkas, J. B. Foresman, J. V. Ortiz, J. Cioslowski, 
 and D. J. Fox, Gaussian, Inc., Wallingford CT, 2013.
 
 ******************************************
 Gaussian 09:  ES64L-G09RevD.01 24-Apr-2013
                23-Feb-2022 
 ******************************************
 %chk=Table7_4.chk
 ----------------------------------------------------------------------
 # opt freq b3lyp/6-311+g(d,p) geom=connectivity pop=(hirshfeld,npa,mbs
 ,chelpg)
 ----------------------------------------------------------------------
 1/14=-1,18=20,19=15,26=3,38=1,57=2/1,3;
 2/9=110,12=2,17=6,18=5,40=1/2;
 3/5=4,6=6,7=111,11=2,16=1,25=1,30=1,71=1,74=-5/1,2,3;
 4//1;
 5/5=2,38=5/2;
 6/7=2,8=2,9=2,10=2,15=8,20=3,27=100,28=1,40=-1,79=1/1,2,7;
 7//1,2,3,16;
 1/14=-1,18=20,19=15,26=3/3(2);
 2/9=110/2;
 99//99;
 2/9=110/2;
 3/5=4,6=6,7=111,11=2,16=1,25=1,30=1,71=1,74=-5/1,2,3;
 4/5=5,16=3,69=1/1;
 5/5=2,38=5/2;
 7//1,2,3,16;
 1/14=-1,18=20,19=15,26=3/3(-5);
 2/9=110/2;
 6/7=2,8=2,9=2,10=2,15=8,19=2,20=3,27=100,28=1,40=-1,79=1/1,2,7;
 99/9=1/99;
 -------------------
 Title Card Required
 -------------------
 Symbolic Z-matrix:
 Charge =  0 Multiplicity = 1
 C                    -0.35321  -0.08559   0.15428 
 C                     0.98647  -0.20979  -0.04261 
 C                     1.70557   1.16561  -0.05501 
 C                     0.84052   2.1976    0.13368 
 S                    -0.77233   1.5908    0.54319 
 H                    -1.05688  -0.88827   0.08041 
 H                     2.7577    1.28809  -0.20646 
 H                     1.09752   3.23233   0.04325 
 C                     1.70426  -1.55688  -0.24684 
 H                     1.74289  -1.78568  -1.29138 
 H                     2.69932  -1.49327   0.14139 
 H                     1.16931  -2.32766   0.26757 
 

 GradGradGradGradGradGradGradGradGradGradGradGradGradGradGradGradGradGrad
 Berny optimization.
 Initialization pass.
                           ----------------------------
                           !    Initial Parameters    !
                           ! (Angstroms and Degrees)  !
 --------------------------                            --------------------------
 ! Name  Definition              Value          Derivative Info.                !
 --------------------------------------------------------------------------------
 ! R1    R(1,2)                  1.3598         estimate D2E/DX2                !
 ! R2    R(1,5)                  1.7712         estimate D2E/DX2                !
 ! R3    R(1,6)                  1.07           estimate D2E/DX2                !
 ! R4    R(2,3)                  1.5521         estimate D2E/DX2                !
 ! R5    R(2,9)                  1.54           estimate D2E/DX2                !
 ! R6    R(3,4)                  1.3598         estimate D2E/DX2                !
 ! R7    R(3,7)                  1.07           estimate D2E/DX2                !
 ! R8    R(4,5)                  1.7712         estimate D2E/DX2                !
 ! R9    R(4,8)                  1.07           estimate D2E/DX2                !
 ! R10   R(9,10)                 1.07           estimate D2E/DX2                !
 ! R11   R(9,11)                 1.07           estimate D2E/DX2                !
 ! R12   R(9,12)                 1.07           estimate D2E/DX2                !
 ! A1    A(2,1,5)              110.5717         estimate D2E/DX2                !
 ! A2    A(2,1,6)              124.7089         estimate D2E/DX2                !
 ! A3    A(5,1,6)              124.7189         estimate D2E/DX2                !
 ! A4    A(1,2,3)              112.1288         estimate D2E/DX2                !
 ! A5    A(1,2,9)              123.9397         estimate D2E/DX2                !
 ! A6    A(3,2,9)              123.9275         estimate D2E/DX2                !
 ! A7    A(2,3,4)              112.1288         estimate D2E/DX2                !
 ! A8    A(2,3,7)              123.9275         estimate D2E/DX2                !
 ! A9    A(4,3,7)              123.9397         estimate D2E/DX2                !
 ! A10   A(3,4,5)              110.5717         estimate D2E/DX2                !
 ! A11   A(3,4,8)              124.7089         estimate D2E/DX2                !
 ! A12   A(5,4,8)              124.7189         estimate D2E/DX2                !
 ! A13   A(1,5,4)               93.3257         estimate D2E/DX2                !
 ! A14   A(2,9,10)             109.4712         estimate D2E/DX2                !
 ! A15   A(2,9,11)             109.4712         estimate D2E/DX2                !
 ! A16   A(2,9,12)             109.4712         estimate D2E/DX2                !
 ! A17   A(10,9,11)            109.4713         estimate D2E/DX2                !
 ! A18   A(10,9,12)            109.4712         estimate D2E/DX2                !
 ! A19   A(11,9,12)            109.4712         estimate D2E/DX2                !
 ! D1    D(5,1,2,3)             -7.5816         estimate D2E/DX2                !
 ! D2    D(5,1,2,9)            173.1237         estimate D2E/DX2                !
 ! D3    D(6,1,2,3)            172.1783         estimate D2E/DX2                !
 ! D4    D(6,1,2,9)             -7.1164         estimate D2E/DX2                !
 ! D5    D(2,1,5,4)             10.2583         estimate D2E/DX2                !
 ! D6    D(6,1,5,4)           -169.5015         estimate D2E/DX2                !
 ! D7    D(1,2,3,4)              0.0            estimate D2E/DX2                !
 ! D8    D(1,2,3,7)           -179.2948         estimate D2E/DX2                !
 ! D9    D(9,2,3,4)            179.2948         estimate D2E/DX2                !
 ! D10   D(9,2,3,7)              0.0            estimate D2E/DX2                !
 ! D11   D(1,2,9,10)            90.7575         estimate D2E/DX2                !
 ! D12   D(1,2,9,11)          -149.2425         estimate D2E/DX2                !
 ! D13   D(1,2,9,12)           -29.2425         estimate D2E/DX2                !
 ! D14   D(3,2,9,10)           -88.4551         estimate D2E/DX2                !
 ! D15   D(3,2,9,11)            31.5449         estimate D2E/DX2                !
 ! D16   D(3,2,9,12)           151.5449         estimate D2E/DX2                !
 ! D17   D(2,3,4,5)              7.5816         estimate D2E/DX2                !
 ! D18   D(2,3,4,8)           -172.1783         estimate D2E/DX2                !
 ! D19   D(7,3,4,5)           -173.1237         estimate D2E/DX2                !
 ! D20   D(7,3,4,8)              7.1164         estimate D2E/DX2                !
 ! D21   D(3,4,5,1)            -10.2583         estimate D2E/DX2                !
 ! D22   D(8,4,5,1)            169.5015         estimate D2E/DX2                !
 --------------------------------------------------------------------------------
 Trust Radius=3.00D-01 FncErr=1.00D-07 GrdErr=1.00D-06
 Number of steps in this run=     63 maximum allowed number of steps=    100.
 GradGradGradGradGradGradGradGradGradGradGradGradGradGradGradGradGradGrad

                          Input orientation:                          
 ---------------------------------------------------------------------
 Center     Atomic      Atomic             Coordinates (Angstroms)
 Number     Number       Type             X           Y           Z
 ---------------------------------------------------------------------
      1          6           0       -0.353211   -0.085588    0.154276
      2          6           0        0.986469   -0.209788   -0.042606
      3          6           0        1.705573    1.165607   -0.055011
      4          6           0        0.840518    2.197596    0.133684
      5         16           0       -0.772328    1.590796    0.543194
      6          1           0       -1.056877   -0.888269    0.080413
      7          1           0        2.757696    1.288091   -0.206459
      8          1           0        1.097516    3.232330    0.043249
      9          6           0        1.704263   -1.556882   -0.246839
     10          1           0        1.742891   -1.785678   -1.291377
     11          1           0        2.699317   -1.493271    0.141388
     12          1           0        1.169306   -2.327663    0.267571
 ---------------------------------------------------------------------
                    Distance matrix (angstroms):
                    1          2          3          4          5
     1  C    0.000000
     2  C    1.359753   0.000000
     3  C    2.418239   1.552088   0.000000
     4  C    2.576498   2.418239   1.359753   0.000000
     5  S    1.771208   2.584305   2.584305   1.771208   0.000000
     6  H    1.070000   2.156556   3.444979   3.622915   2.537892
     7  H    3.419775   2.325453   1.070000   2.149062   3.621420
     8  H    3.622915   3.444979   2.156556   1.070000   2.537892
     9  C    2.561015   1.540000   2.729239   3.871299   4.082343
    10  H    3.061677   2.148263   3.200012   4.325685   4.592663
    11  H    3.361497   2.148263   2.845300   4.132517   4.661034
    12  H    2.712526   2.148263   3.548884   4.539163   4.381807
                    6          7          8          9         10
     6  H    0.000000
     7  H    4.401114   0.000000
     8  H    4.649960   2.568777   0.000000
     9  C    2.859726   3.034010   4.836201   0.000000
    10  H    3.244357   3.413932   5.232413   1.070000   0.000000
    11  H    3.805094   2.803637   4.990662   1.070000   1.747303
    12  H    2.657588   3.977607   5.564980   1.070000   1.747303
                   11         12
    11  H    0.000000
    12  H    1.747303   0.000000
 Stoichiometry    C5H6S
 Framework group  C1[X(C5H6S)]
 Deg. of freedom    30
 Full point group                 C1      NOp   1
 Largest Abelian subgroup         C1      NOp   1
 Largest concise Abelian subgroup C1      NOp   1
                         Standard orientation:                         
 ---------------------------------------------------------------------
 Center     Atomic      Atomic             Coordinates (Angstroms)
 Number     Number       Type             X           Y           Z
 ---------------------------------------------------------------------
      1          6           0       -0.143484   -1.087467    0.100234
      2          6           0       -0.990133   -0.027011    0.013344
      3          6           0       -0.231229    1.326698   -0.009259
      4          6           0        1.116313    1.159719    0.062714
      5         16           0        1.538349   -0.555986   -0.061453
      6          1           0       -0.450465   -2.101533    0.249676
      7          1           0       -0.712971    2.280602   -0.063035
      8          1           0        1.823166    1.954099    0.181961
      9          6           0       -2.524039   -0.153463   -0.039020
     10          1           0       -2.918986   -0.117829    0.954785
     11          1           0       -2.929069    0.653674   -0.612936
     12          1           0       -2.789828   -1.084094   -0.495290
 ---------------------------------------------------------------------
 Rotational constants (GHZ):      6.4303082      2.4029582      1.7732233
 Standard basis: 6-311+G(d,p) (5D, 7F)
 There are   182 symmetry adapted cartesian basis functions of A   symmetry.
 There are   176 symmetry adapted basis functions of A   symmetry.
   176 basis functions,   278 primitive gaussians,   182 cartesian basis functions
    26 alpha electrons       26 beta electrons
       nuclear repulsion energy       265.2275050154 Hartrees.
 NAtoms=   12 NActive=   12 NUniq=   12 SFac= 1.00D+00 NAtFMM=   60 NAOKFM=F Big=F
 Integral buffers will be    131072 words long.
 Raffenetti 2 integral format.
 Two-electron integral symmetry is turned on.
 One-electron integrals computed using PRISM.
 NBasis=   176 RedAO= T EigKep=  1.70D-05  NBF=   176
 NBsUse=   176 1.00D-06 EigRej= -1.00D+00 NBFU=   176
 ExpMin= 4.05D-02 ExpMax= 9.34D+04 ExpMxC= 3.17D+03 IAcc=2 IRadAn=         4 AccDes= 0.00D+00
 Harris functional with IExCor=  402 and IRadAn=       4 diagonalized for initial guess.
 HarFok:  IExCor=  402 AccDes= 0.00D+00 IRadAn=         4 IDoV= 1 UseB2=F ITyADJ=14
 ICtDFT=  3500011 ScaDFX=  1.000000  1.000000  1.000000  1.000000
 FoFCou: FMM=F IPFlag=           0 FMFlag=      100000 FMFlg1=           0
         NFxFlg=           0 DoJE=T BraDBF=F KetDBF=T FulRan=T
         wScrn=  0.000000 ICntrl=     500 IOpCl=  0 I1Cent=   200000004 NGrid=           0
         NMat0=    1 NMatS0=      1 NMatT0=    0 NMatD0=    1 NMtDS0=    0 NMtDT0=    0
 Petite list used in FoFCou.
 Requested convergence on RMS density matrix=1.00D-08 within 128 cycles.
 Requested convergence on MAX density matrix=1.00D-06.
 Requested convergence on             energy=1.00D-06.
 No special actions if energy rises.
 SCF Done:  E(RB3LYP) =  -592.383289402     A.U. after   14 cycles
            NFock= 14  Conv=0.19D-08     -V/T= 2.0028

 **********************************************************************

            Population analysis using the SCF density.

 **********************************************************************

 Orbital symmetries:
       Occupied  (A) (A) (A) (A) (A) (A) (A) (A) (A) (A) (A) (A)
                 (A) (A) (A) (A) (A) (A) (A) (A) (A) (A) (A) (A)
                 (A) (A)
       Virtual   (A) (A) (A) (A) (A) (A) (A) (A) (A) (A) (A) (A)
                 (A) (A) (A) (A) (A) (A) (A) (A) (A) (A) (A) (A)
                 (A) (A) (A) (A) (A) (A) (A) (A) (A) (A) (A) (A)
                 (A) (A) (A) (A) (A) (A) (A) (A) (A) (A) (A) (A)
                 (A) (A) (A) (A) (A) (A) (A) (A) (A) (A) (A) (A)
                 (A) (A) (A) (A) (A) (A) (A) (A) (A) (A) (A) (A)
                 (A) (A) (A) (A) (A) (A) (A) (A) (A) (A) (A) (A)
                 (A) (A) (A) (A) (A) (A) (A) (A) (A) (A) (A) (A)
                 (A) (A) (A) (A) (A) (A) (A) (A) (A) (A) (A) (A)
                 (A) (A) (A) (A) (A) (A) (A) (A) (A) (A) (A) (A)
                 (A) (A) (A) (A) (A) (A) (A) (A) (A) (A) (A) (A)
                 (A) (A) (A) (A) (A) (A) (A) (A) (A) (A) (A) (A)
                 (A) (A) (A) (A) (A) (A)
 The electronic state is 1-A.
 Alpha  occ. eigenvalues --  -88.87376 -10.20461 -10.19795 -10.19643 -10.18565
 Alpha  occ. eigenvalues --  -10.17067  -7.95880  -5.92213  -5.91823  -5.91431
 Alpha  occ. eigenvalues --   -0.86761  -0.76473  -0.72971  -0.67546  -0.57177
 Alpha  occ. eigenvalues --   -0.54253  -0.48758  -0.43301  -0.43059  -0.42448
 Alpha  occ. eigenvalues --   -0.38696  -0.37002  -0.35766  -0.33251  -0.24817
 Alpha  occ. eigenvalues --   -0.23752
 Alpha virt. eigenvalues --   -0.02381   0.00012   0.00811   0.02199   0.02519
 Alpha virt. eigenvalues --    0.03125   0.03648   0.04920   0.05769   0.06053
 Alpha virt. eigenvalues --    0.07164   0.07689   0.08441   0.08623   0.09756
 Alpha virt. eigenvalues --    0.10652   0.12001   0.13115   0.13628   0.14549
 Alpha virt. eigenvalues --    0.15702   0.15891   0.16362   0.17392   0.18015
 Alpha virt. eigenvalues --    0.18844   0.19286   0.20148   0.20905   0.21843
 Alpha virt. eigenvalues --    0.22507   0.23054   0.23867   0.26264   0.27375
 Alpha virt. eigenvalues --    0.28514   0.30037   0.33604   0.37080   0.38026
 Alpha virt. eigenvalues --    0.41263   0.42632   0.44637   0.45946   0.50665
 Alpha virt. eigenvalues --    0.52996   0.54940   0.56035   0.56477   0.58723
 Alpha virt. eigenvalues --    0.60471   0.61573   0.62796   0.64398   0.64741
 Alpha virt. eigenvalues --    0.66474   0.69404   0.71400   0.71704   0.74214
 Alpha virt. eigenvalues --    0.75706   0.77173   0.79313   0.81557   0.83818
 Alpha virt. eigenvalues --    0.85004   0.86146   0.89555   0.94043   0.96676
 Alpha virt. eigenvalues --    0.97710   0.97953   1.02626   1.05860   1.08914
 Alpha virt. eigenvalues --    1.11181   1.28256   1.31425   1.33285   1.37602
 Alpha virt. eigenvalues --    1.40420   1.45857   1.49414   1.52376   1.53966
 Alpha virt. eigenvalues --    1.56153   1.56674   1.58101   1.60205   1.64570
 Alpha virt. eigenvalues --    1.65786   1.67251   1.71882   1.77196   1.79074
 Alpha virt. eigenvalues --    1.81061   1.84365   1.87291   1.92063   1.96780
 Alpha virt. eigenvalues --    1.97234   2.00801   2.01127   2.03962   2.04741
 Alpha virt. eigenvalues --    2.08043   2.14124   2.15227   2.21840   2.34732
 Alpha virt. eigenvalues --    2.36849   2.42800   2.44852   2.48331   2.53199
 Alpha virt. eigenvalues --    2.54069   2.56434   2.59399   2.67526   2.68581
 Alpha virt. eigenvalues --    2.69518   2.71961   2.73230   2.77926   2.79416
 Alpha virt. eigenvalues --    2.86208   2.88839   2.96551   2.98618   3.04212
 Alpha virt. eigenvalues --    3.22069   3.26881   3.30953   3.50045   3.62714
 Alpha virt. eigenvalues --    3.85075   3.86195   4.02627   4.24940   4.26508
 Alpha virt. eigenvalues --    7.89431  17.28562  17.42182  17.46648  23.59260
 Alpha virt. eigenvalues --   23.68472  23.97921  24.12438  24.15917 189.04026
          Condensed to atoms (all electrons):
               1          2          3          4          5          6
     1  C    6.318143  -0.128026  -0.322407  -0.167035  -0.061545   0.349669
     2  C   -0.128026   5.570150   0.404107   0.059933   0.082088   0.001986
     3  C   -0.322407   0.404107   5.716456   0.283274   0.176859  -0.007684
     4  C   -0.167035   0.059933   0.283274   5.368193   0.221320   0.004869
     5  S   -0.061545   0.082088   0.176859   0.221320  15.756827  -0.019279
     6  H    0.349669   0.001986  -0.007684   0.004869  -0.019279   0.485629
     7  H   -0.001521  -0.027292   0.362932  -0.009319   0.006770  -0.000120
     8  H   -0.013491   0.017290  -0.037428   0.402453  -0.017644  -0.000086
     9  C    0.080278  -0.173936  -0.139879  -0.039234  -0.086084   0.023564
    10  H   -0.011240  -0.015443  -0.021365  -0.003338   0.000699   0.000306
    11  H   -0.045822  -0.051888   0.043163   0.013824  -0.001672   0.000134
    12  H    0.068614  -0.080404  -0.014166  -0.003220   0.002827   0.001184
               7          8          9         10         11         12
     1  C   -0.001521  -0.013491   0.080278  -0.011240  -0.045822   0.068614
     2  C   -0.027292   0.017290  -0.173936  -0.015443  -0.051888  -0.080404
     3  C    0.362932  -0.037428  -0.139879  -0.021365   0.043163  -0.014166
     4  C   -0.009319   0.402453  -0.039234  -0.003338   0.013824  -0.003220
     5  S    0.006770  -0.017644  -0.086084   0.000699  -0.001672   0.002827
     6  H   -0.000120  -0.000086   0.023564   0.000306   0.000134   0.001184
     7  H    0.527050  -0.005650   0.017041   0.000009   0.000590  -0.000061
     8  H   -0.005650   0.480455   0.004450  -0.000008  -0.000015   0.000014
     9  C    0.017041   0.004450   5.640617   0.408929   0.412030   0.396103
    10  H    0.000009  -0.000008   0.408929   0.534652  -0.027883  -0.026846
    11  H    0.000590  -0.000015   0.412030  -0.027883   0.542166  -0.026944
    12  H   -0.000061   0.000014   0.396103  -0.026846  -0.026944   0.540993
 Mulliken charges:
               1
     1  C   -0.065618
     2  C    0.341434
     3  C   -0.443861
     4  C   -0.131720
     5  S   -0.061166
     6  H    0.159827
     7  H    0.129573
     8  H    0.169660
     9  C   -0.543879
    10  H    0.161527
    11  H    0.142317
    12  H    0.141905
 Sum of Mulliken charges =   0.00000
 Mulliken charges with hydrogens summed into heavy atoms:
               1
     1  C    0.094209
     2  C    0.341434
     3  C   -0.314289
     4  C    0.037941
     5  S   -0.061166
     9  C   -0.098129
 Electronic spatial extent (au):  <R**2>=            689.5081
 Charge=              0.0000 electrons
 Dipole moment (field-independent basis, Debye):
    X=             -1.1630    Y=              0.4190    Z=              0.0811  Tot=              1.2388
 Quadrupole moment (field-independent basis, Debye-Ang):
   XX=            -41.6497   YY=            -38.9460   ZZ=            -47.2375
   XY=              2.1657   XZ=              0.0741   YZ=             -0.1584
 Traceless Quadrupole moment (field-independent basis, Debye-Ang):
   XX=              0.9614   YY=              3.6650   ZZ=             -4.6264
   XY=              2.1657   XZ=              0.0741   YZ=             -0.1584
 Octapole moment (field-independent basis, Debye-Ang**2):
  XXX=             -1.7624  YYY=             -0.4884  ZZZ=              0.1004  XYY=              0.3491
  XXY=              5.4269  XXZ=             -0.4265  XZZ=             -2.1929  YZZ=             -1.1794
  YYZ=              0.6365  XYZ=              1.4276
 Hexadecapole moment (field-independent basis, Debye-Ang**3):
 XXXX=           -632.5460 YYYY=           -243.9499 ZZZZ=            -68.4923 XXXY=             11.7506
 XXXZ=             -0.6306 YYYX=              4.9836 YYYZ=             -0.9005 ZZZX=             -1.5525
 ZZZY=             -0.1051 XXYY=           -141.9475 XXZZ=           -119.2097 YYZZ=            -62.8133
 XXYZ=              1.2078 YYXZ=              2.6410 ZZXY=             -0.3740
 N-N= 2.652275050154D+02 E-N=-1.927337368258D+03  KE= 5.907349109005D+02
 There are a total of       98062 grid points.
 ElSum from          density=       51.9999858193
 ElSum from atomic densities=       51.9999171020

 Hirshfeld populations at iteration   1 (CX, CA, CB, DipXYZ):
               1          2          3          4          5          6
     1  C    0.000001   3.043579   3.043579   0.031969  -0.096122   0.013804
     2  C    0.000000   3.006862   3.006862  -0.120107   0.057842  -0.004282
     3  C    0.000001   3.035858   3.035858  -0.103634   0.056310  -0.007386
     4  C    0.000001   3.037778   3.037778   0.101689   0.020296   0.012049
     5  S    0.000003   7.977865   7.977865  -0.079376   0.037401  -0.026355
     6  H    0.000003   0.470107   0.470107  -0.062800  -0.167078   0.030524
     7  H    0.000002   0.474857   0.474857  -0.073861   0.150931  -0.011528
     8  H    0.000003   0.469357   0.469357   0.110095   0.143893   0.025689
     9  C    0.000000   3.047518   3.047518  -0.001015  -0.002248  -0.000737
    10  H    0.000001   0.479220   0.479220  -0.059324   0.003504   0.142116
    11  H    0.000001   0.478362   0.478362  -0.061103   0.115417  -0.082964
    12  H    0.000001   0.478631   0.478631  -0.041734  -0.132954  -0.064725
       Tot   0.000017  25.999993  25.999993  -0.359201   0.187193   0.026206

 Dip from Atomic Chgs             -0.098345  -0.022280   0.005465
         Total Dipole             -0.457547   0.164914   0.031671

 Hirshfeld charges, spin densities, dipoles, and CM5 charges using IRadAn=      4:
              Q-H        S-H        Dx         Dy         Dz        Q-CM5   
     1  C   -0.087158   0.000000   0.031969  -0.096122   0.013804  -0.151464
     2  C   -0.013724   0.000000  -0.120107   0.057842  -0.004282  -0.031649
     3  C   -0.071715   0.000000  -0.103634   0.056310  -0.007386  -0.128126
     4  C   -0.075557   0.000000   0.101689   0.020296   0.012049  -0.141843
     5  S    0.044271   0.000000  -0.079376   0.037401  -0.026355   0.065455
     6  H    0.059787   0.000000  -0.062800  -0.167078   0.030524   0.117601
     7  H    0.050285   0.000000  -0.073861   0.150931  -0.011528   0.106981
     8  H    0.061287   0.000000   0.110095   0.143893   0.025689   0.118506
     9  C   -0.095037   0.000000  -0.001015  -0.002248  -0.000737  -0.246589
    10  H    0.041561   0.000000  -0.059324   0.003504   0.142116   0.095904
    11  H    0.043277   0.000000  -0.061103   0.115417  -0.082964   0.097799
    12  H    0.042738   0.000000  -0.041734  -0.132954  -0.064725   0.097439
       Tot   0.000014   0.000000  -0.359201   0.187193   0.026206   0.000014
 Hirshfeld charges with hydrogens summed into heavy atoms:
              Q-H       Q-CM5   
     1  C   -0.027371  -0.033863
     2  C   -0.013724  -0.031649
     3  C   -0.021430  -0.021145
     4  C   -0.014270  -0.023337
     5  S    0.044271   0.065455
     9  C    0.032538   0.044553
 
 EQQ= 0.000000000000E+00 EQD= 0.000000000000E+00 EDD= 0.457682380721E-02
 EQQ+QD+DD= 0.457682380721E-02
 
          MBS Condensed to atoms (all electrons):
               1          2          3          4          5          6
     1  C    4.977269   0.549745  -0.039898  -0.024178   0.346913   0.386247
     2  C    0.549745   4.857435   0.419655  -0.038254  -0.040399  -0.022048
     3  C   -0.039898   0.419655   4.907468   0.549310  -0.041228   0.001442
     4  C   -0.024178  -0.038254   0.549310   4.953880   0.348405   0.000651
     5  S    0.346913  -0.040399  -0.041228   0.348405  15.386170  -0.015731
     6  H    0.386247  -0.022048   0.001442   0.000651  -0.015731   0.512573
     7  H    0.001147  -0.018926   0.386624  -0.022664   0.001389  -0.000026
     8  H    0.000640   0.001425  -0.021394   0.386255  -0.015893  -0.000010
     9  C   -0.024532   0.370656  -0.018796   0.000622   0.000704  -0.002285
    10  H   -0.000579  -0.022137   0.000041  -0.000007  -0.000013   0.000112
    11  H    0.001125  -0.021536  -0.002671   0.000025  -0.000019   0.000017
    12  H   -0.003823  -0.020937   0.000948  -0.000021   0.000016   0.000690
               7          8          9         10         11         12
     1  C    0.001147   0.000640  -0.024532  -0.000579   0.001125  -0.003823
     2  C   -0.018926   0.001425   0.370656  -0.022137  -0.021536  -0.020937
     3  C    0.386624  -0.021394  -0.018796   0.000041  -0.002671   0.000948
     4  C   -0.022664   0.386255   0.000622  -0.000007   0.000025  -0.000021
     5  S    0.001389  -0.015893   0.000704  -0.000013  -0.000019   0.000016
     6  H   -0.000026  -0.000010  -0.002285   0.000112   0.000017   0.000690
     7  H    0.536368  -0.002485  -0.000596   0.000027   0.000461  -0.000004
     8  H   -0.002485   0.508312  -0.000011   0.000000  -0.000001   0.000000
     9  C   -0.000596  -0.000011   4.806310   0.378400   0.382621   0.382914
    10  H    0.000027   0.000000   0.378400   0.576863  -0.022105  -0.022159
    11  H    0.000461  -0.000001   0.382621  -0.022105   0.576457  -0.022220
    12  H   -0.000004   0.000000   0.382914  -0.022159  -0.022220   0.577608
 MBS Mulliken charges:
               1
     1  C   -0.170077
     2  C   -0.014679
     3  C   -0.141500
     4  C   -0.154024
     5  S    0.029685
     6  H    0.138367
     7  H    0.118684
     8  H    0.143160
     9  C   -0.276007
    10  H    0.111557
    11  H    0.107846
    12  H    0.106988
 Sum of MBS Mulliken charges =   0.00000
 MBS Mulliken charges with hydrogens summed into heavy atoms:
               1
     1  C   -0.031710
     2  C   -0.014679
     3  C   -0.022816
     4  C   -0.010864
     5  S    0.029685
     9  C    0.050384
 Breneman (CHELPG) radii used.
 Generate Potential Derived Charges using the Breneman model, NDens= 1.
 Grid spacing= 0.300 Box extension= 2.800
 NStep X,Y,Z=   36     35     25   Total possible points=       31500
 Number of Points to Fit=    9483

 **********************************************************************

            Electrostatic Properties Using The SCF Density

 **********************************************************************

       Atomic Center    1 is at  -0.143484 -1.087467  0.100234
       Atomic Center    2 is at  -0.990133 -0.027011  0.013344
       Atomic Center    3 is at  -0.231229  1.326698 -0.009259
       Atomic Center    4 is at   1.116313  1.159719  0.062714
       Atomic Center    5 is at   1.538349 -0.555986 -0.061453
       Atomic Center    6 is at  -0.450465 -2.101533  0.249676
       Atomic Center    7 is at  -0.712971  2.280602 -0.063035
       Atomic Center    8 is at   1.823166  1.954099  0.181961
       Atomic Center    9 is at  -2.524039 -0.153463 -0.039020
       Atomic Center   10 is at  -2.918986 -0.117829  0.954785
       Atomic Center   11 is at  -2.929069  0.653674 -0.612936
       Atomic Center   12 is at  -2.789828 -1.084094 -0.495290
    9483 points will be used for fitting atomic charges
 Fitting point charges to electrostatic potential
 Charges from ESP fit, RMS=   0.00453 RRMS=   0.45343:
 ESP charges:
               1
     1  C   -0.270519
     2  C    0.150752
     3  C   -0.197581
     4  C   -0.138530
     5  S   -0.034168
     6  H    0.199976
     7  H    0.124976
     8  H    0.161834
     9  C   -0.115369
    10  H    0.032267
    11  H    0.055277
    12  H    0.031085
 Sum of ESP charges =   0.00000
 ESP charges with hydrogens summed into heavy atoms:
               1
     1  C   -0.070543
     2  C    0.150752
     3  C   -0.072605
     4  C    0.023304
     5  S   -0.034168
     9  C    0.003261
 Charge=   0.00000 Dipole=    -0.9978     0.4018     0.1329 Tot=     1.0838
 -----------------------------------------------------------------

              Electrostatic Properties (Atomic Units)

 -----------------------------------------------------------------
    Center     Electric         -------- Electric Field --------
               Potential          X             Y             Z
 -----------------------------------------------------------------
    1 Atom    -14.753218
    2 Atom    -14.752804
    3 Atom    -14.764594
    4 Atom    -14.746618
    5 Atom    -59.220670
    6 Atom     -1.078271
    7 Atom     -1.095243
    8 Atom     -1.077207
    9 Atom    -14.775519
   10 Atom     -1.115500
   11 Atom     -1.114131
   12 Atom     -1.114807
 -----------------------------------------------------------------
 ******************************Gaussian NBO Version 3.1******************************
             N A T U R A L   A T O M I C   O R B I T A L   A N D
          N A T U R A L   B O N D   O R B I T A L   A N A L Y S I S
 ******************************Gaussian NBO Version 3.1******************************
       /RESON  / : Allow strongly delocalized NBO set

 Analyzing the SCF density

 Job title: Title Card Required                                             

 Storage needed:     93842 in NPA (  33553592 available)


 NATURAL POPULATIONS:  Natural atomic orbital occupancies 
                                                          
   NAO  Atom  No  lang   Type(AO)    Occupancy      Energy
 ----------------------------------------------------------
     1    C    1  S      Cor( 1S)     1.99876     -10.06489
     2    C    1  S      Val( 2S)     1.03319      -0.25085
     3    C    1  S      Ryd( 4S)     0.00120       0.60650
     4    C    1  S      Ryd( 3S)     0.00061       0.58296
     5    C    1  S      Ryd( 5S)     0.00001      23.40924
     6    C    1  px     Val( 2p)     1.01017      -0.13346
     7    C    1  px     Ryd( 4p)     0.00469       0.64385
     8    C    1  px     Ryd( 3p)     0.00058       0.61347
     9    C    1  px     Ryd( 5p)     0.00022       2.79097
    10    C    1  py     Val( 2p)     1.19680      -0.08864
    11    C    1  py     Ryd( 4p)     0.00408       0.70219
    12    C    1  py     Ryd( 3p)     0.00049       0.67707
    13    C    1  py     Ryd( 5p)     0.00011       2.92824
    14    C    1  pz     Val( 2p)     1.13400      -0.14205
    15    C    1  pz     Ryd( 4p)     0.00238       0.46279
    16    C    1  pz     Ryd( 3p)     0.00044       0.45140
    17    C    1  pz     Ryd( 5p)     0.00002       2.56421
    18    C    1  dxy    Ryd( 3d)     0.00098       2.32903
    19    C    1  dxz    Ryd( 3d)     0.00082       1.50708
    20    C    1  dyz    Ryd( 3d)     0.00074       1.65564
    21    C    1  dx2y2  Ryd( 3d)     0.00149       2.13283
    22    C    1  dz2    Ryd( 3d)     0.00093       1.87725

    23    C    2  S      Cor( 1S)     1.99902     -10.06082
    24    C    2  S      Val( 2S)     0.93228      -0.18352
    25    C    2  S      Ryd( 3S)     0.00143       0.60591
    26    C    2  S      Ryd( 4S)     0.00031       0.91411
    27    C    2  S      Ryd( 5S)     0.00001      23.10945
    28    C    2  px     Val( 2p)     1.04930      -0.06592
    29    C    2  px     Ryd( 4p)     0.00554       1.01249
    30    C    2  px     Ryd( 3p)     0.00041       0.67576
    31    C    2  px     Ryd( 5p)     0.00011       3.10943
    32    C    2  py     Val( 2p)     1.05069      -0.06665
    33    C    2  py     Ryd( 4p)     0.00413       0.77583
    34    C    2  py     Ryd( 3p)     0.00046       0.60995
    35    C    2  py     Ryd( 5p)     0.00008       2.97970
    36    C    2  pz     Val( 2p)     1.01463      -0.10626
    37    C    2  pz     Ryd( 3p)     0.00128       0.57821
    38    C    2  pz     Ryd( 4p)     0.00045       0.59671
    39    C    2  pz     Ryd( 5p)     0.00002       2.44479
    40    C    2  dxy    Ryd( 3d)     0.00089       2.49161
    41    C    2  dxz    Ryd( 3d)     0.00068       1.67272
    42    C    2  dyz    Ryd( 3d)     0.00061       1.61671
    43    C    2  dx2y2  Ryd( 3d)     0.00065       2.30062
    44    C    2  dz2    Ryd( 3d)     0.00037       1.96821

    45    C    3  S      Cor( 1S)     1.99905     -10.04354
    46    C    3  S      Val( 2S)     0.98127      -0.19440
    47    C    3  S      Ryd( 3S)     0.00197       0.62877
    48    C    3  S      Ryd( 4S)     0.00015       0.80933
    49    C    3  S      Ryd( 5S)     0.00000      23.16915
    50    C    3  px     Val( 2p)     1.08229      -0.07509
    51    C    3  px     Ryd( 4p)     0.00500       0.72377
    52    C    3  px     Ryd( 3p)     0.00056       0.36591
    53    C    3  px     Ryd( 5p)     0.00015       3.16520
    54    C    3  py     Val( 2p)     1.12204      -0.05197
    55    C    3  py     Ryd( 4p)     0.00464       0.83162
    56    C    3  py     Ryd( 3p)     0.00042       0.31096
    57    C    3  py     Ryd( 5p)     0.00007       3.15725
    58    C    3  pz     Val( 2p)     1.04134      -0.11590
    59    C    3  pz     Ryd( 4p)     0.00153       0.52080
    60    C    3  pz     Ryd( 3p)     0.00040       0.26035
    61    C    3  pz     Ryd( 5p)     0.00002       2.70523
    62    C    3  dxy    Ryd( 3d)     0.00066       2.34808
    63    C    3  dxz    Ryd( 3d)     0.00066       1.64959
    64    C    3  dyz    Ryd( 3d)     0.00036       1.59873
    65    C    3  dx2y2  Ryd( 3d)     0.00083       2.48379
    66    C    3  dz2    Ryd( 3d)     0.00044       1.97539

    67    C    4  S      Cor( 1S)     1.99900     -10.07689
    68    C    4  S      Val( 2S)     1.04801      -0.26761
    69    C    4  S      Ryd( 3S)     0.00161       0.53743
    70    C    4  S      Ryd( 4S)     0.00065       0.63951
    71    C    4  S      Ryd( 5S)     0.00001      23.35368
    72    C    4  px     Val( 2p)     1.13883      -0.09371
    73    C    4  px     Ryd( 3p)     0.00463       0.55577
    74    C    4  px     Ryd( 4p)     0.00024       0.60222
    75    C    4  px     Ryd( 5p)     0.00020       2.93566
    76    C    4  py     Val( 2p)     1.05980      -0.12506
    77    C    4  py     Ryd( 4p)     0.00497       0.78459
    78    C    4  py     Ryd( 3p)     0.00077       0.68606
    79    C    4  py     Ryd( 5p)     0.00011       2.66378
    80    C    4  pz     Val( 2p)     1.10679      -0.14520
    81    C    4  pz     Ryd( 4p)     0.00228       0.46690
    82    C    4  pz     Ryd( 3p)     0.00033       0.45937
    83    C    4  pz     Ryd( 5p)     0.00001       2.53197
    84    C    4  dxy    Ryd( 3d)     0.00111       2.18167
    85    C    4  dxz    Ryd( 3d)     0.00077       1.64347
    86    C    4  dyz    Ryd( 3d)     0.00076       1.48590
    87    C    4  dx2y2  Ryd( 3d)     0.00139       2.25963
    88    C    4  dz2    Ryd( 3d)     0.00092       1.87922

    89    S    5  S      Cor( 1S)     2.00000     -87.71553
    90    S    5  S      Cor( 2S)     1.99934      -8.85590
    91    S    5  S      Val( 3S)     1.64933      -0.72490
    92    S    5  S      Ryd( 5S)     0.00803       0.63080
    93    S    5  S      Ryd( 4S)     0.00037       0.58835
    94    S    5  S      Ryd( 6S)     0.00000      14.20832
    95    S    5  S      Ryd( 7S)     0.00000     182.24114
    96    S    5  px     Cor( 2p)     1.99989      -5.91184
    97    S    5  px     Val( 3p)     1.25691      -0.19586
    98    S    5  px     Ryd( 5p)     0.00308       0.39141
    99    S    5  px     Ryd( 4p)     0.00017       0.29497
   100    S    5  px     Ryd( 6p)     0.00019       2.24052
   101    S    5  px     Ryd( 7p)     0.00000      16.56374
   102    S    5  py     Cor( 2p)     1.99989      -5.91370
   103    S    5  py     Val( 3p)     1.01696      -0.17950
   104    S    5  py     Ryd( 5p)     0.00570       0.41510
   105    S    5  py     Ryd( 4p)     0.00035       0.32341
   106    S    5  py     Ryd( 6p)     0.00014       2.22626
   107    S    5  py     Ryd( 7p)     0.00000      16.59554
   108    S    5  pz     Cor( 2p)     1.99996      -5.90943
   109    S    5  pz     Val( 3p)     1.67395      -0.24196
   110    S    5  pz     Ryd( 5p)     0.00608       0.34021
   111    S    5  pz     Ryd( 4p)     0.00007       0.31841
   112    S    5  pz     Ryd( 6p)     0.00007       2.04709
   113    S    5  pz     Ryd( 7p)     0.00000      16.67195
   114    S    5  dxy    Ryd( 3d)     0.00390       1.10739
   115    S    5  dxz    Ryd( 3d)     0.00337       0.86757
   116    S    5  dyz    Ryd( 3d)     0.00411       0.85899
   117    S    5  dx2y2  Ryd( 3d)     0.00690       1.24156
   118    S    5  dz2    Ryd( 3d)     0.00278       1.11657

   119    H    6  S      Val( 1S)     0.76892       0.04665
   120    H    6  S      Ryd( 2S)     0.00063       1.30039
   121    H    6  S      Ryd( 3S)     0.00031       1.35071
   122    H    6  px     Ryd( 2p)     0.00009       1.87561
   123    H    6  py     Ryd( 2p)     0.00047       2.60384
   124    H    6  pz     Ryd( 2p)     0.00019       1.60116

   125    H    7  S      Val( 1S)     0.78510       0.05451
   126    H    7  S      Ryd( 2S)     0.00047       0.95815
   127    H    7  S      Ryd( 3S)     0.00022       1.67206
   128    H    7  px     Ryd( 2p)     0.00020       2.05602
   129    H    7  py     Ryd( 2p)     0.00041       2.56173
   130    H    7  pz     Ryd( 2p)     0.00027       1.59758

   131    H    8  S      Val( 1S)     0.76926       0.04818
   132    H    8  S      Ryd( 2S)     0.00047       0.91270
   133    H    8  S      Ryd( 3S)     0.00038       1.74946
   134    H    8  px     Ryd( 2p)     0.00026       2.20664
   135    H    8  py     Ryd( 2p)     0.00030       2.25821
   136    H    8  pz     Ryd( 2p)     0.00019       1.58354

   137    C    9  S      Cor( 1S)     1.99926     -10.02184
   138    C    9  S      Val( 2S)     1.07322      -0.23892
   139    C    9  S      Ryd( 4S)     0.00069       0.74080
   140    C    9  S      Ryd( 3S)     0.00020       0.56504
   141    C    9  S      Ryd( 5S)     0.00000      23.43479
   142    C    9  px     Val( 2p)     1.07024      -0.09159
   143    C    9  px     Ryd( 4p)     0.00114       0.49364
   144    C    9  px     Ryd( 3p)     0.00036       0.39493
   145    C    9  px     Ryd( 5p)     0.00006       2.80955
   146    C    9  py     Val( 2p)     1.21869      -0.09550
   147    C    9  py     Ryd( 4p)     0.00288       0.50180
   148    C    9  py     Ryd( 3p)     0.00010       0.47596
   149    C    9  py     Ryd( 5p)     0.00004       2.88961
   150    C    9  pz     Val( 2p)     1.21302      -0.09504
   151    C    9  pz     Ryd( 4p)     0.00048       0.50259
   152    C    9  pz     Ryd( 3p)     0.00004       0.44594
   153    C    9  pz     Ryd( 5p)     0.00007       2.87373
   154    C    9  dxy    Ryd( 3d)     0.00047       1.99303
   155    C    9  dxz    Ryd( 3d)     0.00071       1.94109
   156    C    9  dyz    Ryd( 3d)     0.00065       2.11875
   157    C    9  dx2y2  Ryd( 3d)     0.00079       2.23068
   158    C    9  dz2    Ryd( 3d)     0.00067       2.10713

   159    H   10  S      Val( 1S)     0.78825       0.04114
   160    H   10  S      Ryd( 2S)     0.00074       0.61893
   161    H   10  S      Ryd( 3S)     0.00010       2.13842
   162    H   10  px     Ryd( 2p)     0.00020       1.85858
   163    H   10  py     Ryd( 2p)     0.00009       1.80483
   164    H   10  pz     Ryd( 2p)     0.00028       2.57718

   165    H   11  S      Val( 1S)     0.78993       0.03951
   166    H   11  S      Ryd( 2S)     0.00063       0.65097
   167    H   11  S      Ryd( 3S)     0.00010       2.08071
   168    H   11  px     Ryd( 2p)     0.00018       1.86848
   169    H   11  py     Ryd( 2p)     0.00020       2.29637
   170    H   11  pz     Ryd( 2p)     0.00015       2.04379

   171    H   12  S      Val( 1S)     0.79116       0.03940
   172    H   12  S      Ryd( 2S)     0.00075       0.70080
   173    H   12  S      Ryd( 3S)     0.00010       2.02188
   174    H   12  px     Ryd( 2p)     0.00017       1.78026
   175    H   12  py     Ryd( 2p)     0.00023       2.48401
   176    H   12  pz     Ryd( 2p)     0.00013       1.94262

 WARNING:  1 low occupancy (<1.9990e) core orbital  found on  C    1
           1 low occupancy (<1.9990e) core orbital  found on  C    4

 WARNING:  Population inversion found on atom  C    1
           Population inversion found on atom  C    2
           Population inversion found on atom  C    3
           Population inversion found on atom  C    4
           Population inversion found on atom  S    5
           Population inversion found on atom  C    9


 Summary of Natural Population Analysis:                  
                                                          
                                       Natural Population 
                Natural  -----------------------------------------------
    Atom  No    Charge         Core      Valence    Rydberg      Total
 -----------------------------------------------------------------------
      C    1   -0.39274      1.99876     4.37417    0.01981     6.39274
      C    2   -0.06333      1.99902     4.04690    0.01741     6.06333
      C    3   -0.24386      1.99905     4.22694    0.01786     6.24386
      C    4   -0.37320      1.99900     4.35342    0.02078     6.37320
      S    5    0.35844      9.99908     5.59715    0.04533    15.64156
      H    6    0.22939      0.00000     0.76892    0.00168     0.77061
      H    7    0.21333      0.00000     0.78510    0.00157     0.78667
      H    8    0.22914      0.00000     0.76926    0.00160     0.77086
      C    9   -0.58379      1.99926     4.57518    0.00935     6.58379
      H   10    0.21034      0.00000     0.78825    0.00141     0.78966
      H   11    0.20882      0.00000     0.78993    0.00125     0.79118
      H   12    0.20746      0.00000     0.79116    0.00137     0.79254
 =======================================================================
   * Total *    0.00000     19.99417    31.86639    0.13944    52.00000

                                 Natural Population      
 --------------------------------------------------------
   Core                      19.99417 ( 99.9709% of  20)
   Valence                   31.86639 ( 99.5825% of  32)
   Natural Minimal Basis     51.86056 ( 99.7319% of  52)
   Natural Rydberg Basis      0.13944 (  0.2681% of  52)
 --------------------------------------------------------

    Atom  No          Natural Electron Configuration
 ----------------------------------------------------------------------------
      C    1      [core]2S( 1.03)2p( 3.34)4p( 0.01)
      C    2      [core]2S( 0.93)2p( 3.11)4p( 0.01)
      C    3      [core]2S( 0.98)2p( 3.25)4p( 0.01)
      C    4      [core]2S( 1.05)2p( 3.31)3p( 0.01)4p( 0.01)
      S    5      [core]3S( 1.65)3p( 3.95)3d( 0.02)5S( 0.01)5p( 0.01)
      H    6            1S( 0.77)
      H    7            1S( 0.79)
      H    8            1S( 0.77)
      C    9      [core]2S( 1.07)2p( 3.50)
      H   10            1S( 0.79)
      H   11            1S( 0.79)
      H   12            1S( 0.79)


 NBO analysis skipped by request.
 Calling FoFJK, ICntrl=      2127 FMM=F ISym2X=0 I1Cent= 0 IOpClX= 0 NMat=1 NMatS=1 NMatT=0.
 ***** Axes restored to original set *****
 -------------------------------------------------------------------
 Center     Atomic                   Forces (Hartrees/Bohr)
 Number     Number              X              Y              Z
 -------------------------------------------------------------------
      1        6           0.024398702    0.023173674    0.006643379
      2        6           0.031999751    0.028541955   -0.002640972
      3        6          -0.038376696   -0.046343718    0.000232174
      4        6          -0.002450987   -0.030166863    0.006745102
      5       16          -0.004280326    0.003999797   -0.017990241
      6        1          -0.009859367   -0.001063862    0.006995887
      7        1           0.008198010   -0.001137194   -0.004536536
      8        1          -0.005078116    0.008915923    0.006986667
      9        6          -0.015969419    0.033205096    0.002117324
     10        1           0.003246598   -0.006030401   -0.015145826
     11        1           0.013927198   -0.001377837    0.004555371
     12        1          -0.005755350   -0.011716569    0.006037671
 -------------------------------------------------------------------
 Cartesian Forces:  Max     0.046343718 RMS     0.017008530

 GradGradGradGradGradGradGradGradGradGradGradGradGradGradGradGradGradGrad
 Berny optimization.
 FormGI is forming the generalized inverse of G from B-inverse, IUseBI=4.
 Internal  Forces:  Max     0.058443615 RMS     0.011047481
 Search for a local minimum.
 Step number   1 out of a maximum of   63
 All quantities printed in internal units (Hartrees-Bohrs-Radians)
 Mixed Optimization -- RFO/linear search
 Second derivative matrix not updated -- first step.
 ITU=  0
     Eigenvalues ---    0.00237   0.00809   0.01035   0.01370   0.01919
     Eigenvalues ---    0.02031   0.02087   0.07243   0.07243   0.15998
     Eigenvalues ---    0.16000   0.16000   0.16000   0.16000   0.16000
     Eigenvalues ---    0.22391   0.23414   0.24997   0.27163   0.27943
     Eigenvalues ---    0.28274   0.28519   0.37230   0.37230   0.37230
     Eigenvalues ---    0.37230   0.37230   0.37230   0.49113   0.52451
 RFO step:  Lambda=-2.87805378D-02 EMin= 2.36824197D-03
 Linear search not attempted -- first point.
 Iteration  1 RMS(Cart)=  0.07587983 RMS(Int)=  0.00565457
 Iteration  2 RMS(Cart)=  0.00553125 RMS(Int)=  0.00203784
 Iteration  3 RMS(Cart)=  0.00001773 RMS(Int)=  0.00203779
 Iteration  4 RMS(Cart)=  0.00000002 RMS(Int)=  0.00203779
 Variable       Old X    -DE/DX   Delta X   Delta X   Delta X     New X
                                 (Linear)    (Quad)   (Total)
    R1        2.56956  -0.00070   0.00000  -0.00162  -0.00149   2.56807
    R2        3.34710  -0.01247   0.00000  -0.03834  -0.03866   3.30844
    R3        2.02201   0.00680   0.00000   0.01695   0.01695   2.03895
    R4        2.93302  -0.05844   0.00000  -0.19441  -0.19399   2.73903
    R5        2.91018  -0.01412   0.00000  -0.04496  -0.04496   2.86522
    R6        2.56956  -0.00201   0.00000  -0.00401  -0.00383   2.56573
    R7        2.02201   0.00857   0.00000   0.02138   0.02138   2.04339
    R8        3.34710  -0.01578   0.00000  -0.04901  -0.04928   3.29781
    R9        2.02201   0.00681   0.00000   0.01699   0.01699   2.03899
   R10        2.02201   0.01619   0.00000   0.04037   0.04037   2.06238
   R11        2.02201   0.01452   0.00000   0.03620   0.03620   2.05821
   R12        2.02201   0.01422   0.00000   0.03546   0.03546   2.05747
    A1        1.92984   0.01321   0.00000   0.05942   0.05398   1.98382
    A2        2.17658   0.00169   0.00000   0.01412   0.01548   2.19206
    A3        2.17676  -0.01491   0.00000  -0.07384  -0.07248   2.10427
    A4        1.95702  -0.00453   0.00000  -0.01318  -0.01707   1.93994
    A5        2.16316   0.00669   0.00000   0.02251   0.02440   2.18755
    A6        2.16294  -0.00215   0.00000  -0.00914  -0.00726   2.15568
    A7        1.95702   0.00225   0.00000   0.01245   0.00830   1.96532
    A8        2.16294  -0.00346   0.00000  -0.01832  -0.01673   2.14621
    A9        2.16316   0.00122   0.00000   0.00637   0.00801   2.17117
   A10        1.92984   0.01058   0.00000   0.04853   0.04317   1.97301
   A11        2.17658   0.00340   0.00000   0.02167   0.02307   2.19965
   A12        2.17676  -0.01399   0.00000  -0.07050  -0.06923   2.10753
   A13        1.62884  -0.01931   0.00000  -0.05866  -0.06633   1.56251
   A14        1.91063   0.00431   0.00000   0.02336   0.02321   1.93384
   A15        1.91063   0.00201   0.00000   0.00966   0.00958   1.92021
   A16        1.91063   0.00192   0.00000   0.01059   0.01047   1.92110
   A17        1.91063  -0.00339   0.00000  -0.01882  -0.01892   1.89171
   A18        1.91063  -0.00258   0.00000  -0.01172  -0.01190   1.89873
   A19        1.91063  -0.00226   0.00000  -0.01307  -0.01311   1.89752
    D1       -0.13232   0.00543   0.00000   0.13486   0.13735   0.00503
    D2        3.02158   0.00543   0.00000   0.11873   0.12052  -3.14108
    D3        3.00508   0.00201   0.00000   0.05758   0.05791   3.06299
    D4       -0.12420   0.00201   0.00000   0.04145   0.04108  -0.08312
    D5        0.17904  -0.00903   0.00000  -0.19347  -0.19114  -0.01210
    D6       -2.95836  -0.00565   0.00000  -0.11644  -0.11637  -3.07473
    D7        0.00000   0.00013   0.00000   0.00743   0.00767   0.00767
    D8       -3.12929  -0.00058   0.00000  -0.03607  -0.03684   3.11706
    D9        3.12929   0.00021   0.00000   0.02382   0.02439  -3.12951
   D10        0.00000  -0.00050   0.00000  -0.01968  -0.02011  -0.02011
   D11        1.58402   0.00067   0.00000   0.02368   0.02410   1.60811
   D12       -2.60477   0.00039   0.00000   0.02085   0.02127  -2.58351
   D13       -0.51038   0.00002   0.00000   0.01725   0.01758  -0.49280
   D14       -1.54383   0.00067   0.00000   0.00566   0.00530  -1.53853
   D15        0.55056   0.00039   0.00000   0.00283   0.00247   0.55303
   D16        2.64496   0.00002   0.00000  -0.00077  -0.00121   2.64374
   D17        0.13232  -0.00563   0.00000  -0.14607  -0.14928  -0.01696
   D18       -3.00508  -0.00212   0.00000  -0.06886  -0.07029  -3.07537
   D19       -3.02158  -0.00496   0.00000  -0.10277  -0.10423  -3.12581
   D20        0.12420  -0.00145   0.00000  -0.02556  -0.02524   0.09897
   D21       -0.17904   0.00955   0.00000   0.19971   0.19556   0.01652
   D22        2.95836   0.00609   0.00000   0.12276   0.12148   3.07984
         Item               Value     Threshold  Converged?
 Maximum Force            0.058444     0.000450     NO 
 RMS     Force            0.011047     0.000300     NO 
 Maximum Displacement     0.308522     0.001800     NO 
 RMS     Displacement     0.076223     0.001200     NO 
 Predicted change in Energy=-1.807114D-02
 GradGradGradGradGradGradGradGradGradGradGradGradGradGradGradGradGradGrad

                          Input orientation:                          
 ---------------------------------------------------------------------
 Center     Atomic      Atomic             Coordinates (Angstroms)
 Number     Number       Type             X           Y           Z
 ---------------------------------------------------------------------
      1          6           0       -0.327950   -0.040484    0.185839
      2          6           0        1.002414   -0.189294   -0.048202
      3          6           0        1.676326    1.093756   -0.069988
      4          6           0        0.830380    2.131459    0.155783
      5         16           0       -0.825121    1.626931    0.379931
      6          1           0       -1.058923   -0.834106    0.182042
      7          1           0        2.742411    1.196010   -0.219136
      8          1           0        1.089377    3.178588    0.130138
      9          6           0        1.713673   -1.512068   -0.256215
     10          1           0        1.759500   -1.764875   -1.316903
     11          1           0        2.731428   -1.452487    0.127050
     12          1           0        1.187617   -2.306150    0.271145
 ---------------------------------------------------------------------
                    Distance matrix (angstroms):
                    1          2          3          4          5
     1  C    0.000000
     2  C    1.358966   0.000000
     3  C    2.317126   1.449432   0.000000
     4  C    2.461700   2.336044   1.357728   0.000000
     5  S    1.750749   2.611868   2.596910   1.745128   0.000000
     6  H    1.078968   2.172074   3.355855   3.516352   2.480026
     7  H    3.334672   2.230667   1.081313   2.161364   3.643056
     8  H    3.517718   3.373722   2.175106   1.078989   2.476961
     9  C    2.555229   1.516208   2.612737   3.771635   4.086988
    10  H    3.096644   2.159915   3.119854   4.267726   4.589538
    11  H    3.370015   2.148454   2.763225   4.057028   4.711242
    12  H    2.727172   2.148805   3.451749   4.453460   4.419511
                    6          7          8          9         10
     6  H    0.000000
     7  H    4.328101   0.000000
     8  H    4.551879   2.604829   0.000000
     9  C    2.887731   2.897130   4.747765   0.000000
    10  H    3.325158   3.307272   5.194307   1.091362   0.000000
    11  H    3.840856   2.671048   4.913573   1.089158   1.768397
    12  H    2.687340   3.863015   5.487430   1.088765   1.772547
                   11         12
    11  H    0.000000
    12  H    1.769987   0.000000
 Stoichiometry    C5H6S
 Framework group  C1[X(C5H6S)]
 Deg. of freedom    30
 Full point group                 C1      NOp   1
 Largest Abelian subgroup         C1      NOp   1
 Largest concise Abelian subgroup C1      NOp   1
                         Standard orientation:                         
 ---------------------------------------------------------------------
 Center     Atomic      Atomic             Coordinates (Angstroms)
 Number     Number       Type             X           Y           Z
 ---------------------------------------------------------------------
      1          6           0       -0.079427   -1.047910   -0.007215
      2          6           0       -0.988302   -0.037629    0.000879
      3          6           0       -0.333101    1.255252    0.005596
      4          6           0        1.020789    1.154245   -0.008739
      5         16           0        1.582684   -0.497933   -0.001440
      6          1           0       -0.309430   -2.100127    0.056901
      7          1           0       -0.876132    2.190190   -0.010093
      8          1           0        1.719095    1.974751    0.049198
      9          6           0       -2.494349   -0.212861   -0.000950
     10          1           0       -2.883982   -0.228249    1.018373
     11          1           0       -2.964914    0.610737   -0.536227
     12          1           0       -2.761240   -1.146950   -0.492536
 ---------------------------------------------------------------------
 Rotational constants (GHZ):      6.9249695      2.4041679      1.8048319
 Standard basis: 6-311+G(d,p) (5D, 7F)
 There are   182 symmetry adapted cartesian basis functions of A   symmetry.
 There are   176 symmetry adapted basis functions of A   symmetry.
   176 basis functions,   278 primitive gaussians,   182 cartesian basis functions
    26 alpha electrons       26 beta electrons
       nuclear repulsion energy       268.3551451070 Hartrees.
 NAtoms=   12 NActive=   12 NUniq=   12 SFac= 1.00D+00 NAtFMM=   60 NAOKFM=F Big=F
 Integral buffers will be    131072 words long.
 Raffenetti 2 integral format.
 Two-electron integral symmetry is turned on.
 One-electron integrals computed using PRISM.
 NBasis=   176 RedAO= T EigKep=  1.38D-05  NBF=   176
 NBsUse=   176 1.00D-06 EigRej= -1.00D+00 NBFU=   176
 Initial guess from the checkpoint file:  "Table7_4.chk"
 B after Tr=     0.000000    0.000000    0.000000
         Rot=    0.999807   -0.001275   -0.000285   -0.019580 Ang=  -2.25 deg.
 ExpMin= 4.05D-02 ExpMax= 9.34D+04 ExpMxC= 3.17D+03 IAcc=2 IRadAn=         4 AccDes= 0.00D+00
 Harris functional with IExCor=  402 and IRadAn=       4 diagonalized for initial guess.
 HarFok:  IExCor=  402 AccDes= 0.00D+00 IRadAn=         4 IDoV= 1 UseB2=F ITyADJ=14
 ICtDFT=  3500011 ScaDFX=  1.000000  1.000000  1.000000  1.000000
 FoFCou: FMM=F IPFlag=           0 FMFlag=      100000 FMFlg1=           0
         NFxFlg=           0 DoJE=T BraDBF=F KetDBF=T FulRan=T
         wScrn=  0.000000 ICntrl=     500 IOpCl=  0 I1Cent=   200000004 NGrid=           0
         NMat0=    1 NMatS0=      1 NMatT0=    0 NMatD0=    1 NMtDS0=    0 NMtDT0=    0
 Petite list used in FoFCou.
 Requested convergence on RMS density matrix=1.00D-08 within 128 cycles.
 Requested convergence on MAX density matrix=1.00D-06.
 Requested convergence on             energy=1.00D-06.
 No special actions if energy rises.
 SCF Done:  E(RB3LYP) =  -592.399330450     A.U. after   12 cycles
            NFock= 12  Conv=0.47D-08     -V/T= 2.0025
 Calling FoFJK, ICntrl=      2127 FMM=F ISym2X=0 I1Cent= 0 IOpClX= 0 NMat=1 NMatS=1 NMatT=0.
 ***** Axes restored to original set *****
 -------------------------------------------------------------------
 Center     Atomic                   Forces (Hartrees/Bohr)
 Number     Number              X              Y              Z
 -------------------------------------------------------------------
      1        6          -0.008208535   -0.001449985   -0.002317973
      2        6           0.012081913    0.006605534    0.000120334
      3        6          -0.007164342   -0.013325201    0.002989760
      4        6          -0.000938281    0.008185334   -0.003968157
      5       16           0.011893439   -0.007073638   -0.002614049
      6        1          -0.002762422    0.000879331    0.003473843
      7        1           0.000535499    0.001783815   -0.000959007
      8        1          -0.002175026    0.001433004    0.003249973
      9        6          -0.006697693    0.009020761    0.001527154
     10        1           0.001017272   -0.001503178   -0.001511491
     11        1           0.001959175   -0.001542149    0.000406190
     12        1           0.000459000   -0.003013627   -0.000396576
 -------------------------------------------------------------------
 Cartesian Forces:  Max     0.013325201 RMS     0.005207995

 GradGradGradGradGradGradGradGradGradGradGradGradGradGradGradGradGradGrad
 Berny optimization.
 Using GEDIIS/GDIIS optimizer.
 FormGI is forming the generalized inverse of G from B-inverse, IUseBI=4.
 Internal  Forces:  Max     0.007366420 RMS     0.002865872
 Search for a local minimum.
 Step number   2 out of a maximum of   63
 All quantities printed in internal units (Hartrees-Bohrs-Radians)
 Mixed Optimization -- RFO/linear search
 Update second derivatives using D2CorX and points    1    2
 DE= -1.60D-02 DEPred=-1.81D-02 R= 8.88D-01
 TightC=F SS=  1.41D+00  RLast= 5.06D-01 DXNew= 5.0454D-01 1.5168D+00
 Trust test= 8.88D-01 RLast= 5.06D-01 DXMaxT set to 5.05D-01
 ITU=  1  0
 Use linear search instead of GDIIS.
     Eigenvalues ---    0.00237   0.00822   0.01091   0.01475   0.02084
     Eigenvalues ---    0.02109   0.02398   0.07030   0.07122   0.14675
     Eigenvalues ---    0.15948   0.15991   0.15997   0.16000   0.16068
     Eigenvalues ---    0.21886   0.23632   0.24936   0.26301   0.27949
     Eigenvalues ---    0.28488   0.29506   0.36642   0.37230   0.37230
     Eigenvalues ---    0.37230   0.37230   0.37235   0.48869   0.52782
 RFO step:  Lambda=-2.65950679D-03 EMin= 2.36793930D-03
 Quartic linear search produced a step of  0.05601.
 Iteration  1 RMS(Cart)=  0.03912235 RMS(Int)=  0.00135523
 Iteration  2 RMS(Cart)=  0.00127612 RMS(Int)=  0.00050528
 Iteration  3 RMS(Cart)=  0.00000097 RMS(Int)=  0.00050528
 Variable       Old X    -DE/DX   Delta X   Delta X   Delta X     New X
                                 (Linear)    (Quad)   (Total)
    R1        2.56807   0.00486  -0.00008   0.00980   0.00962   2.57769
    R2        3.30844  -0.00620  -0.00217  -0.02387  -0.02605   3.28239
    R3        2.03895   0.00121   0.00095   0.00403   0.00498   2.04393
    R4        2.73903  -0.00527  -0.01087  -0.02635  -0.03727   2.70176
    R5        2.86522  -0.00412  -0.00252  -0.01661  -0.01913   2.84609
    R6        2.56573   0.00313  -0.00021   0.00589   0.00573   2.57146
    R7        2.04339   0.00083   0.00120   0.00310   0.00430   2.04769
    R8        3.29781  -0.00567  -0.00276  -0.02287  -0.02553   3.27229
    R9        2.03899   0.00079   0.00095   0.00284   0.00379   2.04278
   R10        2.06238   0.00186   0.00226   0.00669   0.00895   2.07132
   R11        2.05821   0.00189   0.00203   0.00664   0.00866   2.06688
   R12        2.05747   0.00178   0.00199   0.00630   0.00829   2.06576
    A1        1.98382  -0.00578   0.00302  -0.02336  -0.02113   1.96270
    A2        2.19206   0.00624   0.00087   0.03701   0.03727   2.22933
    A3        2.10427  -0.00035  -0.00406  -0.00856  -0.01326   2.09102
    A4        1.93994   0.00144  -0.00096   0.00666   0.00552   1.94547
    A5        2.18755  -0.00204   0.00137  -0.00829  -0.00687   2.18068
    A6        2.15568   0.00060  -0.00041   0.00169   0.00134   2.15702
    A7        1.96532   0.00327   0.00047   0.01631   0.01670   1.98202
    A8        2.14621   0.00003  -0.00094   0.00262   0.00158   2.14779
    A9        2.17117  -0.00329   0.00045  -0.01821  -0.01785   2.15332
   A10        1.97301  -0.00629   0.00242  -0.02741  -0.02596   1.94705
   A11        2.19965   0.00631   0.00129   0.03857   0.03866   2.23831
   A12        2.10753   0.00010  -0.00388  -0.00464  -0.00971   2.09782
   A13        1.56251   0.00737  -0.00372   0.02849   0.02494   1.58745
   A14        1.93384   0.00103   0.00130   0.00619   0.00742   1.94127
   A15        1.92021   0.00157   0.00054   0.01060   0.01104   1.93125
   A16        1.92110   0.00292   0.00059   0.02012   0.02058   1.94169
   A17        1.89171  -0.00164  -0.00106  -0.01293  -0.01402   1.87769
   A18        1.89873  -0.00210  -0.00067  -0.01426  -0.01502   1.88372
   A19        1.89752  -0.00195  -0.00073  -0.01081  -0.01170   1.88582
    D1        0.00503   0.00014   0.00769  -0.00319   0.00478   0.00980
    D2       -3.14108   0.00029   0.00675   0.00879   0.01553  -3.12556
    D3        3.06299   0.00153   0.00324   0.06630   0.07034   3.13332
    D4       -0.08312   0.00168   0.00230   0.07828   0.08109  -0.00203
    D5       -0.01210   0.00007  -0.01071   0.01999   0.00929  -0.00282
    D6       -3.07473  -0.00161  -0.00652  -0.04811  -0.05321  -3.12794
    D7        0.00767  -0.00038   0.00043  -0.02211  -0.02178  -0.01411
    D8        3.11706   0.00008  -0.00206   0.00149  -0.00093   3.11613
    D9       -3.12951  -0.00052   0.00137  -0.03380  -0.03233   3.12135
   D10       -0.02011  -0.00007  -0.00113  -0.01020  -0.01148  -0.03160
   D11        1.60811   0.00037   0.00135   0.06214   0.06368   1.67179
   D12       -2.58351   0.00000   0.00119   0.05683   0.05814  -2.52536
   D13       -0.49280   0.00042   0.00098   0.06279   0.06397  -0.42883
   D14       -1.53853   0.00054   0.00030   0.07554   0.07570  -1.46283
   D15        0.55303   0.00017   0.00014   0.07024   0.07016   0.62320
   D16        2.64374   0.00059  -0.00007   0.07620   0.07599   2.71973
   D17       -0.01696   0.00050  -0.00836   0.03783   0.02887   0.01191
   D18       -3.07537  -0.00116  -0.00394  -0.05183  -0.05684  -3.13221
   D19       -3.12581  -0.00004  -0.00584   0.01337   0.00752  -3.11829
   D20        0.09897  -0.00170  -0.00141  -0.07628  -0.07819   0.02078
   D21        0.01652  -0.00033   0.01095  -0.03307  -0.02181  -0.00529
   D22        3.07984   0.00158   0.00680   0.05368   0.05876   3.13860
         Item               Value     Threshold  Converged?
 Maximum Force            0.007366     0.000450     NO 
 RMS     Force            0.002866     0.000300     NO 
 Maximum Displacement     0.145303     0.001800     NO 
 RMS     Displacement     0.039267     0.001200     NO 
 Predicted change in Energy=-1.489174D-03
 GradGradGradGradGradGradGradGradGradGradGradGradGradGradGradGradGradGrad

                          Input orientation:                          
 ---------------------------------------------------------------------
 Center     Atomic      Atomic             Coordinates (Angstroms)
 Number     Number       Type             X           Y           Z
 ---------------------------------------------------------------------
      1          6           0       -0.329586   -0.045783    0.190933
      2          6           0        1.006568   -0.186316   -0.044847
      3          6           0        1.668820    1.080428   -0.073925
      4          6           0        0.832270    2.136121    0.119372
      5         16           0       -0.801426    1.616868    0.364157
      6          1           0       -1.075387   -0.826181    0.258933
      7          1           0        2.736697    1.185838   -0.224563
      8          1           0        1.076239    3.189108    0.135147
      9          6           0        1.711355   -1.500066   -0.258466
     10          1           0        1.817622   -1.724403   -1.326084
     11          1           0        2.715091   -1.474359    0.175270
     12          1           0        1.162869   -2.323975    0.205556
 ---------------------------------------------------------------------
                    Distance matrix (angstroms):
                    1          2          3          4          5
     1  C    0.000000
     2  C    1.364057   0.000000
     3  C    2.309140   1.429707   0.000000
     4  C    2.473002   2.334751   1.360760   0.000000
     5  S    1.736965   2.586039   2.565502   1.731619   0.000000
     6  H    1.081602   2.199147   3.358068   3.526169   2.460613
     7  H    3.330409   2.215502   1.083589   2.155961   3.612574
     8  H    3.527602   3.380937   2.200316   1.080995   2.459676
     9  C    2.546044   1.506087   2.587434   3.759975   4.051790
    10  H    3.119232   2.159882   3.075243   4.238385   4.569510
    11  H    3.363203   2.150943   2.771952   4.072309   4.685857
    12  H    2.723563   2.157943   3.453123   4.473162   4.406115
                    6          7          8          9         10
     6  H    0.000000
     7  H    4.337508   0.000000
     8  H    4.557122   2.626709   0.000000
     9  C    2.913374   2.875162   4.748332   0.000000
    10  H    3.418856   3.244619   5.179520   1.096097   0.000000
    11  H    3.846408   2.690164   4.943214   1.093743   1.766929
    12  H    2.693700   3.870495   5.514213   1.093151   1.770342
                   11         12
    11  H    0.000000
    12  H    1.769791   0.000000
 Stoichiometry    C5H6S
 Framework group  C1[X(C5H6S)]
 Deg. of freedom    30
 Full point group                 C1      NOp   1
 Largest Abelian subgroup         C1      NOp   1
 Largest concise Abelian subgroup C1      NOp   1
                         Standard orientation:                         
 ---------------------------------------------------------------------
 Center     Atomic      Atomic             Coordinates (Angstroms)
 Number     Number       Type             X           Y           Z
 ---------------------------------------------------------------------
      1          6           0       -0.080603   -1.056661   -0.008961
      2          6           0       -0.980924   -0.031936   -0.005481
      3          6           0       -0.326737    1.239323   -0.006834
      4          6           0        1.031172    1.152288    0.006366
      5         16           0        1.563205   -0.495567    0.001835
      6          1           0       -0.286308   -2.118498   -0.001848
      7          1           0       -0.863586    2.180345   -0.027686
      8          1           0        1.753215    1.956717    0.016355
      9          6           0       -2.477695   -0.198734    0.006915
     10          1           0       -2.875478   -0.136711    1.026399
     11          1           0       -2.958255    0.586516   -0.583609
     12          1           0       -2.772151   -1.164978   -0.410995
 ---------------------------------------------------------------------
 Rotational constants (GHZ):      6.9748189      2.4373778      1.8268182
 Standard basis: 6-311+G(d,p) (5D, 7F)
 There are   182 symmetry adapted cartesian basis functions of A   symmetry.
 There are   176 symmetry adapted basis functions of A   symmetry.
   176 basis functions,   278 primitive gaussians,   182 cartesian basis functions
    26 alpha electrons       26 beta electrons
       nuclear repulsion energy       269.6497272249 Hartrees.
 NAtoms=   12 NActive=   12 NUniq=   12 SFac= 1.00D+00 NAtFMM=   60 NAOKFM=F Big=F
 Integral buffers will be    131072 words long.
 Raffenetti 2 integral format.
 Two-electron integral symmetry is turned on.
 One-electron integrals computed using PRISM.
 NBasis=   176 RedAO= T EigKep=  1.43D-05  NBF=   176
 NBsUse=   176 1.00D-06 EigRej= -1.00D+00 NBFU=   176
 Initial guess from the checkpoint file:  "Table7_4.chk"
 B after Tr=     0.000000    0.000000    0.000000
         Rot=    0.999995    0.002583   -0.000096    0.001989 Ang=   0.37 deg.
 ExpMin= 4.05D-02 ExpMax= 9.34D+04 ExpMxC= 3.17D+03 IAcc=2 IRadAn=         4 AccDes= 0.00D+00
 Harris functional with IExCor=  402 and IRadAn=       4 diagonalized for initial guess.
 HarFok:  IExCor=  402 AccDes= 0.00D+00 IRadAn=         4 IDoV= 1 UseB2=F ITyADJ=14
 ICtDFT=  3500011 ScaDFX=  1.000000  1.000000  1.000000  1.000000
 FoFCou: FMM=F IPFlag=           0 FMFlag=      100000 FMFlg1=           0
         NFxFlg=           0 DoJE=T BraDBF=F KetDBF=T FulRan=T
         wScrn=  0.000000 ICntrl=     500 IOpCl=  0 I1Cent=   200000004 NGrid=           0
         NMat0=    1 NMatS0=      1 NMatT0=    0 NMatD0=    1 NMtDS0=    0 NMtDT0=    0
 Petite list used in FoFCou.
 Requested convergence on RMS density matrix=1.00D-08 within 128 cycles.
 Requested convergence on MAX density matrix=1.00D-06.
 Requested convergence on             energy=1.00D-06.
 No special actions if energy rises.
 SCF Done:  E(RB3LYP) =  -592.400862277     A.U. after   11 cycles
            NFock= 11  Conv=0.85D-08     -V/T= 2.0025
 Calling FoFJK, ICntrl=      2127 FMM=F ISym2X=0 I1Cent= 0 IOpClX= 0 NMat=1 NMatS=1 NMatT=0.
 ***** Axes restored to original set *****
 -------------------------------------------------------------------
 Center     Atomic                   Forces (Hartrees/Bohr)
 Number     Number              X              Y              Z
 -------------------------------------------------------------------
      1        6          -0.005409401   -0.000916678    0.000085634
      2        6           0.002676586   -0.002494715    0.000694442
      3        6           0.003867840   -0.000313866   -0.001128338
      4        6          -0.000884977    0.004738760    0.000555657
      5       16           0.000384030   -0.001189312   -0.000731849
      6        1           0.000572013    0.001083144    0.000527646
      7        1          -0.000435650    0.000579568   -0.000626856
      8        1          -0.000503502   -0.001135655    0.000616182
      9        6          -0.000682363    0.000062084    0.000343811
     10        1           0.000283694    0.000063476    0.000742834
     11        1          -0.000406990   -0.000744285   -0.000205794
     12        1           0.000538720    0.000267479   -0.000873367
 -------------------------------------------------------------------
 Cartesian Forces:  Max     0.005409401 RMS     0.001613203

 GradGradGradGradGradGradGradGradGradGradGradGradGradGradGradGradGradGrad
 Berny optimization.
 Using GEDIIS/GDIIS optimizer.
 FormGI is forming the generalized inverse of G from B-inverse, IUseBI=4.
 Internal  Forces:  Max     0.003975091 RMS     0.001027034
 Search for a local minimum.
 Step number   3 out of a maximum of   63
 All quantities printed in internal units (Hartrees-Bohrs-Radians)
 Mixed Optimization -- RFO/linear search
 Update second derivatives using D2CorX and points    2    3
 DE= -1.53D-03 DEPred=-1.49D-03 R= 1.03D+00
 TightC=F SS=  1.41D+00  RLast= 2.62D-01 DXNew= 8.4853D-01 7.8633D-01
 Trust test= 1.03D+00 RLast= 2.62D-01 DXMaxT set to 7.86D-01
 ITU=  1  1  0
 Use linear search instead of GDIIS.
     Eigenvalues ---    0.00228   0.00820   0.01088   0.01466   0.02055
     Eigenvalues ---    0.02106   0.02411   0.06880   0.06961   0.14174
     Eigenvalues ---    0.15999   0.15999   0.16000   0.16029   0.16058
     Eigenvalues ---    0.22937   0.24843   0.24991   0.26380   0.27786
     Eigenvalues ---    0.28038   0.28488   0.36848   0.37230   0.37230
     Eigenvalues ---    0.37230   0.37231   0.37436   0.48851   0.52007
 RFO step:  Lambda=-4.93491138D-04 EMin= 2.28406765D-03
 Quartic linear search produced a step of  0.10502.
 Iteration  1 RMS(Cart)=  0.04975056 RMS(Int)=  0.00201736
 Iteration  2 RMS(Cart)=  0.00210031 RMS(Int)=  0.00008194
 Iteration  3 RMS(Cart)=  0.00000304 RMS(Int)=  0.00008190
 Iteration  4 RMS(Cart)=  0.00000000 RMS(Int)=  0.00008190
 Variable       Old X    -DE/DX   Delta X   Delta X   Delta X     New X
                                 (Linear)    (Quad)   (Total)
    R1        2.57769   0.00398   0.00101   0.00839   0.00943   2.58713
    R2        3.28239  -0.00062  -0.00274  -0.00215  -0.00482   3.27757
    R3        2.04393  -0.00114   0.00052  -0.00364  -0.00312   2.04081
    R4        2.70176   0.00348  -0.00391   0.01766   0.01370   2.71546
    R5        2.84609   0.00018  -0.00201   0.00142  -0.00059   2.84550
    R6        2.57146   0.00339   0.00060   0.00721   0.00775   2.57921
    R7        2.04769  -0.00029   0.00045  -0.00121  -0.00076   2.04692
    R8        3.27229   0.00058  -0.00268   0.00262  -0.00007   3.27222
    R9        2.04278  -0.00121   0.00040  -0.00385  -0.00345   2.03933
   R10        2.07132  -0.00071   0.00094  -0.00279  -0.00185   2.06947
   R11        2.06688  -0.00047   0.00091  -0.00200  -0.00109   2.06579
   R12        2.06576  -0.00084   0.00087  -0.00309  -0.00221   2.06354
    A1        1.96270  -0.00057  -0.00222  -0.00351  -0.00587   1.95682
    A2        2.22933   0.00072   0.00391   0.00428   0.00803   2.23736
    A3        2.09102  -0.00015  -0.00139  -0.00048  -0.00204   2.08898
    A4        1.94547  -0.00021   0.00058   0.00051   0.00095   1.94642
    A5        2.18068  -0.00062  -0.00072  -0.00378  -0.00450   2.17618
    A6        2.15702   0.00083   0.00014   0.00316   0.00330   2.16032
    A7        1.98202  -0.00062   0.00175  -0.00191  -0.00036   1.98165
    A8        2.14779   0.00089   0.00017   0.00508   0.00533   2.15312
    A9        2.15332  -0.00027  -0.00187  -0.00328  -0.00508   2.14824
   A10        1.94705  -0.00048  -0.00273  -0.00302  -0.00604   1.94102
   A11        2.23831   0.00059   0.00406   0.00327   0.00728   2.24560
   A12        2.09782  -0.00011  -0.00102  -0.00021  -0.00128   2.09654
   A13        1.58745   0.00189   0.00262   0.00843   0.01104   1.59849
   A14        1.94127   0.00002   0.00078  -0.00088  -0.00011   1.94116
   A15        1.93125   0.00089   0.00116   0.00657   0.00770   1.93895
   A16        1.94169   0.00048   0.00216   0.00325   0.00538   1.94706
   A17        1.87769  -0.00050  -0.00147  -0.00331  -0.00479   1.87290
   A18        1.88372  -0.00044  -0.00158  -0.00395  -0.00554   1.87818
   A19        1.88582  -0.00053  -0.00123  -0.00216  -0.00343   1.88239
    D1        0.00980  -0.00013   0.00050  -0.01260  -0.01209  -0.00229
    D2       -3.12556   0.00012   0.00163   0.00438   0.00596  -3.11959
    D3        3.13332   0.00014   0.00739   0.00588   0.01339  -3.13647
    D4       -0.00203   0.00039   0.00852   0.02285   0.03144   0.02941
    D5       -0.00282  -0.00012   0.00098  -0.00926  -0.00835  -0.01117
    D6       -3.12794  -0.00037  -0.00559  -0.02616  -0.03152   3.12373
    D7       -0.01411   0.00041  -0.00229   0.03599   0.03376   0.01965
    D8        3.11613   0.00035  -0.00010   0.02583   0.02577  -3.14129
    D9        3.12135   0.00016  -0.00340   0.01926   0.01588   3.13722
   D10       -0.03160   0.00010  -0.00121   0.00910   0.00788  -0.02372
   D11        1.67179   0.00009   0.00669   0.09568   0.10238   1.77417
   D12       -2.52536   0.00006   0.00611   0.09527   0.10137  -2.42399
   D13       -0.42883   0.00031   0.00672   0.09909   0.10584  -0.32299
   D14       -1.46283   0.00038   0.00795   0.11465   0.12259  -1.34024
   D15        0.62320   0.00035   0.00737   0.11425   0.12159   0.74478
   D16        2.71973   0.00059   0.00798   0.11807   0.12605   2.84578
   D17        0.01191  -0.00050   0.00303  -0.04279  -0.03972  -0.02781
   D18       -3.13221  -0.00038  -0.00597  -0.02278  -0.02877   3.12221
[...]
    R5        2.84259   0.00000   0.00000   0.00001   0.00001   2.84260
    R6        2.57787  -0.00001   0.00000  -0.00003  -0.00003   2.57785
    R7        2.04678   0.00000   0.00000   0.00000   0.00000   2.04677
    R8        3.27372   0.00000   0.00000   0.00003   0.00003   3.27374
    R9        2.03940   0.00000   0.00000   0.00001   0.00001   2.03941
   R10        2.06846   0.00000   0.00000  -0.00001  -0.00001   2.06845
   R11        2.06843   0.00000   0.00000   0.00001   0.00001   2.06845
   R12        2.06287   0.00000   0.00000   0.00000   0.00000   2.06287
    A1        1.96162   0.00000   0.00000   0.00000   0.00000   1.96161
    A2        2.23204   0.00001   0.00000   0.00010   0.00010   2.23213
    A3        2.08953  -0.00001   0.00000  -0.00009  -0.00009   2.08944
    A4        1.94554   0.00000   0.00000   0.00000   0.00000   1.94554
    A5        2.17674   0.00002   0.00000   0.00015   0.00015   2.17689
    A6        2.16091  -0.00002   0.00000  -0.00015  -0.00015   2.16076
    A7        1.97968   0.00000   0.00000   0.00002   0.00002   1.97970
    A8        2.15468  -0.00001   0.00000  -0.00008  -0.00008   2.15460
    A9        2.14882   0.00000   0.00000   0.00006   0.00006   2.14888
   A10        1.94627   0.00000   0.00000  -0.00001  -0.00001   1.94626
   A11        2.24178   0.00001   0.00000   0.00006   0.00006   2.24184
   A12        2.09514   0.00000   0.00000  -0.00005  -0.00005   2.09509
   A13        1.59167   0.00000   0.00000   0.00000   0.00000   1.59167
   A14        1.94054   0.00000   0.00000  -0.00002  -0.00002   1.94052
   A15        1.94054   0.00000   0.00000  -0.00002  -0.00002   1.94052
   A16        1.94256   0.00000   0.00000   0.00005   0.00005   1.94260
   A17        1.87267   0.00000   0.00000   0.00001   0.00001   1.87267
   A18        1.88227   0.00000   0.00000   0.00000   0.00000   1.88227
   A19        1.88230   0.00000   0.00000  -0.00003  -0.00003   1.88227
    D1       -0.00004   0.00000   0.00000   0.00004   0.00004   0.00000
    D2       -3.14146   0.00000   0.00000  -0.00013  -0.00013   3.14159
    D3       -3.14153   0.00000   0.00000  -0.00006  -0.00006   3.14159
    D4        0.00023   0.00000   0.00000  -0.00023  -0.00023   0.00000
    D5       -0.00001   0.00000   0.00000   0.00001   0.00001   0.00000
    D6        3.14149   0.00000   0.00000   0.00010   0.00010  -3.14159
    D7        0.00009   0.00000   0.00000  -0.00009  -0.00009   0.00000
    D8        3.14146   0.00000   0.00000   0.00014   0.00014  -3.14159
    D9        3.14152   0.00000   0.00000   0.00008   0.00008  -3.14159
   D10       -0.00030   0.00000   0.00000   0.00030   0.00030   0.00000
   D11        2.09815   0.00000   0.00000   0.00076   0.00076   2.09891
   D12       -2.09966   0.00000   0.00000   0.00075   0.00075  -2.09891
   D13       -0.00074   0.00000   0.00000   0.00074   0.00074   0.00000
   D14       -1.04326   0.00000   0.00000   0.00057   0.00057  -1.04268
   D15        1.04212   0.00000   0.00000   0.00056   0.00056   1.04269
   D16        3.14104   0.00000   0.00000   0.00055   0.00055  -3.14159
   D17       -0.00010   0.00000   0.00000   0.00010   0.00010   0.00000
   D18        3.14156   0.00000   0.00000   0.00004   0.00004  -3.14159
   D19       -3.14147   0.00000   0.00000  -0.00013  -0.00013   3.14159
   D20        0.00019   0.00000   0.00000  -0.00019  -0.00019   0.00000
   D21        0.00007   0.00000   0.00000  -0.00007  -0.00007   0.00000
   D22       -3.14158   0.00000   0.00000  -0.00001  -0.00001   3.14159
         Item               Value     Threshold  Converged?
 Maximum Force            0.000021     0.000450     YES
 RMS     Force            0.000006     0.000300     YES
 Maximum Displacement     0.001063     0.001800     YES
 RMS     Displacement     0.000304     0.001200     YES
 Predicted change in Energy=-9.367165D-09
 Optimization completed.
    -- Stationary point found.
                           ----------------------------
                           !   Optimized Parameters   !
                           ! (Angstroms and Degrees)  !
 --------------------------                            --------------------------
 ! Name  Definition              Value          Derivative Info.                !
 --------------------------------------------------------------------------------
 ! R1    R(1,2)                  1.368          -DE/DX =    0.0                 !
 ! R2    R(1,5)                  1.7352         -DE/DX =    0.0                 !
 ! R3    R(1,6)                  1.0798         -DE/DX =    0.0                 !
 ! R4    R(2,3)                  1.4342         -DE/DX =    0.0                 !
 ! R5    R(2,9)                  1.5042         -DE/DX =    0.0                 !
 ! R6    R(3,4)                  1.3642         -DE/DX =    0.0                 !
 ! R7    R(3,7)                  1.0831         -DE/DX =    0.0                 !
 ! R8    R(4,5)                  1.7324         -DE/DX =    0.0                 !
 ! R9    R(4,8)                  1.0792         -DE/DX =    0.0                 !
 ! R10   R(9,10)                 1.0946         -DE/DX =    0.0                 !
 ! R11   R(9,11)                 1.0946         -DE/DX =    0.0                 !
 ! R12   R(9,12)                 1.0916         -DE/DX =    0.0                 !
 ! A1    A(2,1,5)              112.3924         -DE/DX =    0.0                 !
 ! A2    A(2,1,6)              127.8863         -DE/DX =    0.0                 !
 ! A3    A(5,1,6)              119.7213         -DE/DX =    0.0                 !
 ! A4    A(1,2,3)              111.4713         -DE/DX =    0.0                 !
 ! A5    A(1,2,9)              124.7177         -DE/DX =    0.0                 !
 ! A6    A(3,2,9)              123.811          -DE/DX =    0.0                 !
 ! A7    A(2,3,4)              113.4274         -DE/DX =    0.0                 !
 ! A8    A(2,3,7)              123.4543         -DE/DX =    0.0                 !
 ! A9    A(4,3,7)              123.1183         -DE/DX =    0.0                 !
 ! A10   A(3,4,5)              111.5129         -DE/DX =    0.0                 !
 ! A11   A(3,4,8)              128.4446         -DE/DX =    0.0                 !
 ! A12   A(5,4,8)              120.0424         -DE/DX =    0.0                 !
 ! A13   A(1,5,4)               91.196          -DE/DX =    0.0                 !
 ! A14   A(2,9,10)             111.1848         -DE/DX =    0.0                 !
 ! A15   A(2,9,11)             111.1847         -DE/DX =    0.0                 !
 ! A16   A(2,9,12)             111.3003         -DE/DX =    0.0                 !
 ! A17   A(10,9,11)            107.2959         -DE/DX =    0.0                 !
 ! A18   A(10,9,12)            107.8461         -DE/DX =    0.0                 !
 ! A19   A(11,9,12)            107.8479         -DE/DX =    0.0                 !
 ! D1    D(5,1,2,3)             -0.0021         -DE/DX =    0.0                 !
 ! D2    D(5,1,2,9)            180.0075         -DE/DX =    0.0                 !
 ! D3    D(6,1,2,3)            180.0035         -DE/DX =    0.0                 !
 ! D4    D(6,1,2,9)              0.0131         -DE/DX =    0.0                 !
 ! D5    D(2,1,5,4)             -0.0009         -DE/DX =    0.0                 !
 ! D6    D(6,1,5,4)           -180.0059         -DE/DX =    0.0                 !
 ! D7    D(1,2,3,4)              0.0051         -DE/DX =    0.0                 !
 ! D8    D(1,2,3,7)           -180.0078         -DE/DX =    0.0                 !
 ! D9    D(9,2,3,4)           -180.0044         -DE/DX =    0.0                 !
 ! D10   D(9,2,3,7)             -0.0173         -DE/DX =    0.0                 !
 ! D11   D(1,2,9,10)           120.2149         -DE/DX =    0.0                 !
 ! D12   D(1,2,9,11)          -120.3015         -DE/DX =    0.0                 !
 ! D13   D(1,2,9,12)            -0.0422         -DE/DX =    0.0                 !
 ! D14   D(3,2,9,10)           -59.7743         -DE/DX =    0.0                 !
 ! D15   D(3,2,9,11)            59.7092         -DE/DX =    0.0                 !
 ! D16   D(3,2,9,12)          -180.0315         -DE/DX =    0.0                 !
 ! D17   D(2,3,4,5)             -0.0057         -DE/DX =    0.0                 !
 ! D18   D(2,3,4,8)           -180.0021         -DE/DX =    0.0                 !
 ! D19   D(7,3,4,5)            180.0072         -DE/DX =    0.0                 !
 ! D20   D(7,3,4,8)              0.0107         -DE/DX =    0.0                 !
 ! D21   D(3,4,5,1)              0.0038         -DE/DX =    0.0                 !
 ! D22   D(8,4,5,1)            180.0005         -DE/DX =    0.0                 !
 --------------------------------------------------------------------------------
 GradGradGradGradGradGradGradGradGradGradGradGradGradGradGradGradGradGrad

 1\1\GINC-COREV2-22-004\Freq\RB3LYP\6-311+G(d,p)\C5H6S1\ROOT\23-Feb-202
 2\0\\#N Geom=AllCheck Guess=TCheck SCRF=Check GenChk RB3LYP/6-311+G(d,
 p) Freq\\Title Card Required\\0,1\C,-0.3125307153,-0.0516596117,0.2750
 675225\C,1.0110272177,-0.1873995382,-0.0428824142\C,1.6592287075,1.087
 6645557,-0.1475407386\C,0.8255188674,2.1410229553,0.0896838238\S,-0.78
 3444291,1.609225649,0.4496234968\H,-1.0436410487,-0.8332545213,0.41815
 19288\H,2.7080053247,1.206140412,-0.3907526931\H,1.0556120094,3.195317
 0777,0.0754889546\C,1.709929419,-1.5018817284,-0.2582853587\H,2.130260
 1426,-1.5657682008,-1.2669203114\H,2.536574892,-1.6306676106,0.4475127
 986\H,1.0245918746,-2.3414587389,-0.1276629091\\Version=ES64L-G09RevD.
 01\State=1-A\HF=-592.4013985\RMSD=4.591e-09\RMSF=1.098e-05\ZeroPoint=0
 .0939081\Thermal=0.0996883\Dipole=0.289238,-0.2193511,-0.0767096\Dipol
 eDeriv=-0.0103908,-0.1364351,-0.0661464,-0.2604077,0.1170218,0.0761897
 ,-0.0708935,0.0468819,-0.2497936,-0.0948443,0.0104617,-0.000963,-0.147
 4174,0.1940247,0.0461083,-0.0071046,0.00892,-0.0984305,-0.1088041,0.08
 07306,-0.0052038,0.258574,-0.1634693,-0.0618699,0.0016653,-0.0198315,-
 0.1450997,0.3537942,-0.0919839,-0.1512254,-0.0074434,-0.1649194,0.0058
 249,-0.1479967,0.0257588,-0.2352906,-0.1977105,0.1435346,0.0790713,0.1
 415723,-0.0529288,-0.0398077,0.0789835,-0.040265,0.0935125,0.0597236,-
 0.0187995,0.0279103,-0.0544263,-0.0185846,0.0052755,0.0265798,-0.00313
 48,0.1744548,-0.0715402,-0.0204462,0.0557942,0.0119843,0.0850059,-0.00
 59874,0.0569739,0.001672,0.1545002,0.0590952,-0.046159,0.0273427,-0.01
 95688,-0.0052198,-0.0025199,0.0283513,0.003775,0.1756822,0.0653372,0.0
 743485,0.0264291,0.0114276,0.0902549,-0.0055549,0.0241658,-0.020579,0.
 1586327,0.0298098,0.0544907,0.0664544,0.0463432,-0.0027184,0.0106187,0
 .095868,-0.0530402,-0.0957718,-0.058578,0.0792784,-0.0792042,0.0455485
 ,-0.004264,-0.0287259,-0.1102048,0.0250307,-0.0057868,-0.0258919,-0.12
 90208,0.0197409,-0.0261863,-0.0742029,0.0004485,0.0236118,0.0248121,0.
 0733905\Polar=83.633728,-7.673615,85.3520375,-8.2026543,3.1557138,52.2
 252615\PG=C01 [X(C5H6S1)]\NImag=0\\0.68712604,0.13148031,0.51935399,-0
 .13765090,-0.01448758,0.11554823,-0.36963866,0.01065785,0.07436336,0.6
 5636849,0.04699053,-0.10280968,-0.01285754,-0.05655479,0.61610004,0.07
 574719,-0.00427606,-0.07477405,-0.11922777,0.03071664,0.19039074,-0.03
 803192,-0.01798863,0.01014980,-0.13767886,-0.08090991,0.01418125,0.750
 08999,-0.06385626,0.00819450,0.01510272,-0.03730130,-0.21636112,0.0030
 3941,-0.04094494,0.59772985,0.00840190,0.00426336,0.00598315,0.0158390
 7,0.01334204,-0.06787343,-0.15032163,0.02787158,0.15708157,-0.02793216
 ,-0.01721606,0.00842645,0.03354597,0.03060973,-0.00488997,-0.21542478,
 0.12785761,0.04299632,0.43641388,-0.00934831,-0.04814806,-0.00002489,-
 0.01735526,-0.06317681,0.00139121,0.16216591,-0.27952310,-0.04692239,-
 0.04162509,0.78869942,0.00872906,0.00183360,0.00851662,-0.00671569,-0.
 00994299,0.00913917,0.04430561,-0.03881451,-0.06607641,-0.08442896,0.0
 3662995,0.10722846,-0.04466425,0.01132930,0.00356857,-0.04250081,0.003
 40861,0.01152799,-0.05705966,0.03901068,0.01722559,-0.14706547,-0.0267
 9927,0.02601449,0.29023920,0.04517712,-0.15948379,-0.01555565,0.044631
 57,-0.02469143,-0.01170373,-0.00234011,-0.01484889,-0.00037455,-0.0598
 4450,-0.05493924,0.01329274,-0.01988533,0.26943326,0.00485807,-0.00755
 769,-0.03283491,0.01309626,-0.00196572,0.00255790,0.01565296,-0.010146
 83,0.00546043,0.02475572,0.00548358,-0.03830119,-0.05941645,0.01336358
 ,0.05657613,-0.18941962,-0.14741623,0.03415486,-0.00792058,-0.02148322
 ,0.00151506,-0.00480704,0.00083060,0.00242551,-0.00139556,0.00440788,0
 .00044044,0.00741481,0.00851494,-0.00226880,0.19405172,-0.15036718,-0.
 20736470,0.02846021,0.00516142,0.00644110,-0.00104883,0.00135875,0.000
 70444,-0.00049671,0.00230005,-0.00452343,-0.00070666,-0.01365782,-0.01
 203677,0.00290498,0.15659520,0.21489071,0.03404659,0.02776522,-0.02818
 680,0.00252502,0.00524836,0.00154783,0.00244551,-0.00037256,0.00473112
 ,0.00035980,-0.00120499,-0.00037323,-0.00311265,-0.00233613,-0.0029091
 1,-0.03556589,-0.02953844,0.02566478,-0.00067399,-0.00110973,0.0006344
 3,-0.00597844,0.00354062,0.00173660,-0.31991010,-0.03124620,0.06714770
 ,-0.01201111,-0.00465801,0.00353844,-0.00025073,0.00084575,0.00165751,
 -0.00024350,0.00006068,0.00025275,0.33819242,-0.00269689,-0.00579569,0
 .00033359,-0.02466654,0.00391313,0.00594524,-0.03097617,-0.05986048,0.
 00620316,0.02282088,0.00630176,-0.00529338,0.00438663,-0.00170950,-0.0
 0135495,-0.00132928,0.00048050,0.00030147,0.03262640,0.05492488,0.0005
 7399,-0.00004145,0.00205350,0.00066509,-0.00071605,0.00061976,0.067149
 92,0.00626573,-0.04623310,0.00459018,0.00119784,0.00268116,0.00179289,
 -0.00051829,0.00618543,0.00019991,-0.00002706,0.00076798,-0.07337250,-
 0.00646434,0.03940285,-0.00661150,-0.00106197,0.00157329,-0.00192470,0
 .00318282,0.00202297,0.01075063,0.01764252,-0.00142304,-0.06241977,-0.
 06364351,0.00698069,-0.00323865,-0.02115052,-0.00087560,0.00118919,-0.
 00126259,0.00030558,0.00027330,-0.00088794,-0.00110313,0.06108616,0.00
 057071,0.00086094,-0.00011025,0.00310609,-0.00166836,-0.00103143,-0.00
 975584,-0.01053196,0.00183312,-0.06100544,-0.34264908,0.00221853,0.001
 03611,-0.00080728,-0.00014082,-0.00002535,0.00021516,-0.00008827,0.000
 34019,0.00045516,0.00009898,0.06633295,0.35489608,0.00163468,0.0002761
 7,-0.00015927,0.00202032,-0.00104807,0.00560212,-0.00246722,-0.0046461
 2,0.00229051,0.00708037,0.00284547,-0.02418120,-0.00003004,0.00510147,
 -0.00333150,0.00035306,0.00020433,0.00261069,-0.00105573,0.00038933,-0
 .00398692,-0.00739747,-0.00287678,0.02072503,-0.01177448,0.02709525,0.
 00504380,-0.11326742,0.04941841,0.01278216,0.01242673,-0.01057119,-0.0
 0300664,-0.00253067,-0.00544192,0.00061941,-0.00329343,0.00303565,0.00
 281045,0.00086537,0.00010371,-0.00129412,0.00023702,0.00028823,-0.0002
 5433,0.00104563,-0.00081342,-0.00013679,0.54246000,0.00550443,-0.00352
 748,-0.00163363,0.05315271,-0.18780875,-0.01717034,0.01506490,-0.02516
 294,-0.00457587,-0.00419318,-0.00141881,0.00089965,-0.00045236,0.00260
 751,-0.00010120,-0.00131144,0.00109223,0.00052660,0.00039330,0.0017185
 3,0.00000635,0.00060857,-0.00050962,-0.00018628,0.04105488,0.50868740,
 0.00421379,-0.00673248,0.00392730,0.01292678,-0.01628163,-0.07084713,-
 0.00202897,0.00148819,0.00195741,0.00067008,0.00119629,0.00086305,0.00
 267512,-0.00092840,0.00743248,-0.00134686,0.00019237,-0.00429729,-0.00
 025154,0.00003036,-0.00082983,-0.00008329,0.00015038,0.00062200,-0.000
 98726,-0.01059668,0.53140982,0.00015167,0.00178999,0.00016588,-0.00889
 588,0.00337125,0.01414640,0.00062970,-0.00172308,-0.00053400,-0.000859
 98,0.00062893,0.00006453,-0.00020737,0.00066483,-0.00096772,0.00026450
 ,-0.00004020,0.00065898,0.00018096,0.00004345,0.00022058,0.00001795,-0
 .00000116,0.00003766,-0.08092209,0.00215373,0.09029948,0.08736517,-0.0
 0101935,-0.00156680,-0.00000154,0.01381606,-0.00281229,-0.02786461,0.0
 0009344,0.00121132,0.00055011,0.00075400,0.00015703,-0.00014624,0.0009
 4933,-0.00176966,0.00097246,0.00005702,0.00001372,-0.00032359,-0.00041
 638,-0.00027571,-0.00012809,-0.00006066,0.00001123,0.00010791,0.002936
 04,-0.04663627,-0.01125887,-0.00748602,0.05049911,-0.00088537,-0.00033
 931,0.00013077,0.00203420,-0.00190821,-0.00077450,0.00034824,0.0009374
 0,0.00087015,0.00059668,-0.00072493,-0.00001410,-0.00045574,-0.0002248
 0,0.00006443,-0.00007573,0.00001608,-0.00008971,-0.00020555,-0.0003029
 6,-0.00028882,0.00000362,-0.00000894,-0.00003941,0.09024725,-0.0098859
 6,-0.26573803,-0.09997987,0.01209273,0.28872946,0.00044822,0.00173890,
 -0.00018757,-0.01325918,0.00455536,-0.00701703,0.00071736,-0.00198882,
 0.00044294,-0.00092580,0.00087328,0.00046687,0.00043351,0.00060003,0.0
 0081406,-0.00003636,0.00000646,-0.00067990,0.00007904,0.00019770,-0.00
 038783,-0.00001170,0.00000720,-0.00005335,-0.19013452,0.01793187,-0.12
 696316,0.01023550,-0.00158050,0.00785050,0.20750335,-0.00099063,-0.001
 57629,0.00035913,0.02463180,-0.00461480,0.01822258,-0.00013307,0.00129
 078,-0.00050396,0.00076496,0.00011817,-0.00020924,0.00035633,-0.001679
 35,-0.00138877,0.00019254,-0.00000789,0.00025897,-0.00032249,-0.000313
 23,0.00029812,-0.00010061,0.00001724,-0.00006641,0.01923498,-0.0489789
 2,0.01862133,-0.00102622,-0.00047394,-0.00018958,-0.02479051,0.0529636
 2,0.00065390,-0.00061288,-0.00016338,0.00625354,-0.00050828,0.00539158
 ,-0.00030092,-0.00002338,0.00070646,-0.00006481,0.00037185,0.00009222,
 0.00030557,-0.00018293,-0.00066659,0.00006453,-0.00001321,0.00023382,0
 .00000190,0.00024256,-0.00014846,-0.00002545,0.00001086,-0.00001562,-0
 .12683553,0.01775004,-0.15421159,-0.02332043,0.00245217,-0.02031703,0.
 13893567,-0.01810777,0.16615162,0.00102065,0.00070100,-0.00024197,0.01
 115006,0.01387056,-0.00252485,-0.00170206,0.00229038,0.00080628,0.0006
 0545,0.00079537,-0.00001489,0.00019284,-0.00024943,-0.00011646,0.00003
 708,-0.00025848,0.00005833,0.00010513,0.00019353,-0.00007478,-0.000156
 53,0.00020796,0.00001450,-0.15511214,-0.12990741,0.02087583,-0.0079601
 4,-0.00804299,0.00052177,-0.01504943,-0.01781706,0.00433203,0.16686908
 ,-0.00144449,0.00186305,0.00041541,-0.01927962,-0.02251104,0.00377992,
 0.00436567,-0.00284241,-0.00118989,-0.00122296,-0.00089786,0.00023856,
 0.00031778,-0.00007486,-0.00006862,0.00096735,0.00009494,-0.00023664,-
 0.00005413,0.00016066,0.00002825,0.00040094,-0.00028951,-0.00010102,-0
 .12634063,-0.20006290,0.02411914,0.00162448,0.00164227,0.00053848,0.00
 244903,0.00325461,-0.00137902,0.13821658,0.21966305,-0.00032290,-0.000
 09089,-0.00004116,-0.00378019,-0.00407855,-0.00097999,0.00088544,-0.00
 070163,0.00110213,-0.00009186,-0.00023899,0.00042545,-0.00009534,0.000
 06670,-0.00023349,0.00010390,0.00005293,0.00029991,-0.00008400,-0.0000
 3010,-0.00022355,0.00002182,-0.00005536,-0.00013644,0.02101161,0.02496
 731,-0.05028820,0.01920850,0.02354757,-0.00253320,-0.01322119,-0.01729
 440,0.00294697,-0.02363579,-0.02614460,0.04966156\\-0.00002727,0.00001
 096,0.00000167,0.00004117,0.00001849,0.00000517,-0.00000755,-0.0000196
 7,-0.00001637,-0.00001060,0.00000344,0.00001095,0.00000377,-0.00000895
 ,-0.00000474,0.00000666,-0.00000576,0.00000125,0.00000236,0.00000618,0
 .00000548,0.00000319,-0.00000319,-0.00000116,-0.00000977,-0.00000567,0
 .00000207,0.00000086,-0.00000057,-0.00000115,-0.00000149,0.00000261,-0
 .00000299,-0.00000133,0.00000212,-0.00000017\\\@


 THESE ARE THE TIMES THAT TRY MENS SOULS.
 THE SUMMER SOLDIER AND THE SUNSHINE PATRIOT WILL IN THIS CRISIS,
 SHRINK FROM THE SERVICE OF HIS COUNTRY.  BUT HE THAT STANDS NOW,
 DESERVES THE LOVE AND THANKS OF MAN AND WOMAN.
 TYRANNY, LIKE HELL, IS NOT EASILY CONQUERED,
 YET WE HAVE THIS CONSOLATION WITH US,
 THAT THE HARDER THE CONFLICT, THE MORE GLORIOUS THE TRIUMPH.
 WHAT WE OBTAIN TOO CHEAP, WE ESTEEM TOO LIGHTLY, 
 'TIS DEARNESS ONLY THAT GIVES EVERYTHING ITS VALUE.

                                              -- TOM PAINE
 Job cpu time:       0 days  0 hours  6 minutes 50.7 seconds.
 File lengths (MBytes):  RWF=    107 Int=      0 D2E=      0 Chk=      4 Scr=      1
 Normal termination of Gaussian 09 at Wed Feb 23 13:50:01 2022.
