 Entering Gaussian System, Link 0=g09
 Initial command:
 /cm/shared/apps/gaussian/g09revD.01/g09/l1.exe "//home/sweav003/CHB/CHActivation_Mkhalid/non_select/G09-Chart3_1.com.o9709983.tmp/Gau-21452.inp" -scrdir="//home/sweav003/CHB/CHActivation_Mkhalid/non_select/G09-Chart3_1.com.o9709983.tmp/"
 Entering Link 1 = /cm/shared/apps/gaussian/g09revD.01/g09/l1.exe PID=     21453.
  
 Copyright (c) 1988,1990,1992,1993,1995,1998,2003,2009,2013,
            Gaussian, Inc.  All Rights Reserved.
  
 This is part of the Gaussian(R) 09 program.  It is based on
 the Gaussian(R) 03 system (copyright 2003, Gaussian, Inc.),
 the Gaussian(R) 98 system (copyright 1998, Gaussian, Inc.),
 the Gaussian(R) 94 system (copyright 1995, Gaussian, Inc.),
 the Gaussian 92(TM) system (copyright 1992, Gaussian, Inc.),
 the Gaussian 90(TM) system (copyright 1990, Gaussian, Inc.),
 the Gaussian 88(TM) system (copyright 1988, Gaussian, Inc.),
 the Gaussian 86(TM) system (copyright 1986, Carnegie Mellon
 University), and the Gaussian 82(TM) system (copyright 1983,
 Carnegie Mellon University). Gaussian is a federally registered
 trademark of Gaussian, Inc.
  
 This software contains proprietary and confidential information,
 including trade secrets, belonging to Gaussian, Inc.
  
 This software is provided under written license and may be
 used, copied, transmitted, or stored only in accord with that
 written license.
  
 The following legend is applicable only to US Government
 contracts under FAR:
  
                    RESTRICTED RIGHTS LEGEND
  
 Use, reproduction and disclosure by the US Government is
 subject to restrictions as set forth in subparagraphs (a)
 and (c) of the Commercial Computer Software - Restricted
 Rights clause in FAR 52.227-19.
  
 Gaussian, Inc.
 340 Quinnipiac St., Bldg. 40, Wallingford CT 06492
  
  
 ---------------------------------------------------------------
 Warning -- This program may not be used in any manner that
 competes with the business of Gaussian, Inc. or will provide
 assistance to any competitor of Gaussian, Inc.  The licensee
 of this program is prohibited from giving any competitor of
 Gaussian, Inc. access to this program.  By using this program,
 the user acknowledges that Gaussian, Inc. is engaged in the
 business of creating and licensing software in the field of
 computational chemistry and represents and warrants to the
 licensee that it is not a competitor of Gaussian, Inc. and that
 it will not use this program in any manner prohibited above.
 ---------------------------------------------------------------
  

 Cite this work as:
 Gaussian 09, Revision D.01,
 M. J. Frisch, G. W. Trucks, H. B. Schlegel, G. E. Scuseria, 
 M. A. Robb, J. R. Cheeseman, G. Scalmani, V. Barone, B. Mennucci, 
 G. A. Petersson, H. Nakatsuji, M. Caricato, X. Li, H. P. Hratchian, 
 A. F. Izmaylov, J. Bloino, G. Zheng, J. L. Sonnenberg, M. Hada, 
 M. Ehara, K. Toyota, R. Fukuda, J. Hasegawa, M. Ishida, T. Nakajima, 
 Y. Honda, O. Kitao, H. Nakai, T. Vreven, J. A. Montgomery, Jr., 
 J. E. Peralta, F. Ogliaro, M. Bearpark, J. J. Heyd, E. Brothers, 
 K. N. Kudin, V. N. Staroverov, T. Keith, R. Kobayashi, J. Normand, 
 K. Raghavachari, A. Rendell, J. C. Burant, S. S. Iyengar, J. Tomasi, 
 M. Cossi, N. Rega, J. M. Millam, M. Klene, J. E. Knox, J. B. Cross, 
 V. Bakken, C. Adamo, J. Jaramillo, R. Gomperts, R. E. Stratmann, 
 O. Yazyev, A. J. Austin, R. Cammi, C. Pomelli, J. W. Ochterski, 
 R. L. Martin, K. Morokuma, V. G. Zakrzewski, G. A. Voth, 
 P. Salvador, J. J. Dannenberg, S. Dapprich, A. D. Daniels, 
 O. Farkas, J. B. Foresman, J. V. Ortiz, J. Cioslowski, 
 and D. J. Fox, Gaussian, Inc., Wallingford CT, 2013.
 
 ******************************************
 Gaussian 09:  ES64L-G09RevD.01 24-Apr-2013
                22-Feb-2022 
 ******************************************
 %nprocshared=20
 Will use up to   20 processors via shared memory.
 %mem=100MW
 %chk=Chart3_1.chk
 ----------------------------------------------------------------------
 # opt freq b3lyp/6-311+g(d,p) geom=connectivity pop=(hirshfeld,chelpg,
 mbs,npa)
 ----------------------------------------------------------------------
 1/14=-1,18=20,19=15,26=3,38=1,57=2/1,3;
 2/9=110,12=2,17=6,18=5,40=1/2;
 3/5=4,6=6,7=111,11=2,16=1,25=1,30=1,71=1,74=-5/1,2,3;
 4//1;
 5/5=2,38=5/2;
 6/7=2,8=2,9=2,10=2,15=8,20=3,27=100,28=1,40=-1,79=1/1,2,7;
 7//1,2,3,16;
 1/14=-1,18=20,19=15,26=3/3(2);
 2/9=110/2;
 99//99;
 2/9=110/2;
 3/5=4,6=6,7=111,11=2,16=1,25=1,30=1,71=1,74=-5/1,2,3;
 4/5=5,16=3,69=1/1;
 5/5=2,38=5/2;
 7//1,2,3,16;
 1/14=-1,18=20,19=15,26=3/3(-5);
 2/9=110/2;
 6/7=2,8=2,9=2,10=2,15=8,19=2,20=3,27=100,28=1,40=-1,79=1/1,2,7;
 99/9=1/99;
 -------------------
 Title Card Required
 -------------------
 Symbolic Z-matrix:
 Charge =  0 Multiplicity = 1
 C                     0.70428  -0.29653  -0.00162 
 C                     1.21759  -1.74846  -0.00571 
 H                     1.0627    0.21093  -0.87278 
 H                     1.05921   0.20479   0.87451 
 C                     2.75759  -1.7485   -0.00264 
 H                     0.85918  -2.25593   0.86545 
 H                     0.86266  -2.24978  -0.88184 
 H                     3.11424  -2.7573   -0.00547 
 H                     3.11601  -1.24103  -0.87379 
 H                     3.11252  -1.24718   0.8735 
 C                    -0.83571  -0.2965   -0.0047 
 C                    -1.34902   1.15543  -0.00061 
 H                    -1.19413  -0.80396   0.86646 
 H                    -1.19064  -0.79782  -0.88083 
 C                    -2.88902   1.15546  -0.00368 
 H                    -0.99409   1.65675   0.87552 
 H                    -0.99061   1.6629   -0.87177 
 H                    -3.24395   0.65415  -0.87982 
 C                    -3.40233   2.60739   0.0004 
 H                    -4.47233   2.60742  -0.00174 
 H                    -3.0474    3.10871   0.87653 
 H                    -3.04391   3.11486  -0.87076 
 C                    -3.40487   0.42509   1.25013 
 H                    -3.04822  -0.58371   1.24729 
 H                    -3.04994   0.92641   2.12626 
 H                    -4.47487   0.42512   1.248 
 

 GradGradGradGradGradGradGradGradGradGradGradGradGradGradGradGradGradGrad
 Berny optimization.
 Initialization pass.
                           ----------------------------
                           !    Initial Parameters    !
                           ! (Angstroms and Degrees)  !
 --------------------------                            --------------------------
 ! Name  Definition              Value          Derivative Info.                !
 --------------------------------------------------------------------------------
 ! R1    R(1,2)                  1.54           estimate D2E/DX2                !
 ! R2    R(1,3)                  1.07           estimate D2E/DX2                !
 ! R3    R(1,4)                  1.07           estimate D2E/DX2                !
 ! R4    R(1,11)                 1.54           estimate D2E/DX2                !
 ! R5    R(2,5)                  1.54           estimate D2E/DX2                !
 ! R6    R(2,6)                  1.07           estimate D2E/DX2                !
 ! R7    R(2,7)                  1.07           estimate D2E/DX2                !
 ! R8    R(5,8)                  1.07           estimate D2E/DX2                !
 ! R9    R(5,9)                  1.07           estimate D2E/DX2                !
 ! R10   R(5,10)                 1.07           estimate D2E/DX2                !
 ! R11   R(11,12)                1.54           estimate D2E/DX2                !
 ! R12   R(11,13)                1.07           estimate D2E/DX2                !
 ! R13   R(11,14)                1.07           estimate D2E/DX2                !
 ! R14   R(12,15)                1.54           estimate D2E/DX2                !
 ! R15   R(12,16)                1.07           estimate D2E/DX2                !
 ! R16   R(12,17)                1.07           estimate D2E/DX2                !
 ! R17   R(15,18)                1.07           estimate D2E/DX2                !
 ! R18   R(15,19)                1.54           estimate D2E/DX2                !
 ! R19   R(15,23)                1.54           estimate D2E/DX2                !
 ! R20   R(19,20)                1.07           estimate D2E/DX2                !
 ! R21   R(19,21)                1.07           estimate D2E/DX2                !
 ! R22   R(19,22)                1.07           estimate D2E/DX2                !
 ! R23   R(23,24)                1.07           estimate D2E/DX2                !
 ! R24   R(23,25)                1.07           estimate D2E/DX2                !
 ! R25   R(23,26)                1.07           estimate D2E/DX2                !
 ! A1    A(2,1,3)              109.4712         estimate D2E/DX2                !
 ! A2    A(2,1,4)              109.4712         estimate D2E/DX2                !
 ! A3    A(2,1,11)             109.4712         estimate D2E/DX2                !
 ! A4    A(3,1,4)              109.4712         estimate D2E/DX2                !
 ! A5    A(3,1,11)             109.4712         estimate D2E/DX2                !
 ! A6    A(4,1,11)             109.4712         estimate D2E/DX2                !
 ! A7    A(1,2,5)              109.4712         estimate D2E/DX2                !
 ! A8    A(1,2,6)              109.4712         estimate D2E/DX2                !
 ! A9    A(1,2,7)              109.4712         estimate D2E/DX2                !
 ! A10   A(5,2,6)              109.4712         estimate D2E/DX2                !
 ! A11   A(5,2,7)              109.4712         estimate D2E/DX2                !
 ! A12   A(6,2,7)              109.4712         estimate D2E/DX2                !
 ! A13   A(2,5,8)              109.4712         estimate D2E/DX2                !
 ! A14   A(2,5,9)              109.4712         estimate D2E/DX2                !
 ! A15   A(2,5,10)             109.4712         estimate D2E/DX2                !
 ! A16   A(8,5,9)              109.4712         estimate D2E/DX2                !
 ! A17   A(8,5,10)             109.4712         estimate D2E/DX2                !
 ! A18   A(9,5,10)             109.4712         estimate D2E/DX2                !
 ! A19   A(1,11,12)            109.4712         estimate D2E/DX2                !
 ! A20   A(1,11,13)            109.4712         estimate D2E/DX2                !
 ! A21   A(1,11,14)            109.4712         estimate D2E/DX2                !
 ! A22   A(12,11,13)           109.4712         estimate D2E/DX2                !
 ! A23   A(12,11,14)           109.4712         estimate D2E/DX2                !
 ! A24   A(13,11,14)           109.4712         estimate D2E/DX2                !
 ! A25   A(11,12,15)           109.4712         estimate D2E/DX2                !
 ! A26   A(11,12,16)           109.4712         estimate D2E/DX2                !
 ! A27   A(11,12,17)           109.4712         estimate D2E/DX2                !
 ! A28   A(15,12,16)           109.4712         estimate D2E/DX2                !
 ! A29   A(15,12,17)           109.4712         estimate D2E/DX2                !
 ! A30   A(16,12,17)           109.4712         estimate D2E/DX2                !
 ! A31   A(12,15,18)           109.4712         estimate D2E/DX2                !
 ! A32   A(12,15,19)           109.4712         estimate D2E/DX2                !
 ! A33   A(12,15,23)           109.4712         estimate D2E/DX2                !
 ! A34   A(18,15,19)           109.4712         estimate D2E/DX2                !
 ! A35   A(18,15,23)           109.4712         estimate D2E/DX2                !
 ! A36   A(19,15,23)           109.4712         estimate D2E/DX2                !
 ! A37   A(15,19,20)           109.4712         estimate D2E/DX2                !
 ! A38   A(15,19,21)           109.4712         estimate D2E/DX2                !
 ! A39   A(15,19,22)           109.4712         estimate D2E/DX2                !
 ! A40   A(20,19,21)           109.4712         estimate D2E/DX2                !
 ! A41   A(20,19,22)           109.4712         estimate D2E/DX2                !
 ! A42   A(21,19,22)           109.4712         estimate D2E/DX2                !
 ! A43   A(15,23,24)           109.4712         estimate D2E/DX2                !
 ! A44   A(15,23,25)           109.4712         estimate D2E/DX2                !
 ! A45   A(15,23,26)           109.4712         estimate D2E/DX2                !
 ! A46   A(24,23,25)           109.4712         estimate D2E/DX2                !
 ! A47   A(24,23,26)           109.4712         estimate D2E/DX2                !
 ! A48   A(25,23,26)           109.4712         estimate D2E/DX2                !
 ! D1    D(3,1,2,5)             60.0            estimate D2E/DX2                !
 ! D2    D(3,1,2,6)            180.0            estimate D2E/DX2                !
 ! D3    D(3,1,2,7)            -60.0            estimate D2E/DX2                !
 ! D4    D(4,1,2,5)            -60.0            estimate D2E/DX2                !
 ! D5    D(4,1,2,6)             60.0            estimate D2E/DX2                !
 ! D6    D(4,1,2,7)            180.0            estimate D2E/DX2                !
 ! D7    D(11,1,2,5)           180.0            estimate D2E/DX2                !
 ! D8    D(11,1,2,6)           -60.0            estimate D2E/DX2                !
 ! D9    D(11,1,2,7)            60.0            estimate D2E/DX2                !
 ! D10   D(2,1,11,12)          180.0            estimate D2E/DX2                !
 ! D11   D(2,1,11,13)           60.0            estimate D2E/DX2                !
 ! D12   D(2,1,11,14)          -60.0            estimate D2E/DX2                !
 ! D13   D(3,1,11,12)          -60.0            estimate D2E/DX2                !
 ! D14   D(3,1,11,13)          180.0            estimate D2E/DX2                !
 ! D15   D(3,1,11,14)           60.0            estimate D2E/DX2                !
 ! D16   D(4,1,11,12)           60.0            estimate D2E/DX2                !
 ! D17   D(4,1,11,13)          -60.0            estimate D2E/DX2                !
 ! D18   D(4,1,11,14)         -180.0            estimate D2E/DX2                !
 ! D19   D(1,2,5,8)           -180.0            estimate D2E/DX2                !
 ! D20   D(1,2,5,9)            -60.0            estimate D2E/DX2                !
 ! D21   D(1,2,5,10)            60.0            estimate D2E/DX2                !
 ! D22   D(6,2,5,8)             60.0            estimate D2E/DX2                !
 ! D23   D(6,2,5,9)           -180.0            estimate D2E/DX2                !
 ! D24   D(6,2,5,10)           -60.0            estimate D2E/DX2                !
 ! D25   D(7,2,5,8)            -60.0            estimate D2E/DX2                !
 ! D26   D(7,2,5,9)             60.0            estimate D2E/DX2                !
 ! D27   D(7,2,5,10)           180.0            estimate D2E/DX2                !
 ! D28   D(1,11,12,15)         180.0            estimate D2E/DX2                !
 ! D29   D(1,11,12,16)         -60.0            estimate D2E/DX2                !
 ! D30   D(1,11,12,17)          60.0            estimate D2E/DX2                !
 ! D31   D(13,11,12,15)        -60.0            estimate D2E/DX2                !
 ! D32   D(13,11,12,16)         60.0            estimate D2E/DX2                !
 ! D33   D(13,11,12,17)       -180.0            estimate D2E/DX2                !
 ! D34   D(14,11,12,15)         60.0            estimate D2E/DX2                !
 ! D35   D(14,11,12,16)        180.0            estimate D2E/DX2                !
 ! D36   D(14,11,12,17)        -60.0            estimate D2E/DX2                !
 ! D37   D(11,12,15,18)        -60.0            estimate D2E/DX2                !
 ! D38   D(11,12,15,19)        180.0            estimate D2E/DX2                !
 ! D39   D(11,12,15,23)         60.0            estimate D2E/DX2                !
 ! D40   D(16,12,15,18)       -180.0            estimate D2E/DX2                !
 ! D41   D(16,12,15,19)         60.0            estimate D2E/DX2                !
 ! D42   D(16,12,15,23)        -60.0            estimate D2E/DX2                !
 ! D43   D(17,12,15,18)         60.0            estimate D2E/DX2                !
 ! D44   D(17,12,15,19)        -60.0            estimate D2E/DX2                !
 ! D45   D(17,12,15,23)        180.0            estimate D2E/DX2                !
 ! D46   D(12,15,19,20)       -180.0            estimate D2E/DX2                !
 ! D47   D(12,15,19,21)        -60.0            estimate D2E/DX2                !
 ! D48   D(12,15,19,22)         60.0            estimate D2E/DX2                !
 ! D49   D(18,15,19,20)         60.0            estimate D2E/DX2                !
 ! D50   D(18,15,19,21)        180.0            estimate D2E/DX2                !
 ! D51   D(18,15,19,22)        -60.0            estimate D2E/DX2                !
 ! D52   D(23,15,19,20)        -60.0            estimate D2E/DX2                !
 ! D53   D(23,15,19,21)         60.0            estimate D2E/DX2                !
 ! D54   D(23,15,19,22)       -180.0            estimate D2E/DX2                !
 ! D55   D(12,15,23,24)        -60.0            estimate D2E/DX2                !
 ! D56   D(12,15,23,25)         60.0            estimate D2E/DX2                !
 ! D57   D(12,15,23,26)       -180.0            estimate D2E/DX2                !
 ! D58   D(18,15,23,24)         60.0            estimate D2E/DX2                !
 ! D59   D(18,15,23,25)       -180.0            estimate D2E/DX2                !
 ! D60   D(18,15,23,26)        -60.0            estimate D2E/DX2                !
 ! D61   D(19,15,23,24)        180.0            estimate D2E/DX2                !
 ! D62   D(19,15,23,25)        -60.0            estimate D2E/DX2                !
 ! D63   D(19,15,23,26)         60.0            estimate D2E/DX2                !
 --------------------------------------------------------------------------------
 Trust Radius=3.00D-01 FncErr=1.00D-07 GrdErr=1.00D-06
 Number of steps in this run=    146 maximum allowed number of steps=    156.
 GradGradGradGradGradGradGradGradGradGradGradGradGradGradGradGradGradGrad

                          Input orientation:                          
 ---------------------------------------------------------------------
 Center     Atomic      Atomic             Coordinates (Angstroms)
 Number     Number       Type             X           Y           Z
 ---------------------------------------------------------------------
      1          6           0        0.704283   -0.296533   -0.001624
      2          6           0        1.217593   -1.748461   -0.005708
      3          1           0        1.062700    0.210933   -0.872782
      4          1           0        1.059213    0.204785    0.874507
      5          6           0        2.757590   -1.748495   -0.002636
      6          1           0        0.859176   -2.255927    0.865450
      7          1           0        0.862663   -2.249779   -0.881839
      8          1           0        3.114241   -2.757302   -0.005473
      9          1           0        3.116007   -1.241029   -0.873793
     10          1           0        3.112521   -1.247177    0.873495
     11          6           0       -0.835714   -0.296499   -0.004697
     12          6           0       -1.349024    1.155430   -0.000612
     13          1           0       -1.194131   -0.803964    0.866461
     14          1           0       -1.190644   -0.797817   -0.880827
     15          6           0       -2.889021    1.155464   -0.003685
     16          1           0       -0.994094    1.656748    0.875518
     17          1           0       -0.990608    1.662895   -0.871770
     18          1           0       -3.243952    0.654146   -0.879816
     19          6           0       -3.402332    2.607392    0.000399
     20          1           0       -4.472330    2.607416   -0.001736
     21          1           0       -3.047401    3.108710    0.876530
     22          1           0       -3.043915    3.114858   -0.870758
     23          6           0       -3.404874    0.425093    1.250131
     24          1           0       -3.048223   -0.583715    1.247293
     25          1           0       -3.049943    0.926411    2.126262
     26          1           0       -4.474871    0.425116    1.247996
 ---------------------------------------------------------------------
                    Distance matrix (angstroms):
                    1          2          3          4          5
     1  C    0.000000
     2  C    1.540000   0.000000
     3  H    1.070000   2.148263   0.000000
     4  H    1.070000   2.148263   1.747303   0.000000
     5  C    2.514809   1.540000   2.732978   2.732978   0.000000
     6  H    2.148263   1.070000   3.024610   2.468846   2.148263
     7  H    2.148263   1.070000   2.468846   3.024610   2.148263
     8  H    3.444314   2.148263   3.710993   3.710993   1.070000
     9  H    2.732978   2.148263   2.514809   3.062243   1.070000
    10  H    2.732978   2.148263   3.062243   2.514809   1.070000
    11  C    1.540000   2.514809   2.148263   2.148263   3.875582
    12  C    2.514809   3.875582   2.732978   2.732978   5.029619
    13  H    2.148263   2.732978   3.024610   2.468846   4.154945
    14  H    2.148263   2.732978   2.468846   3.024610   4.154945
    15  C    3.875582   5.029619   4.154945   4.154945   6.349583
    16  H    2.732978   4.154945   3.062243   2.514809   5.142175
    17  H    2.732978   4.154945   2.514809   3.062243   5.142175
    18  H    4.154945   5.142175   4.329403   4.668704   6.523851
    19  C    5.029619   6.349583   5.142175   5.142175   7.544428
    20  H    5.935506   7.165815   6.094128   6.094128   8.440717
    21  H    5.142175   6.523851   5.324484   5.029619   7.619928
    22  H    5.142175   6.523851   5.029619   5.324484   7.619928
    23  C    4.355778   5.260101   4.950943   4.485276   6.653560
    24  H    3.965295   4.596067   4.693172   4.199016   6.051983
    25  H    4.485276   5.469196   5.140039   4.355778   6.739048
    26  H    5.376427   6.220962   5.933655   5.551048   7.654879
                    6          7          8          9         10
     6  H    0.000000
     7  H    1.747303   0.000000
     8  H    2.468846   2.468846   0.000000
     9  H    3.024610   2.468846   1.747303   0.000000
    10  H    2.468846   3.024610   1.747303   1.747303   0.000000
    11  C    2.732978   2.732978   4.653783   4.154945   4.154945
    12  C    4.154945   4.154945   5.935506   5.142175   5.142175
    13  H    2.514809   3.062243   4.810184   4.668704   4.329403
    14  H    3.062243   2.514809   4.810184   4.329403   4.668704
    15  C    5.142175   5.142175   7.165815   6.523851   6.523851
    16  H    4.329403   4.668704   6.094128   5.324484   5.029619
    17  H    4.668704   4.329403   6.094128   5.029619   5.324484
    18  H    5.324484   5.029619   7.268361   6.636324   6.862497
    19  C    6.523851   6.523851   8.440717   7.619928   7.619928
    20  H    7.268361   7.268361   9.291731   8.553003   8.553003
    21  H    6.636324   6.862497   8.553003   7.744125   7.544428
    22  H    6.862497   6.636324   8.553003   7.544428   7.744125
    23  C    5.051531   5.469196   7.362271   7.057542   6.739048
    24  H    4.267302   4.754366   6.653560   6.552007   6.207630
    25  H    5.195973   5.869015   7.490741   7.191458   6.653560
    26  H    5.982174   6.338812   8.324278   8.056021   7.778517
                   11         12         13         14         15
    11  C    0.000000
    12  C    1.540000   0.000000
    13  H    1.070000   2.148263   0.000000
    14  H    1.070000   2.148263   1.747303   0.000000
    15  C    2.514809   1.540000   2.732978   2.732978   0.000000
    16  H    2.148263   1.070000   2.468846   3.024610   2.148263
    17  H    2.148263   1.070000   3.024610   2.468846   2.148263
    18  H    2.732978   2.148263   3.062243   2.514809   1.070000
    19  C    3.875582   2.514809   4.154945   4.154945   1.540000
    20  H    4.653783   3.444314   4.810184   4.810184   2.148263
    21  H    4.154945   2.732978   4.329403   4.668704   2.148263
    22  H    4.154945   2.732978   4.668704   4.329403   2.148263
    23  C    2.948875   2.514809   2.558352   3.307461   1.540000
    24  H    2.558352   2.732978   1.905571   2.832902   2.148263
    25  H    3.307461   2.732978   2.832902   3.933514   2.148263
    26  H    3.915793   3.444314   3.524126   4.100439   2.148263
                   16         17         18         19         20
    16  H    0.000000
    17  H    1.747303   0.000000
    18  H    3.024610   2.468846   0.000000
    19  C    2.732978   2.732978   2.148263   0.000000
    20  H    3.710993   3.710993   2.468846   1.070000   0.000000
    21  H    2.514809   3.062243   3.024610   1.070000   1.747303
    22  H    3.062243   2.514809   2.468846   1.070000   1.747303
    23  C    2.732978   3.444314   2.148263   2.514809   2.732978
    24  H    3.062243   3.710993   2.468846   3.444314   3.710993
    25  H    2.514809   3.710993   3.024610   2.732978   3.062243
    26  H    3.710993   4.262112   2.468846   2.732978   2.514809
                   21         22         23         24         25
    21  H    0.000000
    22  H    1.747303   0.000000
    23  C    2.732978   3.444314   0.000000
    24  H    3.710993   4.262112   1.070000   0.000000
    25  H    2.514809   3.710993   1.070000   1.747303   0.000000
    26  H    3.062243   3.710993   1.070000   1.747303   1.747303
                   26
    26  H    0.000000
 Stoichiometry    C8H18
 Framework group  C1[X(C8H18)]
 Deg. of freedom    72
 Full point group                 C1      NOp   1
 Largest Abelian subgroup         C1      NOp   1
 Largest concise Abelian subgroup C1      NOp   1
                         Standard orientation:                         
 ---------------------------------------------------------------------
 Center     Atomic      Atomic             Coordinates (Angstroms)
 Number     Number       Type             X           Y           Z
 ---------------------------------------------------------------------
      1          6           0       -1.603838   -0.423853    0.151937
      2          6           0       -2.795293    0.462177   -0.256703
      3          1           0       -1.699618   -1.384941   -0.308537
      4          1           0       -1.592330   -0.537635    1.215808
      5          6           0       -4.108035   -0.198803    0.203096
      6          1           0       -2.699514    1.423264    0.203772
      7          1           0       -2.806802    0.575959   -1.320574
      8          1           0       -4.935864    0.416815   -0.080829
      9          1           0       -4.203814   -1.159890   -0.257379
     10          1           0       -4.096527   -0.312585    1.266967
     11          6           0       -0.291096    0.237126   -0.307861
     12          6           0        0.900359   -0.648903    0.100779
     13          1           0       -0.195317    1.198214    0.152614
     14          1           0       -0.302605    0.350908   -1.371732
     15          6           0        2.213101    0.012076   -0.359020
     16          1           0        0.911867   -0.762686    1.164650
     17          1           0        0.804579   -1.609991   -0.359696
     18          1           0        2.201592    0.125858   -1.422891
     19          6           0        3.404555   -0.873954    0.049620
     20          1           0        4.316655   -0.414702   -0.269850
     21          1           0        3.416064   -0.987736    1.113491
     22          1           0        3.308776   -1.835041   -0.410855
     23          6           0        2.350951    1.395323    0.303720
     24          1           0        1.523122    2.010941    0.019794
     25          1           0        2.362460    1.281541    1.367590
     26          1           0        3.263051    1.854575   -0.015751
 ---------------------------------------------------------------------
 Rotational constants (GHZ):      5.7674358      0.6577965      0.6185103
 Standard basis: 6-311+G(d,p) (5D, 7F)
 There are   292 symmetry adapted cartesian basis functions of A   symmetry.
 There are   284 symmetry adapted basis functions of A   symmetry.
   284 basis functions,   432 primitive gaussians,   292 cartesian basis functions
    33 alpha electrons       33 beta electrons
       nuclear repulsion energy       392.0373330670 Hartrees.
 NAtoms=   26 NActive=   26 NUniq=   26 SFac= 1.00D+00 NAtFMM=   60 NAOKFM=F Big=F
 Integral buffers will be    131072 words long.
 Raffenetti 2 integral format.
 Two-electron integral symmetry is turned on.
 One-electron integrals computed using PRISM.
 NBasis=   284 RedAO= T EigKep=  5.86D-06  NBF=   284
 NBsUse=   284 1.00D-06 EigRej= -1.00D+00 NBFU=   284
 ExpMin= 4.38D-02 ExpMax= 4.56D+03 ExpMxC= 6.82D+02 IAcc=2 IRadAn=         4 AccDes= 0.00D+00
 Harris functional with IExCor=  402 and IRadAn=       4 diagonalized for initial guess.
 HarFok:  IExCor=  402 AccDes= 0.00D+00 IRadAn=         4 IDoV= 1 UseB2=F ITyADJ=14
 ICtDFT=  3500011 ScaDFX=  1.000000  1.000000  1.000000  1.000000
 FoFCou: FMM=F IPFlag=           0 FMFlag=      100000 FMFlg1=           0
         NFxFlg=           0 DoJE=T BraDBF=F KetDBF=T FulRan=T
         wScrn=  0.000000 ICntrl=     500 IOpCl=  0 I1Cent=   200000004 NGrid=           0
         NMat0=    1 NMatS0=      1 NMatT0=    0 NMatD0=    1 NMtDS0=    0 NMtDT0=    0
 Petite list used in FoFCou.
 Requested convergence on RMS density matrix=1.00D-08 within 128 cycles.
 Requested convergence on MAX density matrix=1.00D-06.
 Requested convergence on             energy=1.00D-06.
 No special actions if energy rises.
 SCF Done:  E(RB3LYP) =  -315.787632124     A.U. after   11 cycles
            NFock= 11  Conv=0.85D-08     -V/T= 2.0033

 **********************************************************************

            Population analysis using the SCF density.

 **********************************************************************

 Orbital symmetries:
       Occupied  (A) (A) (A) (A) (A) (A) (A) (A) (A) (A) (A) (A)
                 (A) (A) (A) (A) (A) (A) (A) (A) (A) (A) (A) (A)
                 (A) (A) (A) (A) (A) (A) (A) (A) (A)
       Virtual   (A) (A) (A) (A) (A) (A) (A) (A) (A) (A) (A) (A)
                 (A) (A) (A) (A) (A) (A) (A) (A) (A) (A) (A) (A)
                 (A) (A) (A) (A) (A) (A) (A) (A) (A) (A) (A) (A)
                 (A) (A) (A) (A) (A) (A) (A) (A) (A) (A) (A) (A)
                 (A) (A) (A) (A) (A) (A) (A) (A) (A) (A) (A) (A)
                 (A) (A) (A) (A) (A) (A) (A) (A) (A) (A) (A) (A)
                 (A) (A) (A) (A) (A) (A) (A) (A) (A) (A) (A) (A)
                 (A) (A) (A) (A) (A) (A) (A) (A) (A) (A) (A) (A)
                 (A) (A) (A) (A) (A) (A) (A) (A) (A) (A) (A) (A)
                 (A) (A) (A) (A) (A) (A) (A) (A) (A) (A) (A) (A)
                 (A) (A) (A) (A) (A) (A) (A) (A) (A) (A) (A) (A)
                 (A) (A) (A) (A) (A) (A) (A) (A) (A) (A) (A) (A)
                 (A) (A) (A) (A) (A) (A) (A) (A) (A) (A) (A) (A)
                 (A) (A) (A) (A) (A) (A) (A) (A) (A) (A) (A) (A)
                 (A) (A) (A) (A) (A) (A) (A) (A) (A) (A) (A) (A)
                 (A) (A) (A) (A) (A) (A) (A) (A) (A) (A) (A) (A)
                 (A) (A) (A) (A) (A) (A) (A) (A) (A) (A) (A) (A)
                 (A) (A) (A) (A) (A) (A) (A) (A) (A) (A) (A) (A)
                 (A) (A) (A) (A) (A) (A) (A) (A) (A) (A) (A) (A)
                 (A) (A) (A) (A) (A) (A) (A) (A) (A) (A) (A) (A)
                 (A) (A) (A) (A) (A) (A) (A) (A) (A) (A) (A)
 The electronic state is 1-A.
 Alpha  occ. eigenvalues --  -10.16329 -10.15433 -10.15234 -10.15149 -10.15118
 Alpha  occ. eigenvalues --  -10.14606 -10.14491 -10.14483  -0.82044  -0.79109
 Alpha  occ. eigenvalues --   -0.73929  -0.68661  -0.67314  -0.60732  -0.58351
 Alpha  occ. eigenvalues --   -0.56060  -0.48904  -0.46405  -0.44675  -0.43657
 Alpha  occ. eigenvalues --   -0.42094  -0.41526  -0.39106  -0.38703  -0.37644
 Alpha  occ. eigenvalues --   -0.36324  -0.34989  -0.34459  -0.33612  -0.33401
 Alpha  occ. eigenvalues --   -0.32975  -0.31526  -0.28650
 Alpha virt. eigenvalues --    0.00607   0.01489   0.01989   0.02333   0.03220
 Alpha virt. eigenvalues --    0.03900   0.04474   0.05453   0.05485   0.06012
 Alpha virt. eigenvalues --    0.06293   0.07209   0.07983   0.08086   0.08302
 Alpha virt. eigenvalues --    0.09383   0.10356   0.10766   0.11067   0.11522
 Alpha virt. eigenvalues --    0.11788   0.12108   0.14221   0.14787   0.15144
 Alpha virt. eigenvalues --    0.15931   0.16883   0.17580   0.17695   0.18621
 Alpha virt. eigenvalues --    0.19798   0.20269   0.20730   0.20890   0.21102
 Alpha virt. eigenvalues --    0.21519   0.22089   0.22676   0.23197   0.23659
 Alpha virt. eigenvalues --    0.24282   0.24554   0.25121   0.25686   0.26219
 Alpha virt. eigenvalues --    0.26899   0.27011   0.27689   0.27839   0.29074
 Alpha virt. eigenvalues --    0.30054   0.30817   0.31237   0.32693   0.33713
 Alpha virt. eigenvalues --    0.35482   0.37881   0.39230   0.40541   0.41363
 Alpha virt. eigenvalues --    0.42062   0.42518   0.45246   0.47539   0.48509
 Alpha virt. eigenvalues --    0.49886   0.50150   0.51253   0.52386   0.55570
 Alpha virt. eigenvalues --    0.55709   0.57382   0.59534   0.61574   0.62650
 Alpha virt. eigenvalues --    0.63663   0.63766   0.64500   0.65460   0.66423
 Alpha virt. eigenvalues --    0.67098   0.67839   0.68392   0.68903   0.69988
 Alpha virt. eigenvalues --    0.70330   0.70919   0.71699   0.72130   0.73286
 Alpha virt. eigenvalues --    0.74787   0.75670   0.76502   0.77314   0.78727
 Alpha virt. eigenvalues --    0.79194   0.80788   0.81326   0.81465   0.85268
 Alpha virt. eigenvalues --    0.92538   0.93740   0.96582   0.98811   1.00842
 Alpha virt. eigenvalues --    1.01619   1.02517   1.06185   1.09796   1.12305
 Alpha virt. eigenvalues --    1.13912   1.19617   1.20727   1.25087   1.25983
 Alpha virt. eigenvalues --    1.26738   1.28490   1.32949   1.43191   1.44334
 Alpha virt. eigenvalues --    1.44775   1.46463   1.46965   1.47758   1.49000
 Alpha virt. eigenvalues --    1.49706   1.53184   1.53688   1.54565   1.55827
 Alpha virt. eigenvalues --    1.56712   1.57085   1.58344   1.59331   1.60519
 Alpha virt. eigenvalues --    1.61705   1.62459   1.63037   1.63708   1.64693
 Alpha virt. eigenvalues --    1.67467   1.67996   1.69727   1.72255   1.73090
 Alpha virt. eigenvalues --    1.74459   1.74896   1.75818   1.76381   1.77550
 Alpha virt. eigenvalues --    1.79816   1.82299   1.83163   1.83898   1.85672
 Alpha virt. eigenvalues --    1.87483   1.91664   1.93102   1.99108   2.00105
 Alpha virt. eigenvalues --    2.02396   2.04487   2.06978   2.09216   2.11482
 Alpha virt. eigenvalues --    2.12535   2.13921   2.15472   2.18393   2.19706
 Alpha virt. eigenvalues --    2.21461   2.25210   2.26602   2.30031   2.32875
 Alpha virt. eigenvalues --    2.33685   2.37430   2.39135   2.40428   2.42962
 Alpha virt. eigenvalues --    2.45374   2.46684   2.49025   2.50708   2.50981
 Alpha virt. eigenvalues --    2.53634   2.54125   2.54675   2.55528   2.56607
 Alpha virt. eigenvalues --    2.58159   2.58947   2.59173   2.59831   2.60570
 Alpha virt. eigenvalues --    2.62726   2.63502   2.64920   2.65423   2.66203
 Alpha virt. eigenvalues --    2.68556   2.70025   2.71025   2.73120   2.74056
 Alpha virt. eigenvalues --    2.74694   2.76502   2.77240   2.78499   2.82164
 Alpha virt. eigenvalues --    2.83894   2.86119   2.88074   2.91630   2.93043
 Alpha virt. eigenvalues --    2.94806   2.96909   2.99564   3.00755   3.03103
 Alpha virt. eigenvalues --    3.04816   3.13469   3.17435   3.31426   3.41437
 Alpha virt. eigenvalues --    3.50295   3.83858   3.84906   3.85698   3.87481
 Alpha virt. eigenvalues --    3.87966   3.88045   3.90522   3.91803   3.92892
 Alpha virt. eigenvalues --    3.94853   4.08541   4.13682   4.19198   4.27370
 Alpha virt. eigenvalues --    4.29454   4.33779   4.34428  23.86441  23.91335
 Alpha virt. eigenvalues --   23.93425  23.97194  23.97288  24.03383  24.03864
 Alpha virt. eigenvalues --   24.04294
          Condensed to atoms (all electrons):
               1          2          3          4          5          6
     1  C    5.772040  -0.005583   0.505156   0.485363   0.023981  -0.029634
     2  C   -0.005583   5.455788  -0.086465  -0.072411   0.158207   0.429885
     3  H    0.505156  -0.086465   0.564667  -0.039074   0.006347   0.008565
     4  H    0.485363  -0.072411  -0.039074   0.566178   0.005668  -0.008494
     5  C    0.023981   0.158207   0.006347   0.005668   5.360967  -0.045838
     6  H   -0.029634   0.429885   0.008565  -0.008494  -0.045838   0.570853
     7  H   -0.047303   0.432779  -0.008206   0.008566  -0.053954  -0.036532
     8  H    0.039682  -0.066292   0.000050   0.000050   0.394121  -0.004928
     9  H   -0.024042  -0.026056   0.004308  -0.001113   0.423475   0.008766
    10  H   -0.027624  -0.021858  -0.001109   0.004362   0.416974  -0.008841
    11  C   -0.168927   0.137705  -0.093788  -0.080003  -0.062774  -0.022859
    12  C    0.008121  -0.090502  -0.004681  -0.006347  -0.061668   0.000413
    13  H   -0.049228  -0.011028   0.008880  -0.007852   0.003834   0.004084
    14  H   -0.075188   0.006866  -0.008278   0.008701   0.003087  -0.001017
    15  C   -0.055784  -0.030205   0.003542  -0.007768   0.001384   0.000409
    16  H   -0.018256   0.004552  -0.000500   0.003281  -0.000644   0.000031
    17  H   -0.001615  -0.000962   0.002781  -0.000383   0.001195  -0.000040
    18  H   -0.001485   0.000880   0.000039  -0.000021  -0.000081   0.000007
    19  C   -0.043057  -0.000775   0.000283  -0.000789  -0.000845  -0.000086
    20  H    0.001927   0.000099   0.000000   0.000002   0.000006   0.000000
    21  H   -0.000459  -0.000162   0.000002  -0.000014  -0.000009   0.000000
    22  H   -0.001849  -0.000043  -0.000006   0.000008   0.000006   0.000000
    23  C    0.020389  -0.001982  -0.001594   0.003950   0.000146  -0.000087
    24  H    0.003579  -0.001726  -0.000071   0.000131  -0.000153  -0.000121
    25  H   -0.007117   0.000096   0.000014  -0.000033  -0.000023   0.000003
    26  H   -0.000173   0.000464   0.000007  -0.000006   0.000012   0.000002
               7          8          9         10         11         12
     1  C   -0.047303   0.039682  -0.024042  -0.027624  -0.168927   0.008121
     2  C    0.432779  -0.066292  -0.026056  -0.021858   0.137705  -0.090502
     3  H   -0.008206   0.000050   0.004308  -0.001109  -0.093788  -0.004681
     4  H    0.008566   0.000050  -0.001113   0.004362  -0.080003  -0.006347
     5  C   -0.053954   0.394121   0.423475   0.416974  -0.062774  -0.061668
     6  H   -0.036532  -0.004928   0.008766  -0.008841  -0.022859   0.000413
     7  H    0.569926  -0.004913  -0.008740   0.008776  -0.005055   0.006332
     8  H   -0.004913   0.554100  -0.026685  -0.026688   0.006696   0.001748
     9  H   -0.008740  -0.026685   0.560649  -0.034106  -0.004512  -0.000890
    10  H    0.008776  -0.026688  -0.034106   0.560993  -0.000140   0.000496
    11  C   -0.005055   0.006696  -0.004512  -0.000140   5.821589  -0.338534
    12  C    0.006332   0.001748  -0.000890   0.000496  -0.338534   6.381418
    13  H   -0.000836  -0.000008  -0.000008  -0.000008   0.452082  -0.056508
    14  H    0.003904  -0.000010  -0.000008  -0.000012   0.482541  -0.080641
    15  C   -0.001617   0.000136  -0.000189  -0.000270   0.085284  -0.115053
    16  H   -0.000035   0.000001   0.000005  -0.000024  -0.094598   0.519722
    17  H    0.000059   0.000001  -0.000024   0.000005  -0.041029   0.402870
    18  H   -0.000022   0.000000   0.000000   0.000000  -0.018470  -0.021613
    19  C   -0.000039   0.000008  -0.000024  -0.000005  -0.134720   0.155937
    20  H    0.000000   0.000000   0.000000   0.000000   0.001670   0.054074
    21  H    0.000000   0.000000   0.000000   0.000000   0.000745  -0.044854
    22  H    0.000000   0.000000   0.000000   0.000000   0.007618  -0.041798
    23  C    0.000901   0.000000   0.000018   0.000031   0.096917  -0.207641
    24  H    0.000047   0.000000   0.000000   0.000000   0.003623  -0.030736
    25  H   -0.000003   0.000000   0.000000   0.000000  -0.013207  -0.014024
    26  H    0.000000   0.000000   0.000000   0.000000   0.014699   0.023923
              13         14         15         16         17         18
     1  C   -0.049228  -0.075188  -0.055784  -0.018256  -0.001615  -0.001485
     2  C   -0.011028   0.006866  -0.030205   0.004552  -0.000962   0.000880
     3  H    0.008880  -0.008278   0.003542  -0.000500   0.002781   0.000039
     4  H   -0.007852   0.008701  -0.007768   0.003281  -0.000383  -0.000021
     5  C    0.003834   0.003087   0.001384  -0.000644   0.001195  -0.000081
     6  H    0.004084  -0.001017   0.000409   0.000031  -0.000040   0.000007
     7  H   -0.000836   0.003904  -0.001617  -0.000035   0.000059  -0.000022
     8  H   -0.000008  -0.000010   0.000136   0.000001   0.000001   0.000000
     9  H   -0.000008  -0.000008  -0.000189   0.000005  -0.000024   0.000000
    10  H   -0.000008  -0.000012  -0.000270  -0.000024   0.000005   0.000000
    11  C    0.452082   0.482541   0.085284  -0.094598  -0.041029  -0.018470
    12  C   -0.056508  -0.080641  -0.115053   0.519722   0.402870  -0.021613
    13  H    0.578644  -0.037443  -0.023101  -0.006094   0.007998   0.000041
    14  H   -0.037443   0.559537  -0.003246   0.007508  -0.007133   0.002723
    15  C   -0.023101  -0.003246   5.291689  -0.054829  -0.035449   0.437931
    16  H   -0.006094   0.007508  -0.054829   0.539831  -0.034580   0.007460
    17  H    0.007998  -0.007133  -0.035449  -0.034580   0.558693  -0.007736
    18  H    0.000041   0.002723   0.437931   0.007460  -0.007736   0.566850
    19  C    0.005139  -0.000289   0.105617   0.003427  -0.002391  -0.028309
    20  H   -0.000015  -0.000010  -0.096369  -0.000097   0.000121  -0.006567
    21  H    0.000044  -0.000024   0.035077   0.002493  -0.001132   0.008250
    22  H   -0.000014  -0.000006  -0.022595  -0.000728   0.004281  -0.007432
    23  C    0.001702   0.000084   0.343149  -0.025284   0.014423  -0.054291
    24  H    0.001265   0.000084  -0.027697   0.000035  -0.000076  -0.005879
    25  H    0.000496   0.000063   0.001684   0.002678  -0.000109   0.007379
    26  H    0.000627  -0.000237  -0.073452  -0.000265  -0.000363  -0.005975
              19         20         21         22         23         24
     1  C   -0.043057   0.001927  -0.000459  -0.001849   0.020389   0.003579
     2  C   -0.000775   0.000099  -0.000162  -0.000043  -0.001982  -0.001726
     3  H    0.000283   0.000000   0.000002  -0.000006  -0.001594  -0.000071
     4  H   -0.000789   0.000002  -0.000014   0.000008   0.003950   0.000131
     5  C   -0.000845   0.000006  -0.000009   0.000006   0.000146  -0.000153
     6  H   -0.000086   0.000000   0.000000   0.000000  -0.000087  -0.000121
     7  H   -0.000039   0.000000   0.000000   0.000000   0.000901   0.000047
     8  H    0.000008   0.000000   0.000000   0.000000   0.000000   0.000000
     9  H   -0.000024   0.000000   0.000000   0.000000   0.000018   0.000000
    10  H   -0.000005   0.000000   0.000000   0.000000   0.000031   0.000000
    11  C   -0.134720   0.001670   0.000745   0.007618   0.096917   0.003623
    12  C    0.155937   0.054074  -0.044854  -0.041798  -0.207641  -0.030736
    13  H    0.005139  -0.000015   0.000044  -0.000014   0.001702   0.001265
    14  H   -0.000289  -0.000010  -0.000024  -0.000006   0.000084   0.000084
    15  C    0.105617  -0.096369   0.035077  -0.022595   0.343149  -0.027697
    16  H    0.003427  -0.000097   0.002493  -0.000728  -0.025284   0.000035
    17  H   -0.002391   0.000121  -0.001132   0.004281   0.014423  -0.000076
    18  H   -0.028309  -0.006567   0.008250  -0.007432  -0.054291  -0.005879
    19  C    5.493062   0.423388   0.396637   0.408335  -0.201520   0.003534
    20  H    0.423388   0.555505  -0.030501  -0.024113  -0.013019   0.000280
    21  H    0.396637  -0.030501   0.548012  -0.031240  -0.018130  -0.000192
    22  H    0.408335  -0.024113  -0.031240   0.555170   0.024710  -0.000560
    23  C   -0.201520  -0.013019  -0.018130   0.024710   5.282299   0.424277
    24  H    0.003534   0.000280  -0.000192  -0.000560   0.424277   0.556601
    25  H    0.007345  -0.000911   0.003170  -0.000261   0.395391  -0.029729
    26  H   -0.010064   0.004397  -0.000952   0.000182   0.422549  -0.026175
              25         26
     1  C   -0.007117  -0.000173
     2  C    0.000096   0.000464
     3  H    0.000014   0.000007
     4  H   -0.000033  -0.000006
     5  C   -0.000023   0.000012
     6  H    0.000003   0.000002
     7  H   -0.000003   0.000000
     8  H    0.000000   0.000000
     9  H    0.000000   0.000000
    10  H    0.000000   0.000000
    11  C   -0.013207   0.014699
    12  C   -0.014024   0.023923
    13  H    0.000496   0.000627
    14  H    0.000063  -0.000237
    15  C    0.001684  -0.073452
    16  H    0.002678  -0.000265
    17  H   -0.000109  -0.000363
    18  H    0.007379  -0.005975
    19  C    0.007345  -0.010064
    20  H   -0.000911   0.004397
    21  H    0.003170  -0.000952
    22  H   -0.000261   0.000182
    23  C    0.395391   0.422549
    24  H   -0.029729  -0.026175
    25  H    0.539094  -0.026979
    26  H   -0.026979   0.548262
 Mulliken charges:
               1
     1  C   -0.302916
     2  C   -0.211271
     3  H    0.139127
     4  H    0.138045
     5  C   -0.573420
     6  H    0.135459
     7  H    0.135964
     8  H    0.132931
     9  H    0.129175
    10  H    0.129047
    11  C   -0.032554
    12  C   -0.439564
    13  H    0.127308
    14  H    0.138445
    15  C    0.241722
    16  H    0.144910
    17  H    0.140595
    18  H    0.126322
    19  C   -0.579800
    20  H    0.130134
    21  H    0.133239
    22  H    0.130335
    23  C   -0.507388
    24  H    0.129659
    25  H    0.134982
    26  H    0.129516
 Sum of Mulliken charges =   0.00000
 Mulliken charges with hydrogens summed into heavy atoms:
               1
     1  C   -0.025744
     2  C    0.060152
     5  C   -0.182267
    11  C    0.233198
    12  C   -0.154060
    15  C    0.368044
    19  C   -0.186092
    23  C   -0.113231
 Electronic spatial extent (au):  <R**2>=           1945.5692
 Charge=              0.0000 electrons
 Dipole moment (field-independent basis, Debye):
    X=             -0.0239    Y=              0.0458    Z=             -0.1551  Tot=              0.1635
 Quadrupole moment (field-independent basis, Debye-Ang):
   XX=            -58.4461   YY=            -56.3292   ZZ=            -54.5943
   XY=             -0.0642   XZ=             -0.1216   YZ=              0.5132
 Traceless Quadrupole moment (field-independent basis, Debye-Ang):
   XX=             -1.9896   YY=              0.1273   ZZ=              1.8622
   XY=             -0.0642   XZ=             -0.1216   YZ=              0.5132
 Octapole moment (field-independent basis, Debye-Ang**2):
  XXX=              4.4715  YYY=             -1.3992  ZZZ=              0.4626  XYY=             -2.5180
  XXY=              4.7157  XXZ=             -3.8271  XZZ=             -0.2834  YZZ=             -0.4930
  YYZ=             -1.7591  XYZ=             -1.3356
 Hexadecapole moment (field-independent basis, Debye-Ang**3):
 XXXX=          -2408.4456 YYYY=           -298.9125 ZZZZ=           -135.1882 XXXY=              2.8237
 XXXZ=              0.4714 YYYX=             -3.4096 YYYZ=              3.8004 ZZZX=              0.4637
 ZZZY=             -0.6666 XXYY=           -444.3395 XXZZ=           -408.9996 YYZZ=            -74.2922
 XXYZ=              0.6641 YYXZ=             -2.2912 ZZXY=             -0.6504
 N-N= 3.920373330670D+02 E-N=-1.514752587825D+03  KE= 3.147609770515D+02
 There are a total of      215042 grid points.
 ElSum from          density=       66.0000403095
 ElSum from atomic densities=       66.0001406091

 Hirshfeld populations at iteration   1 (CX, CA, CB, DipXYZ):
               1          2          3          4          5          6
     1  C    0.000000   3.029767   3.029767   0.000391   0.008025  -0.004040
     2  C    0.000000   3.029102   3.029102  -0.005873  -0.008853   0.005445
     3  H    0.000000   0.484555   0.484555  -0.012748  -0.123882  -0.068826
     4  H    0.000000   0.484358   0.484358   0.001993  -0.006662   0.142335
     5  C    0.000000   3.051974   3.051974   0.015461   0.007999  -0.005482
     6  H    0.000000   0.484450   0.484450   0.008570   0.126188   0.068702
     7  H    0.000000   0.484474   0.484474  -0.006555   0.008236  -0.143356
     8  H    0.000000   0.484305   0.484305  -0.106476   0.090225  -0.042635
     9  H    0.000000   0.483781   0.483781  -0.010059  -0.128341  -0.067346
    10  H    0.000000   0.483775   0.483775   0.004876  -0.010385   0.144847
    11  C    0.000000   3.029938   3.029938  -0.000896  -0.008618   0.003001
    12  C    0.000000   3.030384   3.030384  -0.003231   0.006488  -0.004278
    13  H    0.000000   0.484168   0.484168   0.005643   0.123228   0.066805
    14  H    0.000000   0.484287   0.484287  -0.002807   0.007418  -0.142572
    15  C    0.000000   3.008624   3.008624   0.003420   0.002450   0.001383
    16  H    0.000000   0.484496   0.484496  -0.000317  -0.011545   0.140015
    17  H    0.000000   0.484614   0.484614  -0.011983  -0.124377  -0.068777
    18  H    0.000000   0.484628   0.484628   0.002895   0.013859  -0.142034
    19  C    0.000000   3.052470   3.052470  -0.010150   0.006775  -0.004789
    20  H    0.000000   0.484348   0.484348   0.119505   0.065687  -0.048132
    21  H    0.000000   0.483793   0.483793   0.000965  -0.015055   0.142846
    22  H    0.000000   0.484079   0.484079  -0.016315  -0.127541  -0.067125
    23  C    0.000000   3.052190   3.052190  -0.000039  -0.012378  -0.006240
    24  H    0.000000   0.484036   0.484036  -0.105773   0.084728  -0.042037
    25  H    0.000000   0.483511   0.483511   0.001390  -0.015435   0.143236
    26  H    0.000000   0.483912   0.483912   0.123805   0.059150  -0.049239
       Tot   0.000004  33.000020  33.000020  -0.004310   0.017384  -0.048291

 Dip from Atomic Chgs             -0.005307   0.000583  -0.012753
         Total Dipole             -0.009617   0.017967  -0.061044

 Hirshfeld charges, spin densities, dipoles, and CM5 charges using IRadAn=      4:
              Q-H        S-H        Dx         Dy         Dz        Q-CM5   
     1  C   -0.059533   0.000000   0.000391   0.008025  -0.004040  -0.177374
     2  C   -0.058204   0.000000  -0.005873  -0.008853   0.005445  -0.177728
     3  H    0.030891   0.000000  -0.012748  -0.123882  -0.068826   0.089730
     4  H    0.031284   0.000000   0.001993  -0.006662   0.142335   0.090131
     5  C   -0.103948   0.000000   0.015461   0.007999  -0.005482  -0.263211
     6  H    0.031099   0.000000   0.008570   0.126188   0.068702   0.089118
     7  H    0.031051   0.000000  -0.006555   0.008236  -0.143356   0.089068
     8  H    0.031390   0.000000  -0.106476   0.090225  -0.042635   0.085223
     9  H    0.032438   0.000000  -0.010059  -0.128341  -0.067346   0.086970
    10  H    0.032450   0.000000   0.004876  -0.010385   0.144847   0.086981
    11  C   -0.059876   0.000000  -0.000896  -0.008618   0.003001  -0.178293
    12  C   -0.060769   0.000000  -0.003231   0.006488  -0.004278  -0.176880
    13  H    0.031663   0.000000   0.005643   0.123228   0.066805   0.091785
    14  H    0.031426   0.000000  -0.002807   0.007418  -0.142572   0.090483
    15  C   -0.017249   0.000000   0.003420   0.002450   0.001383  -0.097020
    16  H    0.031009   0.000000  -0.000317  -0.011545   0.140015   0.090665
    17  H    0.030772   0.000000  -0.011983  -0.124377  -0.068777   0.089749
    18  H    0.030745   0.000000   0.002895   0.013859  -0.142034   0.092246
    19  C   -0.104940   0.000000  -0.010150   0.006775  -0.004789  -0.262500
    20  H    0.031304   0.000000   0.119505   0.065687  -0.048132   0.085958
    21  H    0.032414   0.000000   0.000965  -0.015055   0.142846   0.087765
    22  H    0.031842   0.000000  -0.016315  -0.127541  -0.067125   0.086515
    23  C   -0.104381   0.000000  -0.000039  -0.012378  -0.006240  -0.262687
    24  H    0.031928   0.000000  -0.105773   0.084728  -0.042037   0.087884
    25  H    0.032978   0.000000   0.001390  -0.015435   0.143236   0.088513
    26  H    0.032176   0.000000   0.123805   0.059150  -0.049239   0.086867
       Tot  -0.000040   0.000000  -0.004310   0.017384  -0.048291  -0.000040
 Hirshfeld charges with hydrogens summed into heavy atoms:
              Q-H       Q-CM5   
     1  C    0.002641   0.002488
     2  C    0.003946   0.000458
     5  C   -0.007670  -0.004037
    11  C    0.003213   0.003975
    12  C    0.001012   0.003535
    15  C    0.013496  -0.004774
    19  C   -0.009380  -0.002262
    23  C   -0.007299   0.000577
 
 EQQ= 0.000000000000E+00 EQD= 0.000000000000E+00 EDD=-0.234320142924E-02
 EQQ+QD+DD=-0.234320142924E-02
 
          MBS Condensed to atoms (all electrons):
               1          2          3          4          5          6
     1  C    4.815423   0.366916   0.380877   0.381011  -0.025451  -0.024177
     2  C    0.366916   4.802346  -0.024030  -0.023959   0.363993   0.382149
     3  H    0.380877  -0.024030   0.616989  -0.025537  -0.002492   0.002396
     4  H    0.381011  -0.023959  -0.025537   0.616545  -0.002495  -0.002721
     5  C   -0.025451   0.363993  -0.002492  -0.002495   4.837837  -0.023532
     6  H   -0.024177   0.382149   0.002396  -0.002721  -0.023532   0.614228
     7  H   -0.024171   0.382185  -0.002717   0.002393  -0.023531  -0.025387
     8  H    0.001606  -0.021513   0.000015   0.000015   0.381625  -0.002237
     9  H   -0.002805  -0.023146   0.001300  -0.000058   0.383167   0.002367
    10  H   -0.002805  -0.023149  -0.000058   0.001299   0.383166  -0.002679
    11  C    0.364757  -0.024278  -0.023811  -0.023809   0.000894  -0.002513
    12  C   -0.023842   0.000872  -0.002581  -0.002556  -0.000008   0.000007
    13  H   -0.023538  -0.002546   0.002347  -0.002746   0.000009   0.001182
    14  H   -0.023689  -0.002550  -0.002746   0.002378   0.000008  -0.000042
    15  C    0.000849  -0.000008   0.000008   0.000009   0.000000   0.000000
    16  H   -0.002576   0.000009  -0.000045   0.001186   0.000000   0.000003
    17  H   -0.002616   0.000010   0.001175  -0.000041   0.000000   0.000000
    18  H    0.000004   0.000000   0.000004   0.000000   0.000000   0.000000
    19  C   -0.000007   0.000000  -0.000001   0.000000   0.000000   0.000000
    20  H    0.000000   0.000000   0.000000   0.000000   0.000000   0.000000
    21  H    0.000000   0.000000   0.000000   0.000000   0.000000   0.000000
    22  H   -0.000001   0.000000   0.000000   0.000000   0.000000   0.000000
    23  C    0.000055   0.000000  -0.000002   0.000002   0.000000  -0.000001
    24  H   -0.000016   0.000003   0.000000   0.000005   0.000000  -0.000001
    25  H   -0.000008   0.000000   0.000000   0.000001   0.000000   0.000000
    26  H    0.000000   0.000000   0.000000   0.000000   0.000000   0.000000
               7          8          9         10         11         12
     1  C   -0.024171   0.001606  -0.002805  -0.002805   0.364757  -0.023842
     2  C    0.382185  -0.021513  -0.023146  -0.023149  -0.024278   0.000872
     3  H   -0.002717   0.000015   0.001300  -0.000058  -0.023811  -0.002581
     4  H    0.002393   0.000015  -0.000058   0.001299  -0.023809  -0.002556
     5  C   -0.023531   0.381625   0.383167   0.383166   0.000894  -0.000008
     6  H   -0.025387  -0.002237   0.002367  -0.002679  -0.002513   0.000007
     7  H    0.614149  -0.002237  -0.002680   0.002367  -0.002525   0.000007
     8  H   -0.002237   0.601791  -0.023116  -0.023115  -0.000028   0.000000
     9  H   -0.002680  -0.023116   0.601441  -0.023698   0.000009   0.000000
    10  H    0.002367  -0.023115  -0.023698   0.601464   0.000010   0.000000
    11  C   -0.002525  -0.000028   0.000009   0.000010   4.822493   0.365416
    12  C    0.000007   0.000000   0.000000   0.000000   0.365416   4.828686
    13  H   -0.000046   0.000000   0.000000   0.000003   0.382749  -0.023564
    14  H    0.001189   0.000000   0.000003   0.000000   0.380834  -0.024013
    15  C    0.000000   0.000000   0.000000   0.000000  -0.022982   0.366155
    16  H    0.000000   0.000000   0.000000   0.000000  -0.024049   0.379400
    17  H    0.000003   0.000000   0.000000   0.000000  -0.023726   0.379977
    18  H    0.000000   0.000000   0.000000   0.000000  -0.002670  -0.025293
    19  C    0.000000   0.000000   0.000000   0.000000   0.000858  -0.025811
    20  H    0.000000   0.000000   0.000000   0.000000  -0.000029   0.001620
    21  H    0.000000   0.000000   0.000000   0.000000   0.000009  -0.002880
    22  H    0.000000   0.000000   0.000000   0.000000   0.000011  -0.002507
    23  C    0.000000   0.000000   0.000000   0.000000  -0.005878  -0.025424
    24  H    0.000000   0.000000   0.000000   0.000000  -0.002597  -0.002745
    25  H    0.000000   0.000000   0.000000   0.000000  -0.000058  -0.002822
    26  H    0.000000   0.000000   0.000000   0.000000   0.000134   0.001586
              13         14         15         16         17         18
     1  C   -0.023538  -0.023689   0.000849  -0.002576  -0.002616   0.000004
     2  C   -0.002546  -0.002550  -0.000008   0.000009   0.000010   0.000000
     3  H    0.002347  -0.002746   0.000008  -0.000045   0.001175   0.000004
     4  H   -0.002746   0.002378   0.000009   0.001186  -0.000041   0.000000
     5  C    0.000009   0.000008   0.000000   0.000000   0.000000   0.000000
     6  H    0.001182  -0.000042   0.000000   0.000003   0.000000   0.000000
     7  H   -0.000046   0.001189   0.000000   0.000000   0.000003   0.000000
     8  H    0.000000   0.000000   0.000000   0.000000   0.000000   0.000000
     9  H    0.000000   0.000003   0.000000   0.000000   0.000000   0.000000
    10  H    0.000003   0.000000   0.000000   0.000000   0.000000   0.000000
    11  C    0.382749   0.380834  -0.022982  -0.024049  -0.023726  -0.002670
    12  C   -0.023564  -0.024013   0.366155   0.379400   0.379977  -0.025293
    13  H    0.613531  -0.025739  -0.002802  -0.002645   0.002345   0.000047
    14  H   -0.025739   0.617536  -0.002578   0.002393  -0.002699   0.001259
    15  C   -0.002802  -0.002578   4.771528  -0.024420  -0.023030   0.380369
    16  H   -0.002645   0.002393  -0.024420   0.618446  -0.025096   0.002421
    17  H    0.002345  -0.002699  -0.023030  -0.025096   0.617370  -0.002281
    18  H    0.000047   0.001259   0.380369   0.002421  -0.002281   0.622915
    19  C    0.000013   0.000013   0.366246  -0.002552  -0.002581  -0.024706
    20  H    0.000000   0.000000  -0.022032   0.000013   0.000014  -0.002286
    21  H    0.000003   0.000000  -0.023552   0.001306  -0.000046   0.002386
    22  H    0.000000   0.000002  -0.022144  -0.000051   0.001176  -0.002235
    23  C   -0.002692  -0.000008   0.367855  -0.002924   0.001569  -0.025223
    24  H    0.001196   0.000163  -0.021757   0.000020   0.000022  -0.002192
    25  H    0.000191   0.000027  -0.023819   0.001479   0.000025   0.002413
    26  H   -0.000008  -0.000017  -0.021898   0.000009  -0.000056  -0.002249
              19         20         21         22         23         24
     1  C   -0.000007   0.000000   0.000000  -0.000001   0.000055  -0.000016
     2  C    0.000000   0.000000   0.000000   0.000000   0.000000   0.000003
     3  H   -0.000001   0.000000   0.000000   0.000000  -0.000002   0.000000
     4  H    0.000000   0.000000   0.000000   0.000000   0.000002   0.000005
     5  C    0.000000   0.000000   0.000000   0.000000   0.000000   0.000000
     6  H    0.000000   0.000000   0.000000   0.000000  -0.000001  -0.000001
     7  H    0.000000   0.000000   0.000000   0.000000   0.000000   0.000000
     8  H    0.000000   0.000000   0.000000   0.000000   0.000000   0.000000
     9  H    0.000000   0.000000   0.000000   0.000000   0.000000   0.000000
    10  H    0.000000   0.000000   0.000000   0.000000   0.000000   0.000000
    11  C    0.000858  -0.000029   0.000009   0.000011  -0.005878  -0.002597
    12  C   -0.025811   0.001620  -0.002880  -0.002507  -0.025424  -0.002745
    13  H    0.000013   0.000000   0.000003   0.000000  -0.002692   0.001196
    14  H    0.000013   0.000000   0.000000   0.000002  -0.000008   0.000163
    15  C    0.366246  -0.022032  -0.023552  -0.022144   0.367855  -0.021757
    16  H   -0.002552   0.000013   0.001306  -0.000051  -0.002924   0.000020
    17  H   -0.002581   0.000014  -0.000046   0.001176   0.001569   0.000022
    18  H   -0.024706  -0.002286   0.002386  -0.002235  -0.025223  -0.002192
    19  C    4.849997   0.380685   0.381684   0.381016  -0.026709   0.001631
    20  H    0.380685   0.604117  -0.023267  -0.022875  -0.002517   0.000017
    21  H    0.381684  -0.023267   0.602911  -0.023207  -0.002809   0.000018
    22  H    0.381016  -0.022875  -0.023207   0.603354   0.001657  -0.000067
    23  C   -0.026709  -0.002517  -0.002809   0.001657   4.855323   0.382260
    24  H    0.001631   0.000017   0.000018  -0.000067   0.382260   0.600373
    25  H   -0.002810  -0.000066   0.001424   0.000018   0.381058  -0.023422
    26  H   -0.002585   0.001084  -0.000058   0.000019   0.380976  -0.022584
              25         26
     1  C   -0.000008   0.000000
     2  C    0.000000   0.000000
     3  H    0.000000   0.000000
     4  H    0.000001   0.000000
     5  C    0.000000   0.000000
     6  H    0.000000   0.000000
     7  H    0.000000   0.000000
     8  H    0.000000   0.000000
     9  H    0.000000   0.000000
    10  H    0.000000   0.000000
    11  C   -0.000058   0.000134
    12  C   -0.002822   0.001586
    13  H    0.000191  -0.000008
    14  H    0.000027  -0.000017
    15  C   -0.023819  -0.021898
    16  H    0.001479   0.000009
    17  H    0.000025  -0.000056
    18  H    0.002413  -0.002249
    19  C   -0.002810  -0.002585
    20  H   -0.000066   0.001084
    21  H    0.001424  -0.000058
    22  H    0.000018   0.000019
    23  C    0.381058   0.380976
    24  H   -0.023422  -0.022584
    25  H    0.604634  -0.023006
    26  H   -0.023006   0.602369
 MBS Mulliken charges:
               1
     1  C   -0.155797
     2  C   -0.153305
     3  H    0.078910
     4  H    0.079079
     5  C   -0.273190
     6  H    0.080958
     7  H    0.081000
     8  H    0.087192
     9  H    0.087216
    10  H    0.087195
    11  C   -0.159220
    12  C   -0.159683
    13  H    0.082709
    14  H    0.078274
    15  C   -0.041997
    16  H    0.077673
    17  H    0.078487
    18  H    0.077317
    19  C   -0.274380
    20  H    0.085521
    21  H    0.086078
    22  H    0.085834
    23  C   -0.276566
    24  H    0.089672
    25  H    0.084740
    26  H    0.086284
 Sum of MBS Mulliken charges =   0.00000
 MBS Mulliken charges with hydrogens summed into heavy atoms:
               1
     1  C    0.002192
     2  C    0.008653
     5  C   -0.011587
    11  C    0.001762
    12  C   -0.003523
    15  C    0.035319
    19  C   -0.016946
    23  C   -0.015870
 Breneman (CHELPG) radii used.
 Generate Potential Derived Charges using the Breneman model, NDens= 1.
 Grid spacing= 0.300 Box extension= 2.800
 NStep X,Y,Z=   51     32     29   Total possible points=       47328
 Number of Points to Fit=   14891

 **********************************************************************

            Electrostatic Properties Using The SCF Density

 **********************************************************************

       Atomic Center    1 is at  -1.603838 -0.423853  0.151937
       Atomic Center    2 is at  -2.795293  0.462177 -0.256703
       Atomic Center    3 is at  -1.699618 -1.384941 -0.308537
       Atomic Center    4 is at  -1.592330 -0.537635  1.215808
       Atomic Center    5 is at  -4.108035 -0.198803  0.203096
       Atomic Center    6 is at  -2.699514  1.423264  0.203772
       Atomic Center    7 is at  -2.806802  0.575959 -1.320574
       Atomic Center    8 is at  -4.935864  0.416815 -0.080829
       Atomic Center    9 is at  -4.203814 -1.159890 -0.257379
       Atomic Center   10 is at  -4.096527 -0.312585  1.266967
       Atomic Center   11 is at  -0.291096  0.237126 -0.307861
       Atomic Center   12 is at   0.900359 -0.648903  0.100779
       Atomic Center   13 is at  -0.195317  1.198214  0.152614
       Atomic Center   14 is at  -0.302605  0.350908 -1.371732
       Atomic Center   15 is at   2.213101  0.012076 -0.359020
       Atomic Center   16 is at   0.911867 -0.762686  1.164650
       Atomic Center   17 is at   0.804579 -1.609991 -0.359696
       Atomic Center   18 is at   2.201592  0.125858 -1.422891
       Atomic Center   19 is at   3.404555 -0.873954  0.049620
       Atomic Center   20 is at   4.316655 -0.414702 -0.269850
       Atomic Center   21 is at   3.416064 -0.987736  1.113491
       Atomic Center   22 is at   3.308776 -1.835041 -0.410855
       Atomic Center   23 is at   2.350951  1.395323  0.303720
       Atomic Center   24 is at   1.523122  2.010941  0.019794
       Atomic Center   25 is at   2.362460  1.281541  1.367590
       Atomic Center   26 is at   3.263051  1.854575 -0.015751
   14891 points will be used for fitting atomic charges
 Fitting point charges to electrostatic potential
 Charges from ESP fit, RMS=   0.00196 RRMS=   0.65375:
 ESP charges:
               1
     1  C    0.010644
     2  C    0.216636
     3  H    0.000487
     4  H   -0.006712
     5  C   -0.189974
     6  H   -0.054949
     7  H   -0.050717
     8  H    0.034181
     9  H    0.029770
    10  H    0.031862
    11  C   -0.023989
    12  C   -0.076475
    13  H    0.015888
    14  H   -0.009822
    15  C    0.479072
    16  H    0.001010
    17  H   -0.005152
    18  H   -0.091505
    19  C   -0.372258
    20  H    0.074426
    21  H    0.068701
    22  H    0.061317
    23  C   -0.281157
    24  H    0.029836
    25  H    0.065957
    26  H    0.042925
 Sum of ESP charges =   0.00000
 ESP charges with hydrogens summed into heavy atoms:
               1
     1  C    0.004419
     2  C    0.110970
     5  C   -0.094161
    11  C   -0.017924
    12  C   -0.080617
    15  C    0.387567
    19  C   -0.167815
    23  C   -0.142439
 Charge=   0.00000 Dipole=    -0.0033     0.0283    -0.1003 Tot=     0.1043
 -----------------------------------------------------------------

              Electrostatic Properties (Atomic Units)

 -----------------------------------------------------------------
    Center     Electric         -------- Electric Field --------
               Potential          X             Y             Z
 -----------------------------------------------------------------
    1 Atom    -14.794403
    2 Atom    -14.791820
    3 Atom     -1.139945
    4 Atom     -1.139493
    5 Atom    -14.800967
    6 Atom     -1.140709
    7 Atom     -1.140694
    8 Atom     -1.137948
    9 Atom     -1.136374
   10 Atom     -1.136365
   11 Atom    -14.795214
   12 Atom    -14.795902
   13 Atom     -1.139705
   14 Atom     -1.139109
   15 Atom    -14.781650
   16 Atom     -1.138266
   17 Atom     -1.140032
   18 Atom     -1.142697
   19 Atom    -14.802777
   20 Atom     -1.137024
   21 Atom     -1.135037
   22 Atom     -1.136550
   23 Atom    -14.802652
   24 Atom     -1.135988
   25 Atom     -1.133509
   26 Atom     -1.136164
 -----------------------------------------------------------------
 ******************************Gaussian NBO Version 3.1******************************
             N A T U R A L   A T O M I C   O R B I T A L   A N D
          N A T U R A L   B O N D   O R B I T A L   A N A L Y S I S
 ******************************Gaussian NBO Version 3.1******************************
       /RESON  / : Allow strongly delocalized NBO set

 Analyzing the SCF density

 Job title: Title Card Required                                             

 Storage needed:    244306 in NPA ( 104853960 available)


 NATURAL POPULATIONS:  Natural atomic orbital occupancies 
                                                          
   NAO  Atom  No  lang   Type(AO)    Occupancy      Energy
 ----------------------------------------------------------
     1    C    1  S      Cor( 1S)     1.99929     -10.00747
     2    C    1  S      Val( 2S)     1.01744      -0.20465
     3    C    1  S      Ryd( 3S)     0.00247       0.81116
     4    C    1  S      Ryd( 4S)     0.00075       0.91233
     5    C    1  S      Ryd( 5S)     0.00000      23.30154
     6    C    1  px     Val( 2p)     1.02900      -0.06173
     7    C    1  px     Ryd( 4p)     0.00240       0.72330
     8    C    1  px     Ryd( 3p)     0.00068       0.52492
     9    C    1  px     Ryd( 5p)     0.00013       3.09320
    10    C    1  py     Val( 2p)     1.13432      -0.06764
    11    C    1  py     Ryd( 4p)     0.00153       0.59140
    12    C    1  py     Ryd( 3p)     0.00019       0.29988
    13    C    1  py     Ryd( 5p)     0.00009       3.13574
    14    C    1  pz     Val( 2p)     1.17658      -0.06353
    15    C    1  pz     Ryd( 4p)     0.00199       0.65307
    16    C    1  pz     Ryd( 3p)     0.00023       0.26690
    17    C    1  pz     Ryd( 5p)     0.00005       3.17977
    18    C    1  dxy    Ryd( 3d)     0.00059       2.18152
    19    C    1  dxz    Ryd( 3d)     0.00030       1.96054
    20    C    1  dyz    Ryd( 3d)     0.00051       2.04289
    21    C    1  dx2y2  Ryd( 3d)     0.00081       2.12558
    22    C    1  dz2    Ryd( 3d)     0.00107       2.31144

    23    C    2  S      Cor( 1S)     1.99932     -10.01212
    24    C    2  S      Val( 2S)     1.02232      -0.21043
    25    C    2  S      Ryd( 3S)     0.00218       0.70141
    26    C    2  S      Ryd( 4S)     0.00064       0.94563
    27    C    2  S      Ryd( 5S)     0.00000      23.31348
    28    C    2  px     Val( 2p)     1.02963      -0.06455
    29    C    2  px     Ryd( 4p)     0.00166       0.64251
    30    C    2  px     Ryd( 3p)     0.00068       0.32638
    31    C    2  px     Ryd( 5p)     0.00015       3.11259
    32    C    2  py     Val( 2p)     1.13308      -0.06867
    33    C    2  py     Ryd( 4p)     0.00122       0.55024
    34    C    2  py     Ryd( 3p)     0.00018       0.24597
    35    C    2  py     Ryd( 5p)     0.00009       3.14183
    36    C    2  pz     Val( 2p)     1.17478      -0.06428
    37    C    2  pz     Ryd( 4p)     0.00168       0.60893
    38    C    2  pz     Ryd( 3p)     0.00025       0.23442
    39    C    2  pz     Ryd( 5p)     0.00005       3.17278
    40    C    2  dxy    Ryd( 3d)     0.00057       2.18525
    41    C    2  dxz    Ryd( 3d)     0.00031       1.95750
    42    C    2  dyz    Ryd( 3d)     0.00051       2.04125
    43    C    2  dx2y2  Ryd( 3d)     0.00080       2.12209
    44    C    2  dz2    Ryd( 3d)     0.00107       2.30995

    45    H    3  S      Val( 1S)     0.81288       0.05461
    46    H    3  S      Ryd( 2S)     0.00150       0.86330
    47    H    3  S      Ryd( 3S)     0.00014       2.03100
    48    H    3  px     Ryd( 2p)     0.00018       1.85983
    49    H    3  py     Ryd( 2p)     0.00030       2.59107
    50    H    3  pz     Ryd( 2p)     0.00014       2.02943

    51    H    4  S      Val( 1S)     0.81268       0.05458
    52    H    4  S      Ryd( 2S)     0.00143       0.85181
    53    H    4  S      Ryd( 3S)     0.00013       2.04250
    54    H    4  px     Ryd( 2p)     0.00018       1.84895
    55    H    4  py     Ryd( 2p)     0.00010       1.86349
    56    H    4  pz     Ryd( 2p)     0.00034       2.76249

    57    C    5  S      Cor( 1S)     1.99936      -9.99978
    58    C    5  S      Val( 2S)     1.07488      -0.22372
    59    C    5  S      Ryd( 3S)     0.00076       0.49410
    60    C    5  S      Ryd( 4S)     0.00037       0.94340
    61    C    5  S      Ryd( 5S)     0.00000      23.36531
    62    C    5  px     Val( 2p)     1.11126      -0.07361
    63    C    5  px     Ryd( 4p)     0.00188       0.57840
    64    C    5  px     Ryd( 3p)     0.00046       0.17230
    65    C    5  px     Ryd( 5p)     0.00007       3.11940
    66    C    5  py     Val( 2p)     1.17935      -0.07278
    67    C    5  py     Ryd( 4p)     0.00112       0.53861
    68    C    5  py     Ryd( 3p)     0.00010       0.19492
    69    C    5  py     Ryd( 5p)     0.00004       3.15543
    70    C    5  pz     Val( 2p)     1.19166      -0.07368
    71    C    5  pz     Ryd( 4p)     0.00073       0.51852
    72    C    5  pz     Ryd( 3p)     0.00009       0.19741
    73    C    5  pz     Ryd( 5p)     0.00002       3.16086
    74    C    5  dxy    Ryd( 3d)     0.00071       2.19224
    75    C    5  dxz    Ryd( 3d)     0.00026       1.96255
    76    C    5  dyz    Ryd( 3d)     0.00045       2.03317
    77    C    5  dx2y2  Ryd( 3d)     0.00064       2.08694
    78    C    5  dz2    Ryd( 3d)     0.00098       2.28418

    79    H    6  S      Val( 1S)     0.81407       0.05310
    80    H    6  S      Ryd( 2S)     0.00156       0.73406
    81    H    6  S      Ryd( 3S)     0.00013       2.14266
    82    H    6  px     Ryd( 2p)     0.00017       1.81201
    83    H    6  py     Ryd( 2p)     0.00030       2.57285
    84    H    6  pz     Ryd( 2p)     0.00014       2.00351

    85    H    7  S      Val( 1S)     0.81407       0.05298
    86    H    7  S      Ryd( 2S)     0.00155       0.74572
    87    H    7  S      Ryd( 3S)     0.00013       2.12687
    88    H    7  px     Ryd( 2p)     0.00017       1.81293
    89    H    7  py     Ryd( 2p)     0.00009       1.82785
    90    H    7  pz     Ryd( 2p)     0.00035       2.74707

    91    H    8  S      Val( 1S)     0.80538       0.05473
    92    H    8  S      Ryd( 2S)     0.00072       0.63470
    93    H    8  S      Ryd( 3S)     0.00011       2.10802
    94    H    8  px     Ryd( 2p)     0.00023       2.34316
    95    H    8  py     Ryd( 2p)     0.00020       2.07709
    96    H    8  pz     Ryd( 2p)     0.00012       1.86272

    97    H    9  S      Val( 1S)     0.80905       0.05105
    98    H    9  S      Ryd( 2S)     0.00109       0.73882
    99    H    9  S      Ryd( 3S)     0.00011       2.03820
   100    H    9  px     Ryd( 2p)     0.00014       1.77264
   101    H    9  py     Ryd( 2p)     0.00026       2.54471
   102    H    9  pz     Ryd( 2p)     0.00015       1.96261

   103    H   10  S      Val( 1S)     0.80907       0.05103
   104    H   10  S      Ryd( 2S)     0.00109       0.73725
   105    H   10  S      Ryd( 3S)     0.00011       2.03961
   106    H   10  px     Ryd( 2p)     0.00014       1.75612
   107    H   10  py     Ryd( 2p)     0.00010       1.79049
   108    H   10  pz     Ryd( 2p)     0.00031       2.73307

   109    C   11  S      Cor( 1S)     1.99928     -10.00650
   110    C   11  S      Val( 2S)     1.01526      -0.20317
   111    C   11  S      Ryd( 3S)     0.00189       0.77892
   112    C   11  S      Ryd( 4S)     0.00092       0.89098
   113    C   11  S      Ryd( 5S)     0.00000      23.38593
   114    C   11  px     Val( 2p)     1.03227      -0.06143
   115    C   11  px     Ryd( 4p)     0.00259       0.78813
   116    C   11  px     Ryd( 3p)     0.00094       0.56551
   117    C   11  px     Ryd( 5p)     0.00014       3.13067
   118    C   11  py     Val( 2p)     1.13690      -0.06843
   119    C   11  py     Ryd( 4p)     0.00147       0.60723
   120    C   11  py     Ryd( 3p)     0.00028       0.35281
   121    C   11  py     Ryd( 5p)     0.00009       3.14672
   122    C   11  pz     Val( 2p)     1.17717      -0.06406
   123    C   11  pz     Ryd( 4p)     0.00202       0.66367
   124    C   11  pz     Ryd( 3p)     0.00048       0.30002
   125    C   11  pz     Ryd( 5p)     0.00006       3.19255
   126    C   11  dxy    Ryd( 3d)     0.00058       2.20646
   127    C   11  dxz    Ryd( 3d)     0.00031       1.96565
   128    C   11  dyz    Ryd( 3d)     0.00052       2.04271
   129    C   11  dx2y2  Ryd( 3d)     0.00083       2.13748
   130    C   11  dz2    Ryd( 3d)     0.00109       2.31728

   131    C   12  S      Cor( 1S)     1.99925     -10.00350
   132    C   12  S      Val( 2S)     1.01057      -0.19640
   133    C   12  S      Ryd( 4S)     0.00200       0.95148
   134    C   12  S      Ryd( 3S)     0.00085       0.80132
   135    C   12  S      Ryd( 5S)     0.00000      23.32846
   136    C   12  px     Val( 2p)     1.02980      -0.06127
   137    C   12  px     Ryd( 4p)     0.00246       0.70894
   138    C   12  px     Ryd( 3p)     0.00073       0.51647
   139    C   12  px     Ryd( 5p)     0.00012       3.13919
   140    C   12  py     Val( 2p)     1.13788      -0.06801
   141    C   12  py     Ryd( 4p)     0.00278       0.62275
   142    C   12  py     Ryd( 3p)     0.00045       0.29275
   143    C   12  py     Ryd( 5p)     0.00008       3.17499
   144    C   12  pz     Val( 2p)     1.17818      -0.06328
   145    C   12  pz     Ryd( 4p)     0.00273       0.66454
   146    C   12  pz     Ryd( 3p)     0.00033       0.27958
   147    C   12  pz     Ryd( 5p)     0.00005       3.20398
   148    C   12  dxy    Ryd( 3d)     0.00061       2.17619
   149    C   12  dxz    Ryd( 3d)     0.00031       1.96289
   150    C   12  dyz    Ryd( 3d)     0.00052       2.04535
   151    C   12  dx2y2  Ryd( 3d)     0.00085       2.11934
   152    C   12  dz2    Ryd( 3d)     0.00113       2.30619

   153    H   13  S      Val( 1S)     0.81054       0.05792
   154    H   13  S      Ryd( 2S)     0.00147       0.93956
   155    H   13  S      Ryd( 3S)     0.00014       2.01426
   156    H   13  px     Ryd( 2p)     0.00023       1.89536
   157    H   13  py     Ryd( 2p)     0.00029       2.60620
   158    H   13  pz     Ryd( 2p)     0.00015       2.04297

   159    H   14  S      Val( 1S)     0.81125       0.05480
   160    H   14  S      Ryd( 2S)     0.00188       0.87217
   161    H   14  S      Ryd( 3S)     0.00013       2.03342
   162    H   14  px     Ryd( 2p)     0.00021       1.88445
   163    H   14  py     Ryd( 2p)     0.00010       1.87538
   164    H   14  pz     Ryd( 2p)     0.00034       2.76742

   165    C   15  S      Cor( 1S)     1.99928     -10.02426
   166    C   15  S      Val( 2S)     0.97082      -0.19598
   167    C   15  S      Ryd( 3S)     0.00189       0.67347
   168    C   15  S      Ryd( 4S)     0.00058       1.36001
   169    C   15  S      Ryd( 5S)     0.00000      23.24956
   170    C   15  px     Val( 2p)     1.03691      -0.06538
   171    C   15  px     Ryd( 4p)     0.00182       0.67186
   172    C   15  px     Ryd( 3p)     0.00053       0.42696
   173    C   15  px     Ryd( 5p)     0.00010       3.11866
   174    C   15  py     Val( 2p)     1.04014      -0.06777
   175    C   15  py     Ryd( 4p)     0.00167       0.64454
   176    C   15  py     Ryd( 3p)     0.00033       0.40411
   177    C   15  py     Ryd( 5p)     0.00011       3.08515
   178    C   15  pz     Val( 2p)     1.15210      -0.06256
   179    C   15  pz     Ryd( 4p)     0.00312       0.66931
   180    C   15  pz     Ryd( 3p)     0.00042       0.34561
   181    C   15  pz     Ryd( 5p)     0.00011       3.20864
   182    C   15  dxy    Ryd( 3d)     0.00075       2.20979
   183    C   15  dxz    Ryd( 3d)     0.00034       1.94610
   184    C   15  dyz    Ryd( 3d)     0.00048       2.03138
   185    C   15  dx2y2  Ryd( 3d)     0.00066       2.11028
   186    C   15  dz2    Ryd( 3d)     0.00128       2.33866

   187    H   16  S      Val( 1S)     0.81156       0.05667
   188    H   16  S      Ryd( 2S)     0.00145       0.93282
   189    H   16  S      Ryd( 3S)     0.00012       1.98403
   190    H   16  px     Ryd( 2p)     0.00018       1.85538
   191    H   16  py     Ryd( 2p)     0.00010       1.91232
   192    H   16  pz     Ryd( 2p)     0.00033       2.78083

   193    H   17  S      Val( 1S)     0.80770       0.06077
   194    H   17  S      Ryd( 2S)     0.00112       0.93172
   195    H   17  S      Ryd( 3S)     0.00014       1.95443
[...]
 2,-0.00617532,-0.00176596,-0.00066588,-0.01634579,0.03604259,-0.002007
 90,0.00001914,0.00014388,-0.00027322,0.00009133,0.00003245,0.00032857,
 -0.08459158,0.02689905,-0.00283874,0.00116762,0.00028005,0.00023679,0.
 00106137,0.00136618,-0.00061593,0.00264654,-0.00860938,0.00097572,0.55
 817332,-0.00013660,0.00051209,0.00005298,-0.00014814,-0.00008143,0.000
 00866,0.00002977,-0.00001591,0.00001633,0.00005355,-0.00000903,-0.0000
 0933,-0.00000741,0.00007788,0.00000261,0.00000001,0.00001005,-0.000008
 29,0.,0.00000982,0.00000804,-0.00004063,0.00001630,0.00000171,-0.00000
 149,-0.00000757,0.00000571,-0.00000218,-0.00000750,-0.00000650,-0.0011
 4885,0.00014636,-0.00010230,0.00792636,-0.00487049,0.00027353,-0.00000
 496,-0.00000547,-0.00000228,0.00014953,0.00005870,0.00019721,0.0271068
 7,-0.16850833,0.00590830,-0.00145545,0.00063463,-0.00018062,-0.0014257
 0,0.00050050,0.00012519,0.00602330,-0.01977285,0.00175090,0.02940734,0
 .46364247,-0.00001681,0.00005229,0.00049459,-0.00000280,0.00002737,-0.
 00004111,-0.00002108,0.00000077,-0.00004107,0.00009538,0.00000431,-0.0
 0002752,0.00000055,-0.00001427,0.00001545,0.00000340,0.00000102,0.0000
 0933,-0.00000524,-0.00000728,0.00000451,0.00000711,-0.00000561,-0.0000
 0552,0.00000115,0.00000187,-0.00000382,-0.00000312,0.00000167,-0.00000
 480,0.00034508,-0.00046919,-0.00045868,-0.00203759,0.00271610,-0.00036
 598,0.00014752,-0.00004299,0.00008173,0.00002264,0.00031054,0.00031264
 ,-0.00249747,0.00479912,-0.07811196,-0.00037341,0.00079702,-0.00000692
 ,0.00124635,-0.00080927,0.00016196,0.00832817,-0.02601915,0.00264963,-
 0.00656217,0.00372933,0.55985646,0.00008388,0.00040987,-0.00002349,-0.
 00014364,-0.00011626,-0.00000162,0.00001463,-0.00001899,0.00000655,0.0
 0000015,-0.00001741,-0.00001110,0.00000692,0.00007981,0.00000312,0.000
 00489,0.00000802,-0.00001145,0.00000661,0.00000748,0.00001244,-0.00004
 462,0.00002433,0.00000220,-0.00000162,-0.00001192,0.00000468,-0.000001
 29,-0.00001149,-0.00000505,-0.00045659,-0.00071243,-0.00021344,0.00065
 747,0.00322272,0.00043345,-0.00005763,0.00019820,-0.00007643,-0.000001
 82,0.00007041,0.00007769,-0.00939311,-0.00079573,-0.00036576,0.0002621
 9,-0.00016073,0.00000640,0.00042624,-0.00009073,-0.00014991,0.00046556
 ,0.00036524,0.00047272,-0.30242556,0.01289058,-0.01956974,0.32966564,-
 0.00002227,-0.00076753,-0.00002801,0.00025307,0.00013091,-0.00001695,-
 0.00000127,0.00001509,-0.00003663,-0.00001273,0.00001220,0.00003484,0.
 00000376,-0.00011209,-0.00000365,-0.00000674,-0.00000076,0.00001314,-0
 .00000684,-0.00000331,-0.00001279,0.00005087,-0.00001581,-0.00000174,0
 .00000044,0.00000792,-0.00000688,0.00000079,0.00000759,0.00000718,0.00
 203700,0.00078513,0.00016967,0.00017950,-0.00650523,0.00054775,-0.0000
 3766,0.00000253,0.00010052,-0.00006277,0.00004238,-0.00008138,0.032238
 53,-0.00117020,0.00313178,0.00003943,0.00002257,0.00031221,-0.00014480
 ,-0.00002968,-0.00030417,-0.00045403,0.00130845,-0.00048083,0.01146049
 ,-0.04701473,0.00105905,-0.01516964,0.05154016,0.00001380,0.00009261,-
 0.00001138,-0.00003143,-0.00001618,0.00000620,-0.00000113,0.00000260,0
 .00000906,-0.00000138,-0.00000635,-0.00000043,-0.00000033,0.00001298,-
 0.00000564,0.00000079,0.00000210,-0.00000431,0.00000107,-0.00000294,-0
 .00000188,-0.00000514,0.00000113,0.00000105,0.00000061,0.,0.00000084,-
 0.00000081,-0.00000109,-0.00000038,-0.00019040,-0.00015303,0.00063146,
 0.00024599,0.00076028,0.00005627,0.00003526,-0.00009345,-0.00003563,-0
 .00004114,0.00008505,-0.00000290,-0.00211008,-0.00024041,-0.00179227,0
 .00045049,-0.00001109,0.00027562,-0.00038606,-0.00023137,0.00026527,0.
 00044775,0.00007099,0.00011057,-0.01912235,0.00119992,-0.04845163,0.02
 107817,-0.00154548,0.04778178,-0.00001844,-0.00006864,-0.00001998,0.00
 002266,0.00001596,-0.00000871,-0.00000400,0.00000503,0.00000410,-0.000
 02706,0.00000320,-0.00001349,-0.00000097,-0.00001464,0.00000024,-0.000
 00043,-0.00000423,0.00000405,0.00000159,-0.00000676,-0.00000266,0.0000
 0920,-0.00000667,-0.00000082,-0.00000026,0.00000291,-0.00000007,-0.000
 00014,0.00000404,0.00000067,-0.00004392,0.00013328,0.00006345,0.001075
 66,0.00022593,0.00110027,0.00002097,-0.00005205,0.00001910,-0.00008941
 ,-0.00007521,-0.00011234,0.00197247,0.00519559,0.00821459,-0.00000860,
 0.00010360,-0.00039587,-0.00004178,-0.00001853,0.00009744,0.00008306,0
 .00208977,0.00002765,-0.06780612,-0.03857117,-0.05803932,-0.00849888,-
 0.01716167,-0.02662791,0.06973817,0.00002534,0.00001794,0.00009816,-0.
 00000619,0.00001264,-0.00000747,-0.00000478,0.00000038,-0.00000452,0.0
 0006320,-0.00000386,0.00000933,-0.00000169,-0.00000593,-0.00000259,-0.
 00000092,-0.00000463,0.00000112,-0.00000316,0.00000395,0.00000549,0.00
 000386,-0.00000261,-0.00000099,-0.00000046,0.00000027,-0.00000026,0.00
 000273,0.00000206,0.00000292,0.00015525,-0.00005263,0.00022799,-0.0018
 3249,0.00111982,-0.00061648,-0.00000596,-0.00001443,0.00000281,-0.0000
 6947,0.00029144,0.00016826,-0.00932393,-0.01873749,-0.02665476,0.00087
 483,0.00027635,0.00062608,0.00016174,0.00001429,0.00007326,0.00231871,
 -0.00589876,0.00114351,-0.03836902,-0.11611882,-0.10620739,0.00008643,
 0.00040899,0.00186656,0.04102240,0.12939976,-0.00000121,-0.00010591,-0
 .00003150,0.00003380,0.00001426,-0.00000007,-0.00000307,-0.00000270,-0
 .00001244,0.00001035,-0.00000564,0.00002518,-0.00000229,-0.00001595,-0
 .00000538,-0.00000181,0.00000066,-0.00000055,0.00000028,0.00000693,0.0
 0000423,0.00000882,-0.00000227,-0.00000022,0.00000003,0.00000032,-0.00
 000348,0.00000338,0.00000210,0.00000741,0.00029827,0.00015715,0.000260
 17,-0.00009306,0.00020778,0.00025779,-0.00000575,0.00001555,0.00000091
 ,-0.00011039,0.00014858,-0.00002130,0.00112808,0.00086427,0.00127593,0
 .00042791,-0.00013633,0.00026554,-0.00003937,-0.00011857,-0.00015123,0
 .00014822,0.00082468,0.00136460,-0.05797102,-0.10657814,-0.20966335,-0
 .00050895,-0.00013274,-0.00165595,0.06479802,0.11849682,0.22707168,-0.
 00002816,-0.00006341,-0.00001057,0.00002788,0.00002667,0.00000870,-0.0
 0000744,0.00000970,0.00000500,-0.00000068,0.00000455,-0.00000006,-0.00
 000125,-0.00002063,-0.00000052,-0.00000008,-0.00000489,0.00000146,-0.0
 0000203,-0.00000589,-0.00000535,0.00001256,-0.00000863,-0.00000003,0.0
 0000062,0.00000509,-0.00000144,-0.00000063,0.00000336,0.00000055,0.000
 15936,-0.00005984,0.00007452,0.00082663,0.00059751,-0.00108579,0.00002
 059,-0.00002191,-0.00003565,-0.00000879,-0.00003151,-0.00002421,0.0023
 6818,0.00354721,-0.00863033,-0.00005056,0.00002239,-0.00001569,-0.0000
 3385,0.00016931,0.00019440,0.00017094,-0.00067084,0.00011399,-0.088606
 68,-0.04322403,0.08487871,-0.01208378,-0.01319727,0.02689805,0.0036204
 2,0.00486577,-0.00824563,0.09315809,0.00002205,0.00003699,-0.00002737,
 -0.00001614,-0.00000681,0.00000756,0.00005232,0.00000346,-0.00001837,-
 0.00000576,-0.00000157,-0.00000798,-0.00000137,0.00000655,0.00000319,-
 0.00000337,0.00000893,-0.00001011,-0.00000122,-0.00000540,0.00000099,-
 0.00000412,0.00000279,0.00000079,0.00000480,0.00000090,-0.00000305,-0.
 00000080,-0.00000216,-0.00000180,-0.00001018,0.00006059,-0.00034988,-0
 .00178764,0.00078620,0.00062315,-0.00012394,0.00023284,-0.00008738,-0.
 00001546,-0.00005826,0.00001815,-0.01305965,-0.01243103,0.02648015,0.0
 0007941,0.00004043,-0.00012433,0.00097703,0.00041687,-0.00051369,-0.00
 060244,0.00101667,-0.00053537,-0.04248488,-0.09055060,0.08634218,0.000
 28394,-0.00000744,-0.00194897,0.00804981,0.00740175,-0.01379833,0.0461
 8374,0.09987252,0.00000806,0.00006584,-0.00003125,-0.00002568,-0.00001
 074,0.00000631,-0.00003243,0.00000021,0.00003675,-0.00000584,0.0000025
 9,-0.00001131,0.00000187,0.00001158,-0.00000508,0.00000243,-0.00001110
 ,0.00000625,0.00000198,-0.00000116,-0.00000332,-0.00000518,-0.00000061
 ,0.00000039,-0.00000393,-0.00000135,0.00000756,-0.00000049,0.00000099,
 -0.00000282,-0.00037151,-0.00005892,0.00032912,0.00061972,-0.00038332,
 -0.00019356,0.00006997,-0.00021070,0.00005734,0.00000824,-0.00001541,-
 0.00004123,0.00077244,-0.00022607,-0.00231319,0.00007386,0.00007336,-0
 .00002539,-0.00073674,0.00002263,0.00052661,-0.00024145,0.00038317,0.0
 0075381,0.08407676,0.08745709,-0.21858755,-0.00106697,-0.00209834,0.00
 274801,0.01088434,0.01082424,-0.02070742,-0.09378717,-0.09686288,0.235
 87861,0.00005262,-0.00030701,0.00050233,0.00007579,-0.00001046,-0.0001
 3850,-0.00005231,0.00009937,-0.00018762,0.00003197,-0.00002875,-0.0000
 2513,0.00001938,0.00002093,0.00001763,-0.00001483,0.00005934,-0.000015
 44,-0.00000487,0.00001694,0.00002535,-0.00002306,0.00002018,0.00000104
 ,0.00000544,-0.00000952,-0.00000586,-0.00000032,-0.00001034,-0.0000029
 4,-0.00001781,-0.00021484,-0.00022032,-0.01992470,-0.01565928,0.028781
 78,-0.00081754,-0.00000782,0.00067316,-0.00004763,0.00020799,0.0003378
 9,-0.09404953,-0.01776113,0.03260024,0.00175822,-0.00001178,0.00063431
 ,-0.00641368,0.00067337,0.00030127,0.00369426,0.00383960,-0.00667355,0
 .00426554,0.00181818,-0.00658839,0.00039191,0.00110969,-0.00094560,-0.
 00003616,-0.00013544,0.00033117,-0.00047484,0.00294580,-0.00070369,0.5
 4290072,0.00013611,-0.00047888,0.00032596,0.00008559,0.00004191,-0.000
 06359,-0.00024657,-0.00007978,0.00007680,-0.00007704,-0.00000789,-0.00
 005695,0.00001020,-0.00004865,0.00002698,0.00002742,-0.00004031,0.0000
 5765,0.00000940,-0.00001605,-0.00002360,0.00001264,0.00000027,-0.00000
 377,-0.00001845,-0.00000246,0.00000360,-0.00001259,-0.00000098,-0.0000
 0848,0.00008429,0.00126432,-0.00108899,-0.00308230,0.00129790,-0.00146
 442,0.00043663,-0.00024140,0.00073164,-0.00006796,0.00003202,-0.000034
 71,-0.01525946,-0.09455080,0.03087357,-0.00007768,-0.00017635,0.000649
 48,0.00124467,0.00042911,-0.00003535,0.00665320,0.00658219,-0.01172613
 ,-0.01359607,-0.02098572,0.03009794,-0.00091904,0.00143155,-0.00010044
 ,-0.00052427,0.00154166,0.00053470,0.00129262,-0.00617852,0.00132063,-
 0.02189979,0.55070662,-0.00003075,0.00048116,0.00014116,-0.00012432,-0
 .00008655,-0.00002888,0.00005196,-0.00001548,-0.00004830,-0.00000832,-
 0.00002480,-0.00002480,0.00000115,0.00007335,0.00001005,-0.00000130,0.
 00003090,-0.00001024,0.00000090,0.00000384,0.00000764,-0.00003297,0.00
 001264,-0.00000073,0.00000322,-0.00000701,-0.00000111,-0.00000464,-0.0
 0000732,-0.00000572,-0.00033139,-0.00050914,0.00026300,0.00478358,-0.0
 0086589,0.00019437,0.00029730,0.00001041,-0.00003510,-0.00002757,0.000
 01461,0.00004411,0.03299461,0.03354216,-0.14319944,-0.00154157,-0.0004
 1218,0.00110207,-0.00218720,-0.00068644,0.00107473,0.01314351,0.013378
 37,-0.02491077,0.00111523,0.00728238,-0.00527993,0.00026798,-0.0007080
 7,0.00010167,-0.00003221,-0.00161413,0.00121208,-0.00023049,-0.0008330
 3,0.00116769,0.03701574,0.03058427,0.48791226,-0.00008916,0.00008549,-
 0.00018766,0.00002437,0.00006101,0.00003221,0.00011278,-0.00000679,-0.
 00002027,0.00001852,-0.00001051,0.00002936,-0.00000568,-0.00003250,-0.
 00000852,-0.00001175,0.00001093,-0.00000281,-0.00000313,-0.00000474,-0
 .00001459,0.00002563,-0.00001868,0.00000015,0.00000313,0.00000818,-0.0
 0000319,-0.00000022,0.00000603,0.00000324,-0.00083436,-0.00013166,0.00
 063851,0.00058449,-0.00038829,-0.00056690,-0.00162351,0.00041609,0.000
 31966,-0.00001175,0.00006606,-0.00001795,0.00337630,-0.01458951,-0.000
 90073,-0.00006850,-0.00002120,0.00002841,0.00018204,0.00014890,-0.0000
 0294,0.00044932,0.00052840,-0.00053084,-0.00128671,-0.00064082,0.00210
 151,0.00041003,-0.00022521,0.00018931,-0.00009978,0.00025156,0.0000315
 0,0.00057036,-0.00074721,0.00037780,-0.06088569,0.05956811,-0.00383925
 ,0.06420035,-0.00009682,0.00044651,-0.00042011,-0.00006111,0.00003356,
 0.00003891,0.00027222,0.00000824,-0.00005642,0.00003319,-0.00000947,0.
 00004465,-0.00001080,-0.00000058,-0.00000998,-0.00001475,0.00002390,-0
 .00001978,-0.00000363,0.00000039,-0.00000207,0.00000934,-0.00001168,0.
 00000243,0.00000896,0.00000665,-0.00000752,0.00000240,0.00000294,0.000
 00663,0.00064589,-0.00055753,0.00065664,0.00064093,-0.00058179,0.00007
 717,0.00037009,0.00083287,-0.00092772,-0.00006248,-0.00001058,-0.00006
 311,0.00323960,-0.01204635,-0.00083441,0.00000265,0.00000019,0.0000315
 3,-0.00009166,0.00009567,-0.00000444,0.00005986,0.00078823,0.00039088,
 -0.00205033,0.00016045,0.00336869,0.00004381,0.00022374,-0.00015141,0.
 00000558,0.00043642,-0.00011384,0.00035618,-0.00093433,0.00018075,0.05
 808900,-0.29225828,0.01586191,-0.06579001,0.31855431,0.00006255,-0.000
 16957,0.00001615,0.00000801,-0.00003859,0.00002304,-0.00007483,0.00001
 933,0.00000969,-0.00008368,-0.00001786,-0.00002612,0.00000472,0.000011
 70,-0.00000794,0.00000694,0.00001297,-0.00000152,0.00000928,-0.0000050
 1,-0.00001919,-0.00000917,0.00000792,0.00000232,0.00000136,-0.00000206
 ,0.00000007,-0.00000724,-0.00000632,-0.00000323,0.00028075,0.00003023,
 0.00021509,-0.00064335,-0.00026423,0.00072251,0.00043752,-0.00015800,0
 .00033362,0.00008301,-0.00004543,-0.00031606,-0.00808788,0.02584013,-0
 .00064997,0.00010273,-0.00008222,-0.00001522,-0.00018777,-0.00003636,-
 0.00005195,-0.00085535,-0.00045532,0.00084622,0.00307693,0.00138100,-0
 .00439181,0.00006008,-0.00035870,-0.00003909,0.00019762,0.00027823,0.0
 0018122,-0.00017046,0.00186360,-0.00006994,-0.00364785,0.01484410,-0.0
 4813986,0.00256698,-0.01869964,0.05028209,-0.00001905,-0.00000080,-0.0
 0002559,-0.00000052,0.00001330,-0.00000040,0.00001482,-0.00000254,0.00
 000153,-0.00003349,-0.00000387,-0.00000318,-0.00000398,-0.00000973,-0.
 00000135,-0.00000061,0.00000130,0.00000112,0.00000270,-0.00000722,-0.0
 0000418,0.00000881,-0.00000778,-0.00000079,0.00000159,0.00000352,-0.00
 000221,-0.00000069,0.00000362,0.00000167,-0.00011878,0.00006607,-0.000
 07040,0.00141141,0.00103022,0.00109030,0.00001065,0.00007887,-0.000023
 18,0.00007083,-0.00009492,-0.00011052,0.00348506,0.00690186,0.01282272
 ,-0.00000804,-0.00033567,-0.00039340,0.00016764,-0.00004386,-0.0002815
 2,-0.00061692,-0.00121547,0.00283881,0.00009418,0.00049645,-0.00046722
 ,-0.00004137,-0.00014422,-0.00012576,0.00019541,-0.00002974,-0.0002854
 9,-0.00007854,0.00020952,0.00000131,-0.06908157,-0.03391453,-0.0632584
 2,0.00182369,0.00348646,0.00757704,0.07156712,-0.00004294,0.00001462,-
 0.00003899,0.00001818,0.00001615,-0.00001412,0.00001055,0.00000807,0.0
 0000507,0.00005019,0.00002893,0.00001804,-0.00000192,-0.00000992,-0.00
 000021,-0.00000594,-0.00001863,-0.00000146,-0.00000539,0.00000628,0.00
 002021,0.00000394,-0.00000179,-0.00000119,-0.00000167,-0.00000035,0.00
 000383,0.00000889,0.00000564,0.00000328,0.00018617,0.00000808,-0.00005
 099,0.00051526,0.00046983,-0.00020385,-0.00004771,-0.00015800,-0.00013
 110,-0.00005589,-0.00004314,0.00016557,0.00453006,0.00570844,0.0118592
 0,0.00016048,0.00005682,-0.00030372,0.00025488,-0.00000148,-0.00003555
 ,-0.00113442,-0.00036952,0.00274499,0.00049407,0.00147902,0.00072056,0
 .00001949,-0.00006092,0.00000175,-0.00029359,-0.00000778,-0.00026402,0
 .00000346,0.00013278,-0.00027926,-0.03408391,-0.09992558,-0.09679503,-
 0.01047686,-0.01354079,-0.02654874,0.03907802,0.10541290,-0.00001427,-
 0.00006792,-0.00000358,0.00003090,0.00002761,-0.00001303,0.00000079,-0
 .00000049,0.00000274,0.00006165,0.00001298,0.00002023,-0.00000143,-0.0
 0001884,-0.00000235,-0.00000319,-0.00001197,0.00000490,-0.00000408,0.0
 0000984,0.00001132,0.00000865,-0.00000304,-0.00000103,-0.00000240,-0.0
 0000017,0.00000087,0.00000667,0.00000406,0.00000526,0.00026530,0.00002
 157,-0.00000727,-0.00163598,-0.00063430,0.00083222,0.00002599,-0.00012
 437,-0.00009979,-0.00011094,0.00017513,0.00012695,-0.00789449,-0.01244
 647,-0.02489689,0.00117119,0.00031795,0.00060300,-0.00003702,0.0002377
 6,0.00049638,0.00288040,0.00316129,-0.00349158,-0.00027974,-0.00144815
 ,0.00088250,0.00002779,0.00005357,-0.00003372,0.00002310,0.00118813,0.
 00037106,0.00019378,0.00015180,0.00048765,-0.06304066,-0.09664844,-0.2
 2377567,0.00119318,0.00085804,0.00226488,0.06798100,0.10573036,0.24787
 282,0.00001494,0.00010016,0.00009098,-0.00004498,-0.00008050,-0.000029
 87,-0.00002910,0.00001516,-0.00001712,0.00000731,-0.00000250,-0.000014
 66,0.00000840,0.00005023,0.00000486,0.00000290,0.00001045,-0.00000787,
 0.00000262,0.00001081,0.00001574,-0.00003696,0.00002617,0.00000145,-0.
 00000199,-0.00001234,0.00000438,-0.00000027,-0.00001065,-0.00000470,0.
 00020026,-0.00037540,-0.00018179,0.00070468,-0.00135789,0.00325196,0.0
 0007131,-0.00011157,0.00002720,-0.00003081,0.00004546,0.00010138,-0.01
 424366,0.00130170,-0.00195633,0.00040638,0.00009075,-0.00007070,-0.001
 06124,0.00008954,0.00020219,0.00050063,0.00031653,0.00046528,0.0004249
 5,0.00090549,-0.00099321,0.00075379,-0.00072644,0.00022825,-0.00006367
 ,-0.00004858,0.00004821,0.00044167,0.00005576,0.00008227,-0.30135133,0
 .02013487,-0.01802480,-0.00686077,0.00091543,-0.00070799,-0.00885034,0
 .00081660,-0.00084619,0.32903530,-0.00006471,0.00025461,-0.00022800,-0
 .00002600,0.00001832,0.00001349,0.00017531,-0.00000288,-0.00002761,0.0
 0002774,-0.00000572,0.00002050,-0.00000372,0.00000351,-0.00000866,-0.0
 0001386,0.00001762,-0.00000986,-0.00000255,0.00000014,-0.00000173,0.00
 000454,-0.00000615,0.00000123,0.00000464,0.00000248,-0.00000124,0.0000
 0103,0.00000142,0.00000183,0.00028745,-0.00041057,0.00042981,-0.000821
 14,-0.00157211,0.00276904,-0.00011661,0.00039650,-0.00044554,-0.000031
 89,0.00004531,-0.00004573,-0.01408585,-0.00026286,-0.00191159,0.000378
 07,0.00006130,0.00010811,-0.00099541,0.00028396,0.00026184,0.00060180,
 0.00030464,-0.00029651,-0.00124923,0.00070018,-0.00045469,0.00031403,-
 0.00025149,0.00040624,-0.00005968,-0.00008076,0.00000064,0.00022129,0.
 00015587,-0.00018318,0.02123967,-0.04833589,0.00128908,0.03193322,-0.0
 0166269,0.00259883,-0.01555887,0.00079033,-0.00054594,-0.02215927,0.04
 955494,0.00002516,-0.00016226,-0.00001442,0.00003318,0.00002453,0.0000
 2067,-0.00005687,-0.00001780,0.00005641,0.00001159,0.00002146,0.000001
 94,-0.00000191,-0.00002527,-0.00000220,0.00000533,-0.00002656,0.000008
 88,-0.00000120,-0.00000334,-0.00000268,0.00001194,-0.00000453,-0.00000
 040,-0.00000338,0.00000300,0.00000245,0.00000248,0.00000354,0.00000106
 ,-0.00014662,0.00053301,-0.00006279,0.00092110,0.00272537,-0.00444676,
 -0.00003409,-0.00021541,0.00009892,-0.00001318,-0.00005114,0.00001254,
 0.02747605,-0.00197138,0.00182426,0.00017428,0.00024537,0.00019945,0.0
 0170657,0.00007776,0.00013683,-0.00039484,-0.00077918,0.00086542,0.000
 41414,-0.00106528,0.00097286,-0.00044935,0.00038668,0.00004742,-0.0001
 8127,0.00009569,-0.00004494,-0.00012578,-0.00036902,-0.00001405,-0.019
 02638,0.00112754,-0.04777030,-0.00141618,-0.00020777,-0.00116496,-0.02
 726186,0.00339535,-0.00165786,0.01833108,-0.00374037,0.05093224\\0.000
 03106,-0.00000361,-0.00000820,-0.00001532,-0.00000284,-0.00000611,-0.0
 0000774,-0.00000811,0.00000574,-0.00000924,-0.00000646,-0.00001430,0.0
 0001970,0.00000339,-0.00000503,0.00000198,0.00000514,-0.00001082,-0.00
 000008,0.00000378,0.00001011,-0.00000552,0.00000907,-0.00000644,-0.000
 00549,-0.00000715,0.00000036,-0.00000339,-0.00000451,-0.00001636,-0.00
 002443,0.00001460,0.00000417,-0.00004989,-0.00000659,-0.00003304,0.000
 00275,-0.00000328,-0.00000527,0.00000532,-0.00000712,0.00001571,0.0000
 1773,-0.00003501,0.00005153,0.00000925,0.00000801,-0.00000200,-0.00000
 151,0.00000670,0.00000821,-0.00000009,-0.00000793,-0.00000988,0.000003
 50,0.00004197,-0.00001768,0.00001703,-0.00000462,0.00000368,-0.0000025
 5,0.00000349,-0.00000095,-0.00000658,0.00000235,0.00000862,0.00001471,
 0.00001730,-0.00002623,-0.00000185,-0.00000418,0.00002275,-0.00000647,
 -0.00001410,0.00001710,0.00001713,-0.00000029,0.00001434\\\@


 I think that all right-thinking people in this
 country are sick and tired of being told that
 ordinary, decent people are fed up in this country
 with being sick and tired.  I'm certainly not!
 But I'm sick and tired of being told that I am!
                               -- Monty Python
 Job cpu time:       0 days  1 hours  1 minutes 26.6 seconds.
 File lengths (MBytes):  RWF=    217 Int=      0 D2E=      0 Chk=      8 Scr=      1
 Normal termination of Gaussian 09 at Tue Feb 22 09:20:30 2022.
