 Entering Gaussian System, Link 0=g09
 Initial command:
 /cm/shared/apps/gaussian/g09revD.01/g09/l1.exe "//home/sweav003/CHB/OrthoParaExtra/G09-regiodevergent1g_Ishiyana.com.o9918466.tmp/Gau-101670.inp" -scrdir="//home/sweav003/CHB/OrthoParaExtra/G09-regiodevergent1g_Ishiyana.com.o9918466.tmp/"
 Entering Link 1 = /cm/shared/apps/gaussian/g09revD.01/g09/l1.exe PID=    101671.
  
 Copyright (c) 1988,1990,1992,1993,1995,1998,2003,2009,2013,
            Gaussian, Inc.  All Rights Reserved.
  
 This is part of the Gaussian(R) 09 program.  It is based on
 the Gaussian(R) 03 system (copyright 2003, Gaussian, Inc.),
 the Gaussian(R) 98 system (copyright 1998, Gaussian, Inc.),
 the Gaussian(R) 94 system (copyright 1995, Gaussian, Inc.),
 the Gaussian 92(TM) system (copyright 1992, Gaussian, Inc.),
 the Gaussian 90(TM) system (copyright 1990, Gaussian, Inc.),
 the Gaussian 88(TM) system (copyright 1988, Gaussian, Inc.),
 the Gaussian 86(TM) system (copyright 1986, Carnegie Mellon
 University), and the Gaussian 82(TM) system (copyright 1983,
 Carnegie Mellon University). Gaussian is a federally registered
 trademark of Gaussian, Inc.
  
 This software contains proprietary and confidential information,
 including trade secrets, belonging to Gaussian, Inc.
  
 This software is provided under written license and may be
 used, copied, transmitted, or stored only in accord with that
 written license.
  
 The following legend is applicable only to US Government
 contracts under FAR:
  
                    RESTRICTED RIGHTS LEGEND
  
 Use, reproduction and disclosure by the US Government is
 subject to restrictions as set forth in subparagraphs (a)
 and (c) of the Commercial Computer Software - Restricted
 Rights clause in FAR 52.227-19.
  
 Gaussian, Inc.
 340 Quinnipiac St., Bldg. 40, Wallingford CT 06492
  
  
 ---------------------------------------------------------------
 Warning -- This program may not be used in any manner that
 competes with the business of Gaussian, Inc. or will provide
 assistance to any competitor of Gaussian, Inc.  The licensee
 of this program is prohibited from giving any competitor of
 Gaussian, Inc. access to this program.  By using this program,
 the user acknowledges that Gaussian, Inc. is engaged in the
 business of creating and licensing software in the field of
 computational chemistry and represents and warrants to the
 licensee that it is not a competitor of Gaussian, Inc. and that
 it will not use this program in any manner prohibited above.
 ---------------------------------------------------------------
  

 Cite this work as:
 Gaussian 09, Revision D.01,
 M. J. Frisch, G. W. Trucks, H. B. Schlegel, G. E. Scuseria, 
 M. A. Robb, J. R. Cheeseman, G. Scalmani, V. Barone, B. Mennucci, 
 G. A. Petersson, H. Nakatsuji, M. Caricato, X. Li, H. P. Hratchian, 
 A. F. Izmaylov, J. Bloino, G. Zheng, J. L. Sonnenberg, M. Hada, 
 M. Ehara, K. Toyota, R. Fukuda, J. Hasegawa, M. Ishida, T. Nakajima, 
 Y. Honda, O. Kitao, H. Nakai, T. Vreven, J. A. Montgomery, Jr., 
 J. E. Peralta, F. Ogliaro, M. Bearpark, J. J. Heyd, E. Brothers, 
 K. N. Kudin, V. N. Staroverov, T. Keith, R. Kobayashi, J. Normand, 
 K. Raghavachari, A. Rendell, J. C. Burant, S. S. Iyengar, J. Tomasi, 
 M. Cossi, N. Rega, J. M. Millam, M. Klene, J. E. Knox, J. B. Cross, 
 V. Bakken, C. Adamo, J. Jaramillo, R. Gomperts, R. E. Stratmann, 
 O. Yazyev, A. J. Austin, R. Cammi, C. Pomelli, J. W. Ochterski, 
 R. L. Martin, K. Morokuma, V. G. Zakrzewski, G. A. Voth, 
 P. Salvador, J. J. Dannenberg, S. Dapprich, A. D. Daniels, 
 O. Farkas, J. B. Foresman, J. V. Ortiz, J. Cioslowski, 
 and D. J. Fox, Gaussian, Inc., Wallingford CT, 2013.
 
 ******************************************
 Gaussian 09:  ES64L-G09RevD.01 24-Apr-2013
                 2-Feb-2023 
 ******************************************
 %nprocshared=20
 Will use up to   20 processors via shared memory.
 %mem=4GB
 %chk=regiodevergent1g_Ishiyana.chk
 ----------------------------------------------------------------------
 # opt freq=noraman b3lyp/6-311+g(d,p) pop=(npa,hirshfeld,chelpg,mbs) g
 eom=connectivity
 ----------------------------------------------------------------------
 1/14=-1,18=20,19=15,26=3,38=1,57=2/1,3;
 2/9=110,12=2,17=6,18=5,40=1/2;
 3/5=4,6=6,7=111,11=2,16=1,25=1,30=1,71=1,74=-5/1,2,3;
 4//1;
 5/5=2,38=5/2;
 6/7=2,8=2,9=2,10=2,15=8,20=3,27=100,28=1,40=-1,79=1/1,2,7;
 7//1,2,3,16;
 1/14=-1,18=20,19=15,26=3/3(2);
 2/9=110/2;
 99//99;
 2/9=110/2;
 3/5=4,6=6,7=111,11=2,16=1,25=1,30=1,71=1,74=-5/1,2,3;
 4/5=5,16=3,69=1/1;
 5/5=2,38=5/2;
 7//1,2,3,16;
 1/14=-1,18=20,19=15,26=3/3(-5);
 2/9=110/2;
 6/7=2,8=2,9=2,10=2,15=8,19=2,20=3,27=100,28=1,40=-1,79=1/1,2,7;
 99/9=1/99;
 -------------------
 Title Card Required
 -------------------
 Symbolic Z-matrix:
 Charge =  0 Multiplicity = 1
 C                    -1.46218   0.36046   0.01914 
 C                    -1.05291  -0.95696   0.03184 
 C                     0.39497  -0.94159   0.01832 
 C                     0.77463   0.38468  -0.00185 
 H                    -1.67577  -1.84617   0.0488 
 H                     1.03709  -1.81709   0.02335 
 C                    -2.81925   1.08844   0.02252 
 H                    -2.88702   1.71259   0.88897 
 H                    -2.90329   1.69036  -0.85812 
 H                    -3.61034   0.36815   0.03906 
 C                     2.11542   1.14193  -0.02373 
 O                     2.17456   2.36771  -0.03968 
 C                     3.37706   0.25882  -0.02422 
 H                     3.38808  -0.34789   0.85707 
 H                     3.37201  -0.36988  -0.89002 
 H                     4.24767   0.88066  -0.04006 
 S                    -0.35274   1.20678  -0.00188 
 

 GradGradGradGradGradGradGradGradGradGradGradGradGradGradGradGradGradGrad
 Berny optimization.
 Initialization pass.
                           ----------------------------
                           !    Initial Parameters    !
                           ! (Angstroms and Degrees)  !
 --------------------------                            --------------------------
 ! Name  Definition              Value          Derivative Info.                !
 --------------------------------------------------------------------------------
 ! R1    R(1,2)                  1.3796         estimate D2E/DX2                !
 ! R2    R(1,7)                  1.54           estimate D2E/DX2                !
 ! R3    R(1,17)                 1.3955         estimate D2E/DX2                !
 ! R4    R(2,3)                  1.448          estimate D2E/DX2                !
 ! R5    R(2,5)                  1.0858         estimate D2E/DX2                !
 ! R6    R(3,4)                  1.3797         estimate D2E/DX2                !
 ! R7    R(3,6)                  1.0857         estimate D2E/DX2                !
 ! R8    R(4,11)                 1.54           estimate D2E/DX2                !
 ! R9    R(4,17)                 1.3953         estimate D2E/DX2                !
 ! R10   R(7,8)                  1.07           estimate D2E/DX2                !
 ! R11   R(7,9)                  1.07           estimate D2E/DX2                !
 ! R12   R(7,10)                 1.07           estimate D2E/DX2                !
 ! R13   R(11,12)                1.2273         estimate D2E/DX2                !
 ! R14   R(11,13)                1.54           estimate D2E/DX2                !
 ! R15   R(13,14)                1.07           estimate D2E/DX2                !
 ! R16   R(13,15)                1.07           estimate D2E/DX2                !
 ! R17   R(13,16)                1.07           estimate D2E/DX2                !
 ! A1    A(2,1,7)              135.4644         estimate D2E/DX2                !
 ! A2    A(2,1,17)             110.0851         estimate D2E/DX2                !
 ! A3    A(7,1,17)             114.4505         estimate D2E/DX2                !
 ! A4    A(1,2,3)              106.6433         estimate D2E/DX2                !
 ! A5    A(1,2,5)              127.7352         estimate D2E/DX2                !
 ! A6    A(3,2,5)              125.6215         estimate D2E/DX2                !
 ! A7    A(2,3,4)              106.588          estimate D2E/DX2                !
 ! A8    A(2,3,6)              125.6441         estimate D2E/DX2                !
 ! A9    A(4,3,6)              127.768          estimate D2E/DX2                !
 ! A10   A(3,4,11)             135.4359         estimate D2E/DX2                !
 ! A11   A(3,4,17)             110.1235         estimate D2E/DX2                !
 ! A12   A(11,4,17)            114.4407         estimate D2E/DX2                !
 ! A13   A(1,7,8)              109.4712         estimate D2E/DX2                !
 ! A14   A(1,7,9)              109.4712         estimate D2E/DX2                !
 ! A15   A(1,7,10)             109.4712         estimate D2E/DX2                !
 ! A16   A(8,7,9)              109.4713         estimate D2E/DX2                !
 ! A17   A(8,7,10)             109.4712         estimate D2E/DX2                !
 ! A18   A(9,7,10)             109.4712         estimate D2E/DX2                !
 ! A19   A(4,11,12)            122.2249         estimate D2E/DX2                !
 ! A20   A(4,11,13)            115.5502         estimate D2E/DX2                !
 ! A21   A(12,11,13)           122.2249         estimate D2E/DX2                !
 ! A22   A(11,13,14)           109.4712         estimate D2E/DX2                !
 ! A23   A(11,13,15)           109.4712         estimate D2E/DX2                !
 ! A24   A(11,13,16)           109.4712         estimate D2E/DX2                !
 ! A25   A(14,13,15)           109.4712         estimate D2E/DX2                !
 ! A26   A(14,13,16)           109.4712         estimate D2E/DX2                !
 ! A27   A(15,13,16)           109.4712         estimate D2E/DX2                !
 ! A28   A(1,17,4)             106.5602         estimate D2E/DX2                !
 ! D1    D(7,1,2,3)            179.9992         estimate D2E/DX2                !
 ! D2    D(7,1,2,5)             -0.0078         estimate D2E/DX2                !
 ! D3    D(17,1,2,3)             0.0097         estimate D2E/DX2                !
 ! D4    D(17,1,2,5)          -179.9973         estimate D2E/DX2                !
 ! D5    D(2,1,7,8)            120.0147         estimate D2E/DX2                !
 ! D6    D(2,1,7,9)           -119.9852         estimate D2E/DX2                !
 ! D7    D(2,1,7,10)             0.0148         estimate D2E/DX2                !
 ! D8    D(17,1,7,8)           -59.9961         estimate D2E/DX2                !
 ! D9    D(17,1,7,9)            60.0039         estimate D2E/DX2                !
 ! D10   D(17,1,7,10)         -179.9961         estimate D2E/DX2                !
 ! D11   D(2,1,17,4)            -0.0117         estimate D2E/DX2                !
 ! D12   D(7,1,17,4)           179.9964         estimate D2E/DX2                !
 ! D13   D(1,2,3,4)             -0.0039         estimate D2E/DX2                !
 ! D14   D(1,2,3,6)           -179.9997         estimate D2E/DX2                !
 ! D15   D(5,2,3,4)           -179.997          estimate D2E/DX2                !
 ! D16   D(5,2,3,6)              0.0071         estimate D2E/DX2                !
 ! D17   D(2,3,4,11)          -179.9989         estimate D2E/DX2                !
 ! D18   D(2,3,4,17)            -0.0034         estimate D2E/DX2                !
 ! D19   D(6,3,4,11)            -0.0031         estimate D2E/DX2                !
 ! D20   D(6,3,4,17)           179.9924         estimate D2E/DX2                !
 ! D21   D(3,4,11,12)          180.0            estimate D2E/DX2                !
 ! D22   D(3,4,11,13)           -0.0022         estimate D2E/DX2                !
 ! D23   D(17,4,11,12)           0.0046         estimate D2E/DX2                !
 ! D24   D(17,4,11,13)        -179.9976         estimate D2E/DX2                !
 ! D25   D(3,4,17,1)             0.0092         estimate D2E/DX2                !
 ! D26   D(11,4,17,1)         -179.9942         estimate D2E/DX2                !
 ! D27   D(4,11,13,14)         -59.9994         estimate D2E/DX2                !
 ! D28   D(4,11,13,15)          60.0006         estimate D2E/DX2                !
 ! D29   D(4,11,13,16)        -179.9994         estimate D2E/DX2                !
 ! D30   D(12,11,13,14)        119.9984         estimate D2E/DX2                !
 ! D31   D(12,11,13,15)       -120.0016         estimate D2E/DX2                !
 ! D32   D(12,11,13,16)         -0.0016         estimate D2E/DX2                !
 --------------------------------------------------------------------------------
 Trust Radius=3.00D-01 FncErr=1.00D-07 GrdErr=1.00D-06
 Number of steps in this run=     87 maximum allowed number of steps=    102.
 GradGradGradGradGradGradGradGradGradGradGradGradGradGradGradGradGradGrad

                          Input orientation:                          
 ---------------------------------------------------------------------
 Center     Atomic      Atomic             Coordinates (Angstroms)
 Number     Number       Type             X           Y           Z
 ---------------------------------------------------------------------
      1          6           0       -1.462180    0.360456    0.019141
      2          6           0       -1.052911   -0.956960    0.031843
      3          6           0        0.394975   -0.941593    0.018318
      4          6           0        0.774634    0.384682   -0.001848
      5          1           0       -1.675774   -1.846171    0.048801
      6          1           0        1.037093   -1.817093    0.023347
      7          6           0       -2.819249    1.088435    0.022520
      8          1           0       -2.887015    1.712594    0.888969
      9          1           0       -2.903292    1.690362   -0.858116
     10          1           0       -3.610337    0.368154    0.039056
     11          6           0        2.115419    1.141925   -0.023733
     12          8           0        2.174564    2.367713   -0.039680
     13          6           0        3.377057    0.258824   -0.024223
     14          1           0        3.388083   -0.347888    0.857071
     15          1           0        3.372009   -0.369882   -0.890020
     16          1           0        4.247673    0.880658   -0.040062
     17         16           0       -0.352743    1.206779   -0.001878
 ---------------------------------------------------------------------
                    Distance matrix (angstroms):
                    1          2          3          4          5
     1  C    0.000000
     2  C    1.379582   0.000000
     3  C    2.268118   1.448030   0.000000
     4  C    2.237044   2.267390   1.379693   0.000000
     5  H    2.217139   1.085791   2.259910   3.314177   0.000000
     6  H    3.314831   2.260092   1.085745   2.217506   2.713142
     7  C    1.540000   2.702532   3.801614   3.662220   3.149625
     8  H    2.148263   3.350391   4.309779   3.995570   3.851986
     9  H    2.148263   3.350261   4.309743   3.995639   3.851800
    10  H    2.148263   2.880349   4.214071   4.385193   2.940385
    11  C    3.662206   3.800884   2.702359   1.540000   4.827745
    12  O    4.154329   4.634129   3.757899   2.427683   5.708743
    13  C    4.840499   4.594115   3.214907   2.605561   5.474252
    14  H    4.972820   4.557894   3.164599   2.846843   5.342359
    15  H    4.972862   4.557895   3.164595   2.846853   5.342370
    16  H    5.733807   5.610543   4.262310   3.508483   6.521558
    17  S    1.395549   2.274453   2.274861   1.395286   3.327685
                    6          7          8          9         10
     6  H    0.000000
     7  C    4.828402   0.000000
     8  H    5.348515   1.070000   0.000000
     9  H    5.348444   1.070000   1.747303   0.000000
    10  H    5.135578   1.070000   1.747303   1.747303   0.000000
    11  C    3.149729   4.935174   5.116936   5.117073   5.778144
    12  O    4.337097   5.155442   5.187596   5.187799   6.121235
    13  C    3.128438   6.251772   6.495073   6.495188   6.988536
    14  H    2.894963   6.425766   6.604806   6.832110   7.082355
    15  H    2.894908   6.425814   6.832049   6.604924   7.082446
    16  H    4.194008   7.070252   7.242858   7.243005   7.875103
    17  S    3.328075   2.469464   2.733495   2.733550   3.364058
                   11         12         13         14         15
    11  C    0.000000
    12  O    1.227317   0.000000
    13  C    1.540000   2.427683   0.000000
    14  H    2.148263   3.106651   1.070000   0.000000
    15  H    2.148263   3.106667   1.070000   1.747303   0.000000
    16  H    2.148263   2.551296   1.070000   1.747303   1.747303
    17  S    2.469111   2.781452   3.848445   4.141082   4.141067
                   16         17
    16  H    0.000000
    17  S    4.612119   0.000000
 Stoichiometry    C7H8OS
 Framework group  C1[X(C7H8OS)]
 Deg. of freedom    45
 Full point group                 C1      NOp   1
 Largest Abelian subgroup         C1      NOp   1
 Largest concise Abelian subgroup C1      NOp   1
                         Standard orientation:                         
 ---------------------------------------------------------------------
 Center     Atomic      Atomic             Coordinates (Angstroms)
 Number     Number       Type             X           Y           Z
 ---------------------------------------------------------------------
      1          6           0        1.758187    0.121912    0.000058
      2          6           0        1.460593    1.469015   -0.000029
      3          6           0        0.016426    1.574712   -0.000007
      4          6           0       -0.472925    0.284716    0.000003
      5          1           0        2.155728    2.303120    0.000004
      6          1           0       -0.550198    2.500875   -0.000064
      7          6           0        3.049636   -0.716991    0.000075
      8          1           0        3.073876   -1.334401    0.873641
      9          1           0        3.074061   -1.334151   -0.873662
     10          1           0        3.898278   -0.065294    0.000258
     11          6           0       -1.872455   -0.357871    0.000006
     12          8           0       -2.033988   -1.574511    0.000016
     13          6           0       -3.055820    0.627647    0.000047
     14          1           0       -3.007080    1.243473    0.873708
     15          1           0       -3.007116    1.243503   -0.873594
     16          1           0       -3.975472    0.080710    0.000057
     17         16           0        0.581748   -0.628786   -0.000087
 ---------------------------------------------------------------------
 Rotational constants (GHZ):      3.5498577      1.0417446      0.8133700
 Standard basis: 6-311+G(d,p) (5D, 7F)
 There are   263 symmetry adapted cartesian basis functions of A   symmetry.
 There are   254 symmetry adapted basis functions of A   symmetry.
   254 basis functions,   402 primitive gaussians,   263 cartesian basis functions
    37 alpha electrons       37 beta electrons
       nuclear repulsion energy       526.3120072954 Hartrees.
 NAtoms=   17 NActive=   17 NUniq=   17 SFac= 1.00D+00 NAtFMM=   60 NAOKFM=F Big=F
 Integral buffers will be    131072 words long.
 Raffenetti 2 integral format.
 Two-electron integral symmetry is turned on.
 One-electron integrals computed using PRISM.
 NBasis=   254 RedAO= T EigKep=  1.41D-06  NBF=   254
 NBsUse=   254 1.00D-06 EigRej= -1.00D+00 NBFU=   254
 ExpMin= 4.05D-02 ExpMax= 9.34D+04 ExpMxC= 3.17D+03 IAcc=2 IRadAn=         4 AccDes= 0.00D+00
 Harris functional with IExCor=  402 and IRadAn=       4 diagonalized for initial guess.
 HarFok:  IExCor=  402 AccDes= 0.00D+00 IRadAn=         4 IDoV= 1 UseB2=F ITyADJ=14
 ICtDFT=  3500011 ScaDFX=  1.000000  1.000000  1.000000  1.000000
 FoFCou: FMM=F IPFlag=           0 FMFlag=      100000 FMFlg1=           0
         NFxFlg=           0 DoJE=T BraDBF=F KetDBF=T FulRan=T
         wScrn=  0.000000 ICntrl=     500 IOpCl=  0 I1Cent=   200000004 NGrid=           0
         NMat0=    1 NMatS0=      1 NMatT0=    0 NMatD0=    1 NMtDS0=    0 NMtDT0=    0
 Petite list used in FoFCou.
 Keep R1 ints in memory in canonical form, NReq=533843321.
 Requested convergence on RMS density matrix=1.00D-08 within 128 cycles.
 Requested convergence on MAX density matrix=1.00D-06.
 Requested convergence on             energy=1.00D-06.
 No special actions if energy rises.
 CoulSu:  requested number of processors reduced to:  13 ShMem   1 Linda.
 CalDSu:  requested number of processors reduced to:   9 ShMem   1 Linda.
 CalDSu:  requested number of processors reduced to:   9 ShMem   1 Linda.
 CalDSu:  requested number of processors reduced to:   9 ShMem   1 Linda.
 CalDSu:  requested number of processors reduced to:   9 ShMem   1 Linda.
 CalDSu:  requested number of processors reduced to:   9 ShMem   1 Linda.
 CalDSu:  requested number of processors reduced to:   9 ShMem   1 Linda.
 CalDSu:  requested number of processors reduced to:   9 ShMem   1 Linda.
 CalDSu:  requested number of processors reduced to:   9 ShMem   1 Linda.
 CalDSu:  requested number of processors reduced to:   9 ShMem   1 Linda.
 CalDSu:  requested number of processors reduced to:   9 ShMem   1 Linda.
 CalDSu:  requested number of processors reduced to:   9 ShMem   1 Linda.
 CalDSu:  requested number of processors reduced to:   9 ShMem   1 Linda.
 CalDSu:  requested number of processors reduced to:   9 ShMem   1 Linda.
 CalDSu:  requested number of processors reduced to:   9 ShMem   1 Linda.
 CalDSu:  requested number of processors reduced to:   9 ShMem   1 Linda.
 SCF Done:  E(RB3LYP) =  -744.885885380     A.U. after   15 cycles
            NFock= 15  Conv=0.17D-08     -V/T= 1.9999

 **********************************************************************

            Population analysis using the SCF density.

 **********************************************************************

 Orbital symmetries:
       Occupied  (A) (A) (A) (A) (A) (A) (A) (A) (A) (A) (A) (A)
                 (A) (A) (A) (A) (A) (A) (A) (A) (A) (A) (A) (A)
                 (A) (A) (A) (A) (A) (A) (A) (A) (A) (A) (A) (A)
                 (A)
       Virtual   (A) (A) (A) (A) (A) (A) (A) (A) (A) (A) (A) (A)
                 (A) (A) (A) (A) (A) (A) (A) (A) (A) (A) (A) (A)
                 (A) (A) (A) (A) (A) (A) (A) (A) (A) (A) (A) (A)
                 (A) (A) (A) (A) (A) (A) (A) (A) (A) (A) (A) (A)
                 (A) (A) (A) (A) (A) (A) (A) (A) (A) (A) (A) (A)
                 (A) (A) (A) (A) (A) (A) (A) (A) (A) (A) (A) (A)
                 (A) (A) (A) (A) (A) (A) (A) (A) (A) (A) (A) (A)
                 (A) (A) (A) (A) (A) (A) (A) (A) (A) (A) (A) (A)
                 (A) (A) (A) (A) (A) (A) (A) (A) (A) (A) (A) (A)
                 (A) (A) (A) (A) (A) (A) (A) (A) (A) (A) (A) (A)
                 (A) (A) (A) (A) (A) (A) (A) (A) (A) (A) (A) (A)
                 (A) (A) (A) (A) (A) (A) (A) (A) (A) (A) (A) (A)
                 (A) (A) (A) (A) (A) (A) (A) (A) (A) (A) (A) (A)
                 (A) (A) (A) (A) (A) (A) (A) (A) (A) (A) (A) (A)
                 (A) (A) (A) (A) (A) (A) (A) (A) (A) (A) (A) (A)
                 (A) (A) (A) (A) (A) (A) (A) (A) (A) (A) (A) (A)
                 (A) (A) (A) (A) (A) (A) (A) (A) (A) (A) (A) (A)
                 (A) (A) (A) (A) (A) (A) (A) (A) (A) (A) (A) (A)
                 (A)
 The electronic state is 1-A.
 Alpha  occ. eigenvalues --  -88.84584 -19.12191 -10.28262 -10.19021 -10.18620
 Alpha  occ. eigenvalues --  -10.18263 -10.18205 -10.17805 -10.17515  -7.95755
 Alpha  occ. eigenvalues --   -5.91870  -5.91288  -5.91280  -1.05181  -0.99804
 Alpha  occ. eigenvalues --   -0.80903  -0.76447  -0.75533  -0.70250  -0.61625
 Alpha  occ. eigenvalues --   -0.57823  -0.54211  -0.49433  -0.48078  -0.45209
 Alpha  occ. eigenvalues --   -0.45063  -0.44535  -0.42920  -0.41726  -0.40560
 Alpha  occ. eigenvalues --   -0.39253  -0.38521  -0.37060  -0.33001  -0.26684
 Alpha  occ. eigenvalues --   -0.26296  -0.25860
 Alpha virt. eigenvalues --   -0.05145  -0.00353   0.00597   0.01287   0.02373
 Alpha virt. eigenvalues --    0.03163   0.03484   0.03954   0.04841   0.05361
 Alpha virt. eigenvalues --    0.05865   0.06098   0.06679   0.07774   0.08158
 Alpha virt. eigenvalues --    0.08947   0.09101   0.10580   0.11103   0.11816
 Alpha virt. eigenvalues --    0.12248   0.13083   0.13541   0.14347   0.14693
 Alpha virt. eigenvalues --    0.14960   0.15484   0.17029   0.17412   0.17531
 Alpha virt. eigenvalues --    0.18129   0.18886   0.19367   0.19610   0.20006
 Alpha virt. eigenvalues --    0.20321   0.20519   0.21597   0.22038   0.23188
 Alpha virt. eigenvalues --    0.24162   0.24191   0.24987   0.27037   0.28329
 Alpha virt. eigenvalues --    0.28420   0.29110   0.29588   0.31270   0.33029
 Alpha virt. eigenvalues --    0.33406   0.34142   0.36114   0.38140   0.39071
 Alpha virt. eigenvalues --    0.41307   0.41993   0.42479   0.43790   0.45844
 Alpha virt. eigenvalues --    0.48152   0.48733   0.51115   0.53747   0.54494
 Alpha virt. eigenvalues --    0.54560   0.56870   0.57503   0.57898   0.59906
 Alpha virt. eigenvalues --    0.60506   0.61692   0.61902   0.62708   0.63505
 Alpha virt. eigenvalues --    0.65215   0.65997   0.68552   0.70244   0.71238
 Alpha virt. eigenvalues --    0.72496   0.74310   0.74601   0.75573   0.77484
 Alpha virt. eigenvalues --    0.78879   0.80142   0.81845   0.84305   0.86090
 Alpha virt. eigenvalues --    0.87207   0.90884   0.91134   0.94167   0.95929
 Alpha virt. eigenvalues --    0.96526   0.99509   0.99927   1.03347   1.05225
 Alpha virt. eigenvalues --    1.06782   1.09155   1.10511   1.18692   1.19347
 Alpha virt. eigenvalues --    1.24523   1.28350   1.29931   1.30760   1.34994
 Alpha virt. eigenvalues --    1.40153   1.40920   1.42179   1.42273   1.44845
 Alpha virt. eigenvalues --    1.45065   1.51072   1.51264   1.53361   1.54590
 Alpha virt. eigenvalues --    1.55166   1.55907   1.59544   1.60038   1.61819
 Alpha virt. eigenvalues --    1.62802   1.65888   1.66031   1.70931   1.71501
 Alpha virt. eigenvalues --    1.74347   1.76480   1.76520   1.81450   1.83675
 Alpha virt. eigenvalues --    1.84845   1.87240   1.88188   1.90250   1.94146
 Alpha virt. eigenvalues --    1.97659   1.99945   2.00467   2.05366   2.05959
 Alpha virt. eigenvalues --    2.08697   2.09644   2.12385   2.16637   2.16698
 Alpha virt. eigenvalues --    2.19328   2.24936   2.25426   2.35575   2.36385
 Alpha virt. eigenvalues --    2.38179   2.47834   2.48842   2.49018   2.50256
 Alpha virt. eigenvalues --    2.50711   2.54599   2.55986   2.58221   2.59254
 Alpha virt. eigenvalues --    2.62890   2.64152   2.66310   2.71216   2.72998
 Alpha virt. eigenvalues --    2.73813   2.75923   2.76849   2.78781   2.84076
 Alpha virt. eigenvalues --    2.89183   2.90429   2.92121   2.92487   2.97760
 Alpha virt. eigenvalues --    3.00067   3.03138   3.11672   3.18708   3.22610
 Alpha virt. eigenvalues --    3.31298   3.33272   3.42037   3.46146   3.49565
 Alpha virt. eigenvalues --    3.68550   3.83406   3.83644   3.85535   3.87425
 Alpha virt. eigenvalues --    3.90971   4.00467   4.13452   4.19061   4.25743
 Alpha virt. eigenvalues --    4.47108   5.04685   5.20523   5.71466   8.31567
 Alpha virt. eigenvalues --   17.30605  17.74471  17.97743  23.68893  23.77724
 Alpha virt. eigenvalues --   23.88399  23.99252  23.99953  24.11210  24.14525
 Alpha virt. eigenvalues --   49.98131 189.61578
          Condensed to atoms (all electrons):
               1          2          3          4          5          6
     1  C    8.083049  -2.253810   1.965839  -2.111676  -0.036514  -0.012333
     2  C   -2.253810   9.670578  -3.028139   2.364356   0.436758   0.026180
     3  C    1.965839  -3.028139   9.765663  -1.219036  -0.042023   0.377783
     4  C   -2.111676   2.364356  -1.219036  10.871011   0.013922  -0.058311
     5  H   -0.036514   0.436758  -0.042023   0.013922   0.531619  -0.003878
     6  H   -0.012333   0.026180   0.377783  -0.058311  -0.003878   0.532119
     7  C    0.104973  -0.535285   0.394991  -0.387671  -0.019551  -0.001545
     8  H    0.004839  -0.024946   0.004237  -0.003207   0.000011   0.000015
     9  H    0.004860  -0.024970   0.004243  -0.003211   0.000011   0.000015
    10  H   -0.120237  -0.006197   0.022144  -0.013939   0.000669  -0.000024
    11  C    0.000633   0.373652  -1.417134  -2.553439   0.007510   0.038179
    12  O    0.076058  -0.024279  -0.039586  -0.232885   0.000038  -0.000840
    13  C    0.085986  -0.146060  -0.327790  -0.743179  -0.001045  -0.012472
    14  H   -0.006564   0.008398  -0.000676  -0.005784  -0.000004  -0.000204
    15  H   -0.006515   0.008342  -0.000573  -0.005705  -0.000004  -0.000204
    16  H    0.004899  -0.003093   0.020472   0.056369   0.000000   0.000016
    17  S    0.000365  -0.294597  -0.176874  -0.154719  -0.008860  -0.008356
               7          8          9         10         11         12
     1  C    0.104973   0.004839   0.004860  -0.120237   0.000633   0.076058
     2  C   -0.535285  -0.024946  -0.024970  -0.006197   0.373652  -0.024279
     3  C    0.394991   0.004237   0.004243   0.022144  -1.417134  -0.039586
     4  C   -0.387671  -0.003207  -0.003211  -0.013939  -2.553439  -0.232885
     5  H   -0.019551   0.000011   0.000011   0.000669   0.007510   0.000038
     6  H   -0.001545   0.000015   0.000015  -0.000024   0.038179  -0.000840
     7  C    5.660250   0.390299   0.390297   0.476795  -0.024738  -0.003971
     8  H    0.390299   0.518169  -0.030706  -0.022230   0.000438  -0.000073
     9  H    0.390297  -0.030706   0.518172  -0.022228   0.000443  -0.000073
    10  H    0.476795  -0.022230  -0.022228   0.518506  -0.003819   0.000034
    11  C   -0.024738   0.000438   0.000443  -0.003819   8.697356   0.549720
    12  O   -0.003971  -0.000073  -0.000073   0.000034   0.549720   7.959173
    13  C   -0.009975   0.000034   0.000035   0.000229  -0.061326  -0.028169
    14  H   -0.000079   0.000000   0.000000   0.000000   0.000109   0.003277
    15  H   -0.000075   0.000000   0.000000   0.000000  -0.000070   0.003280
    16  H    0.000298   0.000000   0.000000   0.000000  -0.073441  -0.002916
    17  S   -0.078386  -0.005452  -0.005456   0.020237   0.310001  -0.016068
              13         14         15         16         17
     1  C    0.085986  -0.006564  -0.006515   0.004899   0.000365
     2  C   -0.146060   0.008398   0.008342  -0.003093  -0.294597
     3  C   -0.327790  -0.000676  -0.000573   0.020472  -0.176874
     4  C   -0.743179  -0.005784  -0.005705   0.056369  -0.154719
     5  H   -0.001045  -0.000004  -0.000004   0.000000  -0.008860
     6  H   -0.012472  -0.000204  -0.000204   0.000016  -0.008356
     7  C   -0.009975  -0.000079  -0.000075   0.000298  -0.078386
     8  H    0.000034   0.000000   0.000000   0.000000  -0.005452
     9  H    0.000035   0.000000   0.000000   0.000000  -0.005456
    10  H    0.000229   0.000000   0.000000   0.000000   0.020237
    11  C   -0.061326   0.000109  -0.000070  -0.073441   0.310001
    12  O   -0.028169   0.003277   0.003280  -0.002916  -0.016068
    13  C    6.628468   0.366533   0.366548   0.383444   0.060124
    14  H    0.366533   0.521749  -0.027184  -0.019294   0.000635
    15  H    0.366548  -0.027184   0.521748  -0.019294   0.000621
    16  H    0.383444  -0.019294  -0.019294   0.489445  -0.007162
    17  S    0.060124   0.000635   0.000621  -0.007162  16.132797
 Mulliken charges:
               1
     1  C    0.216149
     2  C   -0.546886
     3  C   -0.303542
     4  C    0.187103
     5  H    0.121340
     6  H    0.123860
     7  C   -0.356628
     8  H    0.168573
     9  H    0.168569
    10  H    0.150061
    11  C    0.155926
    12  O   -0.242717
    13  C   -0.561387
    14  H    0.159087
    15  H    0.159085
    16  H    0.170256
    17  S    0.231151
 Sum of Mulliken charges =   0.00000
 Mulliken charges with hydrogens summed into heavy atoms:
               1
     1  C    0.216149
     2  C   -0.425545
     3  C   -0.179681
     4  C    0.187103
     7  C    0.130574
    11  C    0.155926
    12  O   -0.242717
    13  C   -0.072959
    17  S    0.231151
 Electronic spatial extent (au):  <R**2>=           1414.9320
 Charge=              0.0000 electrons
 Dipole moment (field-independent basis, Debye):
    X=              1.4943    Y=              2.6730    Z=             -0.0001  Tot=              3.0624
 Quadrupole moment (field-independent basis, Debye-Ang):
   XX=            -54.2114   YY=            -63.4802   ZZ=            -60.8187
   XY=             -7.3262   XZ=              0.0001   YZ=             -0.0001
 Traceless Quadrupole moment (field-independent basis, Debye-Ang):
   XX=              5.2920   YY=             -3.9768   ZZ=             -1.3153
   XY=             -7.3262   XZ=              0.0001   YZ=             -0.0001
 Octapole moment (field-independent basis, Debye-Ang**2):
  XXX=              3.5484  YYY=              8.7819  ZZZ=             -0.0005  XYY=             10.8035
  XXY=             10.7227  XXZ=              0.0006  XZZ=             -4.0148  YZZ=             -6.4931
  YYZ=             -0.0003  XYZ=              0.0000
 Hexadecapole moment (field-independent basis, Debye-Ang**3):
 XXXX=          -1334.4957 YYYY=           -444.8361 ZZZZ=            -81.7107 XXXY=            -18.2485
 XXXZ=              0.0017 YYYX=            -11.2406 YYYZ=             -0.0022 ZZZX=             -0.0016
 ZZZY=              0.0003 XXYY=           -318.3518 XXZZ=           -246.9620 YYZZ=            -91.5003
 XXYZ=              0.0011 YYXZ=              0.0010 ZZXY=             -5.5983
 N-N= 5.263120072954D+02 E-N=-2.808177859713D+03  KE= 7.449874509052D+02
 There are a total of      139704 grid points.
 ElSum from          density=       74.0000518598
 ElSum from atomic densities=       74.0002537757

 Hirshfeld populations at iteration   1 (CX, CA, CB, DipXYZ):
               1          2          3          4          5          6
     1  C    0.000000   3.030446   3.030446   0.134580  -0.010095   0.000031
     2  C    0.000001   3.032723   3.032723   0.068415   0.057545  -0.000010
     3  C    0.000001   3.031260   3.031260  -0.052339   0.068281   0.000002
     4  C    0.000001   3.046737   3.046737  -0.110686   0.016531   0.000017
     5  H    0.000002   0.474554   0.474554   0.106731   0.125974   0.000003
     6  H    0.000002   0.474223   0.474223  -0.082762   0.143229  -0.000012
     7  C    0.000000   3.041497   3.041497   0.002256   0.006506   0.000002
     8  H    0.000002   0.476462   0.476462   0.012448  -0.090848   0.128890
     9  H    0.000002   0.476463   0.476463   0.012472  -0.090812  -0.128913
    10  H    0.000001   0.476950   0.476950   0.124030   0.094271   0.000027
    11  C    0.000000   2.910811   2.910811  -0.003214   0.034539  -0.000003
    12  O    0.000007   4.135058   4.135058   0.019644   0.111728   0.000001
    13  C    0.000000   3.049302   3.049302  -0.003474   0.004600   0.000001
    14  H    0.000002   0.475189   0.475189  -0.001396   0.087370   0.130378
    15  H    0.000002   0.475190   0.475190  -0.001401   0.087374  -0.130374
    16  H    0.000001   0.475307   0.475307  -0.141374  -0.068726   0.000002
    17  S    0.000001   7.917853   7.917853   0.021158  -0.039677  -0.000054
       Tot   0.000023  37.000026  37.000026   0.105088   0.537790  -0.000014

 Dip from Atomic Chgs              0.482714   0.514084  -0.000023
         Total Dipole              0.587802   1.051874  -0.000037

 Hirshfeld charges, spin densities, dipoles, and CM5 charges using IRadAn=      4:
              Q-H        S-H        Dx         Dy         Dz        Q-CM5   
     1  C   -0.060892   0.000000   0.134580  -0.010095   0.000031  -0.106038
     2  C   -0.065446   0.000000   0.068415   0.057545  -0.000010  -0.120891
     3  C   -0.062521   0.000000  -0.052339   0.068281   0.000002  -0.117603
     4  C   -0.093475   0.000000  -0.110686   0.016531   0.000017  -0.127851
     5  H    0.050891   0.000000   0.106731   0.125974   0.000003   0.104767
     6  H    0.051554   0.000000  -0.082762   0.143229  -0.000012   0.105777
     7  C   -0.082993   0.000000   0.002256   0.006506   0.000002  -0.236104
     8  H    0.047076   0.000000   0.012448  -0.090848   0.128890   0.098922
     9  H    0.047075   0.000000   0.012472  -0.090812  -0.128913   0.098921
    10  H    0.046099   0.000000   0.124030   0.094271   0.000027   0.099953
    11  C    0.178378   0.000000  -0.003214   0.034539  -0.000003   0.200400
    12  O   -0.270116   0.000000   0.019644   0.111728   0.000001  -0.312212
    13  C   -0.098605   0.000000  -0.003474   0.004600   0.000001  -0.247791
    14  H    0.049621   0.000000  -0.001396   0.087370   0.130378   0.104980
    15  H    0.049620   0.000000  -0.001401   0.087374  -0.130374   0.104979
    16  H    0.049386   0.000000  -0.141374  -0.068726   0.000002   0.106451
    17  S    0.164295   0.000000   0.021158  -0.039677  -0.000054   0.243287
       Tot  -0.000052   0.000000   0.105088   0.537790  -0.000014  -0.000052
 Hirshfeld charges with hydrogens summed into heavy atoms:
              Q-H       Q-CM5   
     1  C   -0.060892  -0.106038
     2  C   -0.014554  -0.016124
     3  C   -0.010967  -0.011825
     4  C   -0.093475  -0.127851
     7  C    0.057257   0.061692
    11  C    0.178378   0.200400
    12  O   -0.270116  -0.312212
    13  C    0.050022   0.068619
    17  S    0.164295   0.243287
 
 EQQ= 0.000000000000E+00 EQD= 0.000000000000E+00 EDD= 0.421297297633E-02
 EQQ+QD+DD= 0.421297297633E-02
 
          MBS Condensed to atoms (all electrons):
               1          2          3          4          5          6
     1  C    4.836876   0.495393  -0.057970  -0.053711  -0.021334   0.001608
     2  C    0.495393   4.923073   0.507515  -0.058944   0.385942  -0.019408
     3  C   -0.057970   0.507515   4.922864   0.489318  -0.019752   0.385904
     4  C   -0.053711  -0.058944   0.489318   4.925952   0.001662  -0.021264
     5  H   -0.021334   0.385942  -0.019752   0.001662   0.539463  -0.001017
     6  H    0.001608  -0.019408   0.385904  -0.021264  -0.001017   0.537829
     7  C    0.366767  -0.012771   0.000952   0.001744  -0.001173  -0.000010
     8  H   -0.022442   0.000591  -0.000021   0.000020   0.000003   0.000000
     9  H   -0.022441   0.000591  -0.000021   0.000020   0.000003   0.000000
    10  H   -0.021409  -0.002385   0.000010  -0.000052   0.000526  -0.000001
    11  C    0.001503   0.000789  -0.010209   0.364930  -0.000007  -0.001107
    12  O   -0.000014  -0.000003   0.000190  -0.026252   0.000000   0.000002
    13  C   -0.000019  -0.000009  -0.001068  -0.039918   0.000000   0.000357
    14  H    0.000001   0.000004  -0.000126  -0.000173   0.000000   0.000035
    15  H    0.000001   0.000004  -0.000126  -0.000173   0.000000   0.000035
    16  H    0.000000   0.000000   0.000027   0.001270   0.000000  -0.000012
    17  S    0.494523  -0.074090  -0.073839   0.476504   0.002406   0.002282
               7          8          9         10         11         12
     1  C    0.366767  -0.022442  -0.022441  -0.021409   0.001503  -0.000014
     2  C   -0.012771   0.000591   0.000591  -0.002385   0.000789  -0.000003
     3  C    0.000952  -0.000021  -0.000021   0.000010  -0.010209   0.000190
     4  C    0.001744   0.000020   0.000020  -0.000052   0.364930  -0.026252
     5  H   -0.001173   0.000003   0.000003   0.000526  -0.000007   0.000000
     6  H   -0.000010   0.000000   0.000000  -0.000001  -0.001107   0.000002
     7  C    4.814509   0.382652   0.382650   0.379981  -0.000008   0.000000
     8  H    0.382652   0.570142  -0.023103  -0.021143   0.000000   0.000000
     9  H    0.382650  -0.023103   0.570144  -0.021142   0.000000   0.000000
    10  H    0.379981  -0.021143  -0.021142   0.573723   0.000000   0.000000
    11  C   -0.000008   0.000000   0.000000   0.000000   4.590213   0.455867
    12  O    0.000000   0.000000   0.000000   0.000000   0.455867   8.023276
    13  C    0.000000   0.000000   0.000000   0.000000   0.355148  -0.027570
    14  H    0.000000   0.000000   0.000000   0.000000  -0.018753   0.000437
    15  H    0.000000   0.000000   0.000000   0.000000  -0.018753   0.000437
    16  H    0.000000   0.000000   0.000000   0.000000  -0.020054  -0.000269
    17  S   -0.044432  -0.003135  -0.003135   0.002188  -0.039115   0.001750
              13         14         15         16         17
     1  C   -0.000019   0.000001   0.000001   0.000000   0.494523
     2  C   -0.000009   0.000004   0.000004   0.000000  -0.074090
     3  C   -0.001068  -0.000126  -0.000126   0.000027  -0.073839
     4  C   -0.039918  -0.000173  -0.000173   0.001270   0.476504
     5  H    0.000000   0.000000   0.000000   0.000000   0.002406
     6  H    0.000357   0.000035   0.000035  -0.000012   0.002282
     7  C    0.000000   0.000000   0.000000   0.000000  -0.044432
     8  H    0.000000   0.000000   0.000000   0.000000  -0.003135
     9  H    0.000000   0.000000   0.000000   0.000000  -0.003135
    10  H    0.000000   0.000000   0.000000   0.000000   0.002188
    11  C    0.355148  -0.018753  -0.018753  -0.020054  -0.039115
    12  O   -0.027570   0.000437   0.000437  -0.000269   0.001750
    13  C    4.887637   0.374298   0.374298   0.378008   0.000843
    14  H    0.374298   0.567407  -0.019760  -0.020625   0.000012
    15  H    0.374298  -0.019760   0.567410  -0.020625   0.000012
    16  H    0.378008  -0.020625  -0.020625   0.558582  -0.000028
    17  S    0.000843   0.000012   0.000012  -0.000028  15.176720
 MBS Mulliken charges:
               1
     1  C    0.002668
     2  C   -0.146292
     3  C   -0.143648
     4  C   -0.060933
     5  H    0.113278
     6  H    0.114766
     7  C   -0.270863
     8  H    0.116435
     9  H    0.116433
    10  H    0.109705
    11  C    0.339555
    12  O   -0.427849
    13  C   -0.302004
    14  H    0.117244
    15  H    0.117242
    16  H    0.123726
    17  S    0.080536
 Sum of MBS Mulliken charges =   0.00000
 MBS Mulliken charges with hydrogens summed into heavy atoms:
               1
     1  C    0.002668
     2  C   -0.033014
     3  C   -0.028881
     4  C   -0.060933
     7  C    0.071710
    11  C    0.339555
    12  O   -0.427849
    13  C    0.056208
    17  S    0.080536
 Breneman (CHELPG) radii used.
 Generate Potential Derived Charges using the Breneman model, NDens= 1.
 Grid spacing= 0.300 Box extension= 2.800
 NStep X,Y,Z=   46     34     26   Total possible points=       40664
 Number of Points to Fit=   12155

 **********************************************************************

            Electrostatic Properties Using The SCF Density

 **********************************************************************

       Atomic Center    1 is at   1.758187  0.121912  0.000058
       Atomic Center    2 is at   1.460593  1.469015 -0.000029
       Atomic Center    3 is at   0.016426  1.574712 -0.000007
       Atomic Center    4 is at  -0.472925  0.284716  0.000003
       Atomic Center    5 is at   2.155728  2.303120  0.000004
       Atomic Center    6 is at  -0.550198  2.500875 -0.000064
       Atomic Center    7 is at   3.049636 -0.716991  0.000075
       Atomic Center    8 is at   3.073876 -1.334401  0.873641
       Atomic Center    9 is at   3.074061 -1.334151 -0.873662
       Atomic Center   10 is at   3.898278 -0.065294  0.000258
       Atomic Center   11 is at  -1.872455 -0.357871  0.000006
       Atomic Center   12 is at  -2.033988 -1.574511  0.000016
       Atomic Center   13 is at  -3.055820  0.627647  0.000047
       Atomic Center   14 is at  -3.007080  1.243473  0.873708
       Atomic Center   15 is at  -3.007116  1.243503 -0.873594
       Atomic Center   16 is at  -3.975472  0.080710  0.000057
       Atomic Center   17 is at   0.581748 -0.628786 -0.000087
   12155 points will be used for fitting atomic charges
 Fitting point charges to electrostatic potential
 Charges from ESP fit, RMS=   0.00324 RRMS=   0.22355:
 ESP charges:
               1
     1  C    0.304736
     2  C   -0.273301
     3  C   -0.179038
     4  C   -0.042536
     5  H    0.130222
     6  H    0.124027
     7  C   -0.381789
     8  H    0.117839
     9  H    0.117862
    10  H    0.106405
    11  C    0.571327
    12  O   -0.520951
    13  C   -0.189835
    14  H    0.046691
    15  H    0.046700
    16  H    0.070545
    17  S   -0.048904
 Sum of ESP charges =   0.00000
 ESP charges with hydrogens summed into heavy atoms:
               1
     1  C    0.304736
     2  C   -0.143079
     3  C   -0.055011
     4  C   -0.042536
     7  C   -0.039682
    11  C    0.571327
    12  O   -0.520951
    13  C   -0.025899
    17  S   -0.048904
 Charge=   0.00000 Dipole=     1.5441     2.6573    -0.0001 Tot=     3.0733
 -----------------------------------------------------------------

              Electrostatic Properties (Atomic Units)

 -----------------------------------------------------------------
    Center     Electric         -------- Electric Field --------
               Potential          X             Y             Z
 -----------------------------------------------------------------
    1 Atom    -14.777463
    2 Atom    -14.764341
    3 Atom    -14.760294
    4 Atom    -14.782069
    5 Atom     -1.092681
    6 Atom     -1.088818
    7 Atom    -14.763894
    8 Atom     -1.105217
    9 Atom     -1.105217
   10 Atom     -1.106805
   11 Atom    -14.669087
   12 Atom    -22.378855
   13 Atom    -14.772818
   14 Atom     -1.095782
   15 Atom     -1.095783
   16 Atom     -1.108877
   17 Atom    -59.249002
 -----------------------------------------------------------------
 ******************************Gaussian NBO Version 3.1******************************
             N A T U R A L   A T O M I C   O R B I T A L   A N D
          N A T U R A L   B O N D   O R B I T A L   A N A L Y S I S
 ******************************Gaussian NBO Version 3.1******************************
       /RESON  / : Allow strongly delocalized NBO set

 Analyzing the SCF density

 Job title: Title Card Required                                             

 Storage needed:    194774 in NPA ( 536869297 available)


 NATURAL POPULATIONS:  Natural atomic orbital occupancies 
                                                          
   NAO  Atom  No  lang   Type(AO)    Occupancy      Energy
 ----------------------------------------------------------
     1    C    1  S      Cor( 1S)     1.99870     -10.02608
     2    C    1  S      Val( 2S)     0.92867      -0.21119
     3    C    1  S      Ryd( 3S)     0.00200       0.75791
     4    C    1  S      Ryd( 4S)     0.00024       1.18723
     5    C    1  S      Ryd( 5S)     0.00002      22.77994
     6    C    1  px     Val( 2p)     1.12071      -0.17481
     7    C    1  px     Ryd( 4p)     0.00629       1.14681
     8    C    1  px     Ryd( 3p)     0.00028       0.56125
     9    C    1  px     Ryd( 5p)     0.00016       3.27666
    10    C    1  py     Val( 2p)     1.15917      -0.15056
    11    C    1  py     Ryd( 4p)     0.00633       0.96133
    12    C    1  py     Ryd( 3p)     0.00031       0.56721
    13    C    1  py     Ryd( 5p)     0.00017       3.30706
    14    C    1  pz     Val( 2p)     1.18519      -0.16007
    15    C    1  pz     Ryd( 4p)     0.00353       0.56803
    16    C    1  pz     Ryd( 3p)     0.00056       0.44358
    17    C    1  pz     Ryd( 5p)     0.00008       2.63605
    18    C    1  dxy    Ryd( 3d)     0.00396       1.91875
    19    C    1  dxz    Ryd( 3d)     0.00308       1.48425
    20    C    1  dyz    Ryd( 3d)     0.00116       1.40147
    21    C    1  dx2y2  Ryd( 3d)     0.00207       1.86306
    22    C    1  dz2    Ryd( 3d)     0.00264       1.83164

    23    C    2  S      Cor( 1S)     1.99915     -10.04305
    24    C    2  S      Val( 2S)     0.95956      -0.17576
    25    C    2  S      Ryd( 4S)     0.00135       0.77991
    26    C    2  S      Ryd( 3S)     0.00023       0.56597
    27    C    2  S      Ryd( 5S)     0.00001      23.24772
    28    C    2  px     Val( 2p)     1.08517      -0.06672
    29    C    2  px     Ryd( 4p)     0.00485       0.89576
    30    C    2  px     Ryd( 3p)     0.00056       0.43033
    31    C    2  px     Ryd( 5p)     0.00010       3.04326
    32    C    2  py     Val( 2p)     1.10029      -0.05778
    33    C    2  py     Ryd( 4p)     0.00435       0.94356
    34    C    2  py     Ryd( 3p)     0.00039       0.42400
    35    C    2  py     Ryd( 5p)     0.00016       3.08558
    36    C    2  pz     Val( 2p)     1.06724      -0.12169
    37    C    2  pz     Ryd( 4p)     0.00212       0.51767
    38    C    2  pz     Ryd( 3p)     0.00055       0.28049
    39    C    2  pz     Ryd( 5p)     0.00003       2.68966
    40    C    2  dxy    Ryd( 3d)     0.00077       2.55544
    41    C    2  dxz    Ryd( 3d)     0.00065       1.63079
    42    C    2  dyz    Ryd( 3d)     0.00054       1.82760
    43    C    2  dx2y2  Ryd( 3d)     0.00070       2.75477
    44    C    2  dz2    Ryd( 3d)     0.00033       2.18489

    45    C    3  S      Cor( 1S)     1.99917     -10.04784
    46    C    3  S      Val( 2S)     0.95865      -0.18045
    47    C    3  S      Ryd( 4S)     0.00173       0.72434
    48    C    3  S      Ryd( 3S)     0.00022       0.56974
    49    C    3  S      Ryd( 5S)     0.00001      23.24312
    50    C    3  px     Val( 2p)     1.06660      -0.06709
    51    C    3  px     Ryd( 4p)     0.00406       0.86689
    52    C    3  px     Ryd( 3p)     0.00060       0.45327
    53    C    3  px     Ryd( 5p)     0.00015       3.09558
    54    C    3  py     Val( 2p)     1.11609      -0.05890
    55    C    3  py     Ryd( 4p)     0.00435       0.97724
    56    C    3  py     Ryd( 3p)     0.00043       0.38846
    57    C    3  py     Ryd( 5p)     0.00017       3.09717
    58    C    3  pz     Val( 2p)     1.05245      -0.12399
    59    C    3  pz     Ryd( 4p)     0.00213       0.50618
    60    C    3  pz     Ryd( 3p)     0.00051       0.29939
    61    C    3  pz     Ryd( 5p)     0.00003       2.69834
    62    C    3  dxy    Ryd( 3d)     0.00077       2.61612
    63    C    3  dxz    Ryd( 3d)     0.00071       1.63388
    64    C    3  dyz    Ryd( 3d)     0.00051       1.81798
    65    C    3  dx2y2  Ryd( 3d)     0.00067       2.71113
    66    C    3  dz2    Ryd( 3d)     0.00032       2.20744

    67    C    4  S      Cor( 1S)     1.99857     -10.02152
    68    C    4  S      Val( 2S)     0.94588      -0.21164
    69    C    4  S      Ryd( 3S)     0.00318       0.75240
    70    C    4  S      Ryd( 4S)     0.00030       0.97038
    71    C    4  S      Ryd( 5S)     0.00003      23.04521
    72    C    4  px     Val( 2p)     1.15628      -0.18207
    73    C    4  px     Ryd( 4p)     0.00674       1.18540
    74    C    4  px     Ryd( 3p)     0.00025       0.64424
    75    C    4  px     Ryd( 5p)     0.00017       3.28776
    76    C    4  py     Val( 2p)     1.16928      -0.17177
    77    C    4  py     Ryd( 4p)     0.00845       1.20290
    78    C    4  py     Ryd( 3p)     0.00016       0.58968
    79    C    4  py     Ryd( 5p)     0.00020       3.29923
    80    C    4  pz     Val( 2p)     1.25153      -0.16803
    81    C    4  pz     Ryd( 4p)     0.00222       0.57228
    82    C    4  pz     Ryd( 3p)     0.00068       0.37743
    83    C    4  pz     Ryd( 5p)     0.00006       2.74482
    84    C    4  dxy    Ryd( 3d)     0.00487       2.01826
    85    C    4  dxz    Ryd( 3d)     0.00214       1.44037
    86    C    4  dyz    Ryd( 3d)     0.00151       1.42915
    87    C    4  dx2y2  Ryd( 3d)     0.00137       1.81528
    88    C    4  dz2    Ryd( 3d)     0.00275       1.81958

    89    H    5  S      Val( 1S)     0.78041       0.04372
    90    H    5  S      Ryd( 2S)     0.00050       0.91694
    91    H    5  S      Ryd( 3S)     0.00023       1.69977
    92    H    5  px     Ryd( 2p)     0.00026       2.26192
    93    H    5  py     Ryd( 2p)     0.00037       2.43140
    94    H    5  pz     Ryd( 2p)     0.00022       1.59651

    95    H    6  S      Val( 1S)     0.77945       0.04197
    96    H    6  S      Ryd( 2S)     0.00049       0.80465
    97    H    6  S      Ryd( 3S)     0.00024       1.80762
    98    H    6  px     Ryd( 2p)     0.00020       2.16091
    99    H    6  py     Ryd( 2p)     0.00042       2.54409
   100    H    6  pz     Ryd( 2p)     0.00023       1.59507

   101    C    7  S      Cor( 1S)     1.99932     -10.03717
   102    C    7  S      Val( 2S)     1.07662      -0.25006
   103    C    7  S      Ryd( 4S)     0.00062       0.90162
   104    C    7  S      Ryd( 3S)     0.00017       0.53877
   105    C    7  S      Ryd( 5S)     0.00000      23.43064
   106    C    7  px     Val( 2p)     1.08872      -0.10263
   107    C    7  px     Ryd( 4p)     0.00253       0.58485
   108    C    7  px     Ryd( 3p)     0.00024       0.18630
   109    C    7  px     Ryd( 5p)     0.00010       3.06956
   110    C    7  py     Val( 2p)     1.16721      -0.10384
   111    C    7  py     Ryd( 4p)     0.00230       0.54628
   112    C    7  py     Ryd( 3p)     0.00010       0.19474
   113    C    7  py     Ryd( 5p)     0.00007       3.10150
   114    C    7  pz     Val( 2p)     1.21778      -0.10656
   115    C    7  pz     Ryd( 4p)     0.00118       0.52308
   116    C    7  pz     Ryd( 3p)     0.00006       0.16274
   117    C    7  pz     Ryd( 5p)     0.00005       3.12731
   118    C    7  dxy    Ryd( 3d)     0.00070       2.45168
   119    C    7  dxz    Ryd( 3d)     0.00038       1.83832
   120    C    7  dyz    Ryd( 3d)     0.00114       2.26357
   121    C    7  dx2y2  Ryd( 3d)     0.00042       2.06582
   122    C    7  dz2    Ryd( 3d)     0.00061       2.18933

   123    H    8  S      Val( 1S)     0.78699       0.03330
   124    H    8  S      Ryd( 2S)     0.00067       0.98747
   125    H    8  S      Ryd( 3S)     0.00012       1.75736
   126    H    8  px     Ryd( 2p)     0.00018       1.74185
   127    H    8  py     Ryd( 2p)     0.00018       2.11999
   128    H    8  pz     Ryd( 2p)     0.00024       2.41313

   129    H    9  S      Val( 1S)     0.78699       0.03330
   130    H    9  S      Ryd( 2S)     0.00067       0.98730
   131    H    9  S      Ryd( 3S)     0.00012       1.75754
   132    H    9  px     Ryd( 2p)     0.00018       1.74185
   133    H    9  py     Ryd( 2p)     0.00018       2.11970
   134    H    9  pz     Ryd( 2p)     0.00024       2.41337

   135    H   10  S      Val( 1S)     0.78693       0.03518
   136    H   10  S      Ryd( 2S)     0.00041       0.75400
   137    H   10  S      Ryd( 3S)     0.00009       1.95586
   138    H   10  px     Ryd( 2p)     0.00027       2.38065
   139    H   10  py     Ryd( 2p)     0.00020       2.11357
   140    H   10  pz     Ryd( 2p)     0.00009       1.75554

   141    C   11  S      Cor( 1S)     1.99946     -10.16603
   142    C   11  S      Val( 2S)     0.86454      -0.19634
   143    C   11  S      Ryd( 3S)     0.00549       0.77842
   144    C   11  S      Ryd( 4S)     0.00028       0.88477
   145    C   11  S      Ryd( 5S)     0.00003      22.87759
   146    C   11  px     Val( 2p)     0.96862      -0.06043
   147    C   11  px     Ryd( 4p)     0.00452       1.11726
   148    C   11  px     Ryd( 3p)     0.00062       0.45213
   149    C   11  px     Ryd( 5p)     0.00014       2.60231
   150    C   11  py     Val( 2p)     0.81135      -0.02096
   151    C   11  py     Ryd( 4p)     0.01903       0.93667
   152    C   11  py     Ryd( 3p)     0.00053       0.41098
   153    C   11  py     Ryd( 5p)     0.00008       2.89291
   154    C   11  pz     Val( 2p)     0.72902      -0.12738
   155    C   11  pz     Ryd( 4p)     0.00111       0.64200
   156    C   11  pz     Ryd( 3p)     0.00045       0.33196
   157    C   11  pz     Ryd( 5p)     0.00005       2.53831
   158    C   11  dxy    Ryd( 3d)     0.00347       2.52553
   159    C   11  dxz    Ryd( 3d)     0.00061       1.63884
   160    C   11  dyz    Ryd( 3d)     0.00347       1.64004
   161    C   11  dx2y2  Ryd( 3d)     0.00158       2.59717
   162    C   11  dz2    Ryd( 3d)     0.00038       2.03815

   163    O   12  S      Cor( 1S)     1.99976     -18.85693
   164    O   12  S      Val( 2S)     1.70239      -0.90117
   165    O   12  S      Ryd( 3S)     0.00219       1.19265
   166    O   12  S      Ryd( 4S)     0.00010       1.36505
   167    O   12  S      Ryd( 5S)     0.00000      49.65602
   168    O   12  px     Val( 2p)     1.86824      -0.27286
   169    O   12  px     Ryd( 3p)     0.00470       0.76623
   170    O   12  px     Ryd( 4p)     0.00009       1.01081
   171    O   12  px     Ryd( 5p)     0.00000       4.92977
   172    O   12  py     Val( 2p)     1.59054      -0.31340
   173    O   12  py     Ryd( 3p)     0.00078       0.65985
   174    O   12  py     Ryd( 4p)     0.00013       1.14307
   175    O   12  py     Ryd( 5p)     0.00009       5.01055
   176    O   12  pz     Val( 2p)     1.38979      -0.25612
   177    O   12  pz     Ryd( 3p)     0.00056       0.59630
   178    O   12  pz     Ryd( 4p)     0.00004       1.02344
   179    O   12  pz     Ryd( 5p)     0.00004       4.79110
   180    O   12  dxy    Ryd( 3d)     0.00132       3.25138
   181    O   12  dxz    Ryd( 3d)     0.00005       2.84218
   182    O   12  dyz    Ryd( 3d)     0.00164       3.08319
   183    O   12  dx2y2  Ryd( 3d)     0.00148       3.51628
   184    O   12  dz2    Ryd( 3d)     0.00043       3.08323

   185    C   13  S      Cor( 1S)     1.99926     -10.03033
   186    C   13  S      Val( 2S)     1.10645      -0.26475
   187    C   13  S      Ryd( 3S)     0.00047       0.62503
   188    C   13  S      Ryd( 4S)     0.00036       0.98353
   189    C   13  S      Ryd( 5S)     0.00000      23.30936
   190    C   13  px     Val( 2p)     1.15323      -0.11146
   191    C   13  px     Ryd( 4p)     0.00159       0.61039
   192    C   13  px     Ryd( 3p)     0.00031       0.21898
   193    C   13  px     Ryd( 5p)     0.00008       3.06067
   194    C   13  py     Val( 2p)     1.17629      -0.10939
   195    C   13  py     Ryd( 4p)     0.00184       0.56835
   196    C   13  py     Ryd( 3p)     0.00014       0.25604
   197    C   13  py     Ryd( 5p)     0.00003       3.03923
   198    C   13  pz     Val( 2p)     1.21257      -0.10942
   199    C   13  pz     Ryd( 4p)     0.00025       0.53461
   200    C   13  pz     Ryd( 3p)     0.00005       0.20493
   201    C   13  pz     Ryd( 5p)     0.00005       3.06601
   202    C   13  dxy    Ryd( 3d)     0.00094       2.29211
   203    C   13  dxz    Ryd( 3d)     0.00012       1.75756
   204    C   13  dyz    Ryd( 3d)     0.00096       2.24955
   205    C   13  dx2y2  Ryd( 3d)     0.00040       2.03000
   206    C   13  dz2    Ryd( 3d)     0.00066       2.15395

   207    H   14  S      Val( 1S)     0.77915       0.02697
   208    H   14  S      Ryd( 2S)     0.00088       0.65753
   209    H   14  S      Ryd( 3S)     0.00009       2.08622
   210    H   14  px     Ryd( 2p)     0.00013       1.72196
   211    H   14  py     Ryd( 2p)     0.00018       2.09897
   212    H   14  pz     Ryd( 2p)     0.00023       2.41538

   213    H   15  S      Val( 1S)     0.77915       0.02697
   214    H   15  S      Ryd( 2S)     0.00088       0.65753
   215    H   15  S      Ryd( 3S)     0.00009       2.08622
   216    H   15  px     Ryd( 2p)     0.00013       1.72196
   217    H   15  py     Ryd( 2p)     0.00018       2.09900
   218    H   15  pz     Ryd( 2p)     0.00023       2.41535

   219    H   16  S      Val( 1S)     0.77578       0.04381
   220    H   16  S      Ryd( 2S)     0.00139       0.82108
   221    H   16  S      Ryd( 3S)     0.00011       1.90465
   222    H   16  px     Ryd( 2p)     0.00020       2.48035
   223    H   16  py     Ryd( 2p)     0.00018       2.01450
   224    H   16  pz     Ryd( 2p)     0.00005       1.74829

   225    S   17  S      Cor( 1S)     2.00000     -87.56341
   226    S   17  S      Cor( 2S)     1.99800      -8.75728
   227    S   17  S      Val( 3S)     1.29720      -0.57415
   228    S   17  S      Ryd( 4S)     0.02106       0.70943
   229    S   17  S      Ryd( 5S)     0.00036       1.40648
   230    S   17  S      Ryd( 6S)     0.00002      12.59606
   231    S   17  S      Ryd( 7S)     0.00000     183.87885
   232    S   17  px     Cor( 2p)     1.99942      -5.89321
   233    S   17  px     Val( 3p)     0.89346      -0.10776
   234    S   17  px     Ryd( 4p)     0.00672       0.89692
   235    S   17  px     Ryd( 6p)     0.00071       0.99344
   236    S   17  px     Ryd( 5p)     0.00024       0.95891
   237    S   17  px     Ryd( 7p)     0.00000      17.66905
   238    S   17  py     Cor( 2p)     1.99956      -5.89327
   239    S   17  py     Val( 3p)     1.52970      -0.20802
   240    S   17  py     Ryd( 4p)     0.00602       0.65247
   241    S   17  py     Ryd( 6p)     0.00044       1.02687
   242    S   17  py     Ryd( 5p)     0.00045       0.71483
   243    S   17  py     Ryd( 7p)     0.00001      17.46616
   244    S   17  pz     Cor( 2p)     1.99965      -5.89743
   245    S   17  pz     Val( 3p)     1.30399      -0.22611
   246    S   17  pz     Ryd( 4p)     0.00659       0.47583
   247    S   17  pz     Ryd( 6p)     0.00016       1.05592
   248    S   17  pz     Ryd( 5p)     0.00022       0.57993
   249    S   17  pz     Ryd( 7p)     0.00000      17.25207
   250    S   17  dxy    Ryd( 3d)     0.01333       1.64477
   251    S   17  dxz    Ryd( 3d)     0.01768       0.93177
   252    S   17  dyz    Ryd( 3d)     0.00756       0.89173
   253    S   17  dx2y2  Ryd( 3d)     0.00687       1.18925
   254    S   17  dz2    Ryd( 3d)     0.00677       1.16997

 WARNING:  1 low occupancy (<1.9990e) core orbital  found on  C    1
           1 low occupancy (<1.9990e) core orbital  found on  C    4
           1 low occupancy (<1.9990e) core orbital  found on  S   17

 WARNING:  Population inversion found on atom  C    1
           Population inversion found on atom  C    2
           Population inversion found on atom  C    3
           Population inversion found on atom  C    4
           Population inversion found on atom  C    7
           Population inversion found on atom  C   11
           Population inversion found on atom  C   13
           Population inversion found on atom  S   17


 Summary of Natural Population Analysis:                  
                                                          
                                       Natural Population 
                Natural  -----------------------------------------------
    Atom  No    Charge         Core      Valence    Rydberg      Total
 -----------------------------------------------------------------------
      C    1   -0.42534      1.99870     4.39374    0.03290     6.42534
      C    2   -0.22909      1.99915     4.21226    0.01769     6.22909
      C    3   -0.21034      1.99917     4.19379    0.01738     6.21034
      C    4   -0.55662      1.99857     4.52297    0.03508     6.55662
      H    5    0.21801      0.00000     0.78041    0.00158     0.78199
      H    6    0.21897      0.00000     0.77945    0.00158     0.78103
      C    7   -0.56032      1.99932     4.55033    0.01068     6.56032
      H    8    0.21161      0.00000     0.78699    0.00139     0.78839
      H    9    0.21161      0.00000     0.78699    0.00139     0.78839
      H   10    0.21200      0.00000     0.78693    0.00106     0.78800
      C   11    0.58517      1.99946     3.37353    0.04184     5.41483
      O   12   -0.56437      1.99976     6.55096    0.01365     8.56437
      C   13   -0.65605      1.99926     4.64854    0.00825     6.65605
      H   14    0.21934      0.00000     0.77915    0.00151     0.78066
      H   15    0.21934      0.00000     0.77915    0.00151     0.78066
      H   16    0.22229      0.00000     0.77578    0.00193     0.77771
      S   17    0.88380      9.99664     5.02435    0.09521    15.11620
 =======================================================================
   * Total *    0.00000     25.99002    47.72533    0.28465    74.00000

                                 Natural Population      
 --------------------------------------------------------
   Core                      25.99002 ( 99.9616% of  26)
   Valence                   47.72533 ( 99.4278% of  48)
   Natural Minimal Basis     73.71535 ( 99.6153% of  74)
   Natural Rydberg Basis      0.28465 (  0.3847% of  74)
 --------------------------------------------------------

    Atom  No          Natural Electron Configuration
 ----------------------------------------------------------------------------
      C    1      [core]2S( 0.93)2p( 3.47)3d( 0.01)4p( 0.02)
      C    2      [core]2S( 0.96)2p( 3.25)4p( 0.01)
      C    3      [core]2S( 0.96)2p( 3.24)4p( 0.01)
      C    4      [core]2S( 0.95)2p( 3.58)3d( 0.01)4p( 0.02)
      H    5            1S( 0.78)
      H    6            1S( 0.78)
      C    7      [core]2S( 1.08)2p( 3.47)4p( 0.01)
      H    8            1S( 0.79)
      H    9            1S( 0.79)
      H   10            1S( 0.79)
      C   11      [core]2S( 0.86)2p( 2.51)3S( 0.01)3d( 0.01)4p( 0.02)
      O   12      [core]2S( 1.70)2p( 4.85)3p( 0.01)
      C   13      [core]2S( 1.11)2p( 3.54)
      H   14            1S( 0.78)
      H   15            1S( 0.78)
      H   16            1S( 0.78)
      S   17      [core]3S( 1.30)3p( 3.73)4S( 0.02)3d( 0.05)4p( 0.02)


 NBO analysis skipped by request.
 Calling FoFJK, ICntrl=      2127 FMM=F ISym2X=0 I1Cent= 0 IOpClX= 0 NMat=1 NMatS=1 NMatT=0.
 ***** Axes restored to original set *****
 -------------------------------------------------------------------
 Center     Atomic                   Forces (Hartrees/Bohr)
 Number     Number              X              Y              Z
 -------------------------------------------------------------------
      1        6          -0.302721409   -0.187538325    0.005164054
      2        6           0.031413370   -0.040001144    0.000229354
      3        6          -0.029579447   -0.042789855    0.000807489
      4        6           0.326645713   -0.177858014   -0.000768897
      5        1           0.001806072    0.002757104   -0.000051871
      6        1          -0.002137236    0.002842175   -0.000012801
      7        6           0.011063380   -0.029922793    0.000274195
      8        1          -0.003551194    0.008444653    0.011176604
      9        1          -0.003762191    0.008159153   -0.011320235
     10        1          -0.013319418   -0.006999062    0.000213063
     11        6           0.010918328   -0.010206178    0.000031379
     12        8          -0.004227821   -0.026921605    0.000375516
     13        6          -0.019610814    0.020971029   -0.000084776
     14        1          -0.000223948   -0.010796652    0.011893209
     15        1          -0.000439863   -0.011092805   -0.011611445
     16        1           0.010433624    0.008599558   -0.000204174
     17       16          -0.012707147    0.492352761   -0.006110664
 -------------------------------------------------------------------
 Cartesian Forces:  Max     0.492352761 RMS     0.100708046

 GradGradGradGradGradGradGradGradGradGradGradGradGradGradGradGradGradGrad
 Berny optimization.
 FormGI is forming the generalized inverse of G from B-inverse, IUseBI=4.
 Internal  Forces:  Max     0.371428504 RMS     0.063603354
 Search for a local minimum.
 Step number   1 out of a maximum of   87
 All quantities printed in internal units (Hartrees-Bohrs-Radians)
 Mixed Optimization -- RFO/linear search
 Second derivative matrix not updated -- first step.
 ITU=  0
     Eigenvalues ---    0.00237   0.00237   0.00237   0.00237   0.01557
     Eigenvalues ---    0.01764   0.01887   0.02070   0.02544   0.04577
     Eigenvalues ---    0.07243   0.07243   0.07243   0.07243   0.16000
     Eigenvalues ---    0.16000   0.16000   0.16000   0.16000   0.16000
     Eigenvalues ---    0.16000   0.16000   0.22869   0.24724   0.25000
     Eigenvalues ---    0.25000   0.25000   0.25000   0.28519   0.28519
     Eigenvalues ---    0.28519   0.35304   0.35309   0.37077   0.37230
     Eigenvalues ---    0.37230   0.37230   0.37230   0.37230   0.37230
     Eigenvalues ---    0.44632   0.48822   0.92213   1.14793   1.18917
 RFO step:  Lambda=-2.36558489D-01 EMin= 2.36824134D-03
 Linear search not attempted -- first point.
 Maximum step size (   0.300) exceeded in Quadratic search.
    -- Step size scaled by   0.684
 Iteration  1 RMS(Cart)=  0.10596130 RMS(Int)=  0.00245710
 Iteration  2 RMS(Cart)=  0.00549947 RMS(Int)=  0.00043756
 Iteration  3 RMS(Cart)=  0.00000254 RMS(Int)=  0.00043756
 Iteration  4 RMS(Cart)=  0.00000000 RMS(Int)=  0.00043756
 Variable       Old X    -DE/DX   Delta X   Delta X   Delta X     New X
                                 (Linear)    (Quad)   (Total)
    R1        2.60703   0.04996   0.00000   0.03730   0.03698   2.64401
    R2        2.91018  -0.00117   0.00000  -0.00153  -0.00153   2.90864
    R3        2.63721   0.36212   0.00000   0.17929   0.18012   2.81733
    R4        2.73638   0.01152   0.00000  -0.02534  -0.02640   2.70998
    R5        2.05185  -0.00329   0.00000  -0.00382  -0.00382   2.04802
    R6        2.60724   0.04919   0.00000   0.03730   0.03695   2.64419
    R7        2.05176  -0.00356   0.00000  -0.00413  -0.00413   2.04763
    R8        2.91018  -0.01723   0.00000  -0.02260  -0.02260   2.88758
    R9        2.63671   0.37143   0.00000   0.18358   0.18439   2.82110
   R10        2.02201   0.01420   0.00000   0.01596   0.01596   2.03797
   R11        2.02201   0.01420   0.00000   0.01596   0.01596   2.03797
   R12        2.02201   0.01456   0.00000   0.01636   0.01636   2.03837
   R13        2.31929  -0.02710   0.00000  -0.01600  -0.01600   2.30329
   R14        2.91018  -0.01246   0.00000  -0.01635  -0.01635   2.89383
   R15        2.02201   0.01592   0.00000   0.01789   0.01789   2.03989
   R16        2.02201   0.01592   0.00000   0.01789   0.01789   2.03989
   R17        2.02201   0.01349   0.00000   0.01516   0.01516   2.03717
    A1        2.36430  -0.02931   0.00000  -0.04822  -0.04838   2.31592
    A2        1.92135  -0.00505   0.00000   0.00688   0.00720   1.92855
    A3        1.99754   0.03437   0.00000   0.04134   0.04118   2.03872
    A4        1.86128   0.07058   0.00000   0.03475   0.03331   1.89459
    A5        2.22940  -0.03540   0.00000  -0.01756  -0.01684   2.21256
    A6        2.19251  -0.03518   0.00000  -0.01719  -0.01647   2.17604
    A7        1.86031   0.06812   0.00000   0.03210   0.03062   1.89094
    A8        2.19290  -0.03411   0.00000  -0.01613  -0.01539   2.17751
    A9        2.22997  -0.03402   0.00000  -0.01597  -0.01524   2.21474
   A10        2.36380  -0.02734   0.00000  -0.04621  -0.04634   2.31746
   A11        1.92202  -0.00580   0.00000   0.00736   0.00763   1.92965
   A12        1.99737   0.03314   0.00000   0.03885   0.03871   2.03608
   A13        1.91063   0.00240   0.00000   0.00417   0.00415   1.91479
   A14        1.91063   0.00240   0.00000   0.00417   0.00416   1.91479
   A15        1.91063   0.00421   0.00000   0.00720   0.00719   1.91782
   A16        1.91063  -0.00209   0.00000  -0.00349  -0.00350   1.90714
   A17        1.91063  -0.00346   0.00000  -0.00603  -0.00604   1.90459
   A18        1.91063  -0.00346   0.00000  -0.00603  -0.00604   1.90459
   A19        2.13323  -0.00548   0.00000  -0.00770  -0.00770   2.12553
   A20        2.01673   0.00417   0.00000   0.00586   0.00586   2.02259
   A21        2.13323   0.00131   0.00000   0.00184   0.00184   2.13506
   A22        1.91063   0.00083   0.00000   0.00131   0.00131   1.91195
   A23        1.91063   0.00083   0.00000   0.00131   0.00131   1.91195
   A24        1.91063  -0.00111   0.00000  -0.00166  -0.00166   1.90897
   A25        1.91063  -0.00211   0.00000  -0.00414  -0.00414   1.90650
   A26        1.91063   0.00078   0.00000   0.00159   0.00159   1.91222
   A27        1.91063   0.00078   0.00000   0.00159   0.00159   1.91222
   A28        1.85983  -0.12786   0.00000  -0.08109  -0.07877   1.78105
    D1        3.14158   0.00001   0.00000   0.00000   0.00000   3.14158
    D2       -0.00014   0.00000   0.00000   0.00001   0.00001  -0.00013
    D3        0.00017   0.00000   0.00000  -0.00002  -0.00002   0.00015
    D4       -3.14155   0.00000   0.00000  -0.00001  -0.00001  -3.14155
    D5        2.09465  -0.00019   0.00000  -0.00043  -0.00042   2.09423
    D6       -2.09414   0.00019   0.00000   0.00041   0.00041  -2.09373
    D7        0.00026   0.00000   0.00000  -0.00001  -0.00001   0.00025
    D8       -1.04713  -0.00019   0.00000  -0.00041  -0.00041  -1.04754
    D9        1.04727   0.00019   0.00000   0.00043   0.00042   1.04769
   D10       -3.14152   0.00000   0.00000   0.00001   0.00001  -3.14152
   D11       -0.00020   0.00002   0.00000   0.00003   0.00003  -0.00017
   D12        3.14153   0.00002   0.00000   0.00003   0.00003   3.14156
   D13       -0.00007   0.00000   0.00000   0.00001   0.00001  -0.00006
   D14       -3.14159   0.00000   0.00000   0.00000   0.00000  -3.14159
   D15       -3.14154   0.00000   0.00000   0.00000   0.00000  -3.14154
   D16        0.00012   0.00000   0.00000  -0.00001  -0.00001   0.00012
   D17       -3.14157  -0.00001   0.00000  -0.00001   0.00000  -3.14158
   D18       -0.00006  -0.00001   0.00000   0.00000   0.00000  -0.00005
   D19       -0.00005   0.00000   0.00000   0.00000   0.00000  -0.00005
   D20        3.14146   0.00000   0.00000   0.00001   0.00001   3.14147
   D21        3.14159   0.00000   0.00000   0.00000   0.00000  -3.14159
   D22       -0.00004   0.00000   0.00000   0.00000   0.00000  -0.00003
   D23        0.00008   0.00000   0.00000  -0.00001  -0.00001   0.00007
   D24       -3.14155   0.00000   0.00000   0.00000   0.00000  -3.14155
   D25        0.00016  -0.00001   0.00000  -0.00002  -0.00002   0.00014
   D26       -3.14149  -0.00001   0.00000  -0.00002  -0.00002  -3.14151
   D27       -1.04719   0.00078   0.00000   0.00173   0.00173  -1.04546
   D28        1.04721  -0.00078   0.00000  -0.00173  -0.00173   1.04548
   D29       -3.14158   0.00000   0.00000   0.00000   0.00000  -3.14158
   D30        2.09437   0.00078   0.00000   0.00173   0.00173   2.09610
   D31       -2.09442  -0.00078   0.00000  -0.00173  -0.00173  -2.09615
   D32       -0.00003   0.00000   0.00000   0.00000   0.00000  -0.00003
         Item               Value     Threshold  Converged?
 Maximum Force            0.371429     0.000450     NO 
 RMS     Force            0.063603     0.000300     NO 
 Maximum Displacement     0.353561     0.001800     NO 
 RMS     Displacement     0.103899     0.001200     NO 
 Predicted change in Energy=-1.167895D-01
 GradGradGradGradGradGradGradGradGradGradGradGradGradGradGradGradGradGrad

                          Input orientation:                          
 ---------------------------------------------------------------------
 Center     Atomic      Atomic             Coordinates (Angstroms)
 Number     Number       Type             X           Y           Z
 ---------------------------------------------------------------------
      1          6           0       -1.494673    0.429241    0.018579
      2          6           0       -1.020042   -0.886892    0.030670
      3          6           0        0.413602   -0.855054    0.017063
      4          6           0        0.824173    0.482443   -0.003531
      5          1           0       -1.616592   -1.791544    0.047581
      6          1           0        1.051107   -1.731220    0.022143
      7          6           0       -2.912891    1.027344    0.024146
      8          1           0       -3.042767    1.647229    0.897027
      9          1           0       -3.059120    1.624834   -0.861670
     10          1           0       -3.644981    0.235343    0.041038
     11          6           0        2.200804    1.145284   -0.024561
     12          8           0        2.329617    2.357196   -0.040976
     13          6           0        3.400911    0.194088   -0.023635
     14          1           0        3.375203   -0.418918    0.864515
     15          1           0        3.359003   -0.441074   -0.895449
     16          1           0        4.312816    0.768820   -0.039263
     17         16           0       -0.358166    1.393876   -0.004171
 ---------------------------------------------------------------------
                    Distance matrix (angstroms):
                    1          2          3          4          5
     1  C    0.000000
     2  C    1.399152   0.000000
     3  C    2.300202   1.434062   0.000000
     4  C    2.319562   2.297254   1.399247   0.000000
     5  H    2.224318   1.083768   2.235986   3.336310   0.000000
     6  H    3.338952   2.236653   1.083561   2.225413   2.668502
     7  C    1.539188   2.692066   3.822176   3.776682   3.102751
     8  H    2.156794   3.356152   4.356862   4.137748   3.818467
     9  H    2.156797   3.356021   4.356813   4.137805   3.818279
    10  H    2.159149   2.854789   4.202575   4.476202   2.867520
    11  C    3.764456   3.808758   2.682755   1.528042   4.816915
    12  O    4.283194   4.663631   3.740726   2.404675   5.726469
    13  C    4.901410   4.551515   3.166444   2.592900   5.396586
    14  H    5.015044   4.498052   3.111184   2.841427   5.241135
    15  H    5.015083   4.498053   3.111180   2.841436   5.241147
    16  H    5.817696   5.584411   4.224217   3.500559   6.459170
    17  S    1.490867   2.375120   2.377764   1.492862   3.425377
                    6          7          8          9         10
     6  H    0.000000
     7  C    4.829384   0.000000
     8  H    5.379511   1.078446   0.000000
     9  H    5.379423   1.078447   1.758915   0.000000
    10  H    5.091263   1.078660   1.757498   1.757498   0.000000
    11  C    3.098106   5.115286   5.347552   5.347665   5.916544
    12  O    4.284124   5.408940   5.499674   5.499853   6.340726
    13  C    3.038172   6.368728   6.669350   6.669434   7.046309
    14  H    2.798776   6.506766   6.742429   6.968296   7.098531
    15  H    2.798721   6.506808   6.968259   6.742509   7.098615
    16  H    4.110075   7.230608   7.466783   7.466898   7.976062
    17  S    3.428260   2.581039   2.843137   2.843202   3.485311
                   11         12         13         14         15
    11  C    0.000000
    12  O    1.218849   0.000000
    13  C    1.531350   2.413920   0.000000
    14  H    2.148580   3.101608   1.079465   0.000000
    15  H    2.148581   3.101624   1.079465   1.760177   0.000000
    16  H    2.145352   2.540870   1.078022   1.762570   1.762570
    17  S    2.571098   2.855437   3.945952   4.240151   4.240137
                   16         17
    16  H    0.000000
    17  S    4.712749   0.000000
 Stoichiometry    C7H8OS
 Framework group  C1[X(C7H8OS)]
 Deg. of freedom    45
 Full point group                 C1      NOp   1
 Largest Abelian subgroup         C1      NOp   1
 Largest concise Abelian subgroup C1      NOp   1
                         Standard orientation:                         
 ---------------------------------------------------------------------
 Center     Atomic      Atomic             Coordinates (Angstroms)
 Number     Number       Type             X           Y           Z
 ---------------------------------------------------------------------
      1          6           0        1.806560    0.126010    0.000057
      2          6           0        1.423836    1.471799   -0.000030
      3          6           0       -0.008661    1.538774   -0.000013
      4          6           0       -0.510549    0.232634    0.000003
      5          1           0        2.081408    2.333282    0.000001
      6          1           0       -0.584232    2.456827   -0.000074
      7          6           0        3.180208   -0.568391    0.000067
      8          1           0        3.275869   -1.185317    0.879440
      9          1           0        3.276020   -1.185053   -0.879476
[...]
 ! D29   D(4,11,13,16)         179.9991         -DE/DX =    0.0                 !
 ! D30   D(12,11,13,14)        120.252          -DE/DX =    0.0                 !
 ! D31   D(12,11,13,15)       -120.2532         -DE/DX =    0.0                 !
 ! D32   D(12,11,13,16)         -0.0004         -DE/DX =    0.0                 !
 --------------------------------------------------------------------------------
 GradGradGradGradGradGradGradGradGradGradGradGradGradGradGradGradGradGrad

 1\1\GINC-COREV3-23-046\Freq\RB3LYP\6-311+G(d,p)\C7H8O1S1\ROOT\02-Feb-2
 023\0\\#N Geom=AllCheck Guess=TCheck SCRF=Check GenChk RB3LYP/6-311+G(
 d,p) Freq\\Title Card Required\\0,1\C,-1.56744279,0.5536213636,0.01766
 66421\C,-0.9810861484,-0.6891897559,0.0278374545\C,0.4353151499,-0.640
 0882973,0.014118231\C,0.934524426,0.6424105905,-0.0066059953\H,-1.5537
 941672,-1.6080336215,0.0446718651\H,1.0644289726,-1.5206890215,0.01935
 38645\C,-3.0303492378,0.8772875823,0.0271324913\H,-3.3065317111,1.4695
 014472,0.9044241862\H,-3.3228637595,1.4472597691,-0.859548331\H,-3.615
 144737,-0.0443379874,0.044166842\C,2.327617576,1.1122939187,-0.0253903
 093\O,2.5911307253,2.3034279656,-0.0429436524\C,3.4239233291,0.0612613
 483,-0.0221385424\H,3.3561811101,-0.5681718588,0.8696425305\H,3.339907
 7498,-0.5906112137,-0.8962385017\H,4.3895035347,0.564290744,-0.0374259
 556\S,-0.3673147725,1.8107618867,-0.0092159495\\Version=ES64L-G09RevD.
 01\State=1-A\HF=-745.0967355\RMSD=3.240e-09\RMSF=3.133e-05\ZeroPoint=0
 .1309589\Thermal=0.1405231\Dipole=-0.8957511,-1.3751694,0.0257078\Dipo
 leDeriv=0.2839152,0.074905,-0.0050476,-0.2686151,0.3249637,-0.0036336,
 -0.0007486,-0.0068306,-0.1628742,-0.4715288,0.164735,0.000805,0.370826
 6,-0.1194742,-0.0039399,-0.0017661,-0.0020217,-0.1593496,0.4277152,-0.
 0329875,-0.0043862,0.2779947,-0.101697,-0.0024159,-0.0083039,0.0004553
 ,-0.0887685,-0.9922458,-0.4405398,0.0134996,-0.5850259,0.0444523,0.003
 2384,0.0152974,0.0018882,-0.1301569,0.0149733,-0.0761525,0.0023257,-0.
 0874788,-0.0301701,0.0032316,0.0024695,0.00313,0.1628653,0.0434888,0.0
 693214,0.0001337,0.0952873,0.0011122,0.001004,-0.0001949,0.0012469,0.1
 514264,0.0055735,0.0084114,0.000987,0.0548018,0.0853296,0.0000073,0.00
 0389,0.0004207,0.1249164,-0.0358667,0.0082625,0.0015809,0.0448334,0.02
 9254,-0.0775909,0.0667714,-0.0827201,-0.0261733,-0.0371556,0.0097406,-
 0.0016488,0.044557,0.0332477,0.075283,-0.0677273,0.081069,-0.0288943,-
 0.0369083,-0.0291183,0.0015234,-0.1107806,-0.062518,0.0029204,0.002555
 5,0.0021675,0.0880442,1.9253482,0.2182729,-0.0191785,0.5293575,1.18125
 67,-0.0180963,-0.0230768,-0.0151598,0.1456337,-0.9227278,-0.1715714,0.
 0077297,-0.5733582,-1.0997166,0.0151753,0.0127841,0.0114422,-0.3225022
 ,-0.2601688,0.1988923,0.0005917,0.2387457,-0.1553933,0.0007943,0.00008
 45,0.0011341,0.0779563,0.0415363,-0.0134363,0.0497135,0.0090063,0.0252
 898,0.0630072,0.0143685,0.0801966,-0.0259457,0.040342,-0.0162027,-0.05
 05306,0.0074509,0.0216202,-0.0643582,-0.0157649,-0.081118,-0.0210735,-
 0.0783146,-0.0207889,0.001838,-0.0698945,0.0404074,0.0013043,0.0024628
 ,0.0008524,0.0922373,0.0520245,0.0482556,0.0000635,0.0222918,-0.217964
 3,0.0040688,0.0003997,0.0038471,0.1226584\Polar=142.8329812,3.9037681,
 109.1877068,-0.7783382,-0.605381,63.998654\PG=C01 [X(C7H8O1S1)]\NImag=
 0\\0.58441979,-0.12639437,0.55448271,-0.00259748,-0.00412961,0.1323021
 4,-0.14758044,0.07577977,-0.00011936,0.63075233,0.12069324,-0.32800852
 ,0.00227510,0.06271389,0.75502250,-0.00068301,0.00269089,-0.05776736,-
 0.00552633,-0.00856888,0.11872310,-0.03721982,0.07098285,-0.00048318,-
 0.28616105,-0.03226451,0.00249538,0.63330000,0.02346239,0.01019125,-0.
 00025955,0.01280773,-0.11068823,0.00051525,-0.06823923,0.74835688,0.00
 011266,-0.00070032,0.00679468,0.00192918,0.00093308,-0.06020370,-0.003
 82478,-0.00716718,0.12731805,-0.04557075,-0.02020560,0.00072959,-0.046
 29489,-0.01433543,0.00069722,-0.11915562,-0.09023232,0.00171518,0.5602
 7419,0.00009607,-0.01544932,0.00026643,-0.06317326,0.00163310,0.000684
 37,-0.07144757,-0.34247957,0.00425754,0.12132168,0.59512839,0.00047391
 ,0.00045385,0.00581803,0.00130976,0.00023152,0.00951182,0.00148063,0.0
 0443282,-0.05606807,-0.00581233,-0.00738938,0.09671161,0.00861413,0.01
 223389,-0.00020065,-0.13623714,-0.12696595,0.00257116,-0.00675476,-0.0
 2561981,0.00038767,-0.00648041,0.00047588,0.00008402,0.13800787,-0.015
 84545,-0.01759700,0.00041176,-0.12715992,-0.25991449,0.00405489,0.0036
 6325,0.00536271,-0.00009625,0.00189374,-0.00020658,0.00002611,0.137692
 48,0.27331475,0.00015181,0.00015175,0.00352126,0.00257362,0.00405341,-
 0.03070190,0.00002020,0.00017454,0.00038986,0.00006642,0.00003929,0.00
 326442,-0.00279662,-0.00442167,0.02265502,-0.00584965,-0.00018318,0.00
 008106,-0.00705972,0.02459555,-0.00022137,-0.15332110,0.13424852,-0.00
 056918,0.01010530,-0.00944794,0.00005647,0.00076091,-0.00064594,-0.000
 01789,0.15696124,-0.00209573,-0.00033799,0.00005730,-0.00445455,0.0068
 6635,-0.00001503,0.13497703,-0.24535417,0.00142152,0.01734442,-0.01618
 292,0.00008520,0.00064286,0.00003562,-0.00003211,-0.14653711,0.2563371
 3,0.00010507,0.00003945,0.00267645,0.00014332,-0.00028360,0.00239264,-
 0.00057864,0.00142785,-0.03269470,-0.00027952,0.00033321,0.00339219,-0
 .00003406,-0.00002021,-0.00204855,0.00059876,-0.00157579,0.02285237,-0
 .21461445,0.03618199,0.00094121,-0.01208709,0.00395026,0.00011210,0.00
 135987,0.00073071,0.00004415,-0.00080918,-0.00158869,0.00003447,0.0011
 9995,-0.00123052,-0.00003660,0.00004915,-0.00007346,0.00000437,0.48460
 903,0.02525206,-0.08822653,0.00007261,0.02754916,-0.00025395,-0.000183
 65,0.00087614,-0.00364094,0.00012703,-0.00011403,-0.00737834,0.0001025
 7,0.00024828,0.00089737,-0.00006912,0.00118026,0.00043002,-0.00001105,
 0.02066479,0.56343557,0.00107854,-0.00002836,-0.06376397,-0.00018370,0
 .00003466,0.00540135,0.00004217,0.00012787,0.00710178,0.00001494,0.000
 11706,0.00073257,-0.00005515,-0.00005523,-0.00441461,-0.00001130,0.000
 00056,0.00042180,0.00017825,-0.00058359,0.53210974,-0.01109489,0.02038
 889,0.02529183,-0.00191569,-0.00167811,0.00030609,-0.00094364,-0.00001
 942,-0.00106498,-0.00176144,0.00147130,-0.00037084,0.00005965,0.000084
 18,0.00039775,-0.00030249,-0.00007315,-0.00011415,-0.05978708,0.032009
 78,0.05068855,0.06807481,0.00407218,-0.00530473,-0.00360710,0.00145522
 ,0.00075352,-0.00016083,-0.00006677,-0.00027463,0.00085350,-0.00019447
 ,0.00036136,0.00017129,-0.00009348,0.00020064,-0.00057316,0.00009654,0
 .00000703,-0.00004206,0.03100058,-0.12088715,-0.11376724,-0.03833950,0
 .12918435,0.00095285,0.00170895,0.00336815,-0.00071184,0.00069092,-0.0
 0032421,-0.00013342,0.00034813,-0.00022964,0.00060675,-0.00010719,0.00
 013551,-0.00001880,0.00002760,0.00009353,-0.00001689,0.00003971,0.0000
 0990,0.04984116,-0.11413453,-0.21409270,-0.05471419,0.12531244,0.23136
 108,-0.01158227,0.01971487,-0.02552053,-0.00190685,-0.00169763,-0.0002
 3420,-0.00092126,0.00000077,0.00107829,-0.00176570,0.00148239,0.000368
 98,0.00005265,0.00007363,-0.00039914,-0.00029993,-0.00007087,0.0001216
 8,-0.06171560,0.03277049,-0.05438009,0.00171890,-0.00465594,0.00566236
 ,0.07017486,0.00411873,-0.00525675,0.00375470,0.00147557,0.00073943,0.
 00010670,-0.00007914,-0.00030479,-0.00085067,-0.00021225,0.00035942,-0
 .00017304,-0.00008234,0.00021421,0.00057189,0.00009776,0.00000707,0.00
 004029,0.03177608,-0.11521605,0.11071554,-0.00507051,0.01007561,-0.014
 82246,-0.03919797,0.12294957,-0.00078016,-0.00185650,0.00380729,0.0007
 0448,-0.00068669,-0.00031846,0.00014814,-0.00034633,-0.00022193,-0.000
 56630,0.00007428,0.00014166,0.00002164,-0.00003204,0.00008688,0.000020
 16,-0.00003833,0.00000733,-0.05350671,0.11106398,-0.21783320,-0.005978
 91,0.01410356,-0.02199617,0.05873470,-0.12188554,0.23549436,-0.0197309
 8,-0.02863490,0.00053222,0.00220429,-0.00092869,-0.00001043,-0.0002506
 9,-0.00009736,-0.00000002,-0.00088342,-0.00154972,0.00003337,-0.000164
 49,0.00109918,-0.00000878,0.00011238,0.00005403,-0.00000220,-0.1195664
 0,-0.11700912,0.00216005,0.00437079,0.00721130,-0.00134728,0.00466800,
 0.00765416,0.00109301,0.13311231,0.00403177,0.00675566,-0.00013771,0.0
 0112473,0.00079739,-0.00002260,-0.00029820,0.00036335,-0.00000669,0.00
 063080,0.00007387,0.00000106,-0.00027610,0.00024653,0.00000419,-0.0000
 3049,0.00001035,-0.00000049,-0.12020140,-0.23940337,0.00355595,-0.0081
 9491,-0.01401426,0.00127861,-0.00783973,-0.01347869,-0.00076043,0.1288
 1531,0.25801409,0.00012037,0.00016464,-0.00121531,-0.00003611,-0.00000
 357,-0.00016909,0.00000253,-0.00000844,-0.00038143,0.00000596,0.000021
 02,0.00061471,0.00000844,-0.00000864,0.00036978,-0.00000114,-0.0000012
 9,-0.00005272,0.00220038,0.00352646,-0.04568990,-0.01476230,-0.0221415
 3,0.00132613,0.01489760,0.02237365,0.00049310,-0.00244604,-0.00388675,
 0.04441052,0.00209005,0.01614621,-0.00022679,0.01503019,-0.00784871,0.
 00002306,-0.01335733,-0.02053696,0.00035288,-0.20492737,-0.01054068,0.
 00142181,0.00154639,0.00001392,-0.00000103,0.00006641,0.00158053,-0.00
 005919,-0.00042655,-0.00294630,0.00005689,0.00111401,-0.00002129,-0.00
 031134,0.00112611,-0.00001219,0.00029191,-0.00020604,0.00027454,0.0000
 0020,0.52086932,0.00618197,-0.00086285,-0.00005207,0.00348516,-0.01009
 006,0.00018129,-0.03307840,-0.01011758,0.00039220,-0.00368458,-0.08278
 922,0.00025416,-0.00071374,0.00023979,0.00002195,0.00014711,0.00005932
 ,-0.00005459,0.00092185,0.00033813,0.00000815,0.00038257,0.00016921,-0
 .00007100,0.00039252,0.00017307,0.00006078,0.00060056,0.00003866,-0.00
 000364,0.06915839,0.86126924,-0.00010207,-0.00014566,-0.00053756,-0.00
 011874,0.00028668,0.00694362,0.00050900,0.00027605,-0.00331577,0.00133
 381,0.00031565,-0.06531779,0.00000813,0.00001516,0.00145510,-0.0000410
 9,-0.00006774,-0.00418261,0.00000761,0.00004360,0.00165223,-0.00035702
 ,-0.00008905,0.00006031,0.00032763,0.00008643,0.00004449,-0.00000390,-
 0.00000056,0.00019416,-0.00369015,-0.00882972,0.21588220,0.00086623,-0
 .00493641,0.00006338,-0.00541513,-0.00068929,0.00004018,-0.00296230,0.
 00567414,-0.00000377,-0.01757687,-0.06121142,0.00111164,-0.00088541,-0
 .00020211,0.00000358,0.00007053,-0.00062506,0.00001260,0.00032939,0.00
 024757,-0.00000574,-0.00025616,0.00011362,0.00009674,-0.00025790,0.000
 11011,-0.00009452,-0.00005702,-0.00009373,0.00000156,-0.12686923,-0.12
 029604,0.00206816,0.13063175,-0.00195750,-0.00816279,0.00013319,-0.007
 56054,0.00514900,-0.00001978,0.00495191,0.01195441,-0.00014161,-0.0521
 7775,-0.05072429,0.00136277,-0.00088124,0.00018904,-0.00000383,0.00057
 079,0.00038859,-0.00000262,-0.00010294,0.00153704,-0.00001780,-0.00054
 410,-0.00005859,0.00013681,-0.00054642,-0.00006332,-0.00012479,0.00011
 820,-0.00008041,-0.00000027,-0.09993077,-0.64594269,0.00825683,0.14727
 992,0.74796769,0.00002577,0.00016164,0.00102070,0.00012717,-0.00008321
 ,-0.00198946,0.00000565,-0.00014901,0.00434870,0.00099688,0.00144703,0
 .01888447,0.00001234,-0.00001002,-0.00075847,-0.00000262,0.00000810,0.
 00057503,-0.00000109,-0.00002084,0.00006734,0.00000231,0.00005851,0.00
 001035,0.00001641,-0.00005871,0.00001675,-0.00000111,0.00000169,-0.000
 01563,0.00181091,0.00844488,-0.06832983,-0.00283051,-0.01052019,0.0264
 8232,-0.00143771,0.00133773,-0.00000071,0.00017541,0.00024395,-0.00001
 602,-0.00175290,0.00034920,0.00000745,-0.02298939,0.01861893,0.0001008
 4,-0.00007393,-0.00008434,0.00000080,-0.00059416,0.00018024,0.00001706
 ,-0.00007953,-0.00048574,0.00000432,-0.00002316,0.00002888,0.00001510,
 -0.00002438,0.00002903,-0.00001607,-0.00020523,-0.00000640,0.00000158,
 -0.15449394,0.04560000,0.00006425,0.01633788,0.00487672,0.00000923,0.5
 2560028,-0.00090304,0.00172637,-0.00001024,0.00103090,-0.00046244,-0.0
 0001977,-0.00088997,-0.00214604,0.00002988,0.00117446,0.01184891,0.000
 01168,0.00007761,0.00000298,-0.00000209,-0.00023236,0.00017548,0.00001
 934,-0.00011876,-0.00060841,0.00000536,0.00011930,0.00001762,-0.000019
 00,0.00011832,0.00001876,0.00001541,-0.00013910,0.00000892,0.00000062,
 0.03697388,-0.10520737,-0.00007963,0.02772979,-0.05555076,0.00075584,0
 .07272361,0.52029460,0.00002758,-0.00003019,0.00030108,-0.00002604,-0.
 00001225,-0.00123969,0.00002381,0.00001908,-0.00042879,0.00032172,-0.0
 0014877,0.01357820,-0.00000123,-0.00000057,-0.00010278,0.00002231,0.00
 001488,0.00151968,-0.00000032,0.00000861,-0.00028070,0.00005000,-0.000
 03131,-0.00003752,-0.00005326,0.00002937,-0.00003750,0.00000324,-0.000
 00062,-0.00004431,0.00017302,-0.00015912,-0.08458735,-0.00028055,0.000
 96633,0.02405136,-0.00094893,-0.00063703,0.52281221,0.00011683,-0.0002
 3554,-0.00001296,-0.00038704,0.00002971,-0.00024916,-0.00026033,0.0006
 3532,0.00008511,-0.00166763,-0.00077567,0.00187904,-0.00001418,-0.0000
 0256,-0.00001605,-0.00064486,-0.00034748,-0.00012552,-0.00002187,0.000
 07512,-0.00002304,-0.00001716,-0.00001694,-0.00001126,-0.00002489,-0.0
 0000884,-0.00000797,0.00000252,0.00000070,-0.00001026,0.00598041,0.010
 53281,-0.02265361,-0.00192637,0.00278854,0.00274532,-0.04892621,-0.009
 27508,0.01234123,0.04751703,-0.00015487,0.00012477,-0.00006179,0.00026
 000,0.00001835,-0.00015374,-0.00026987,0.00048948,-0.00001472,-0.00030
 497,0.00016866,-0.00144519,-0.00000091,0.00001250,0.00002623,-0.000247
 49,0.00008301,0.00005465,0.00001547,0.00003009,0.00010829,-0.00002721,
 0.00000243,0.00000603,0.00000768,-0.00000956,-0.00000251,0.00000369,0.
 00000006,0.00000517,-0.00506470,-0.01374368,0.01892369,0.00431559,-0.0
 0343189,-0.00299442,-0.01045921,-0.12832840,0.12731969,0.01034453,0.14
 019855,0.00012073,-0.00006540,0.00000934,-0.00016391,-0.00025821,0.000
 25807,0.00031047,0.00060468,0.00024862,-0.00024832,0.00051599,0.000143
 74,-0.00000053,0.00000135,-0.00000670,-0.00006677,-0.00047660,-0.00032
 031,-0.00001138,-0.00005051,-0.00006165,0.00002560,-0.00000542,0.00000
 175,0.00000292,-0.00000206,0.00000404,-0.00001075,0.00000323,0.0000003
 9,0.00046874,-0.00124029,0.00153221,-0.00033121,-0.00101275,-0.0007580
 1,0.01388379,0.12447641,-0.21852420,-0.01624048,-0.13651717,0.23769444
 ,0.00011483,-0.00023414,0.00001691,-0.00037935,0.00004091,0.00026014,-
 0.00026793,0.00062178,-0.00009138,-0.00169658,-0.00083238,-0.00182550,
 -0.00001387,-0.00000218,0.00001624,-0.00064163,-0.00033537,0.00014003,
 -0.00002124,0.00007654,0.00002030,-0.00002477,-0.00000859,0.00000873,-
 0.00001742,-0.00001653,0.00001204,0.00000291,0.00000091,0.00001019,0.0
 0638729,0.01112839,0.02229312,-0.00197242,0.00273715,-0.00279418,-0.04
 946149,-0.01193657,-0.01512816,-0.00048829,0.00104009,0.00178001,0.048
 17402,-0.00015681,0.00012799,0.00006180,0.00026705,0.00002894,0.000154
 76,-0.00027745,0.00047390,0.00001419,-0.00027110,0.00019250,0.00144948
 ,-0.00000138,0.00001179,-0.00002668,-0.00024687,0.00009392,-0.00006084
 ,0.00001373,0.00002856,-0.00011091,0.00000767,-0.00000944,0.00000271,-
 0.00002795,0.00000243,-0.00000553,0.00000388,-0.00000015,-0.00000523,-
 0.00542059,-0.01418458,-0.01843281,0.00437811,-0.00333005,0.00298014,-
 0.01321185,-0.13477743,-0.12922433,0.00128485,0.01255594,0.01558326,0.
 01333314,0.14719161,-0.00011875,0.00006678,0.00000806,0.00016885,0.000
 26330,0.00023981,-0.00029414,-0.00062237,0.00027075,0.00028964,-0.0005
 0212,0.00014874,0.00000070,-0.00000179,-0.00000630,0.00007886,0.000472
 61,-0.00033438,0.00001025,0.00004687,-0.00006072,-0.00000258,0.0000025
 6,0.00000382,-0.00002455,0.00000572,0.00000200,0.00001061,-0.00000324,
 0.00000021,-0.00042102,0.00143488,0.00156690,0.00024225,0.00102788,-0.
 00081408,-0.01663965,-0.12640397,-0.21154052,-0.00218787,-0.01645803,-
 0.02100978,0.01936839,0.13859241,0.23004507,-0.00037093,0.00032508,-0.
 00000069,0.00003355,0.00000529,0.00000266,0.00050808,0.00043271,-0.000
 01097,-0.00166610,0.00396368,-0.00002351,-0.00001961,-0.00001883,0.000
 00032,0.00013544,-0.00004681,-0.00000407,-0.00000637,-0.00015104,0.000
 00072,-0.00000559,0.00000757,0.00000503,-0.00000621,0.00000758,-0.0000
 0519,-0.00006467,-0.00000211,0.00000054,-0.02572894,-0.01349845,0.0003
 9625,0.00532694,-0.00138895,-0.00003946,-0.25999919,-0.11186415,0.0033
 8244,0.00040178,0.00056365,0.00040675,-0.00004675,0.00034442,-0.000401
 24,0.28232002,0.00023753,-0.00043113,0.00000324,0.00000209,0.00028349,
 0.00000061,-0.00012597,-0.00056640,0.00000694,0.00193894,-0.00361079,0
 .00004345,0.00000127,0.00000384,-0.00000019,-0.00003701,0.00040619,-0.
 00000941,0.00005721,0.00018545,-0.00000468,-0.00001823,0.00000250,0.00
 000237,-0.00001901,0.00000264,-0.00000218,0.00006071,-0.00000462,-0.00
 000062,0.02443194,0.01046616,-0.00037496,-0.00176245,0.00220302,-0.000
 02277,-0.11733138,-0.10723250,0.00184463,-0.01477355,-0.00791272,-0.00
 142841,-0.01535100,-0.00815828,0.00193826,0.12180048,0.11384290,0.0000
 0045,0.00000257,0.00000357,0.00000272,0.00000053,0.00033060,-0.0000041
 1,0.00000166,-0.00010176,0.00000230,0.00002501,0.00123098,0.00000007,-
 0.00000001,-0.00001039,-0.00000413,-0.00000925,-0.00037006,-0.00000201
 ,-0.00000274,-0.00014270,0.00002874,-0.00000800,-0.00000371,-0.0000282
 3,0.00000772,-0.00000323,-0.00000026,-0.00000004,-0.00000890,-0.000085
 78,-0.00002564,-0.00133142,-0.00003459,-0.00002620,-0.00086860,0.00345
 191,0.00179434,-0.04719248,0.02414175,0.01145423,0.00075056,-0.0237419
 5,-0.01123038,0.00144487,-0.00372694,-0.00198698,0.04585061,-0.1011699
 9,-0.07226709,0.00150616,-0.00277136,-0.02586451,0.00043254,-0.0118392
 0,0.02578181,-0.00014748,-0.09713418,0.07313742,-0.00032277,0.00040226
 ,0.00067146,0.00004537,0.00045217,-0.00011953,0.00005446,-0.01841202,-
 0.02024397,0.00041428,0.00079390,-0.00058891,0.00007628,0.00078188,-0.
 00058928,-0.00007026,-0.00334424,0.00206429,0.00000648,-0.02820073,0.0
 2273987,-0.00004137,0.00461611,0.00176697,-0.00008302,-0.00205236,-0.0
 0458882,0.00009312,0.00036026,-0.00002148,0.00007435,0.00035267,-0.000
 01885,-0.00007975,-0.00081144,0.00088843,0.00000005,0.25797627,-0.0406
 3817,-0.10377107,0.00122194,0.01439698,-0.06187438,0.00075553,-0.00841
 407,-0.06161965,0.00094156,0.03742841,-0.09094516,0.00038163,0.0032626
 8,-0.00301371,0.00008562,-0.00332814,-0.00302500,0.00014586,-0.0019969
 3,0.00873248,-0.00010561,-0.00049857,-0.00022546,-0.00040010,-0.000505
 17,-0.00021306,0.00042286,0.00273788,0.00067262,-0.00003159,0.00374279
 ,0.01018450,-0.00018398,-0.00003235,-0.00204401,0.00000135,-0.00240936
 ,0.00021969,0.00004161,-0.00025592,-0.00025758,-0.00012809,-0.00026215
 ,-0.00024765,0.00014025,-0.00048012,0.00052025,0.00000317,-0.00274780,
 0.30690716,0.00111172,0.00151552,-0.03634655,-0.00007306,0.00112722,0.
 00891288,0.00028029,0.00062497,0.00717331,0.00012607,0.00005060,-0.032
 92275,0.00001289,0.00010955,0.00621384,0.00009474,0.00011627,0.0061559
 2,0.00018415,0.00006429,-0.00114666,0.00057412,-0.00007618,0.00031342,
 -0.00057058,0.00010046,0.00031261,-0.00000175,-0.00002560,0.00016829,0
 .00019590,-0.00036224,-0.00172888,-0.00005922,-0.00001398,-0.00192292,
 0.00006504,0.00006284,0.00175332,0.00034574,-0.00025042,0.00003752,-0.
 00034495,0.00025797,0.00003555,0.00001735,-0.00000929,0.00042208,-0.00
 195846,-0.00329199,0.04256901\\-0.00009741,-0.00010901,0.00000227,0.00
 001953,0.00003959,-0.00000102,-0.00001826,0.00000883,-0.00000026,-0.00
 005074,0.00005316,-0.00000250,0.00000008,-0.00000406,0.00000034,-0.000
 00279,-0.00000335,0.00000015,-0.00000507,0.00001628,-0.00000029,0.0000
 0554,-0.00000217,0.00000108,0.00000544,-0.00000218,-0.00000125,0.00000
 402,0.00000288,-0.00000011,0.00002212,0.00002181,0.00000235,-0.0000126
 4,-0.00001543,-0.00000177,-0.00000400,-0.00000097,-0.00000059,-0.00000
 132,-0.00000415,0.00000225,-0.00000203,-0.00000395,-0.00000168,0.00000
 031,-0.00000896,0.00000061,0.00013720,0.00001169,0.00000041\\\@


  ON THE CHOICE OF THE CORRECT LANGUAGE -
 I SPEAK SPANISH TO GOD, ITALIAN TO WOMEN,
 FRENCH TO MEN, AND GERMAN TO MY HORSE.
          -- CHARLES V
 Job cpu time:       0 days  1 hours  8 minutes  4.0 seconds.
 File lengths (MBytes):  RWF=    163 Int=      0 D2E=      0 Chk=      6 Scr=      1
 Normal termination of Gaussian 09 at Thu Feb  2 15:43:05 2023.
