 Entering Gaussian System, Link 0=g09
 Initial command:
 /cm/shared/apps/gaussian/g09revD.01/g09/l1.exe "//home/sweav003/HartwigDocs/DiverseFunctionalization_Hartwig/G09-Figure2_4.com.o9616027.tmp/Gau-59269.inp" -scrdir="//home/sweav003/HartwigDocs/DiverseFunctionalization_Hartwig/G09-Figure2_4.com.o9616027.tmp/"
 Entering Link 1 = /cm/shared/apps/gaussian/g09revD.01/g09/l1.exe PID=     59270.
  
 Copyright (c) 1988,1990,1992,1993,1995,1998,2003,2009,2013,
            Gaussian, Inc.  All Rights Reserved.
  
 This is part of the Gaussian(R) 09 program.  It is based on
 the Gaussian(R) 03 system (copyright 2003, Gaussian, Inc.),
 the Gaussian(R) 98 system (copyright 1998, Gaussian, Inc.),
 the Gaussian(R) 94 system (copyright 1995, Gaussian, Inc.),
 the Gaussian 92(TM) system (copyright 1992, Gaussian, Inc.),
 the Gaussian 90(TM) system (copyright 1990, Gaussian, Inc.),
 the Gaussian 88(TM) system (copyright 1988, Gaussian, Inc.),
 the Gaussian 86(TM) system (copyright 1986, Carnegie Mellon
 University), and the Gaussian 82(TM) system (copyright 1983,
 Carnegie Mellon University). Gaussian is a federally registered
 trademark of Gaussian, Inc.
  
 This software contains proprietary and confidential information,
 including trade secrets, belonging to Gaussian, Inc.
  
 This software is provided under written license and may be
 used, copied, transmitted, or stored only in accord with that
 written license.
  
 The following legend is applicable only to US Government
 contracts under FAR:
  
                    RESTRICTED RIGHTS LEGEND
  
 Use, reproduction and disclosure by the US Government is
 subject to restrictions as set forth in subparagraphs (a)
 and (c) of the Commercial Computer Software - Restricted
 Rights clause in FAR 52.227-19.
  
 Gaussian, Inc.
 340 Quinnipiac St., Bldg. 40, Wallingford CT 06492
  
  
 ---------------------------------------------------------------
 Warning -- This program may not be used in any manner that
 competes with the business of Gaussian, Inc. or will provide
 assistance to any competitor of Gaussian, Inc.  The licensee
 of this program is prohibited from giving any competitor of
 Gaussian, Inc. access to this program.  By using this program,
 the user acknowledges that Gaussian, Inc. is engaged in the
 business of creating and licensing software in the field of
 computational chemistry and represents and warrants to the
 licensee that it is not a competitor of Gaussian, Inc. and that
 it will not use this program in any manner prohibited above.
 ---------------------------------------------------------------
  

 Cite this work as:
 Gaussian 09, Revision D.01,
 M. J. Frisch, G. W. Trucks, H. B. Schlegel, G. E. Scuseria, 
 M. A. Robb, J. R. Cheeseman, G. Scalmani, V. Barone, B. Mennucci, 
 G. A. Petersson, H. Nakatsuji, M. Caricato, X. Li, H. P. Hratchian, 
 A. F. Izmaylov, J. Bloino, G. Zheng, J. L. Sonnenberg, M. Hada, 
 M. Ehara, K. Toyota, R. Fukuda, J. Hasegawa, M. Ishida, T. Nakajima, 
 Y. Honda, O. Kitao, H. Nakai, T. Vreven, J. A. Montgomery, Jr., 
 J. E. Peralta, F. Ogliaro, M. Bearpark, J. J. Heyd, E. Brothers, 
 K. N. Kudin, V. N. Staroverov, T. Keith, R. Kobayashi, J. Normand, 
 K. Raghavachari, A. Rendell, J. C. Burant, S. S. Iyengar, J. Tomasi, 
 M. Cossi, N. Rega, J. M. Millam, M. Klene, J. E. Knox, J. B. Cross, 
 V. Bakken, C. Adamo, J. Jaramillo, R. Gomperts, R. E. Stratmann, 
 O. Yazyev, A. J. Austin, R. Cammi, C. Pomelli, J. W. Ochterski, 
 R. L. Martin, K. Morokuma, V. G. Zakrzewski, G. A. Voth, 
 P. Salvador, J. J. Dannenberg, S. Dapprich, A. D. Daniels, 
 O. Farkas, J. B. Foresman, J. V. Ortiz, J. Cioslowski, 
 and D. J. Fox, Gaussian, Inc., Wallingford CT, 2013.
 
 ******************************************
 Gaussian 09:  ES64L-G09RevD.01 24-Apr-2013
                13-Oct-2021 
 ******************************************
 %mem=100MW
 %nprocshared=20
 Will use up to   20 processors via shared memory.
 %chk=Figure2_4.chk
 ----------------------------------------------------------------------
 # opt freq b3lyp/6-311+g(d,p) geom=connectivity pop=(hirshfeld,chelpg,
 mbs,npa)
 ----------------------------------------------------------------------
 1/14=-1,18=20,19=15,26=3,38=1,57=2/1,3;
 2/9=110,12=2,17=6,18=5,40=1/2;
 3/5=4,6=6,7=111,11=2,16=1,25=1,30=1,71=1,74=-5/1,2,3;
 4//1;
 5/5=2,38=5/2;
 6/7=2,8=2,9=2,10=2,15=8,20=3,27=100,28=1,40=-1,79=1/1,2,7;
 7//1,2,3,16;
 1/14=-1,18=20,19=15,26=3/3(2);
 2/9=110/2;
 99//99;
 2/9=110/2;
 3/5=4,6=6,7=111,11=2,16=1,25=1,30=1,71=1,74=-5/1,2,3;
 4/5=5,16=3,69=1/1;
 5/5=2,38=5/2;
 7//1,2,3,16;
 1/14=-1,18=20,19=15,26=3/3(-5);
 2/9=110/2;
 6/7=2,8=2,9=2,10=2,15=8,19=2,20=3,27=100,28=1,40=-1,79=1/1,2,7;
 99/9=1/99;
 ---------
 Figure2_4
 ---------
 Symbolic Z-matrix:
 Charge =  0 Multiplicity = 1
 C                    -0.29029   2.00179   0.04645 
 C                     0.0986    3.04275   1.11265 
 H                     0.13394   4.01451   0.66617 
 H                    -0.62798   3.03734   1.89812 
 H                     1.06003   2.79967   1.51446 
 C                    -1.67497   2.36852  -0.51904 
 H                    -1.6336    3.34256  -0.95997 
 H                    -1.95787   1.65239  -1.26203 
 H                    -2.39552   2.36539   0.27197 
 C                     0.77082   1.96649  -1.0172 
 H                     0.49198   1.32998  -1.83083 
 H                     0.94045   2.95402  -1.39259 
 C                    -0.2695    0.63225   0.66491 
 H                    -0.87684   0.6233    1.5458 
 H                    -0.63215  -0.11175  -0.01321 
 O                     1.11393   0.3757    0.96243 
 O                     1.93622   1.4303   -0.36714 
 C                     1.80242  -0.02004  -0.26298 
 C                     0.70508  -1.10046  -0.25162 
 C                     1.21858  -2.36126  -0.97154 
 H                    -0.16404  -0.7314   -0.75493 
 H                     0.45497  -1.34418   0.75979 
 C                     0.12124  -3.44168  -0.96018 
 H                     1.46868  -2.11754  -1.98295 
 H                     2.0877   -2.73032  -0.46823 
 H                    -0.12887  -3.68541   0.05123 
 H                    -0.74788  -3.07262  -1.46349 
 C                     0.63474  -4.70249  -1.6801 
 H                     1.50386  -5.07155  -1.17679 
 H                     0.88484  -4.45876  -2.69151 
 C                     1.65631   0.11951  -1.78967 
 H                     1.9971   -0.77701  -2.26401 
 H                     0.62822   0.2847   -2.03595 
 H                     2.24208   0.94782  -2.12979 
 H                    -0.1277   -5.45317  -1.67221 
 

 GradGradGradGradGradGradGradGradGradGradGradGradGradGradGradGradGradGrad
 Berny optimization.
 Initialization pass.
                           ----------------------------
                           !    Initial Parameters    !
                           ! (Angstroms and Degrees)  !
 --------------------------                            --------------------------
 ! Name  Definition              Value          Derivative Info.                !
 --------------------------------------------------------------------------------
 ! R1    R(1,2)                  1.54           estimate D2E/DX2                !
 ! R2    R(1,6)                  1.54           estimate D2E/DX2                !
 ! R3    R(1,10)                 1.5029         estimate D2E/DX2                !
 ! R4    R(1,13)                 1.5029         estimate D2E/DX2                !
 ! R5    R(2,3)                  1.07           estimate D2E/DX2                !
 ! R6    R(2,4)                  1.07           estimate D2E/DX2                !
 ! R7    R(2,5)                  1.07           estimate D2E/DX2                !
 ! R8    R(6,7)                  1.07           estimate D2E/DX2                !
 ! R9    R(6,8)                  1.07           estimate D2E/DX2                !
 ! R10   R(6,9)                  1.07           estimate D2E/DX2                !
 ! R11   R(10,11)                1.07           estimate D2E/DX2                !
 ! R12   R(10,12)                1.07           estimate D2E/DX2                !
 ! R13   R(10,17)                1.4381         estimate D2E/DX2                !
 ! R14   R(13,14)                1.07           estimate D2E/DX2                !
 ! R15   R(13,15)                1.07           estimate D2E/DX2                !
 ! R16   R(13,16)                1.4381         estimate D2E/DX2                !
 ! R17   R(16,18)                1.4602         estimate D2E/DX2                !
 ! R18   R(17,18)                1.4602         estimate D2E/DX2                !
 ! R19   R(18,19)                1.54           estimate D2E/DX2                !
 ! R20   R(18,31)                1.54           estimate D2E/DX2                !
 ! R21   R(19,20)                1.54           estimate D2E/DX2                !
 ! R22   R(19,21)                1.07           estimate D2E/DX2                !
 ! R23   R(19,22)                1.07           estimate D2E/DX2                !
 ! R24   R(20,23)                1.54           estimate D2E/DX2                !
 ! R25   R(20,24)                1.07           estimate D2E/DX2                !
 ! R26   R(20,25)                1.07           estimate D2E/DX2                !
 ! R27   R(23,26)                1.07           estimate D2E/DX2                !
 ! R28   R(23,27)                1.07           estimate D2E/DX2                !
 ! R29   R(23,28)                1.54           estimate D2E/DX2                !
 ! R30   R(28,29)                1.07           estimate D2E/DX2                !
 ! R31   R(28,30)                1.07           estimate D2E/DX2                !
 ! R32   R(28,35)                1.07           estimate D2E/DX2                !
 ! R33   R(31,32)                1.07           estimate D2E/DX2                !
 ! R34   R(31,33)                1.07           estimate D2E/DX2                !
 ! R35   R(31,34)                1.07           estimate D2E/DX2                !
 ! A1    A(2,1,6)              108.6823         estimate D2E/DX2                !
 ! A2    A(2,1,10)             109.122          estimate D2E/DX2                !
 ! A3    A(2,1,13)             109.122          estimate D2E/DX2                !
 ! A4    A(6,1,10)             112.3682         estimate D2E/DX2                !
 ! A5    A(6,1,13)             112.3682         estimate D2E/DX2                !
 ! A6    A(10,1,13)            105.0751         estimate D2E/DX2                !
 ! A7    A(1,2,3)              109.4712         estimate D2E/DX2                !
 ! A8    A(1,2,4)              109.4712         estimate D2E/DX2                !
 ! A9    A(1,2,5)              109.4712         estimate D2E/DX2                !
 ! A10   A(3,2,4)              109.4712         estimate D2E/DX2                !
 ! A11   A(3,2,5)              109.4712         estimate D2E/DX2                !
 ! A12   A(4,2,5)              109.4712         estimate D2E/DX2                !
 ! A13   A(1,6,7)              109.4712         estimate D2E/DX2                !
 ! A14   A(1,6,8)              109.4712         estimate D2E/DX2                !
 ! A15   A(1,6,9)              109.4712         estimate D2E/DX2                !
 ! A16   A(7,6,8)              109.4712         estimate D2E/DX2                !
 ! A17   A(7,6,9)              109.4712         estimate D2E/DX2                !
 ! A18   A(8,6,9)              109.4712         estimate D2E/DX2                !
 ! A19   A(1,10,11)            111.6019         estimate D2E/DX2                !
 ! A20   A(1,10,12)            109.7891         estimate D2E/DX2                !
 ! A21   A(1,10,17)            105.13           estimate D2E/DX2                !
 ! A22   A(11,10,12)           108.878          estimate D2E/DX2                !
 ! A23   A(11,10,17)           109.4569         estimate D2E/DX2                !
 ! A24   A(12,10,17)           111.976          estimate D2E/DX2                !
 ! A25   A(1,13,14)            109.7891         estimate D2E/DX2                !
 ! A26   A(1,13,15)            111.6019         estimate D2E/DX2                !
 ! A27   A(1,13,16)            105.13           estimate D2E/DX2                !
 ! A28   A(14,13,15)           108.878          estimate D2E/DX2                !
 ! A29   A(14,13,16)           111.976          estimate D2E/DX2                !
 ! A30   A(15,13,16)           109.4569         estimate D2E/DX2                !
 ! A31   A(13,16,18)           109.1659         estimate D2E/DX2                !
 ! A32   A(10,17,18)           109.1659         estimate D2E/DX2                !
 ! A33   A(16,18,17)            80.4384         estimate D2E/DX2                !
 ! A34   A(16,18,19)            81.2556         estimate D2E/DX2                !
 ! A35   A(16,18,31)           139.698          estimate D2E/DX2                !
 ! A36   A(17,18,19)           139.698          estimate D2E/DX2                !
 ! A37   A(17,18,31)            81.2556         estimate D2E/DX2                !
 ! A38   A(19,18,31)            90.1879         estimate D2E/DX2                !
 ! A39   A(18,19,20)           109.4712         estimate D2E/DX2                !
 ! A40   A(18,19,21)           109.4712         estimate D2E/DX2                !
 ! A41   A(18,19,22)           109.4712         estimate D2E/DX2                !
 ! A42   A(20,19,21)           109.4712         estimate D2E/DX2                !
 ! A43   A(20,19,22)           109.4712         estimate D2E/DX2                !
 ! A44   A(21,19,22)           109.4712         estimate D2E/DX2                !
 ! A45   A(19,20,23)           109.4712         estimate D2E/DX2                !
 ! A46   A(19,20,24)           109.4712         estimate D2E/DX2                !
 ! A47   A(19,20,25)           109.4712         estimate D2E/DX2                !
 ! A48   A(23,20,24)           109.4712         estimate D2E/DX2                !
 ! A49   A(23,20,25)           109.4712         estimate D2E/DX2                !
 ! A50   A(24,20,25)           109.4712         estimate D2E/DX2                !
 ! A51   A(20,23,26)           109.4712         estimate D2E/DX2                !
 ! A52   A(20,23,27)           109.4712         estimate D2E/DX2                !
 ! A53   A(20,23,28)           109.4712         estimate D2E/DX2                !
 ! A54   A(26,23,27)           109.4712         estimate D2E/DX2                !
 ! A55   A(26,23,28)           109.4712         estimate D2E/DX2                !
 ! A56   A(27,23,28)           109.4712         estimate D2E/DX2                !
 ! A57   A(23,28,29)           109.4712         estimate D2E/DX2                !
 ! A58   A(23,28,30)           109.4712         estimate D2E/DX2                !
 ! A59   A(23,28,35)           109.4712         estimate D2E/DX2                !
 ! A60   A(29,28,30)           109.4712         estimate D2E/DX2                !
 ! A61   A(29,28,35)           109.4712         estimate D2E/DX2                !
 ! A62   A(30,28,35)           109.4712         estimate D2E/DX2                !
 ! A63   A(18,31,32)           109.4712         estimate D2E/DX2                !
 ! A64   A(18,31,33)           109.4712         estimate D2E/DX2                !
 ! A65   A(18,31,34)           109.4712         estimate D2E/DX2                !
 ! A66   A(32,31,33)           109.4712         estimate D2E/DX2                !
 ! A67   A(32,31,34)           109.4712         estimate D2E/DX2                !
 ! A68   A(33,31,34)           109.4712         estimate D2E/DX2                !
 ! D1    D(6,1,2,3)            -60.0            estimate D2E/DX2                !
 ! D2    D(6,1,2,4)             60.0            estimate D2E/DX2                !
 ! D3    D(6,1,2,5)            180.0            estimate D2E/DX2                !
 ! D4    D(10,1,2,3)            62.8486         estimate D2E/DX2                !
 ! D5    D(10,1,2,4)          -177.1514         estimate D2E/DX2                !
 ! D6    D(10,1,2,5)           -57.1514         estimate D2E/DX2                !
 ! D7    D(13,1,2,3)           177.1514         estimate D2E/DX2                !
 ! D8    D(13,1,2,4)           -62.8486         estimate D2E/DX2                !
 ! D9    D(13,1,2,5)            57.1514         estimate D2E/DX2                !
 ! D10   D(2,1,6,7)             60.0            estimate D2E/DX2                !
 ! D11   D(2,1,6,8)            180.0            estimate D2E/DX2                !
 ! D12   D(2,1,6,9)            -60.0            estimate D2E/DX2                !
 ! D13   D(10,1,6,7)           -60.8698         estimate D2E/DX2                !
 ! D14   D(10,1,6,8)            59.1302         estimate D2E/DX2                !
 ! D15   D(10,1,6,9)           179.1302         estimate D2E/DX2                !
 ! D16   D(13,1,6,7)          -179.1302         estimate D2E/DX2                !
 ! D17   D(13,1,6,8)           -59.1302         estimate D2E/DX2                !
 ! D18   D(13,1,6,9)            60.8698         estimate D2E/DX2                !
 ! D19   D(2,1,10,11)         -174.0709         estimate D2E/DX2                !
 ! D20   D(2,1,10,12)          -53.2532         estimate D2E/DX2                !
 ! D21   D(2,1,10,17)           67.362          estimate D2E/DX2                !
 ! D22   D(6,1,10,11)          -53.4542         estimate D2E/DX2                !
 ! D23   D(6,1,10,12)           67.3634         estimate D2E/DX2                !
 ! D24   D(6,1,10,17)         -172.0213         estimate D2E/DX2                !
 ! D25   D(13,1,10,11)          69.0277         estimate D2E/DX2                !
 ! D26   D(13,1,10,12)        -170.1546         estimate D2E/DX2                !
 ! D27   D(13,1,10,17)         -49.5394         estimate D2E/DX2                !
 ! D28   D(2,1,13,14)           53.2532         estimate D2E/DX2                !
 ! D29   D(2,1,13,15)          174.0709         estimate D2E/DX2                !
 ! D30   D(2,1,13,16)          -67.362          estimate D2E/DX2                !
 ! D31   D(6,1,13,14)          -67.3634         estimate D2E/DX2                !
 ! D32   D(6,1,13,15)           53.4542         estimate D2E/DX2                !
 ! D33   D(6,1,13,16)          172.0213         estimate D2E/DX2                !
 ! D34   D(10,1,13,14)         170.1546         estimate D2E/DX2                !
 ! D35   D(10,1,13,15)         -69.0277         estimate D2E/DX2                !
 ! D36   D(10,1,13,16)          49.5394         estimate D2E/DX2                !
 ! D37   D(1,10,17,18)          78.7719         estimate D2E/DX2                !
 ! D38   D(11,10,17,18)        -41.2276         estimate D2E/DX2                !
 ! D39   D(12,10,17,18)       -162.0645         estimate D2E/DX2                !
 ! D40   D(1,13,16,18)         -78.7719         estimate D2E/DX2                !
 ! D41   D(14,13,16,18)        162.0645         estimate D2E/DX2                !
 ! D42   D(15,13,16,18)         41.2276         estimate D2E/DX2                !
 ! D43   D(13,16,18,17)         86.9682         estimate D2E/DX2                !
 ! D44   D(13,16,18,19)        -56.9711         estimate D2E/DX2                !
 ! D45   D(13,16,18,31)         22.8785         estimate D2E/DX2                !
 ! D46   D(10,17,18,16)        -86.9682         estimate D2E/DX2                !
 ! D47   D(10,17,18,19)        -22.8785         estimate D2E/DX2                !
 ! D48   D(10,17,18,31)         56.9711         estimate D2E/DX2                !
 ! D49   D(16,18,19,20)       -151.9086         estimate D2E/DX2                !
 ! D50   D(16,18,19,21)         88.0914         estimate D2E/DX2                !
 ! D51   D(16,18,19,22)        -31.9086         estimate D2E/DX2                !
 ! D52   D(17,18,19,20)        144.2712         estimate D2E/DX2                !
 ! D53   D(17,18,19,21)         24.2712         estimate D2E/DX2                !
 ! D54   D(17,18,19,22)        -95.7288         estimate D2E/DX2                !
 ! D55   D(31,18,19,20)         67.6374         estimate D2E/DX2                !
 ! D56   D(31,18,19,21)        -52.3626         estimate D2E/DX2                !
 ! D57   D(31,18,19,22)       -172.3626         estimate D2E/DX2                !
 ! D58   D(16,18,31,32)       -144.2712         estimate D2E/DX2                !
 ! D59   D(16,18,31,33)        -24.2712         estimate D2E/DX2                !
 ! D60   D(16,18,31,34)         95.7288         estimate D2E/DX2                !
 ! D61   D(17,18,31,32)        151.9086         estimate D2E/DX2                !
 ! D62   D(17,18,31,33)        -88.0914         estimate D2E/DX2                !
 ! D63   D(17,18,31,34)         31.9086         estimate D2E/DX2                !
 ! D64   D(19,18,31,32)        -67.6374         estimate D2E/DX2                !
 ! D65   D(19,18,31,33)         52.3626         estimate D2E/DX2                !
 ! D66   D(19,18,31,34)        172.3626         estimate D2E/DX2                !
 ! D67   D(18,19,20,23)       -180.0            estimate D2E/DX2                !
 ! D68   D(18,19,20,24)        -60.0            estimate D2E/DX2                !
 ! D69   D(18,19,20,25)         60.0            estimate D2E/DX2                !
 ! D70   D(21,19,20,23)        -60.0            estimate D2E/DX2                !
 ! D71   D(21,19,20,24)         60.0            estimate D2E/DX2                !
 ! D72   D(21,19,20,25)        180.0            estimate D2E/DX2                !
 ! D73   D(22,19,20,23)         60.0            estimate D2E/DX2                !
 ! D74   D(22,19,20,24)        180.0            estimate D2E/DX2                !
 ! D75   D(22,19,20,25)        -60.0            estimate D2E/DX2                !
 ! D76   D(19,20,23,26)        -60.0            estimate D2E/DX2                !
 ! D77   D(19,20,23,27)         60.0            estimate D2E/DX2                !
 ! D78   D(19,20,23,28)        180.0            estimate D2E/DX2                !
 ! D79   D(24,20,23,26)        180.0            estimate D2E/DX2                !
 ! D80   D(24,20,23,27)        -60.0            estimate D2E/DX2                !
 ! D81   D(24,20,23,28)         60.0            estimate D2E/DX2                !
 ! D82   D(25,20,23,26)         60.0            estimate D2E/DX2                !
 ! D83   D(25,20,23,27)        180.0            estimate D2E/DX2                !
 ! D84   D(25,20,23,28)        -60.0            estimate D2E/DX2                !
 ! D85   D(20,23,28,29)         60.0            estimate D2E/DX2                !
 ! D86   D(20,23,28,30)        -60.0            estimate D2E/DX2                !
 ! D87   D(20,23,28,35)        180.0            estimate D2E/DX2                !
 ! D88   D(26,23,28,29)        -60.0            estimate D2E/DX2                !
 ! D89   D(26,23,28,30)        180.0            estimate D2E/DX2                !
 ! D90   D(26,23,28,35)         60.0            estimate D2E/DX2                !
 ! D91   D(27,23,28,29)        180.0            estimate D2E/DX2                !
 ! D92   D(27,23,28,30)         60.0            estimate D2E/DX2                !
 ! D93   D(27,23,28,35)        -60.0            estimate D2E/DX2                !
 --------------------------------------------------------------------------------
 Trust Radius=3.00D-01 FncErr=1.00D-07 GrdErr=1.00D-06
 Number of steps in this run=    206 maximum allowed number of steps=    210.
 GradGradGradGradGradGradGradGradGradGradGradGradGradGradGradGradGradGrad

                          Input orientation:                          
 ---------------------------------------------------------------------
 Center     Atomic      Atomic             Coordinates (Angstroms)
 Number     Number       Type             X           Y           Z
 ---------------------------------------------------------------------
      1          6           0       -0.290294    2.001795    0.046455
      2          6           0        0.098596    3.042752    1.112651
      3          1           0        0.133935    4.014508    0.666173
      4          1           0       -0.627980    3.037336    1.898118
      5          1           0        1.060034    2.799675    1.514459
      6          6           0       -1.674971    2.368516   -0.519039
      7          1           0       -1.633604    3.342563   -0.959971
      8          1           0       -1.957873    1.652392   -1.262029
      9          1           0       -2.395519    2.365391    0.271974
     10          6           0        0.770823    1.966494   -1.017197
     11          1           0        0.491985    1.329982   -1.830832
     12          1           0        0.940447    2.954020   -1.392592
     13          6           0       -0.269505    0.632253    0.664914
     14          1           0       -0.876845    0.623304    1.545799
     15          1           0       -0.632153   -0.111750   -0.013206
     16          8           0        1.113933    0.375696    0.962425
     17          8           0        1.936225    1.430303   -0.367144
     18          6           0        1.802421   -0.020037   -0.262980
     19          6           0        0.705077   -1.100457   -0.251621
     20          6           0        1.218580   -2.361263   -0.971539
     21          1           0       -0.164044   -0.731396   -0.754933
     22          1           0        0.454973   -1.344184    0.759786
     23          6           0        0.121236   -3.441683   -0.960180
     24          1           0        1.468684   -2.117535   -1.982947
     25          1           0        2.087701   -2.730324   -0.468227
     26          1           0       -0.128868   -3.685410    0.051227
     27          1           0       -0.747885   -3.072622   -1.463493
     28          6           0        0.634739   -4.702489   -1.680099
     29          1           0        1.503860   -5.071550   -1.176787
     30          1           0        0.884843   -4.458761   -2.691506
     31          6           0        1.656305    0.119514   -1.789668
     32          1           0        1.997096   -0.777014   -2.264010
     33          1           0        0.628220    0.284700   -2.035950
     34          1           0        2.242078    0.947816   -2.129795
     35          1           0       -0.127701   -5.453170   -1.672207
 ---------------------------------------------------------------------
                    Distance matrix (angstroms):
                    1          2          3          4          5
     1  C    0.000000
     2  C    1.540000   0.000000
     3  H    2.148263   1.070000   0.000000
     4  H    2.148263   1.070000   1.747303   0.000000
     5  H    2.148263   1.070000   1.747303   1.747303   0.000000
     6  C    1.540000   2.502508   2.717749   2.717749   3.435297
     7  H    2.148263   2.717749   2.494003   3.045179   3.697731
     8  H    2.148263   3.435297   3.697731   3.697731   4.258275
     9  H    2.148263   2.717749   3.045179   2.494003   3.697731
    10  C    1.502854   2.479208   2.726485   3.406231   2.680880
    11  H    2.141844   3.428181   3.683736   4.251405   3.697790
    12  H    2.119507   2.644396   2.452266   3.646324   2.913601
    13  C    1.502854   2.479208   3.406231   2.726485   2.680880
    14  H    2.119507   2.644396   3.646324   2.452266   2.913601
    15  H    2.141844   3.428181   4.251405   3.683736   3.697790
    16  O    2.335605   2.857738   3.780094   3.315736   2.486628
    17  O    2.335605   2.857738   3.315736   3.780094   2.486628
    18  C    2.926261   3.765110   4.463711   4.463711   3.414850
    19  C    3.271632   4.404002   5.227945   4.849716   4.296051
    20  C    4.727503   5.899287   6.671507   6.386672   5.730672
    21  H    2.851051   4.219128   4.963057   4.632198   4.372295
    22  H    3.501406   4.415510   5.369116   4.654708   4.255255
    23  C    5.551047   6.807719   7.631511   7.121017   6.779360
    24  H    4.917454   6.171582   6.811853   6.784641   6.047958
    25  H    5.320968   6.307465   7.113144   6.800030   5.963893
    26  H    5.689498   6.815169   7.728904   6.989666   6.753582
    27  H    5.314042   6.689607   7.452549   6.974696   6.827930
    28  C    6.984561   8.250797   9.041119   8.619918   8.165080
    29  H    7.399156   8.547408   9.371747   8.930499   8.330424
    30  H    7.114504   8.447633   9.145171   8.918787   8.390812
    31  C    3.271632   4.404002   4.849716   5.227945   4.296051
    32  H    4.276935   5.440289   5.917433   6.226041   5.286550
    33  H    2.851051   4.219128   4.632198   4.963057   4.372295
    34  H    3.501406   4.415510   4.654708   5.369116   4.255255
    35  H    7.652238   8.943564   9.755686   9.224218   8.926086
                    6          7          8          9         10
     6  C    0.000000
     7  H    1.070000   0.000000
     8  H    1.070000   1.747303   0.000000
     9  H    1.070000   1.747303   1.747303   0.000000
    10  C    2.528179   2.770939   2.757604   3.441918   0.000000
    11  H    2.737709   3.054015   2.535604   3.719078   1.070000
    12  H    2.818922   2.638914   3.179865   3.774378   1.070000
    13  C    2.528179   3.441918   2.757604   2.770939   2.385787
    14  H    2.818922   3.774378   3.179865   2.638914   3.329852
    15  H    2.737709   3.719078   2.535604   3.054015   2.701007
    16  O    3.734174   4.477372   4.001767   4.092904   2.562668
    17  O    3.734174   4.092904   4.001767   4.477372   1.438136
    18  C    4.226465   4.857894   4.234965   4.857894   2.362063
    19  C    4.215437   5.070662   3.961111   4.679738   3.161743
    20  C    5.563110   6.377203   5.126759   6.078593   4.351098
    21  H    3.456588   4.335757   3.026122   3.952734   2.867293
    22  H    4.467236   5.411591   4.346152   4.703638   3.770680
    23  C    6.097489   7.007528   5.510300   6.447819   5.447347
    24  H    5.670118   6.362652   5.145227   6.333510   4.254290
    25  H    6.337069   7.139318   6.017058   6.827405   4.908730
    26  H    6.274206   7.258041   5.793275   6.465186   5.821941
    27  H    5.599773   6.495585   4.881641   5.941256   5.281888
    28  C    7.528740   8.389685   6.876113   7.933976   6.703230
    29  H    8.117399   8.982649   7.563217   8.521276   7.077915
    30  H    7.608152   8.378630   6.889894   8.130931   6.640800
    31  C    4.215437   4.679738   3.961111   5.070662   2.189093
    32  H    5.140365   5.643882   4.748448   5.966656   3.253479
    33  H    3.456588   3.952734   3.026122   4.335757   1.971453
    34  H    4.467236   4.703638   4.346152   5.411591   2.107172
    35  H    8.056216   8.952092   7.348931   8.369751   7.502520
                   11         12         13         14         15
    11  H    0.000000
    12  H    1.740883   0.000000
    13  C    2.701007   3.329852   0.000000
    14  H    3.711431   4.167604   1.070000   0.000000
    15  H    2.577991   3.711431   1.070000   1.740883   0.000000
    16  O    3.016582   3.496277   1.438136   2.089218   2.058708
    17  O    2.058708   2.089218   2.562668   3.496277   3.016582
    18  C    2.449071   3.296063   2.362063   3.296063   2.449071
    19  C    2.906260   4.218530   2.189093   2.950347   1.680050
    20  C    3.858965   5.339183   3.722031   4.431189   3.066582
    21  H    2.416032   3.899846   1.971453   2.763451   1.073894
    22  H    3.723417   4.831457   2.107172   2.502512   1.816110
    23  C    4.864593   6.462437   4.403472   4.878547   3.542995
    24  H    3.586426   5.133052   4.194496   5.046360   3.509498
    25  H    4.570457   5.872172   4.259970   4.908325   3.802839
    26  H    5.392751   6.878232   4.363325   4.621497   3.609501
    27  H    4.588587   6.259066   4.299425   4.767844   3.299014
    28  C    6.036042   7.668001   5.897136   6.407447   5.045636
    29  H    6.513929   8.048215   6.250604   6.746228   5.524137
    30  H    5.865547   7.525928   6.206166   6.847313   5.326451
    31  C    1.680050   2.950347   3.161743   4.218530   2.906260
    32  H    2.625344   3.974479   3.962588   4.973436   3.524436
    33  H    1.073894   2.763451   2.867293   3.899846   2.416032
    34  H    1.816110   2.502512   3.770680   4.831457   3.723417
    35  H    6.813246   8.479385   6.520323   6.916670   5.615829
                   16         17         18         19         20
    16  O    0.000000
    17  O    1.885766   0.000000
    18  C    1.460218   1.460218   0.000000
    19  C    1.954507   2.816703   1.540000   0.000000
    20  C    3.352926   3.905928   2.514809   1.540000   0.000000
    21  H    2.410020   3.038824   2.148263   1.070000   2.148263
    22  H    1.852911   3.340936   2.148263   1.070000   2.148263
    23  C    4.387965   5.232793   3.875582   2.514809   1.540000
    24  H    3.875212   3.926394   2.732978   2.148263   1.070000
    25  H    3.555608   4.164610   2.732978   2.148263   1.070000
    26  H    4.343665   5.532645   4.154945   2.732978   2.148263
    27  H    4.608941   5.355628   4.154945   2.732978   2.148263
    28  C    5.744608   6.405377   5.029619   3.875582   2.514809
    29  H    5.865216   6.566319   5.142175   4.154945   2.732978
    30  H    6.064295   6.417877   5.142175   4.154945   2.732978
    31  C    2.816703   1.954507   1.540000   2.181456   2.648620
    32  H    3.538163   2.911023   2.148263   2.413221   2.187787
    33  H    3.038824   2.410020   2.148263   2.260176   2.912492
    34  H    3.340936   1.852911   2.148263   3.175741   3.652274
    35  H    6.516028   7.303779   5.935506   4.653783   3.444314
                   21         22         23         24         25
    21  H    0.000000
    22  H    1.747303   0.000000
    23  C    2.732978   2.732978   0.000000
    24  H    2.468846   3.024610   2.148263   0.000000
    25  H    3.024610   2.468846   2.148263   1.747303   0.000000
    26  H    3.062243   2.514809   1.070000   3.024610   2.468846
    27  H    2.514809   3.062243   1.070000   2.468846   3.024610
    28  C    4.154945   4.154945   1.540000   2.732978   2.732978
    29  H    4.668704   4.329403   2.148263   3.062243   2.514809
    30  H    4.329403   4.668704   2.148263   2.514809   3.062243
    31  C    2.260176   3.175741   3.965679   2.253208   3.170785
    32  H    2.636270   3.441390   3.509883   1.468064   2.654894
    33  H    1.816903   3.240281   3.911552   2.545569   3.698405
    34  H    3.240281   4.098376   5.013349   3.164819   4.038978
    35  H    4.810184   4.810184   2.148263   3.710993   3.710993
                   26         27         28         29         30
    26  H    0.000000
    27  H    1.747303   0.000000
    28  C    2.148263   2.148263   0.000000
    29  H    2.468846   3.024610   1.070000   0.000000
    30  H    3.024610   2.468846   1.070000   1.747303   0.000000
    31  C    4.588375   4.009520   4.930245   5.229341   4.729595
    32  H    4.282384   3.666819   4.195989   4.457395   3.869771
    33  H    4.548765   3.673280   4.999872   5.494935   4.795418
    34  H    5.643139   5.054479   5.891664   6.138888   5.602560
    35  H    2.468846   2.468846   1.070000   1.747303   1.747303
                   31         32         33         34         35
    31  C    0.000000
    32  H    1.070000   0.000000
    33  H    1.070000   1.747303   0.000000
    34  H    1.070000   1.747303   1.747303   0.000000
    35  H    5.852460   5.170245   5.798869   6.840896   0.000000
 Stoichiometry    C11H22O2
 Framework group  C1[X(C11H22O2)]
 Deg. of freedom    99
 Full point group                 C1      NOp   1
 Largest Abelian subgroup         C1      NOp   1
 Largest concise Abelian subgroup C1      NOp   1
                         Standard orientation:                         
 ---------------------------------------------------------------------
 Center     Atomic      Atomic             Coordinates (Angstroms)
 Number     Number       Type             X           Y           Z
 ---------------------------------------------------------------------
      1          6           0       -2.153602    0.550229    0.177668
      2          6           0       -3.359019    0.246317   -0.731291
      3          1           0       -4.185763   -0.073756   -0.132168
      4          1           0       -3.630414    1.129497   -1.270955
      5          1           0       -3.098411   -0.527951   -1.422300
      6          6           0       -2.548076    1.665477    1.163677
      7          1           0       -3.377575    1.340580    1.756359
      8          1           0       -1.718507    1.886895    1.802183
      9          1           0       -2.822227    2.543834    0.617572
     10          6           0       -1.735281   -0.711482    0.878854
     11          1           0       -0.965267   -0.525635    1.598187
     12          1           0       -2.577063   -1.145211    1.377031
     13          6           0       -0.977001    0.931454   -0.676059
     14          1           0       -1.252466    1.724746   -1.339163
     15          1           0       -0.145899    1.249660   -0.081994
     16          8           0       -0.625683   -0.267634   -1.388096
     17          8           0       -1.225039   -1.566238   -0.159067
     18          6           0        0.131163   -1.147225   -0.501675
     19          6           0        1.031437    0.099475   -0.418930
     20          6           0        2.480731   -0.332313   -0.127889
     21          1           0        0.684974    0.738106    0.366572
     22          1           0        0.996437    0.627066   -1.349157
     23          6           0        3.381004    0.914387   -0.045144
     24          1           0        2.515731   -0.859904    0.802338
     25          1           0        2.827194   -0.970944   -0.913391
     26          1           0        3.346005    1.441978   -0.975371
     27          1           0        3.034542    1.553018    0.740359
     28          6           0        4.830299    0.482599    0.245898
     29          1           0        5.176762   -0.156032   -0.539605
     30          1           0        4.865298   -0.044992    1.176125
     31          6           0        0.338100   -1.402751    1.002813
     32          1           0        1.356735   -1.677501    1.181124
     33          1           0        0.107504   -0.513076    1.550721
     34          1           0       -0.306157   -2.195218    1.321919
     35          1           0        5.455814    1.348812    0.303389
 ---------------------------------------------------------------------
 Rotational constants (GHZ):      1.6813061      0.4358745      0.4114096
 Standard basis: 6-311+G(d,p) (5D, 7F)
 There are   431 symmetry adapted cartesian basis functions of A   symmetry.
 There are   418 symmetry adapted basis functions of A   symmetry.
   418 basis functions,   644 primitive gaussians,   431 cartesian basis functions
    52 alpha electrons       52 beta electrons
       nuclear repulsion energy       952.5968297655 Hartrees.
 NAtoms=   35 NActive=   35 NUniq=   35 SFac= 1.00D+00 NAtFMM=   60 NAOKFM=F Big=F
 Integral buffers will be    131072 words long.
 Raffenetti 2 integral format.
 Two-electron integral symmetry is turned on.
 One-electron integrals computed using PRISM.
 NBasis=   418 RedAO= T EigKep=  2.44D-06  NBF=   418
 NBsUse=   418 1.00D-06 EigRej= -1.00D+00 NBFU=   418
 ExpMin= 4.38D-02 ExpMax= 8.59D+03 ExpMxC= 1.30D+03 IAcc=2 IRadAn=         4 AccDes= 0.00D+00
 Harris functional with IExCor=  402 and IRadAn=       4 diagonalized for initial guess.
 HarFok:  IExCor=  402 AccDes= 0.00D+00 IRadAn=         4 IDoV= 1 UseB2=F ITyADJ=14
 ICtDFT=  3500011 ScaDFX=  1.000000  1.000000  1.000000  1.000000
 FoFCou: FMM=F IPFlag=           0 FMFlag=      100000 FMFlg1=           0
         NFxFlg=           0 DoJE=T BraDBF=F KetDBF=T FulRan=T
         wScrn=  0.000000 ICntrl=     500 IOpCl=  0 I1Cent=   200000004 NGrid=           0
         NMat0=    1 NMatS0=      1 NMatT0=    0 NMatD0=    1 NMtDS0=    0 NMtDT0=    0
 Petite list used in FoFCou.
 Requested convergence on RMS density matrix=1.00D-08 within 128 cycles.
 Requested convergence on MAX density matrix=1.00D-06.
 Requested convergence on             energy=1.00D-06.
 No special actions if energy rises.
 EnCoef did     3 forward-backward iterations
 EnCoef did     3 forward-backward iterations
 Restarting incremental Fock formation.
 SCF Done:  E(RB3LYP) =  -582.408978375     A.U. after   23 cycles
            NFock= 23  Conv=0.35D-08     -V/T= 1.9994

 **********************************************************************

            Population analysis using the SCF density.

 **********************************************************************

 Orbital symmetries:
       Occupied  (A) (A) (A) (A) (A) (A) (A) (A) (A) (A) (A) (A)
                 (A) (A) (A) (A) (A) (A) (A) (A) (A) (A) (A) (A)
                 (A) (A) (A) (A) (A) (A) (A) (A) (A) (A) (A) (A)
                 (A) (A) (A) (A) (A) (A) (A) (A) (A) (A) (A) (A)
                 (A) (A) (A) (A)
       Virtual   (A) (A) (A) (A) (A) (A) (A) (A) (A) (A) (A) (A)
                 (A) (A) (A) (A) (A) (A) (A) (A) (A) (A) (A) (A)
                 (A) (A) (A) (A) (A) (A) (A) (A) (A) (A) (A) (A)
                 (A) (A) (A) (A) (A) (A) (A) (A) (A) (A) (A) (A)
                 (A) (A) (A) (A) (A) (A) (A) (A) (A) (A) (A) (A)
                 (A) (A) (A) (A) (A) (A) (A) (A) (A) (A) (A) (A)
                 (A) (A) (A) (A) (A) (A) (A) (A) (A) (A) (A) (A)
                 (A) (A) (A) (A) (A) (A) (A) (A) (A) (A) (A) (A)
                 (A) (A) (A) (A) (A) (A) (A) (A) (A) (A) (A) (A)
                 (A) (A) (A) (A) (A) (A) (A) (A) (A) (A) (A) (A)
                 (A) (A) (A) (A) (A) (A) (A) (A) (A) (A) (A) (A)
                 (A) (A) (A) (A) (A) (A) (A) (A) (A) (A) (A) (A)
                 (A) (A) (A) (A) (A) (A) (A) (A) (A) (A) (A) (A)
                 (A) (A) (A) (A) (A) (A) (A) (A) (A) (A) (A) (A)
                 (A) (A) (A) (A) (A) (A) (A) (A) (A) (A) (A) (A)
                 (A) (A) (A) (A) (A) (A) (A) (A) (A) (A) (A) (A)
                 (A) (A) (A) (A) (A) (A) (A) (A) (A) (A) (A) (A)
                 (A) (A) (A) (A) (A) (A) (A) (A) (A) (A) (A) (A)
                 (A) (A) (A) (A) (A) (A) (A) (A) (A) (A) (A) (A)
                 (A) (A) (A) (A) (A) (A) (A) (A) (A) (A) (A) (A)
                 (A) (A) (A) (A) (A) (A) (A) (A) (A) (A) (A) (A)
                 (A) (A) (A) (A) (A) (A) (A) (A) (A) (A) (A) (A)
                 (A) (A) (A) (A) (A) (A) (A) (A) (A) (A) (A) (A)
                 (A) (A) (A) (A) (A) (A) (A) (A) (A) (A) (A) (A)
                 (A) (A) (A) (A) (A) (A) (A) (A) (A) (A) (A) (A)
                 (A) (A) (A) (A) (A) (A) (A) (A) (A) (A) (A) (A)
                 (A) (A) (A) (A) (A) (A) (A) (A) (A) (A) (A) (A)
                 (A) (A) (A) (A) (A) (A) (A) (A) (A) (A) (A) (A)
                 (A) (A) (A) (A) (A) (A) (A) (A) (A) (A) (A) (A)
                 (A) (A) (A) (A) (A) (A) (A) (A) (A) (A) (A) (A)
                 (A) (A) (A) (A) (A) (A)
 The electronic state is 1-A.
 Alpha  occ. eigenvalues --  -19.13769 -19.13087 -10.22391 -10.20134 -10.19634
 Alpha  occ. eigenvalues --  -10.19626 -10.18034 -10.17763 -10.16850 -10.16327
 Alpha  occ. eigenvalues --  -10.16058 -10.15631 -10.14222  -1.11965  -1.00684
 Alpha  occ. eigenvalues --   -0.84433  -0.83673  -0.78788  -0.73178  -0.72395
 Alpha  occ. eigenvalues --   -0.69792  -0.68994  -0.66804  -0.61307  -0.60701
 Alpha  occ. eigenvalues --   -0.54800  -0.53590  -0.51312  -0.50947  -0.49029
 Alpha  occ. eigenvalues --   -0.48289  -0.46661  -0.45407  -0.43678  -0.42815
 Alpha  occ. eigenvalues --   -0.42423  -0.40720  -0.40326  -0.39869  -0.39173
 Alpha  occ. eigenvalues --   -0.38613  -0.37182  -0.36222  -0.35133  -0.34505
 Alpha  occ. eigenvalues --   -0.33384  -0.32960  -0.29950  -0.29436  -0.27630
 Alpha  occ. eigenvalues --   -0.20817  -0.17259
 Alpha virt. eigenvalues --   -0.11908  -0.01496   0.00749   0.01162   0.01593
 Alpha virt. eigenvalues --    0.02356   0.02868   0.03578   0.03983   0.04379
 Alpha virt. eigenvalues --    0.04911   0.05290   0.05472   0.06097   0.06649
 Alpha virt. eigenvalues --    0.06942   0.07318   0.08542   0.08895   0.09458
 Alpha virt. eigenvalues --    0.09499   0.09682   0.10206   0.10805   0.11289
 Alpha virt. eigenvalues --    0.11407   0.12227   0.12772   0.13703   0.13796
 Alpha virt. eigenvalues --    0.14443   0.15028   0.15448   0.15654   0.15970
 Alpha virt. eigenvalues --    0.16497   0.16625   0.17807   0.17960   0.18395
 Alpha virt. eigenvalues --    0.18586   0.18878   0.19487   0.19823   0.20265
 Alpha virt. eigenvalues --    0.20713   0.21144   0.21396   0.22060   0.22088
 Alpha virt. eigenvalues --    0.22504   0.22948   0.23403   0.23745   0.24422
 Alpha virt. eigenvalues --    0.24456   0.24798   0.25264   0.25402   0.25783
 Alpha virt. eigenvalues --    0.26373   0.26525   0.27242   0.27652   0.28085
 Alpha virt. eigenvalues --    0.28355   0.28931   0.29919   0.30279   0.30546
 Alpha virt. eigenvalues --    0.31444   0.32040   0.33012   0.33818   0.34133
 Alpha virt. eigenvalues --    0.34549   0.35065   0.36095   0.36983   0.37997
 Alpha virt. eigenvalues --    0.38503   0.39336   0.40349   0.40548   0.40878
 Alpha virt. eigenvalues --    0.42048   0.43086   0.43820   0.44687   0.45260
 Alpha virt. eigenvalues --    0.46370   0.46857   0.48045   0.49773   0.50024
 Alpha virt. eigenvalues --    0.51151   0.51926   0.52580   0.54013   0.55252
 Alpha virt. eigenvalues --    0.56601   0.57895   0.59060   0.59490   0.60497
 Alpha virt. eigenvalues --    0.60837   0.61593   0.62418   0.63513   0.64255
 Alpha virt. eigenvalues --    0.65140   0.65836   0.66227   0.67026   0.67363
 Alpha virt. eigenvalues --    0.67753   0.68518   0.68767   0.69619   0.70066
 Alpha virt. eigenvalues --    0.70193   0.70670   0.71251   0.72420   0.73560
 Alpha virt. eigenvalues --    0.74378   0.75208   0.75487   0.75858   0.76053
 Alpha virt. eigenvalues --    0.77127   0.78524   0.79221   0.79826   0.80025
 Alpha virt. eigenvalues --    0.81169   0.81413   0.81986   0.82819   0.84213
 Alpha virt. eigenvalues --    0.84698   0.85816   0.89449   0.92158   0.96013
 Alpha virt. eigenvalues --    0.97190   0.99801   1.01055   1.01829   1.03967
 Alpha virt. eigenvalues --    1.05079   1.07521   1.07911   1.09012   1.12009
 Alpha virt. eigenvalues --    1.15954   1.17723   1.17857   1.19606   1.21704
 Alpha virt. eigenvalues --    1.23155   1.24393   1.26374   1.27200   1.28469
 Alpha virt. eigenvalues --    1.32877   1.34027   1.35011   1.37029   1.37800
 Alpha virt. eigenvalues --    1.38988   1.41930   1.45119   1.45719   1.45949
 Alpha virt. eigenvalues --    1.47239   1.48430   1.49171   1.50412   1.51456
 Alpha virt. eigenvalues --    1.51848   1.52949   1.53893   1.54336   1.55556
 Alpha virt. eigenvalues --    1.56333   1.56812   1.57154   1.58594   1.59639
 Alpha virt. eigenvalues --    1.59768   1.60456   1.61261   1.62404   1.62652
 Alpha virt. eigenvalues --    1.64220   1.64451   1.66672   1.67107   1.68388
 Alpha virt. eigenvalues --    1.69257   1.69835   1.71367   1.71927   1.72199
 Alpha virt. eigenvalues --    1.74373   1.75121   1.76296   1.76464   1.77604
 Alpha virt. eigenvalues --    1.78528   1.79763   1.80903   1.81425   1.82853
 Alpha virt. eigenvalues --    1.83284   1.86269   1.86869   1.88182   1.90022
 Alpha virt. eigenvalues --    1.91714   1.93694   1.94751   1.96376   1.98797
 Alpha virt. eigenvalues --    1.99500   2.00574   2.01220   2.02452   2.04553
 Alpha virt. eigenvalues --    2.04937   2.06650   2.09658   2.10139   2.10833
 Alpha virt. eigenvalues --    2.13887   2.14297   2.15486   2.17093   2.18533
 Alpha virt. eigenvalues --    2.20681   2.21653   2.23413   2.24481   2.26139
 Alpha virt. eigenvalues --    2.28563   2.29232   2.31959   2.34928   2.35565
 Alpha virt. eigenvalues --    2.38221   2.38376   2.40664   2.43042   2.44714
 Alpha virt. eigenvalues --    2.47574   2.49104   2.50065   2.50343   2.51591
 Alpha virt. eigenvalues --    2.52213   2.54132   2.54798   2.55906   2.56156
 Alpha virt. eigenvalues --    2.56869   2.57940   2.58497   2.59473   2.60225
 Alpha virt. eigenvalues --    2.60673   2.61233   2.62133   2.63206   2.64671
 Alpha virt. eigenvalues --    2.65263   2.66586   2.67665   2.68178   2.68791
 Alpha virt. eigenvalues --    2.70194   2.72880   2.73475   2.74272   2.75203
 Alpha virt. eigenvalues --    2.77109   2.78564   2.79903   2.81105   2.82424
 Alpha virt. eigenvalues --    2.83806   2.85422   2.86950   2.88946   2.92346
 Alpha virt. eigenvalues --    2.92506   2.94247   2.97445   2.98180   2.98766
 Alpha virt. eigenvalues --    3.00393   3.01216   3.03110   3.03935   3.08581
 Alpha virt. eigenvalues --    3.12137   3.14086   3.16026   3.20452   3.21315
 Alpha virt. eigenvalues --    3.23079   3.24254   3.27740   3.28558   3.31053
 Alpha virt. eigenvalues --    3.32665   3.36230   3.39536   3.43653   3.48296
 Alpha virt. eigenvalues --    3.51914   3.69853   3.77135   3.83612   3.84426
 Alpha virt. eigenvalues --    3.85128   3.85445   3.86774   3.87605   3.88190
 Alpha virt. eigenvalues --    3.89872   3.91315   3.91731   3.94363   3.96151
 Alpha virt. eigenvalues --    3.96910   4.00083   4.13170   4.15845   4.16922
 Alpha virt. eigenvalues --    4.20761   4.24286   4.28657   4.31662   4.34837
 Alpha virt. eigenvalues --    4.41465   4.41789   5.14840   5.33040   5.46401
 Alpha virt. eigenvalues --    5.47131   5.60012   5.71467  23.82618  23.88217
 Alpha virt. eigenvalues --   23.91094  23.96339  23.98017  24.00896  24.02933
 Alpha virt. eigenvalues --   24.03692  24.06085  24.08677  24.11627  49.96174
 Alpha virt. eigenvalues --   50.10436
          Condensed to atoms (all electrons):
               1          2          3          4          5          6
     1  C    8.760646   0.607308  -0.020800  -0.027471  -0.055025  -0.041396
     2  C    0.607308   6.193365   0.344601   0.355768   0.446158  -0.528934
     3  H   -0.020800   0.344601   0.545198  -0.027382  -0.025565   0.021862
     4  H   -0.027471   0.355768  -0.027382   0.547642  -0.025398   0.004594
     5  H   -0.055025   0.446158  -0.025565  -0.025398   0.499252  -0.001320
     6  C   -0.041396  -0.528934   0.021862   0.004594  -0.001320   6.350879
     7  H   -0.080201  -0.021914   0.002383  -0.000323   0.000108   0.422646
     8  H    0.096296   0.026647  -0.000141  -0.000075  -0.000571   0.396457
     9  H   -0.051826  -0.024819  -0.000142   0.002729   0.000147   0.414651
    10  C   -1.747753  -0.721892  -0.033115   0.059760   0.006635  -0.157635
    11  H    0.074780   0.027609   0.000100  -0.000955  -0.000398   0.072864
    12  H   -0.044566   0.003355   0.002252  -0.000126  -0.000866  -0.021376
    13  C   -1.815972  -0.585955   0.054584  -0.019625   0.001414  -0.356492
    14  H    0.007378   0.001961  -0.000014   0.002150  -0.000192  -0.014047
    15  H    0.081002   0.024857  -0.000916   0.000495   0.000140   0.021827
    16  O    0.077031  -0.053031   0.002749  -0.005781   0.003859   0.052530
    17  O   -0.177581  -0.002872  -0.006113   0.002176   0.004982  -0.036959
    18  C    0.790033   0.091693  -0.000364  -0.000986   0.009018   0.080950
    19  C   -0.555769   0.279335   0.006492   0.002990  -0.027144  -0.449229
    20  C   -0.037440  -0.090873   0.000701   0.000345  -0.001828   0.037439
    21  H    0.041647  -0.021917   0.000033  -0.000171   0.000127   0.048092
    22  H   -0.026652  -0.001485   0.000020   0.000030   0.000124  -0.003953
    23  C   -0.015185   0.002769  -0.000007   0.000016  -0.000166  -0.008766
    24  H    0.002353   0.001008   0.000000   0.000000  -0.000001  -0.001996
    25  H    0.000172  -0.000423   0.000000   0.000000   0.000000   0.000484
    26  H    0.001545   0.000092   0.000000   0.000000   0.000000  -0.000161
    27  H   -0.003581  -0.000070   0.000000   0.000000   0.000000   0.000267
    28  C   -0.014460  -0.001281   0.000001   0.000004  -0.000004  -0.002419
    29  H    0.000036   0.000001   0.000000   0.000000   0.000000   0.000012
    30  H    0.000196   0.000001   0.000000   0.000000   0.000000   0.000020
    31  C   -0.029289  -0.091267   0.001144  -0.001019  -0.000003   0.102814
    32  H    0.000835   0.003600   0.000003  -0.000006   0.000013  -0.007795
    33  H    0.082501  -0.013392  -0.000188   0.000074   0.000149   0.037664
    34  H   -0.032558  -0.001334   0.000021   0.000018  -0.000010  -0.007122
    35  H   -0.000079   0.000001   0.000000   0.000000   0.000000  -0.000006
               7          8          9         10         11         12
     1  C   -0.080201   0.096296  -0.051826  -1.747753   0.074780  -0.044566
     2  C   -0.021914   0.026647  -0.024819  -0.721892   0.027609   0.003355
     3  H    0.002383  -0.000141  -0.000142  -0.033115   0.000100   0.002252
     4  H   -0.000323  -0.000075   0.002729   0.059760  -0.000955  -0.000126
     5  H    0.000108  -0.000571   0.000147   0.006635  -0.000398  -0.000866
     6  C    0.422646   0.396457   0.414651  -0.157635   0.072864  -0.021376
     7  H    0.533258  -0.028952  -0.025814   0.012264  -0.001182   0.004884
     8  H   -0.028952   0.559070  -0.029002  -0.079014   0.005488  -0.000250
     9  H   -0.025814  -0.029002   0.530938   0.035729  -0.000631  -0.000688
    10  C    0.012264  -0.079014   0.035729   7.921651   0.286132   0.400810
    11  H   -0.001182   0.005488  -0.000631   0.286132   0.719362  -0.036305
    12  H    0.004884  -0.000250  -0.000688   0.400810  -0.036305   0.537227
    13  C    0.042508  -0.078756  -0.000253   1.378567  -0.092560   0.020023
    14  H   -0.000840  -0.000453   0.004589   0.012733  -0.001333  -0.000754
    15  H   -0.000441   0.003393  -0.001217  -0.073051   0.003394  -0.001459
    16  O   -0.000782  -0.001199   0.000212  -0.041615   0.001239  -0.006527
    17  O   -0.000041  -0.001810  -0.000356   0.268437  -0.063610  -0.065947
    18  C    0.000434  -0.009025   0.008591  -1.001475  -0.044434   0.004594
    19  C   -0.005145   0.017043  -0.000327   0.403051  -0.045350   0.010282
    20  C    0.000353   0.002497   0.000710  -0.060477   0.035784  -0.008294
    21  H    0.000087   0.000785  -0.000382  -0.013964   0.016120  -0.000479
    22  H    0.000006   0.000049  -0.000004   0.019848  -0.001507   0.000006
    23  C    0.000116   0.000827  -0.000504  -0.014828   0.002650   0.000803
    24  H   -0.000001   0.000005   0.000001   0.005790  -0.000749  -0.000003
    25  H    0.000000   0.000000   0.000000   0.000285   0.000019   0.000002
    26  H    0.000000   0.000001   0.000000   0.000172  -0.000004   0.000000
    27  H    0.000000   0.000001   0.000000   0.001667  -0.000015   0.000000
    28  C    0.000005   0.000089  -0.000015   0.005687  -0.000407  -0.000009
    29  H    0.000000   0.000000   0.000000  -0.000049   0.000000   0.000000
    30  H    0.000000   0.000000   0.000000  -0.000046   0.000002   0.000000
    31  C    0.004679  -0.001651  -0.004339  -0.257051  -0.077107   0.039050
    32  H   -0.000006  -0.000054   0.000003   0.026277   0.001479  -0.000389
    33  H   -0.000140   0.000205  -0.000050  -0.166410  -0.002081  -0.002321
    34  H    0.000020   0.000081   0.000005   0.016188  -0.015023   0.002770
    35  H    0.000000   0.000000   0.000000   0.000053   0.000000   0.000000
              13         14         15         16         17         18
     1  C   -1.815972   0.007378   0.081002   0.077031  -0.177581   0.790033
     2  C   -0.585955   0.001961   0.024857  -0.053031  -0.002872   0.091693
     3  H    0.054584  -0.000014  -0.000916   0.002749  -0.006113  -0.000364
     4  H   -0.019625   0.002150   0.000495  -0.005781   0.002176  -0.000986
     5  H    0.001414  -0.000192   0.000140   0.003859   0.004982   0.009018
     6  C   -0.356492  -0.014047   0.021827   0.052530  -0.036959   0.080950
     7  H    0.042508  -0.000840  -0.000441  -0.000782  -0.000041   0.000434
     8  H   -0.078756  -0.000453   0.003393  -0.001199  -0.001810  -0.009025
     9  H   -0.000253   0.004589  -0.001217   0.000212  -0.000356   0.008591
    10  C    1.378567   0.012733  -0.073051  -0.041615   0.268437  -1.001475
    11  H   -0.092560  -0.001333   0.003394   0.001239  -0.063610  -0.044434
    12  H    0.020023  -0.000754  -0.001459  -0.006527  -0.065947   0.004594
    13  C    8.420290   0.366909   0.366814   0.212879   0.034240  -1.077337
    14  H    0.366909   0.535153  -0.032295  -0.072800  -0.003995   0.035328
    15  H    0.366814  -0.032295   0.678957   0.003029  -0.011139   0.245137
    16  O    0.212879  -0.072800   0.003029   8.134448  -0.265725   0.089958
    17  O    0.034240  -0.003995  -0.011139  -0.265725   8.427645   0.028454
    18  C   -1.077337   0.035328   0.245137   0.089958   0.028454  11.469866
    19  C   -0.241227   0.048709  -0.384853  -0.191244   0.231529  -3.038645
    20  C   -0.589318  -0.025884   0.023453   0.013020   0.005828  -0.107514
    21  H   -0.081650  -0.000876  -0.066956   0.017985  -0.017131  -0.439121
    22  H    0.023161   0.001365  -0.011099  -0.078332   0.003066   0.062017
    23  C   -0.004051  -0.003780  -0.042667   0.021793   0.000699  -0.395435
    24  H    0.012479   0.000083   0.001208  -0.002948   0.001512   0.027880
    25  H    0.000894   0.000037  -0.001712   0.003428  -0.000270  -0.063616
    26  H   -0.002823   0.000025   0.000805  -0.001275  -0.000030   0.009805
    27  H    0.005239  -0.000019  -0.001138   0.000463   0.000121  -0.006486
    28  C    0.011118  -0.000552  -0.005387  -0.000236   0.000819  -0.183756
    29  H   -0.000033   0.000000   0.000003   0.000055   0.000006   0.000079
    30  H   -0.000867   0.000000   0.000023  -0.000021  -0.000006  -0.000307
    31  C    0.274184  -0.024539   0.007143   0.050874  -0.369423  -0.545299
    32  H   -0.009234   0.000043  -0.000797  -0.004198   0.044245  -0.129609
    33  H   -0.055518   0.000259   0.002151   0.020690  -0.052010  -0.047252
    34  H    0.016926   0.000022  -0.000715  -0.002550  -0.051552  -0.031268
    35  H    0.000446   0.000000  -0.000014  -0.000009  -0.000003   0.001442
              19         20         21         22         23         24
     1  C   -0.555769  -0.037440   0.041647  -0.026652  -0.015185   0.002353
     2  C    0.279335  -0.090873  -0.021917  -0.001485   0.002769   0.001008
     3  H    0.006492   0.000701   0.000033   0.000020  -0.000007   0.000000
     4  H    0.002990   0.000345  -0.000171   0.000030   0.000016   0.000000
     5  H   -0.027144  -0.001828   0.000127   0.000124  -0.000166  -0.000001
     6  C   -0.449229   0.037439   0.048092  -0.003953  -0.008766  -0.001996
     7  H   -0.005145   0.000353   0.000087   0.000006   0.000116  -0.000001
     8  H    0.017043   0.002497   0.000785   0.000049   0.000827   0.000005
     9  H   -0.000327   0.000710  -0.000382  -0.000004  -0.000504   0.000001
    10  C    0.403051  -0.060477  -0.013964   0.019848  -0.014828   0.005790
    11  H   -0.045350   0.035784   0.016120  -0.001507   0.002650  -0.000749
    12  H    0.010282  -0.008294  -0.000479   0.000006   0.000803  -0.000003
    13  C   -0.241227  -0.589318  -0.081650   0.023161  -0.004051   0.012479
    14  H    0.048709  -0.025884  -0.000876   0.001365  -0.003780   0.000083
    15  H   -0.384853   0.023453  -0.066956  -0.011099  -0.042667   0.001208
    16  O   -0.191244   0.013020   0.017985  -0.078332   0.021793  -0.002948
    17  O    0.231529   0.005828  -0.017131   0.003066   0.000699   0.001512
    18  C   -3.038645  -0.107514  -0.439121   0.062017  -0.395435   0.027880
    19  C   12.676760  -3.048350   0.638151   0.377391   0.393452   0.164442
    20  C   -3.048350  10.361184  -0.197479  -0.013789  -0.274082   0.216828
    21  H    0.638151  -0.197479   0.796389  -0.037730   0.092082  -0.013675
    22  H    0.377391  -0.013789  -0.037730   0.520297  -0.050925   0.008122
    23  C    0.393452  -0.274082   0.092082  -0.050925   5.700370  -0.064129
    24  H    0.164442   0.216828  -0.013675   0.008122  -0.064129   0.596906
    25  H   -0.050934   0.474575   0.013111  -0.005614  -0.057149  -0.033438
    26  H   -0.022601  -0.033764  -0.002716   0.005710   0.425674   0.008967
    27  H    0.006338  -0.043833   0.005573  -0.000673   0.426745  -0.008978
    28  C   -0.201261   0.180013   0.020095  -0.002480   0.088299  -0.015638
    29  H    0.007582  -0.027380   0.000020  -0.000040  -0.018428  -0.001108
    30  H   -0.020039  -0.010843  -0.000140   0.000008  -0.037240   0.005718
    31  C   -0.781387   0.096404   0.056405   0.011131   0.025015  -0.046048
    32  H    0.118783  -0.058013  -0.006940   0.000639   0.001368   0.009085
    33  H   -0.152585   0.031198   0.023696   0.002120  -0.003030   0.001869
    34  H    0.011336   0.004530  -0.000486  -0.000273  -0.001809   0.001903
    35  H    0.007902   0.027908  -0.000012   0.000023  -0.052842  -0.000075
              25         26         27         28         29         30
     1  C    0.000172   0.001545  -0.003581  -0.014460   0.000036   0.000196
     2  C   -0.000423   0.000092  -0.000070  -0.001281   0.000001   0.000001
     3  H    0.000000   0.000000   0.000000   0.000001   0.000000   0.000000
     4  H    0.000000   0.000000   0.000000   0.000004   0.000000   0.000000
     5  H    0.000000   0.000000   0.000000  -0.000004   0.000000   0.000000
     6  C    0.000484  -0.000161   0.000267  -0.002419   0.000012   0.000020
     7  H    0.000000   0.000000   0.000000   0.000005   0.000000   0.000000
     8  H    0.000000   0.000001   0.000001   0.000089   0.000000   0.000000
     9  H    0.000000   0.000000   0.000000  -0.000015   0.000000   0.000000
    10  C    0.000285   0.000172   0.001667   0.005687  -0.000049  -0.000046
    11  H    0.000019  -0.000004  -0.000015  -0.000407   0.000000   0.000002
    12  H    0.000002   0.000000   0.000000  -0.000009   0.000000   0.000000
    13  C    0.000894  -0.002823   0.005239   0.011118  -0.000033  -0.000867
    14  H    0.000037   0.000025  -0.000019  -0.000552   0.000000   0.000000
    15  H   -0.001712   0.000805  -0.001138  -0.005387   0.000003   0.000023
    16  O    0.003428  -0.001275   0.000463  -0.000236   0.000055  -0.000021
    17  O   -0.000270  -0.000030   0.000121   0.000819   0.000006  -0.000006
    18  C   -0.063616   0.009805  -0.006486  -0.183756   0.000079  -0.000307
    19  C   -0.050934  -0.022601   0.006338  -0.201261   0.007582  -0.020039
    20  C    0.474575  -0.033764  -0.043833   0.180013  -0.027380  -0.010843
    21  H    0.013111  -0.002716   0.005573   0.020095   0.000020  -0.000140
    22  H   -0.005614   0.005710  -0.000673  -0.002480  -0.000040   0.000008
    23  C   -0.057149   0.425674   0.426745   0.088299  -0.018428  -0.037240
    24  H   -0.033438   0.008967  -0.008978  -0.015638  -0.001108   0.005718
    25  H    0.518485  -0.008530   0.007924   0.012258   0.004795  -0.001371
    26  H   -0.008530   0.560444  -0.036330  -0.037961  -0.008110   0.008581
    27  H    0.007924  -0.036330   0.575301  -0.063816   0.008735  -0.008352
    28  C    0.012258  -0.037961  -0.063816   5.509213   0.403264   0.437529
    29  H    0.004795  -0.008110   0.008735   0.403264   0.548617  -0.032311
    30  H   -0.001371   0.008581  -0.008352   0.437529  -0.032311   0.557659
    31  C    0.017431  -0.004298   0.006368   0.021553   0.001700  -0.001218
    32  H    0.002772  -0.000275   0.000981   0.001881   0.000101  -0.000414
    33  H    0.000641   0.000112  -0.000270   0.002188  -0.000008   0.000037
    34  H   -0.000420   0.000017  -0.000053  -0.000289  -0.000001   0.000009
    35  H   -0.000033  -0.005154  -0.005218   0.392503  -0.025104  -0.026621
              31         32         33         34         35
     1  C   -0.029289   0.000835   0.082501  -0.032558  -0.000079
     2  C   -0.091267   0.003600  -0.013392  -0.001334   0.000001
     3  H    0.001144   0.000003  -0.000188   0.000021   0.000000
     4  H   -0.001019  -0.000006   0.000074   0.000018   0.000000
     5  H   -0.000003   0.000013   0.000149  -0.000010   0.000000
     6  C    0.102814  -0.007795   0.037664  -0.007122  -0.000006
     7  H    0.004679  -0.000006  -0.000140   0.000020   0.000000
     8  H   -0.001651  -0.000054   0.000205   0.000081   0.000000
     9  H   -0.004339   0.000003  -0.000050   0.000005   0.000000
    10  C   -0.257051   0.026277  -0.166410   0.016188   0.000053
    11  H   -0.077107   0.001479  -0.002081  -0.015023   0.000000
    12  H    0.039050  -0.000389  -0.002321   0.002770   0.000000
    13  C    0.274184  -0.009234  -0.055518   0.016926   0.000446
    14  H   -0.024539   0.000043   0.000259   0.000022   0.000000
    15  H    0.007143  -0.000797   0.002151  -0.000715  -0.000014
    16  O    0.050874  -0.004198   0.020690  -0.002550  -0.000009
    17  O   -0.369423   0.044245  -0.052010  -0.051552  -0.000003
    18  C   -0.545299  -0.129609  -0.047252  -0.031268   0.001442
    19  C   -0.781387   0.118783  -0.152585   0.011336   0.007902
    20  C    0.096404  -0.058013   0.031198   0.004530   0.027908
    21  H    0.056405  -0.006940   0.023696  -0.000486  -0.000012
    22  H    0.011131   0.000639   0.002120  -0.000273   0.000023
    23  C    0.025015   0.001368  -0.003030  -0.001809  -0.052842
    24  H   -0.046048   0.009085   0.001869   0.001903  -0.000075
    25  H    0.017431   0.002772   0.000641  -0.000420  -0.000033
    26  H   -0.004298  -0.000275   0.000112   0.000017  -0.005154
    27  H    0.006368   0.000981  -0.000270  -0.000053  -0.005218
    28  C    0.021553   0.001881   0.002188  -0.000289   0.392503
    29  H    0.001700   0.000101  -0.000008  -0.000001  -0.025104
    30  H   -0.001218  -0.000414   0.000037   0.000009  -0.026621
    31  C    6.684187   0.360993   0.534021   0.457791  -0.000653
    32  H    0.360993   0.568313  -0.061689  -0.021886   0.000002
    33  H    0.534021  -0.061689   0.711349  -0.041248  -0.000008
    34  H    0.457791  -0.021886  -0.041248   0.512249   0.000000
    35  H   -0.000653   0.000002  -0.000008   0.000000   0.548337
 Mulliken charges:
               1
     1  C    0.153846
     2  C   -0.248670
     3  H    0.132605
     4  H    0.130525
     5  H    0.166367
     6  C   -0.426445
     7  H    0.142031
     8  H    0.122021
     9  H    0.142063
    10  C   -0.493362
    11  H    0.136629
    12  H    0.164297
    13  C   -0.231003
    14  H    0.165628
    15  H    0.172025
    16  O    0.022032
    17  O    0.072816
    18  C    0.166650
    19  C   -0.185480
    20  C   -0.883607
    21  H    0.131428
    22  H    0.199422
    23  C   -0.137656
    24  H    0.122629
    25  H    0.166197
    26  H    0.142082
    27  H    0.133111
    28  C   -0.556550
    29  H    0.137567
    30  H    0.130012
    31  C   -0.518299
    32  H    0.159893
    33  H    0.147277
    34  H    0.184709
    35  H    0.137212
 Sum of Mulliken charges =   0.00000
 Mulliken charges with hydrogens summed into heavy atoms:
               1
     1  C    0.153846
     2  C    0.180827
     6  C   -0.020330
    10  C   -0.192436
    13  C    0.106650
    16  O    0.022032
    17  O    0.072816
    18  C    0.166650
    19  C    0.145370
    20  C   -0.594782
    23  C    0.137537
    28  C   -0.151758
    31  C   -0.026420
 Electronic spatial extent (au):  <R**2>=           3045.9504
 Charge=              0.0000 electrons
 Dipole moment (field-independent basis, Debye):
    X=              0.6767    Y=              2.8057    Z=              2.9785  Tot=              4.1474
 Quadrupole moment (field-independent basis, Debye-Ang):
   XX=            -83.3392   YY=            -89.2011   ZZ=            -85.7890
   XY=             -1.0794   XZ=             -2.2081   YZ=             -4.7292
 Traceless Quadrupole moment (field-independent basis, Debye-Ang):
   XX=              2.7706   YY=             -3.0913   ZZ=              0.3208
   XY=             -1.0794   XZ=             -2.2081   YZ=             -4.7292
 Octapole moment (field-independent basis, Debye-Ang**2):
  XXX=             -9.1029  YYY=              7.0194  ZZZ=              1.8587  XYY=             -1.8629
  XXY=              0.4373  XXZ=             -0.1401  XZZ=              0.5220  YZZ=             -0.1407
  YYZ=              1.9747  XYZ=              2.7398
 Hexadecapole moment (field-independent basis, Debye-Ang**3):
 XXXX=          -3218.3078 YYYY=           -658.7740 ZZZZ=           -447.9706 XXXY=             20.1337
 XXXZ=            -29.6337 YYYX=              8.6288 YYYZ=            -18.5141 ZZZX=              0.8534
 ZZZY=             -8.4022 XXYY=           -632.5911 XXZZ=           -594.4075 YYZZ=           -179.0178
 XXYZ=             -8.4744 YYXZ=              7.8849 ZZXY=              5.0503
 N-N= 9.525968297655D+02 E-N=-3.262585274029D+03  KE= 5.827848525433D+02
 There are a total of      289842 grid points.
 ElSum from          density=      103.9995450462
 ElSum from atomic densities=      103.9991754046

 Hirshfeld populations at iteration   1 (CX, CA, CB, DipXYZ):
               1          2          3          4          5          6
     1  C    0.000000   3.001675   3.001675  -0.019571   0.028061   0.016321
     2  C    0.000000   3.054826   3.054826  -0.001815   0.003945   0.002895
     3  H    0.000001   0.485104   0.485104  -0.110822  -0.044410   0.078976
     4  H    0.000001   0.485139   0.485139  -0.036291   0.117009  -0.073979
     5  H    0.000001   0.482963   0.482963   0.011268  -0.100430  -0.099462
     6  C    0.000000   3.050150   3.050150  -0.005864  -0.005910  -0.008198
     7  H    0.000001   0.480496   0.480496  -0.115908  -0.044677   0.081320
     8  H    0.000000   0.485143   0.485143   0.111146   0.028758   0.084473
     9  H    0.000001   0.480946   0.480946  -0.038899   0.120471  -0.076464
    10  C    0.000000   3.003174   3.003174   0.024796  -0.057452  -0.041864
    11  H    0.000000   0.482268   0.482268   0.055355   0.040147   0.114935
    12  H    0.000001   0.481721   0.481721  -0.114156  -0.055191   0.070791
    13  C    0.000000   3.000510   3.000510   0.017155  -0.052937  -0.057407
    14  H    0.000001   0.479998   0.479998  -0.037521   0.113828  -0.084559
    15  H    0.000000   0.481963   0.481963   0.070160   0.081212   0.076349
    16  O    0.000002   4.052431   4.052431   0.021173   0.057011   0.148919
    17  O    0.000005   4.048836   4.048836   0.008867   0.105986   0.042000
    18  C    0.000004   3.018639   3.018639  -0.136143   0.210701   0.057627
    19  C    0.000000   3.022381   3.022381   0.034998  -0.016976  -0.022509
    20  C    0.000000   3.029902   3.029902   0.006947   0.018945  -0.003458
    21  H    0.000000   0.486479   0.486479  -0.027830   0.083931   0.107852
    22  H    0.000001   0.481652   0.481652   0.018250   0.079524  -0.126671
    23  C    0.000000   3.026735   3.026735   0.013057  -0.013741  -0.000757
    24  H    0.000000   0.483617   0.483617   0.020827  -0.061807   0.126839
    25  H    0.000005   0.482737   0.482737   0.058429  -0.070471  -0.108698
    26  H    0.000000   0.483357   0.483357   0.003722   0.065951  -0.130336
    27  H    0.000000   0.485320   0.485320  -0.037157   0.082309   0.109922
    28  C    0.000000   3.049308   3.049308  -0.014067   0.005455  -0.005152
    29  H    0.000000   0.481719   0.481719   0.045653  -0.085423  -0.112515
    30  H    0.000000   0.482889   0.482889   0.001651  -0.069534   0.129082
    31  C    0.000000   3.023871   3.023871   0.001704   0.016614   0.016095
    32  H    0.000002   0.483833   0.483833   0.124474  -0.050119   0.048710
    33  H    0.000000   0.477157   0.477157  -0.003297   0.108825   0.101414
    34  H    0.000003   0.480446   0.480446  -0.074138  -0.116197   0.067018
    35  H    0.000000   0.482387   0.482387   0.080799   0.124136   0.005948
       Tot   0.000031  51.999773  51.999773  -0.043049   0.647542   0.535453

 Dip from Atomic Chgs              0.309372   0.455874   0.636370
         Total Dipole              0.266323   1.103415   1.171823

 Hirshfeld charges, spin densities, dipoles, and CM5 charges using IRadAn=      4:
              Q-H        S-H        Dx         Dy         Dz        Q-CM5   
     1  C   -0.003350   0.000000  -0.019571   0.028061   0.016321  -0.035807
     2  C   -0.109652   0.000000  -0.001815   0.003945   0.002895  -0.263264
     3  H    0.029791   0.000000  -0.110822  -0.044410   0.078976   0.085981
     4  H    0.029722   0.000000  -0.036291   0.117009  -0.073979   0.085912
     5  H    0.034074   0.000000   0.011268  -0.100430  -0.099462   0.097607
     6  C   -0.100300   0.000000  -0.005864  -0.005910  -0.008198  -0.255854
     7  H    0.039008   0.000000  -0.115908  -0.044677   0.081320   0.094546
     8  H    0.029714   0.000000   0.111146   0.028758   0.084473   0.085368
     9  H    0.038107   0.000000  -0.038899   0.120471  -0.076464   0.093646
    10  C   -0.006347   0.000000   0.024796  -0.057452  -0.041864  -0.099502
    11  H    0.035464   0.000000   0.055355   0.040147   0.114935   0.116451
    12  H    0.036559   0.000000  -0.114156  -0.055191   0.070791   0.103617
    13  C   -0.001021   0.000000   0.017155  -0.052937  -0.057407  -0.094036
    14  H    0.040005   0.000000  -0.037521   0.113828  -0.084559   0.107079
    15  H    0.036074   0.000000   0.070160   0.081212   0.076349   0.117478
    16  O   -0.104863   0.000000   0.021173   0.057011   0.148919  -0.208620
    17  O   -0.097672   0.000000   0.008867   0.105986   0.042000  -0.202056
    18  C   -0.037279   0.000000  -0.136143   0.210701   0.057627  -0.020981
    19  C   -0.044762   0.000000   0.034998  -0.016976  -0.022509  -0.164281
    20  C   -0.059804   0.000000   0.006947   0.018945  -0.003458  -0.179893
    21  H    0.027043   0.000000  -0.027830   0.083931   0.107852   0.100054
    22  H    0.036696   0.000000   0.018250   0.079524  -0.126671   0.117862
    23  C   -0.053470   0.000000   0.013057  -0.013741  -0.000757  -0.173206
    24  H    0.032767   0.000000   0.020827  -0.061807   0.126839   0.094542
    25  H    0.034527   0.000000   0.058429  -0.070471  -0.108698   0.093971
    26  H    0.033285   0.000000   0.003722   0.065951  -0.130336   0.091364
    27  H    0.029360   0.000000  -0.037157   0.082309   0.109922   0.087453
    28  C   -0.098615   0.000000  -0.014067   0.005455  -0.005152  -0.257901
    29  H    0.036561   0.000000   0.045653  -0.085423  -0.112515   0.091095
    30  H    0.034221   0.000000   0.001651  -0.069534   0.129082   0.088759
    31  C   -0.047742   0.000000   0.001704   0.016614   0.016095  -0.210003
    32  H    0.032333   0.000000   0.124474  -0.050119   0.048710   0.093038
    33  H    0.045686   0.000000  -0.003297   0.108825   0.101414   0.114941
    34  H    0.039109   0.000000  -0.074138  -0.116197   0.067018   0.116033
    35  H    0.035227   0.000000   0.080799   0.124136   0.005948   0.089060
       Tot   0.000455   0.000000  -0.043049   0.647542   0.535453   0.000455
 Hirshfeld charges with hydrogens summed into heavy atoms:
              Q-H       Q-CM5   
     1  C   -0.003350  -0.035807
     2  C   -0.016065   0.006236
     6  C    0.006528   0.017706
    10  C    0.065675   0.120566
    13  C    0.075058   0.130521
    16  O   -0.104863  -0.208620
    17  O   -0.097672  -0.202056
    18  C   -0.037279  -0.020981
    19  C    0.018977   0.053635
    20  C    0.007489   0.008619
    23  C    0.009176   0.005611
    28  C    0.007394   0.011014
    31  C    0.069386   0.114010
 
 EQQ= 0.000000000000E+00 EQD= 0.000000000000E+00 EDD= 0.259447820821E-02
 EQQ+QD+DD= 0.259447820821E-02
 
          MBS Condensed to atoms (all electrons):
               1          2          3          4          5          6
     1  C    4.775637   0.366293  -0.023113  -0.023137  -0.021979   0.361111
     2  C    0.366293   4.877224   0.379194   0.379026   0.379244  -0.028147
     3  H   -0.023113   0.379194   0.609303  -0.022893  -0.021881  -0.002642
     4  H   -0.023137   0.379026  -0.022893   0.609945  -0.021918  -0.002601
     5  H   -0.021979   0.379244  -0.021881  -0.021918   0.570613   0.001610
     6  C    0.361111  -0.028147  -0.002642  -0.002601   0.001610   4.864796
     7  H   -0.021595  -0.002667   0.001089  -0.000070   0.000023   0.382044
     8  H   -0.022792   0.001702   0.000027   0.000026  -0.000070   0.378179
     9  H   -0.021855  -0.002566  -0.000070   0.001071   0.000023   0.381464
    10  C    0.367608  -0.028490  -0.002914   0.001736  -0.003102  -0.022942
    11  H   -0.027624   0.001592   0.000027  -0.000062   0.000074  -0.001626
    12  H   -0.026416  -0.004458   0.001336   0.000063  -0.000118  -0.001290
    13  C    0.367402  -0.028737   0.001739  -0.002907  -0.003129  -0.022773
    14  H   -0.027754  -0.004579   0.000067   0.001347  -0.000118  -0.000966
    15  H   -0.026442   0.001686  -0.000062   0.000021   0.000074  -0.002254
    16  O   -0.024085  -0.002203   0.000017   0.000061   0.002259   0.000369
    17  O   -0.024452  -0.002655   0.000079   0.000023   0.002200   0.000368
    18  C   -0.002138   0.000184  -0.000003  -0.000006  -0.000199  -0.000038
    19  C    0.001145   0.000004   0.000001  -0.000002   0.000018  -0.000013
    20  C   -0.000014   0.000000   0.000000   0.000000   0.000000   0.000000
    21  H    0.001314  -0.000060   0.000003   0.000000  -0.000009   0.000181
    22  H    0.000531  -0.000023   0.000001   0.000002   0.000005   0.000009
    23  C    0.000000   0.000000   0.000000   0.000000   0.000000   0.000000
    24  H    0.000002   0.000000   0.000000   0.000000   0.000000   0.000000
    25  H    0.000000   0.000000   0.000000   0.000000   0.000000   0.000000
    26  H    0.000000   0.000000   0.000000   0.000000   0.000000   0.000000
    27  H    0.000000   0.000000   0.000000   0.000000   0.000000   0.000000
    28  C    0.000000   0.000000   0.000000   0.000000   0.000000   0.000000
    29  H    0.000000   0.000000   0.000000   0.000000   0.000000   0.000000
    30  H    0.000000   0.000000   0.000000   0.000000   0.000000   0.000000
    31  C    0.001115  -0.000038  -0.000002   0.000002   0.000016   0.000041
    32  H   -0.000042   0.000001   0.000000   0.000000   0.000000  -0.000002
    33  H    0.001024  -0.000051   0.000000   0.000003  -0.000008   0.000157
    34  H    0.000592  -0.000018   0.000001   0.000000   0.000005   0.000000
    35  H    0.000000   0.000000   0.000000   0.000000   0.000000   0.000000
               7          8          9         10         11         12
     1  C   -0.021595  -0.022792  -0.021855   0.367608  -0.027624  -0.026416
     2  C   -0.002667   0.001702  -0.002566  -0.028490   0.001592  -0.004458
     3  H    0.001089   0.000027  -0.000070  -0.002914   0.000027   0.001336
     4  H   -0.000070   0.000026   0.001071   0.001736  -0.000062   0.000063
     5  H    0.000023  -0.000070   0.000023  -0.003102   0.000074  -0.000118
     6  C    0.382044   0.378179   0.381464  -0.022942  -0.001626  -0.001290
     7  H    0.590838  -0.023053  -0.022737  -0.002412  -0.000146   0.001151
     8  H   -0.023053   0.614284  -0.023028  -0.002445   0.001134  -0.000071
     9  H   -0.022737  -0.023028   0.592630   0.001529  -0.000010  -0.000040
    10  C   -0.002412  -0.002445   0.001529   4.903696   0.398043   0.368873
    11  H   -0.000146   0.001134  -0.000010   0.398043   0.644672  -0.025367
    12  H    0.001151  -0.000071  -0.000040   0.368873  -0.025367   0.602796
    13  C    0.001499  -0.002439  -0.002293  -0.033703  -0.002469   0.001985
    14  H   -0.000051  -0.000072   0.001137   0.002015  -0.000058  -0.000078
    15  H    0.000008   0.001115  -0.000093  -0.002329   0.001346  -0.000037
    16  O   -0.000011   0.000007   0.000004  -0.002303  -0.000234  -0.000198
    17  O    0.000004   0.000007  -0.000011   0.261600  -0.015023  -0.016062
    18  C    0.000000  -0.000002   0.000003  -0.028458  -0.010786   0.002170
    19  C    0.000000  -0.000051   0.000004  -0.001251   0.000385   0.000023
    20  C    0.000000   0.000000   0.000000  -0.000013  -0.000041   0.000000
    21  H   -0.000004   0.000047  -0.000017   0.000775  -0.000248  -0.000055
    22  H    0.000000  -0.000003  -0.000001  -0.000030  -0.000071   0.000003
[...]
 0000055,0.00000125,0.00000042,0.00000039,-0.00000145,-0.00000138,0.000
 00095,0.00000111,0.00000151,0.00000032,-0.00000109,-0.00000040,0.00000
 078,-0.00000104,-0.00000103,-0.00000335,0.00000079,0.00000232,0.000002
 17,-0.00000125,-0.00000565,-0.00000802,0.00000173,0.00000013,0.0000018
 5,0.00000032,0.00000375,0.00000214,0.00003544,0.00000011,-0.00001060,0
 .00000474,0.00000514,0.00000428,-0.00001366,-0.00000155,-0.00001102,-0
 .00004164,0.00000801,0.00000744,-0.00003050,-0.00001209,0.00000197,0.0
 0010721,-0.00006084,-0.00001405,-0.00023772,-0.00008830,-0.00001805,0.
 00005445,-0.00052486,0.00006263,-0.00001146,0.00002622,-0.00003549,0.0
 0004764,0.00001410,-0.00004805,-0.01267126,0.00316575,0.00374923,0.000
 14150,-0.00019717,0.00019259,0.00015005,-0.00000028,-0.00002830,-0.000
 96463,0.00281465,0.00003616,-0.00035175,-0.00072152,0.00057897,0.07326
 578,-0.01858930,-0.07198271,0.03085773,-0.00708611,-0.00941092,-0.0800
 6483,0.01801411,0.07408018,0.00000117,0.00017554,-0.00020963,0.0001833
 6,-0.00000944,0.00001751,-0.00004354,-0.00001396,0.00000287,-0.0000368
 2,0.00002693,0.00005572,-0.00000967,-0.00005144,-0.00006558,0.00000512
 ,-0.00015670,0.00007994,0.00004590,-0.00003590,0.00000768,-0.00001897,
 0.00001076,-0.00000974,-0.00002950,0.00002719,0.00002685,0.00050341,-0
 .00010326,-0.00143659,-0.00026156,0.00000756,0.00000802,-0.00016321,0.
 00009432,0.00008240,0.00081296,-0.00038651,-0.00148983,0.00035582,-0.0
 0008405,-0.00017242,0.00010994,-0.00005785,-0.00005657,-0.00439987,0.0
 0085376,0.01119112,-0.02489743,0.01525453,0.00032765,-0.18366278,0.002
 39518,0.02927948,-0.02020120,-0.00553969,0.00227903,0.00008637,-0.0009
 7322,-0.00026011,0.00020812,0.00059544,0.00081650,-0.00022515,-0.00154
 126,-0.00013737,-0.00047035,0.00037518,0.00011874,-0.00088101,-0.00006
 181,0.00028879,-0.00001433,-0.00000995,0.00009749,-0.00006047,-0.00017
 350,-0.00007401,-0.00001149,-0.00002210,-0.00004754,0.00006633,0.00005
 025,-0.00002513,0.00000774,0.00000546,0.00000635,0.00002038,-0.0000001
 9,0.00001700,0.48470266,0.00040721,0.00005165,0.00053843,0.00025321,0.
 00005926,-0.00014009,-0.00005666,0.00005122,0.00002727,-0.00007892,-0.
 00004518,-0.00004997,-0.00001227,-0.00010943,-0.00000670,-0.00020073,-
 0.00003716,-0.00032223,-0.00002824,0.00004446,0.00005119,-0.00002525,-
 0.00001051,0.00003722,0.00010043,-0.00000012,-0.00012982,0.00102363,-0
 .00322814,0.00333297,0.00088990,-0.00021392,-0.00011538,0.00123644,-0.
 00046267,-0.00037611,-0.00006982,0.00016394,-0.00058395,0.00008201,0.0
 0013516,-0.00005313,0.00028053,-0.00002052,-0.00018007,0.00495761,0.00
 195052,-0.00436199,0.04205877,-0.01536225,-0.00541111,-0.01012086,-0.0
 7392143,0.00087364,-0.02635305,0.00282376,0.00561487,-0.00046722,0.000
 87944,-0.00022187,0.00030605,0.00065350,0.00047351,-0.00366184,-0.0042
 8793,-0.00145739,-0.00011167,0.00001251,0.00021246,-0.00063251,-0.0009
 1708,-0.00012659,-0.00016702,-0.00016894,0.00028746,0.00023114,-0.0000
 3653,-0.00007470,0.00002876,0.00006887,0.00003383,0.00003654,0.0000087
 0,-0.00005637,-0.00000965,-0.00001797,0.00004089,0.00004795,-0.0000655
 5,-0.00000390,-0.00022859,0.58941575,-0.00002875,0.00059727,-0.0008334
 1,0.00011719,-0.00009017,0.00015026,-0.00000972,-0.00014086,-0.0000044
 5,0.00000204,0.00007153,0.00008944,-0.00003647,0.00003468,-0.00009659,
 0.00005665,-0.00033815,0.00046559,0.00018036,-0.00013535,-0.00001011,-
 0.00002201,0.00003110,-0.00004698,-0.00011001,0.00007087,0.00011968,-0
 .00089395,0.00183032,-0.00158450,-0.00023432,-0.00001933,0.00006479,-0
 .00071507,0.00036582,0.00037964,-0.00140156,0.00119945,-0.00507357,0.0
 0137371,-0.00052928,-0.00074561,0.00073393,0.00010722,-0.00024475,0.04
 403252,-0.00722413,-0.03094684,-0.01585352,0.00581148,0.00626506,0.024
 18655,-0.00177005,-0.07759838,-0.00793388,0.00067581,0.00552335,-0.000
 05681,-0.00085093,-0.00053449,-0.00036602,0.00011844,-0.00006374,-0.00
 185683,-0.00204637,-0.00040675,-0.00024021,0.00004637,0.00041216,-0.00
 043948,0.00025709,0.00050299,0.00002332,-0.00007142,0.00008144,-0.0000
 5619,-0.00008686,-0.00007795,-0.00001009,-0.00000601,-0.00006914,-0.00
 000558,-0.00003495,-0.00010996,0.00001190,0.00000723,0.00000982,0.0000
 1902,0.00000249,0.00003029,0.02869055,-0.00102916,0.58159062,-0.000046
 77,0.00002656,-0.00031235,-0.00002938,-0.00003947,0.00005736,-0.000002
 22,-0.00003054,-0.00000717,0.00002008,0.00002865,0.00004010,-0.0000134
 9,0.00000298,-0.00001413,0.00007735,-0.00006010,0.00020440,0.00004678,
 -0.00003494,-0.00002265,-0.00000019,0.00000332,-0.00002093,-0.00005641
 ,0.00001219,0.00006382,0.00068070,0.00078425,-0.00131886,-0.00030054,-
 0.00000594,0.00005517,-0.00050515,0.00020182,0.00018679,-0.00002123,-0
 .00001747,0.00017112,0.00001634,-0.00002884,0.00001243,0.00002160,-0.0
 0000233,-0.00003791,0.00184604,-0.00104136,-0.00096674,-0.00809688,0.0
 0254478,0.00250771,-0.00871421,0.02476670,-0.01639218,0.00066225,0.000
 03959,-0.00011994,-0.00074650,0.00005594,0.00015975,-0.00002987,-0.000
 03380,0.00011917,0.00016456,-0.00003629,0.00014845,0.00029638,-0.00039
 311,-0.00007232,-0.00000714,-0.00102696,-0.00026417,-0.00012951,-0.000
 16372,0.00011101,0.00015607,0.00017133,0.00003910,0.00002288,0.0000667
 4,0.00006584,0.00001473,-0.00004581,0.00003009,-0.00001278,-0.00001162
 ,-0.00000975,-0.00001440,-0.00002328,-0.00000864,-0.10086720,0.0901647
 3,-0.04996435,0.10763256,-0.00006418,-0.00002322,0.00006222,-0.0000682
 6,0.00002794,-0.00003359,0.00000059,0.00001118,-0.00000040,0.00003460,
 -0.00001934,-0.00004703,0.00002126,0.00002063,0.00009025,-0.00002740,0
 .00005302,-0.00007332,-0.00002193,0.00000678,0.00001499,0.00000145,-0.
 00000359,0.00000942,0.00001770,-0.00001314,-0.00002463,-0.00051615,0.0
 0080247,0.00064994,0.00024971,-0.00004140,-0.00007729,0.00001154,-0.00
 001814,-0.00002095,0.00008699,0.00004442,-0.00033086,0.00003626,-0.000
 00683,-0.00003199,-0.00006112,0.00000066,0.00002062,-0.00042998,0.0005
 9519,-0.00028270,0.00145656,0.00019822,-0.00045346,-0.00083435,-0.0025
 0262,0.00065558,0.00052301,-0.00017394,-0.00038253,-0.00081314,-0.0011
 5077,-0.00021237,-0.00008499,-0.00007445,-0.00005181,0.00015464,0.0000
 7016,0.00007326,-0.00016890,0.00005800,0.00007204,-0.00142856,-0.00062
 396,-0.00002765,0.00006134,0.00005134,0.00003982,-0.00005031,-0.000053
 15,-0.00001598,-0.00000460,0.00000226,-0.00001089,0.00000495,0.0000191
 2,0.00001914,0.00000198,-0.00000130,-0.00000558,0.00000111,-0.00000499
 ,-0.00000136,0.09368427,-0.21056320,0.09274788,-0.10106800,0.22884228,
 -0.00011039,-0.00003361,0.00018320,-0.00002773,0.00000091,-0.00001510,
 0.00000051,0.00000909,-0.00000682,0.00000690,-0.00001056,-0.00000862,0
 .00000062,0.00000414,0.00001968,0.00001949,0.00003349,0.00001443,-0.00
 001091,0.00001976,-0.00000733,0.00000261,-0.00000743,0.00000051,-0.000
 00946,0.00000152,-0.00000308,0.00063799,-0.00038944,0.00052156,0.00006
 219,-0.00002686,-0.00002062,0.00011426,-0.00004436,-0.00005786,-0.0001
 2059,-0.00007798,0.00016531,-0.00002650,0.00000115,0.00002322,-0.00008
 651,0.00000916,0.00002662,0.00006023,-0.00011421,0.00015710,0.00207169
 ,-0.00076897,0.00004183,0.00317839,-0.00766258,0.00206131,-0.00061011,
 0.00007605,-0.00010824,-0.00047620,0.00073767,0.00055096,-0.00007902,0
 .00010216,0.00010445,0.00000532,-0.00012654,-0.00003058,0.00024160,-0.
 00014985,-0.00019356,0.00044082,-0.00042654,0.00006206,0.00023414,0.00
 003525,-0.00016205,0.00011699,0.00009182,0.00003032,-0.00004161,-0.000
 00762,-0.00000567,-0.00002414,-0.00000912,0.00003687,0.00000821,0.0000
 0253,-0.00001931,0.00000885,-0.00002676,-0.00000070,-0.05328511,0.0938
 7540,-0.09923695,0.05656849,-0.10271937,0.10348458,0.00010040,-0.00025
 763,0.00017597,-0.00006132,0.00001982,-0.00002851,0.00001676,0.0000391
 1,-0.00000158,-0.00000285,-0.00001770,-0.00002043,-0.00000462,0.000000
 15,0.00000918,-0.00001499,0.00011258,-0.00013268,-0.00005566,0.0000369
 2,-0.00000284,0.00000805,-0.00000935,0.00001187,0.00003354,-0.00002313
 ,-0.00003554,-0.00001991,0.00004830,-0.00002485,0.00003961,-0.00002097
 ,0.00000155,0.00001417,-0.00000843,-0.00003081,0.00091667,-0.00030447,
 0.00136434,-0.00048240,0.00017802,0.00025562,-0.00020700,-0.00004924,0
 .00002740,-0.00734632,0.00159131,0.00393374,0.00126579,-0.00093148,-0.
 00079264,0.00161526,0.00235877,0.03062935,0.00100118,0.00017892,0.0003
 2036,0.00005097,-0.00008666,-0.00006389,-0.00055119,-0.00042063,-0.000
 41379,0.00029032,0.00022604,-0.00030264,-0.00000983,-0.00002800,0.0000
 0143,-0.00002446,-0.00009870,0.00006998,-0.00002293,0.00015755,-0.0000
 5884,0.00000188,0.00000658,0.00000032,-0.00000440,-0.00002246,-0.00001
 015,0.00001142,-0.00000164,0.00000182,-0.00000668,0.00000348,-0.000005
 53,-0.00000550,0.00000174,-0.00000303,-0.04986274,0.00114089,0.0148244
 3,0.00064477,-0.00312451,-0.01440682,0.05185468,-0.00016506,0.00003593
 ,-0.00002910,-0.00007862,-0.00001883,0.00004302,0.00003636,-0.00002352
 ,-0.00000970,0.00001336,-0.00000167,0.00000443,-0.00000761,0.00007307,
 -0.00000590,0.00001774,0.00004069,0.00003009,-0.00000798,-0.00000804,0
 .00000063,0.00000470,0.00000022,-0.00000937,-0.00000830,0.00000299,0.0
 0001449,-0.00007708,-0.00008930,0.00003744,-0.00006830,0.00001755,0.00
 001618,0.00001133,-0.00001523,-0.00002074,0.00009160,0.00070785,0.0000
 0125,-0.00000800,-0.00000135,0.00002382,0.00014234,-0.00004292,-0.0000
 7855,0.00041193,0.00049540,-0.00006823,0.00036453,-0.00005424,0.000316
 64,-0.00026087,-0.00251756,-0.00157015,-0.00035098,-0.00007964,0.00036
 715,-0.00019892,0.00002280,0.00003560,-0.00043217,0.00011870,0.0000178
 6,0.00009942,-0.00002659,-0.00006622,0.00003094,-0.00002827,-0.0000392
 4,0.00014432,-0.00014980,0.00015663,0.00015100,0.00006068,-0.00011153,
 0.00002201,0.00002550,-0.00000252,-0.00003990,-0.00002304,-0.00002622,
 -0.00001117,-0.00000606,0.00000726,0.00000594,0.00000396,-0.00001359,0
 .00000584,-0.00001196,0.00000664,0.00117249,-0.04897297,-0.02414815,-0
 .00346740,0.00358864,0.02520514,-0.00085043,0.04799324,0.00000205,0.00
 006004,-0.00005548,-0.00001339,-0.00001227,0.00005693,0.00002817,-0.00
 004510,0.00000010,0.00000517,0.00001278,0.00000640,0.00000099,0.000068
 78,-0.00001968,0.00000388,-0.00010409,0.00012292,0.00004933,-0.0000335
 7,-0.00000701,-0.00000194,0.00001249,-0.00000559,-0.00003235,0.0000177
 4,0.00000521,0.00026451,-0.00026028,0.00017585,0.00001012,0.00001095,-
 0.00000240,0.00005834,-0.00002325,0.00000853,-0.00105427,0.00065468,0.
 00036269,0.00016108,-0.00003951,-0.00008040,0.00030944,-0.00002539,-0.
 00011479,0.00348209,-0.00069464,-0.00083470,-0.00054311,0.00026792,0.0
 0104358,-0.00314885,-0.00034243,-0.00980690,-0.00064784,-0.00047998,-0
 .00013662,0.00016875,0.00025129,0.00003611,0.00004948,0.00013094,0.000
 85787,-0.00003004,-0.00000048,0.00038435,-0.00001330,-0.00001011,-0.00
 000444,-0.00002028,0.00010680,-0.00020053,-0.00011160,-0.00010524,0.00
 013723,-0.00001080,-0.00000674,0.00000380,0.00003768,0.00003104,0.0000
 4082,0.00001665,0.00000496,-0.00000556,-0.00000647,-0.00000762,0.00001
 567,-0.00000991,0.00000875,-0.00000615,0.01984784,-0.02435401,-0.30893
 866,0.00106092,-0.00190062,-0.01169444,-0.02040589,0.02688614,0.336104
 24,0.00001102,-0.00010150,-0.00000839,-0.00025609,0.00001573,0.0000347
 1,0.00006383,-0.00001312,-0.00001033,0.00008533,-0.00001379,-0.0000546
 5,-0.00004013,0.00026293,0.00020777,-0.00001859,0.00002852,-0.00001337
 ,-0.00000617,-0.00000127,0.00000395,0.00003721,0.00000867,-0.00000076,
 0.00000599,-0.00000454,-0.00001450,-0.00011950,0.00027016,0.00015010,0
 .00038419,-0.00004631,-0.00004485,-0.00000279,0.00001956,0.00000644,-0
 .00005459,0.00021498,0.00013337,-0.00000973,0.00003454,0.00001578,0.00
 027744,0.00004250,-0.00013298,0.00250362,0.00080684,-0.00173804,0.0032
 7762,-0.00069239,0.00043688,-0.01879947,-0.03018266,-0.01046377,-0.005
 42025,0.00231755,0.00255272,-0.00030664,0.00088508,-0.00009704,0.00017
 215,0.00021427,0.00005110,-0.00119346,-0.00159829,-0.00046518,0.000184
 92,-0.00019769,0.00003662,0.00036232,-0.00019775,-0.00009620,0.0000181
 8,-0.00008786,0.00005721,0.00011260,0.00006501,-0.00000146,-0.00000606
 ,0.00002304,0.00000514,-0.00002826,-0.00002924,-0.00003947,0.00000287,
 -0.00000362,0.00001224,0.00001704,-0.00002558,0.00000237,-0.10097029,-
 0.10102351,-0.03399754,0.00727275,0.01240994,0.00552447,0.00081378,0.0
 0330064,0.00049605,0.11162827,-0.00003487,0.00003601,-0.00002242,0.000
 00090,-0.00001482,0.00003364,0.00002344,-0.00000828,-0.00000381,-0.000
 02198,0.00000796,0.00002444,0.00008728,-0.00003062,-0.00012915,0.00002
 113,-0.00000356,0.00002134,0.00000281,-0.00000204,-0.00000515,0.000003
 71,-0.00000446,-0.00000596,-0.00000812,0.00000020,0.00001249,0.0000401
 6,0.00025437,-0.00000742,0.00011441,0.00001999,0.00000334,-0.00005060,
 0.00003844,0.00004335,-0.00003941,0.00016264,0.00025531,-0.00005246,0.
 00001408,0.00003512,0.00017145,0.00001138,-0.00002809,0.00050617,0.000
 61802,0.00056100,0.00101203,0.00109076,0.00016683,0.00123796,-0.000807
 27,-0.00027222,0.00018904,0.00047228,0.00047870,0.00022997,-0.00008808
 ,-0.00029423,0.00015162,0.00002351,-0.00003290,0.00013460,-0.00004306,
 -0.00011309,-0.00013153,0.00013220,0.00013288,-0.00028768,0.00031042,0
 .00011251,-0.00004304,-0.00001026,0.00006186,-0.00007763,-0.00009720,-
 0.00002828,0.00000582,-0.00000859,-0.00001754,-0.00002145,0.00000746,-
 0.00004007,0.00000436,0.00000331,0.00001532,0.00001025,0.00001560,0.00
 000392,-0.10527013,-0.23783742,-0.06539938,-0.01137199,-0.01912428,-0.
 00761547,0.00014379,-0.00112341,-0.00008004,0.11333434,0.25602083,0.00
 002889,-0.00000129,0.00009419,0.00007202,0.00002988,-0.00007811,-0.000
 06859,0.00003656,0.00000989,0.00001053,-0.00000723,-0.00001890,0.00010
 310,-0.00018863,0.00004691,-0.00000226,0.00001028,-0.00004850,-0.00001
 250,0.00001535,0.00000111,-0.00000837,-0.00000881,0.00000445,0.0000120
 7,-0.00000662,-0.00000894,-0.00005474,0.00018552,-0.00001879,0.0000539
 3,0.00000553,-0.00003896,-0.00003651,0.00000856,-0.00000387,0.00002702
 ,-0.00009626,-0.00000531,-0.00001082,0.00003022,-0.00000245,-0.0000747
 8,0.00001692,0.00001915,0.00000622,0.00044001,0.00070471,-0.00088578,0
 .00044146,-0.00020423,0.00486493,0.00796099,0.00116160,0.00078062,-0.0
 0028707,-0.00044829,0.00005451,0.00014961,0.00015719,0.00022077,0.0001
 2053,0.00037944,0.00021989,0.00016536,0.00044300,0.00010021,-0.0000478
 0,-0.00008443,0.00010081,-0.00007016,-0.00014488,-0.00004087,-0.000021
 08,0.00001595,0.00001192,0.00004802,0.00002613,0.00001538,0.00001228,0
 .00002271,-0.00000077,-0.00000275,0.00001468,-0.00000174,-0.00000137,0
 .00000154,-0.00000537,0.00000200,-0.00000581,-0.03596405,-0.06635418,-
 0.06907173,0.00792695,0.01225119,0.00409372,-0.01488934,-0.02697025,-0
 .00744929,0.03744677,0.07213154,0.07043737,-0.00000200,0.00000185,-0.0
 0000134,0.00000298,-0.00000062,0.00000200,0.00000158,-0.00000599,0.000
 00200,-0.00000062,0.00000049,-0.00000326,0.00000109,0.00000455,0.00000
 003,-0.00000043,-0.00000068,0.00000246,0.00000233,-0.00000558,0.000001
 96,-0.00000378,0.00000112,-0.00000014,-0.00000054,0.00000058,-0.000003
 51,-0.00000581,0.00001654,0.00000986,-0.00000696,0.00000192,-0.0000043
 6,-0.00000183,-0.00000910,0.00000131,-0.00001455,0.00003307,0.00001818
 ,-0.00000223,-0.00000162,-0.00000317,-0.00000577,-0.00000270,0.0000003
 5,0.00001848,-0.00005972,-0.00001432,0.00003119,0.00001439,-0.00000118
 ,-0.00005869,0.00015769,-0.00006086,0.00055076,0.00046220,-0.00008447,
 -0.00027987,0.00132399,-0.00062390,0.00000178,-0.00001068,0.00001083,0
 .00002161,-0.00009947,0.00005721,0.00655045,0.00867893,0.00414142,0.00
 046186,0.00026404,-0.00013999,-0.00013846,0.00001228,-0.00003307,0.000
 69604,-0.00047222,0.00040966,0.00023231,-0.00065660,0.00038453,-0.1485
 1604,-0.11645562,-0.05105031,0.00013228,0.00159765,0.00023341,-0.01833
 298,-0.02138749,-0.01027820,-0.00002170,0.00000202,-0.00001981,0.00001
 804,0.00000848,0.00001132,0.00000355,0.00000626,-0.00000249,0.00000088
 ,-0.00001432,-0.00000004,0.15866500,0.00002456,0.00000863,0.00000015,0
 .00001138,0.00000053,-0.00000105,0.00000357,-0.00001478,0.00000589,-0.
 00000029,-0.00000254,-0.00001710,0.00001163,0.00001691,0.00000803,-0.0
 0001840,-0.00001865,-0.00000820,0.00000959,-0.00001246,0.00000455,-0.0
 0000562,0.00000788,0.00000649,0.00000514,-0.00000177,-0.00001702,-0.00
 022304,0.00009200,0.00011111,0.00000900,0.00002347,-0.00002042,0.00001
 884,-0.00003667,-0.00000597,-0.00015151,0.00010164,0.00009951,0.000001
 58,-0.00001797,-0.00003037,-0.00000550,-0.00000244,0.00001832,0.000052
 80,-0.00020385,-0.00023503,0.00005379,-0.00071468,-0.00006052,0.000575
 46,0.00027342,0.00059153,-0.00172795,-0.00096724,-0.00103536,0.0038298
 3,-0.00422293,0.00359300,-0.00002806,-0.00001677,0.00009691,0.00007880
 ,0.00002682,-0.00007165,-0.01913620,-0.02015745,-0.01025670,-0.0000095
 8,0.00027983,0.00017266,0.00025493,0.00030769,-0.00001126,0.00040664,0
 .00085940,-0.00068308,-0.00027066,0.00107363,0.00045136,-0.11537210,-0
 .17835361,-0.05823470,0.00050212,-0.00024940,-0.00051034,0.00450454,0.
 00584766,0.00323098,-0.00000931,-0.00003982,-0.00005449,0.00003341,0.0
 0000601,0.00001204,0.00001144,0.00000717,0.00000006,-0.00003517,-0.000
 03612,0.00000171,0.12659438,0.19613647,-0.00000854,0.00000216,-0.00000
 124,0.00000300,-0.00000303,0.00000197,-0.00000002,-0.00000249,0.000000
 67,-0.00000110,0.00000149,0.00000091,0.00000011,0.00000084,-0.00000167
 ,-0.00000115,-0.00000266,0.00000203,0.00000140,-0.00000146,0.00000059,
 0.00000002,0.00000151,0.00000064,-0.00000161,0.00000085,0.00000007,0.0
 0002558,-0.00000977,-0.00001260,-0.00000308,-0.00000324,0.00000372,-0.
 00000307,0.00000148,0.00000360,0.00000327,0.00000763,-0.00000606,-0.00
 000173,0.00000783,0.00000603,-0.00000833,0.00000251,-0.00000640,0.0000
 1346,-0.00002119,0.00003831,0.00002131,0.00013618,-0.00000024,-0.00014
 912,0.00008568,-0.00014938,0.00029633,0.00059493,0.00069009,-0.0010592
 5,0.00176093,-0.00082297,0.00005533,-0.00011040,0.00000288,-0.00001189
 ,0.00000689,0.00000540,0.00925432,0.00958840,0.00340314,-0.00024031,-0
 .00014110,-0.00012522,0.00006675,0.00034295,0.00042274,0.00003212,-0.0
 0071315,0.00026770,0.00053876,-0.00043237,0.00043563,-0.05126467,-0.05
 900379,-0.07284753,-0.02107784,-0.02334556,-0.00948234,0.00647919,0.00
 839081,0.00283006,-0.00000784,0.00000958,0.00000943,0.00000343,-0.0000
 0199,-0.00000680,0.00000243,-0.00000100,0.00000034,0.00000484,0.000001
 60,-0.00000125,0.05703790,0.06284896,0.07533773\\-0.00000184,0.0000225
 6,0.00002915,-0.00000243,-0.00000684,-0.00000683,-0.00000010,-0.000000
 08,0.00000070,0.00000237,0.00000083,0.00000136,-0.00000073,0.00000011,
 -0.00000166,0.00001410,-0.00000760,0.00000735,0.00000008,0.,0.00000457
 ,-0.00000131,-0.00000180,0.00000606,0.00000183,-0.00000266,0.00000535,
 0.00001113,-0.00002947,-0.00002801,-0.00000105,0.00000625,0.00001318,-
 0.00001184,0.00000137,-0.00000263,-0.00002160,-0.00000560,0.00001593,0
 .00000149,0.00000104,0.00000290,0.00001312,0.00001351,0.00000438,0.000
 01190,0.00001493,-0.00008391,-0.00002301,0.00004403,0.00001366,-0.0000
 4570,-0.00002131,0.00008640,-0.00001743,0.00001221,-0.00004650,0.00001
 575,0.00000425,0.00001805,-0.00000161,-0.00000629,0.00000203,0.0000122
 4,-0.00001429,-0.00000733,-0.00000623,0.00000901,-0.00000770,0.0000052
 9,0.00000675,-0.00000715,0.00000246,0.00000020,-0.00000243,0.00000088,
 -0.00000096,0.00000386,-0.00000266,-0.00000075,0.00000313,0.00000279,-
 0.00000721,0.00000312,0.00000392,0.00000050,-0.00000123,0.00000205,0.0
 0000085,-0.00000374,0.00005223,-0.00003572,-0.00001273,0.00000389,-0.0
 0000445,-0.00000558,-0.00002067,0.00000171,-0.00000109,-0.00000066,0.0
 0000383,-0.00000339,0.00000138,0.00000108,0.00000074\\\@


 WE LEARN WISDOM FROM FAILURE MUCH MORE THAN FROM SUCCESS.
 WE DISCOVER WHAT WILL DO BY FINDING OUT WHAT WILL NOT DO...
 AND HE WHO NEVER MADE A MISTAKE NEVER MADE A DISCOVERY
 Job cpu time:       0 days  4 hours 21 minutes  3.3 seconds.
 File lengths (MBytes):  RWF=    537 Int=      0 D2E=      0 Chk=     15 Scr=      1
 Normal termination of Gaussian 09 at Wed Oct 13 16:42:35 2021.
