 Entering Gaussian System, Link 0=g09
 Initial command:
 /cm/shared/apps/gaussian/g09revD.01/g09/l1.exe "//home/sweav003/CHB/validation/G09-aryltrifluorborates2_Carreira.com.o9822864.tmp/Gau-113834.inp" -scrdir="//home/sweav003/CHB/validation/G09-aryltrifluorborates2_Carreira.com.o9822864.tmp/"
 Entering Link 1 = /cm/shared/apps/gaussian/g09revD.01/g09/l1.exe PID=    113835.
  
 Copyright (c) 1988,1990,1992,1993,1995,1998,2003,2009,2013,
            Gaussian, Inc.  All Rights Reserved.
  
 This is part of the Gaussian(R) 09 program.  It is based on
 the Gaussian(R) 03 system (copyright 2003, Gaussian, Inc.),
 the Gaussian(R) 98 system (copyright 1998, Gaussian, Inc.),
 the Gaussian(R) 94 system (copyright 1995, Gaussian, Inc.),
 the Gaussian 92(TM) system (copyright 1992, Gaussian, Inc.),
 the Gaussian 90(TM) system (copyright 1990, Gaussian, Inc.),
 the Gaussian 88(TM) system (copyright 1988, Gaussian, Inc.),
 the Gaussian 86(TM) system (copyright 1986, Carnegie Mellon
 University), and the Gaussian 82(TM) system (copyright 1983,
 Carnegie Mellon University). Gaussian is a federally registered
 trademark of Gaussian, Inc.
  
 This software contains proprietary and confidential information,
 including trade secrets, belonging to Gaussian, Inc.
  
 This software is provided under written license and may be
 used, copied, transmitted, or stored only in accord with that
 written license.
  
 The following legend is applicable only to US Government
 contracts under FAR:
  
                    RESTRICTED RIGHTS LEGEND
  
 Use, reproduction and disclosure by the US Government is
 subject to restrictions as set forth in subparagraphs (a)
 and (c) of the Commercial Computer Software - Restricted
 Rights clause in FAR 52.227-19.
  
 Gaussian, Inc.
 340 Quinnipiac St., Bldg. 40, Wallingford CT 06492
  
  
 ---------------------------------------------------------------
 Warning -- This program may not be used in any manner that
 competes with the business of Gaussian, Inc. or will provide
 assistance to any competitor of Gaussian, Inc.  The licensee
 of this program is prohibited from giving any competitor of
 Gaussian, Inc. access to this program.  By using this program,
 the user acknowledges that Gaussian, Inc. is engaged in the
 business of creating and licensing software in the field of
 computational chemistry and represents and warrants to the
 licensee that it is not a competitor of Gaussian, Inc. and that
 it will not use this program in any manner prohibited above.
 ---------------------------------------------------------------
  

 Cite this work as:
 Gaussian 09, Revision D.01,
 M. J. Frisch, G. W. Trucks, H. B. Schlegel, G. E. Scuseria, 
 M. A. Robb, J. R. Cheeseman, G. Scalmani, V. Barone, B. Mennucci, 
 G. A. Petersson, H. Nakatsuji, M. Caricato, X. Li, H. P. Hratchian, 
 A. F. Izmaylov, J. Bloino, G. Zheng, J. L. Sonnenberg, M. Hada, 
 M. Ehara, K. Toyota, R. Fukuda, J. Hasegawa, M. Ishida, T. Nakajima, 
 Y. Honda, O. Kitao, H. Nakai, T. Vreven, J. A. Montgomery, Jr., 
 J. E. Peralta, F. Ogliaro, M. Bearpark, J. J. Heyd, E. Brothers, 
 K. N. Kudin, V. N. Staroverov, T. Keith, R. Kobayashi, J. Normand, 
 K. Raghavachari, A. Rendell, J. C. Burant, S. S. Iyengar, J. Tomasi, 
 M. Cossi, N. Rega, J. M. Millam, M. Klene, J. E. Knox, J. B. Cross, 
 V. Bakken, C. Adamo, J. Jaramillo, R. Gomperts, R. E. Stratmann, 
 O. Yazyev, A. J. Austin, R. Cammi, C. Pomelli, J. W. Ochterski, 
 R. L. Martin, K. Morokuma, V. G. Zakrzewski, G. A. Voth, 
 P. Salvador, J. J. Dannenberg, S. Dapprich, A. D. Daniels, 
 O. Farkas, J. B. Foresman, J. V. Ortiz, J. Cioslowski, 
 and D. J. Fox, Gaussian, Inc., Wallingford CT, 2013.
 
 ******************************************
 Gaussian 09:  ES64L-G09RevD.01 24-Apr-2013
                 9-Jan-2023 
 ******************************************
 %nprocshared=20
 Will use up to   20 processors via shared memory.
 %mem=4GB
 %chk=aryltrifluorborates2_Carreira.chk
 ----------------------------------------------------------------------
 # opt freq b3lyp/6-311+g(d,p) geom=connectivity pop=(hirshfeld,chelpg,
 mbs,npa)
 ----------------------------------------------------------------------
 1/14=-1,18=20,19=15,26=3,38=1,57=2/1,3;
 2/9=110,12=2,17=6,18=5,40=1/2;
 3/5=4,6=6,7=111,11=2,16=1,25=1,30=1,71=1,74=-5/1,2,3;
 4//1;
 5/5=2,38=5/2;
 6/7=2,8=2,9=2,10=2,15=8,20=3,27=100,28=1,40=-1,79=1/1,2,7;
 7//1,2,3,16;
 1/14=-1,18=20,19=15,26=3/3(2);
 2/9=110/2;
 99//99;
 2/9=110/2;
 3/5=4,6=6,7=111,11=2,16=1,25=1,30=1,71=1,74=-5/1,2,3;
 4/5=5,16=3,69=1/1;
 5/5=2,38=5/2;
 7//1,2,3,16;
 1/14=-1,18=20,19=15,26=3/3(-5);
 2/9=110/2;
 6/7=2,8=2,9=2,10=2,15=8,19=2,20=3,27=100,28=1,40=-1,79=1/1,2,7;
 99/9=1/99;
 -------------------
 Title Card Required
 -------------------
 Symbolic Z-matrix:
 Charge =  0 Multiplicity = 1
 C                    -1.12912  -0.12831  -0.00697 
 C                     0.08828  -0.80979  -0.00231 
 C                     1.28687  -0.09674  -0.01543 
 C                     1.2684    1.29843  -0.03442 
 C                     0.05126   1.97967  -0.03955 
 C                    -1.1476    1.26627  -0.02543 
 H                    -2.07399  -0.69067   0.00383 
 H                     2.24647  -0.63381  -0.01113 
 H                     2.21358   1.86043  -0.04482 
 H                     0.03638   3.07922  -0.05452 
 S                     0.11132  -2.58946   0.02251 
 F                    -1.01659  -2.61969  -1.09776 
 F                    -1.00917  -2.58824   1.1506 
 F                     0.13191  -4.17918   0.04467 
 F                     1.23923  -2.55924   1.14278 
 F                     1.23181  -2.59068  -1.10559 
 C                    -2.49126   2.01871  -0.03082 
 N                    -3.49167   2.57893  -0.03484 
 

 GradGradGradGradGradGradGradGradGradGradGradGradGradGradGradGradGradGrad
 Berny optimization.
 Initialization pass.
                           ----------------------------
                           !    Initial Parameters    !
                           ! (Angstroms and Degrees)  !
 --------------------------                            --------------------------
 ! Name  Definition              Value          Derivative Info.                !
 --------------------------------------------------------------------------------
 ! R1    R(1,2)                  1.3952         estimate D2E/DX2                !
 ! R2    R(1,6)                  1.3948         estimate D2E/DX2                !
 ! R3    R(1,7)                  1.0996         estimate D2E/DX2                !
 ! R4    R(2,3)                  1.3947         estimate D2E/DX2                !
 ! R5    R(2,11)                 1.78           estimate D2E/DX2                !
 ! R6    R(3,4)                  1.3954         estimate D2E/DX2                !
 ! R7    R(3,8)                  1.0997         estimate D2E/DX2                !
 ! R8    R(4,5)                  1.3948         estimate D2E/DX2                !
 ! R9    R(4,9)                  1.0997         estimate D2E/DX2                !
 ! R10   R(5,6)                  1.3951         estimate D2E/DX2                !
 ! R11   R(5,10)                 1.0998         estimate D2E/DX2                !
 ! R12   R(6,17)                 1.54           estimate D2E/DX2                !
 ! R13   R(11,12)                1.59           estimate D2E/DX2                !
 ! R14   R(11,13)                1.59           estimate D2E/DX2                !
 ! R15   R(11,14)                1.59           estimate D2E/DX2                !
 ! R16   R(11,15)                1.59           estimate D2E/DX2                !
 ! R17   R(11,16)                1.59           estimate D2E/DX2                !
 ! R18   R(17,18)                1.1466         estimate D2E/DX2                !
 ! A1    A(2,1,6)              119.9985         estimate D2E/DX2                !
 ! A2    A(2,1,7)              119.9972         estimate D2E/DX2                !
 ! A3    A(6,1,7)              120.0043         estimate D2E/DX2                !
 ! A4    A(1,2,3)              120.0086         estimate D2E/DX2                !
 ! A5    A(1,2,11)             119.9808         estimate D2E/DX2                !
 ! A6    A(3,2,11)             120.0106         estimate D2E/DX2                !
 ! A7    A(2,3,4)              119.9942         estimate D2E/DX2                !
 ! A8    A(2,3,8)              120.0128         estimate D2E/DX2                !
 ! A9    A(4,3,8)              119.993          estimate D2E/DX2                !
 ! A10   A(3,4,5)              119.994          estimate D2E/DX2                !
 ! A11   A(3,4,9)              119.9811         estimate D2E/DX2                !
 ! A12   A(5,4,9)              120.0249         estimate D2E/DX2                !
 ! A13   A(4,5,6)              120.0047         estimate D2E/DX2                !
 ! A14   A(4,5,10)             120.0113         estimate D2E/DX2                !
 ! A15   A(6,5,10)             119.984          estimate D2E/DX2                !
 ! A16   A(1,6,5)              120.0            estimate D2E/DX2                !
 ! A17   A(1,6,17)             120.008          estimate D2E/DX2                !
 ! A18   A(5,6,17)             119.992          estimate D2E/DX2                !
 ! A19   A(2,11,12)             90.0            estimate D2E/DX2                !
 ! A20   A(2,11,13)             90.0            estimate D2E/DX2                !
 ! A21   A(2,11,15)             90.0            estimate D2E/DX2                !
 ! A22   A(2,11,16)             90.0            estimate D2E/DX2                !
 ! A23   A(12,11,13)            90.0            estimate D2E/DX2                !
 ! A24   A(12,11,14)            90.0            estimate D2E/DX2                !
 ! A25   A(12,11,16)            90.0            estimate D2E/DX2                !
 ! A26   A(13,11,14)            90.0            estimate D2E/DX2                !
 ! A27   A(13,11,15)            90.0            estimate D2E/DX2                !
 ! A28   A(14,11,15)            90.0            estimate D2E/DX2                !
 ! A29   A(14,11,16)            90.0            estimate D2E/DX2                !
 ! A30   A(15,11,16)            90.0            estimate D2E/DX2                !
 ! A31   L(2,11,14,12,-1)      180.0            estimate D2E/DX2                !
 ! A32   L(12,11,15,2,-1)      180.0            estimate D2E/DX2                !
 ! A33   L(13,11,16,2,-1)      180.0            estimate D2E/DX2                !
 ! A34   L(6,17,18,10,-1)      180.0            estimate D2E/DX2                !
 ! A35   L(2,11,14,12,-2)      180.0            estimate D2E/DX2                !
 ! A36   L(12,11,15,2,-2)      180.0            estimate D2E/DX2                !
 ! A37   L(13,11,16,2,-2)      180.0            estimate D2E/DX2                !
 ! A38   L(6,17,18,10,-2)      180.0            estimate D2E/DX2                !
 ! D1    D(6,1,2,3)              0.0323         estimate D2E/DX2                !
 ! D2    D(6,1,2,11)           179.9532         estimate D2E/DX2                !
 ! D3    D(7,1,2,3)           -179.9729         estimate D2E/DX2                !
 ! D4    D(7,1,2,11)            -0.052          estimate D2E/DX2                !
 ! D5    D(2,1,6,5)              0.0149         estimate D2E/DX2                !
 ! D6    D(2,1,6,17)           179.9892         estimate D2E/DX2                !
 ! D7    D(7,1,6,5)           -179.9798         estimate D2E/DX2                !
 ! D8    D(7,1,6,17)            -0.0056         estimate D2E/DX2                !
 ! D9    D(1,2,3,4)             -0.0568         estimate D2E/DX2                !
 ! D10   D(1,2,3,8)            179.9619         estimate D2E/DX2                !
 ! D11   D(11,2,3,4)          -179.9777         estimate D2E/DX2                !
 ! D12   D(11,2,3,8)             0.041          estimate D2E/DX2                !
 ! D13   D(1,2,11,12)           45.0407         estimate D2E/DX2                !
 ! D14   D(1,2,11,13)          -44.9593         estimate D2E/DX2                !
 ! D15   D(1,2,11,15)         -134.9593         estimate D2E/DX2                !
 ! D16   D(1,2,11,16)          135.0407         estimate D2E/DX2                !
 ! D17   D(3,2,11,12)         -135.0384         estimate D2E/DX2                !
 ! D18   D(3,2,11,13)          134.9616         estimate D2E/DX2                !
 ! D19   D(3,2,11,15)           44.9616         estimate D2E/DX2                !
 ! D20   D(3,2,11,16)          -45.0384         estimate D2E/DX2                !
 ! D21   D(2,3,4,5)              0.0341         estimate D2E/DX2                !
 ! D22   D(2,3,4,9)           -179.9964         estimate D2E/DX2                !
 ! D23   D(8,3,4,5)           -179.9846         estimate D2E/DX2                !
 ! D24   D(8,3,4,9)             -0.0151         estimate D2E/DX2                !
 ! D25   D(3,4,5,6)              0.0131         estimate D2E/DX2                !
 ! D26   D(3,4,5,10)          -179.9995         estimate D2E/DX2                !
 ! D27   D(9,4,5,6)           -179.9563         estimate D2E/DX2                !
 ! D28   D(9,4,5,10)             0.0311         estimate D2E/DX2                !
 ! D29   D(4,5,6,1)             -0.0376         estimate D2E/DX2                !
 ! D30   D(4,5,6,17)           179.9881         estimate D2E/DX2                !
 ! D31   D(10,5,6,1)           179.975          estimate D2E/DX2                !
 ! D32   D(10,5,6,17)            0.0007         estimate D2E/DX2                !
 --------------------------------------------------------------------------------
 Trust Radius=3.00D-01 FncErr=1.00D-07 GrdErr=1.00D-06
 Number of steps in this run=     98 maximum allowed number of steps=    108.
 GradGradGradGradGradGradGradGradGradGradGradGradGradGradGradGradGradGrad

                          Input orientation:                          
 ---------------------------------------------------------------------
 Center     Atomic      Atomic             Coordinates (Angstroms)
 Number     Number       Type             X           Y           Z
 ---------------------------------------------------------------------
      1          6           0       -1.129117   -0.128314   -0.006967
      2          6           0        0.088277   -0.809786   -0.002312
      3          6           0        1.286868   -0.096743   -0.015432
      4          6           0        1.268403    1.298433   -0.034416
      5          6           0        0.051262    1.979666   -0.039548
      6          6           0       -1.147602    1.266270   -0.025426
      7          1           0       -2.073988   -0.690670    0.003830
      8          1           0        2.246471   -0.633808   -0.011130
      9          1           0        2.213576    1.860426   -0.044818
     10          1           0        0.036377    3.079225   -0.054517
     11         16           0        0.111323   -2.589463    0.022505
     12          9           0       -1.016587   -2.619691   -1.097765
     13          9           0       -1.009166   -2.588242    1.150603
     14          9           0        0.131909   -4.179176    0.044673
     15          9           0        1.239233   -2.559236    1.142775
     16          9           0        1.231811   -2.590685   -1.105592
     17          6           0       -2.491256    2.018709   -0.030820
     18          7           0       -3.491668    2.578934   -0.034836
 ---------------------------------------------------------------------
                    Distance matrix (angstroms):
                    1          2          3          4          5
     1  C    0.000000
     2  C    1.395160   0.000000
     3  C    2.416205   1.394712   0.000000
     4  C    2.790065   2.416260   1.395427   0.000000
     5  C    2.416183   2.789946   2.416356   1.394825   0.000000
     6  C    1.394829   2.416183   2.790080   2.416236   1.395138
     7  H    1.099610   2.165553   3.412986   3.889675   3.413102
     8  H    3.413229   2.165375   1.099680   2.165806   3.413209
     9  H    3.889745   3.413024   2.165678   1.099680   2.165606
    10  H    3.413055   3.889707   3.413506   2.165528   1.099761
    11  S    2.756232   1.780000   2.756266   4.056823   4.569946
    12  F    2.722032   2.386734   3.583660   4.658711   4.838823
    13  F    2.721323   2.386734   3.583152   4.658093   4.838053
    14  F    4.242915   3.370000   4.243089   5.594825   6.159946
    15  F    3.583345   2.386734   2.721688   4.033391   4.838470
    16  F    3.583884   2.386734   2.722357   4.034104   4.839241
    17  C    2.542775   3.828209   4.330080   3.828035   2.542833
    18  N    3.593274   4.929552   5.476680   4.929296   3.593257
                    6          7          8          9         10
     6  C    0.000000
     7  H    2.165331   0.000000
     8  H    3.889760   4.320860   0.000000
     9  H    3.413344   4.989355   2.494678   0.000000
    10  H    2.165516   4.320781   4.321228   2.495147   0.000000
    11  S    4.056337   2.895056   2.895614   4.921942   5.669707
    12  F    4.033332   2.460230   3.971405   5.622642   5.888526
    13  F    4.032304   2.459617   3.970971   5.621899   5.887755
    14  F    5.594188   4.127629   4.128453   6.388907   7.259707
    15  F    4.657915   3.970664   2.460346   4.679010   5.888345
    16  F    4.658805   3.971044   2.461046   4.679903   5.889117
    17  C    1.540000   2.741541   5.429760   4.707515   2.741201
    18  N    2.686600   3.563933   6.576360   5.750318   3.563394
                   11         12         13         14         15
    11  S    0.000000
    12  F    1.590000   0.000000
    13  F    1.590000   2.248600   0.000000
    14  F    1.590000   2.248600   2.248600   0.000000
    15  F    1.590000   3.180000   2.248600   2.248600   0.000000
    16  F    1.590000   2.248600   3.180000   2.248600   2.248600
    17  C    5.292591   4.982748   4.981601   6.730562   6.020918
    18  N    6.300569   5.855045   5.853870   7.668682   7.083007
                   16         17         18
    16  F    0.000000
    17  C    6.021867   0.000000
    18  N    7.083977   1.146600   0.000000
 Stoichiometry    C7H4F5NS
 Framework group  C1[X(C7H4F5NS)]
 Deg. of freedom    48
 Full point group                 C1      NOp   1
 Largest Abelian subgroup         C1      NOp   1
 Largest concise Abelian subgroup C1      NOp   1
                         Standard orientation:                         
 ---------------------------------------------------------------------
 Center     Atomic      Atomic             Coordinates (Angstroms)
 Number     Number       Type             X           Y           Z
 ---------------------------------------------------------------------
      1          6           0       -1.157984   -0.510825   -0.000407
      2          6           0       -0.089307    0.386060   -0.000725
      3          6           0       -0.331409    1.759598    0.000055
      4          6           0       -1.642699    2.236813   -0.000045
      5          6           0       -2.711069    1.340084   -0.000205
      6          6           0       -2.468723   -0.033844    0.000010
      7          1           0       -0.966892   -1.593704   -0.000572
      8          1           0        0.510883    2.466593    0.000438
      9          1           0       -1.833341    3.319842    0.000511
     10          1           0       -3.744635    1.715873   -0.000292
     11         16           0        1.583194   -0.223152    0.000001
     12          9           0        1.198910   -1.279486   -1.124537
     13          9           0        1.197886   -1.279619    1.124062
     14          9           0        3.077170   -0.767335    0.000649
     15          9           0        1.967477    0.833182    1.124538
     16          9           0        1.968502    0.833315   -1.124061
     17          6           0       -3.648510   -1.023643    0.000110
     18          7           0       -4.526916   -1.760593    0.000184
 ---------------------------------------------------------------------
 Rotational constants (GHZ):      1.2649368      0.4097033      0.3507301
 Standard basis: 6-311+G(d,p) (5D, 7F)
 There are   354 symmetry adapted cartesian basis functions of A   symmetry.
 There are   340 symmetry adapted basis functions of A   symmetry.
   340 basis functions,   550 primitive gaussians,   354 cartesian basis functions
    57 alpha electrons       57 beta electrons
       nuclear repulsion energy      1143.6524339427 Hartrees.
 NAtoms=   18 NActive=   18 NUniq=   18 SFac= 1.00D+00 NAtFMM=   60 NAOKFM=F Big=F
 Integral buffers will be    131072 words long.
 Raffenetti 2 integral format.
 Two-electron integral symmetry is turned on.
 One-electron integrals computed using PRISM.
 NBasis=   340 RedAO= T EigKep=  1.86D-06  NBF=   340
 NBsUse=   339 1.00D-06 EigRej=  8.66D-07 NBFU=   339
 ExpMin= 4.05D-02 ExpMax= 9.34D+04 ExpMxC= 3.17D+03 IAcc=2 IRadAn=         4 AccDes= 0.00D+00
 Harris functional with IExCor=  402 and IRadAn=       4 diagonalized for initial guess.
 HarFok:  IExCor=  402 AccDes= 0.00D+00 IRadAn=         4 IDoV= 1 UseB2=F ITyADJ=14
 ICtDFT=  3500011 ScaDFX=  1.000000  1.000000  1.000000  1.000000
 FoFCou: FMM=F IPFlag=           0 FMFlag=      100000 FMFlg1=           0
         NFxFlg=           0 DoJE=T BraDBF=F KetDBF=T FulRan=T
         wScrn=  0.000000 ICntrl=     500 IOpCl=  0 I1Cent=   200000004 NGrid=           0
         NMat0=    1 NMatS0=      1 NMatT0=    0 NMatD0=    1 NMtDS0=    0 NMtDT0=    0
 Petite list used in FoFCou.
 Requested convergence on RMS density matrix=1.00D-08 within 128 cycles.
 Requested convergence on MAX density matrix=1.00D-06.
 Requested convergence on             energy=1.00D-06.
 No special actions if energy rises.
 SCF Done:  E(RB3LYP) =  -1221.40446910     A.U. after   15 cycles
            NFock= 15  Conv=0.44D-08     -V/T= 2.0024

 **********************************************************************

            Population analysis using the SCF density.

 **********************************************************************

 Orbital symmetries:
       Occupied  (A) (A) (A) (A) (A) (A) (A) (A) (A) (A) (A) (A)
                 (A) (A) (A) (A) (A) (A) (A) (A) (A) (A) (A) (A)
                 (A) (A) (A) (A) (A) (A) (A) (A) (A) (A) (A) (A)
                 (A) (A) (A) (A) (A) (A) (A) (A) (A) (A) (A) (A)
                 (A) (A) (A) (A) (A) (A) (A) (A) (A)
       Virtual   (A) (A) (A) (A) (A) (A) (A) (A) (A) (A) (A) (A)
                 (A) (A) (A) (A) (A) (A) (A) (A) (A) (A) (A) (A)
                 (A) (A) (A) (A) (A) (A) (A) (A) (A) (A) (A) (A)
                 (A) (A) (A) (A) (A) (A) (A) (A) (A) (A) (A) (A)
                 (A) (A) (A) (A) (A) (A) (A) (A) (A) (A) (A) (A)
                 (A) (A) (A) (A) (A) (A) (A) (A) (A) (A) (A) (A)
                 (A) (A) (A) (A) (A) (A) (A) (A) (A) (A) (A) (A)
                 (A) (A) (A) (A) (A) (A) (A) (A) (A) (A) (A) (A)
                 (A) (A) (A) (A) (A) (A) (A) (A) (A) (A) (A) (A)
                 (A) (A) (A) (A) (A) (A) (A) (A) (A) (A) (A) (A)
                 (A) (A) (A) (A) (A) (A) (A) (A) (A) (A) (A) (A)
                 (A) (A) (A) (A) (A) (A) (A) (A) (A) (A) (A) (A)
                 (A) (A) (A) (A) (A) (A) (A) (A) (A) (A) (A) (A)
                 (A) (A) (A) (A) (A) (A) (A) (A) (A) (A) (A) (A)
                 (A) (A) (A) (A) (A) (A) (A) (A) (A) (A) (A) (A)
                 (A) (A) (A) (A) (A) (A) (A) (A) (A) (A) (A) (A)
                 (A) (A) (A) (A) (A) (A) (A) (A) (A) (A) (A) (A)
                 (A) (A) (A) (A) (A) (A) (A) (A) (A) (A) (A) (A)
                 (A) (A) (A) (A) (A) (A) (A) (A) (A) (A) (A) (A)
                 (A) (A) (A) (A) (A) (A) (A) (A) (A) (A) (A) (A)
                 (A) (A) (A) (A) (A) (A) (A) (A) (A) (A) (A) (A)
                 (A) (A) (A) (A) (A) (A) (A) (A) (A) (A) (A) (A)
                 (A) (A) (A) (A) (A) (A) (A) (A) (A) (A) (A) (A)
                 (A) (A) (A) (A) (A) (A)
 The electronic state is 1-A.
 Alpha  occ. eigenvalues --  -89.24274 -24.75015 -24.74089 -24.74088 -24.74021
 Alpha  occ. eigenvalues --  -24.74021 -14.33561 -10.26748 -10.25579 -10.24166
 Alpha  occ. eigenvalues --  -10.23717 -10.23678 -10.23601 -10.23038  -8.28865
 Alpha  occ. eigenvalues --   -6.25393  -6.25382  -6.24816  -1.39571  -1.29043
 Alpha  occ. eigenvalues --   -1.28966  -1.26659  -1.24185  -0.93949  -0.92357
 Alpha  occ. eigenvalues --   -0.86415  -0.81327  -0.79910  -0.69741  -0.68520
 Alpha  occ. eigenvalues --   -0.66906  -0.66534  -0.63762  -0.57571  -0.56569
 Alpha  occ. eigenvalues --   -0.55297  -0.55031  -0.53394  -0.52927  -0.51030
 Alpha  occ. eigenvalues --   -0.50521  -0.48905  -0.47955  -0.47925  -0.47482
 Alpha  occ. eigenvalues --   -0.46248  -0.45054  -0.43994  -0.43921  -0.43111
 Alpha  occ. eigenvalues --   -0.41781  -0.40354  -0.38433  -0.37797  -0.36625
 Alpha  occ. eigenvalues --   -0.31210  -0.30566
 Alpha virt. eigenvalues --   -0.08373  -0.07673  -0.07150  -0.01370   0.00544
 Alpha virt. eigenvalues --    0.00812   0.01824   0.02479   0.03112   0.03464
 Alpha virt. eigenvalues --    0.03488   0.03882   0.05061   0.06148   0.06517
 Alpha virt. eigenvalues --    0.06820   0.07778   0.08202   0.09016   0.09121
 Alpha virt. eigenvalues --    0.10392   0.10614   0.10957   0.10958   0.11428
 Alpha virt. eigenvalues --    0.12017   0.12487   0.13740   0.14352   0.14434
 Alpha virt. eigenvalues --    0.15414   0.17150   0.17246   0.17571   0.18412
 Alpha virt. eigenvalues --    0.18825   0.19341   0.19905   0.20712   0.21818
 Alpha virt. eigenvalues --    0.22619   0.22814   0.23460   0.24224   0.24640
 Alpha virt. eigenvalues --    0.24653   0.25760   0.25817   0.26416   0.27203
 Alpha virt. eigenvalues --    0.27681   0.27908   0.28365   0.29177   0.29966
 Alpha virt. eigenvalues --    0.30126   0.30835   0.31564   0.32928   0.33153
 Alpha virt. eigenvalues --    0.33874   0.34704   0.35051   0.36406   0.37460
 Alpha virt. eigenvalues --    0.39761   0.40746   0.41923   0.43005   0.43201
 Alpha virt. eigenvalues --    0.44817   0.45361   0.46016   0.46993   0.47467
 Alpha virt. eigenvalues --    0.50029   0.50649   0.51105   0.51498   0.52666
 Alpha virt. eigenvalues --    0.53522   0.53756   0.55199   0.55772   0.56370
 Alpha virt. eigenvalues --    0.58927   0.59480   0.60325   0.62585   0.62652
 Alpha virt. eigenvalues --    0.63793   0.65060   0.65683   0.66025   0.68114
 Alpha virt. eigenvalues --    0.69265   0.70060   0.72173   0.73028   0.74029
 Alpha virt. eigenvalues --    0.78940   0.79600   0.80613   0.82183   0.84939
 Alpha virt. eigenvalues --    0.88047   0.89326   0.89836   0.90422   0.91054
 Alpha virt. eigenvalues --    0.92847   0.93933   0.96148   0.98223   0.98562
 Alpha virt. eigenvalues --    0.99162   1.01575   1.03495   1.05308   1.06507
 Alpha virt. eigenvalues --    1.07671   1.08385   1.09719   1.12371   1.20196
 Alpha virt. eigenvalues --    1.25041   1.26166   1.26854   1.27080   1.28846
 Alpha virt. eigenvalues --    1.29491   1.30066   1.34372   1.35149   1.36211
 Alpha virt. eigenvalues --    1.38827   1.42566   1.42833   1.43268   1.45773
 Alpha virt. eigenvalues --    1.46737   1.46849   1.48736   1.49206   1.50475
 Alpha virt. eigenvalues --    1.52877   1.53736   1.53802   1.55762   1.57391
 Alpha virt. eigenvalues --    1.58156   1.59503   1.63771   1.67402   1.68439
 Alpha virt. eigenvalues --    1.71461   1.73286   1.75472   1.76020   1.83397
 Alpha virt. eigenvalues --    1.84833   1.85521   1.86225   1.88483   1.90074
 Alpha virt. eigenvalues --    1.91163   1.94348   1.95525   1.97044   1.99213
 Alpha virt. eigenvalues --    1.99923   2.01458   2.01959   2.04288   2.06997
 Alpha virt. eigenvalues --    2.08968   2.12183   2.17046   2.23522   2.24163
 Alpha virt. eigenvalues --    2.28359   2.30873   2.33237   2.34443   2.41654
 Alpha virt. eigenvalues --    2.50409   2.54016   2.54924   2.56957   2.60781
 Alpha virt. eigenvalues --    2.65452   2.65891   2.67693   2.72484   2.73640
 Alpha virt. eigenvalues --    2.75184   2.78051   2.80473   2.80602   2.81116
 Alpha virt. eigenvalues --    2.85501   2.87290   2.94142   2.94209   2.96640
 Alpha virt. eigenvalues --    3.03683   3.05904   3.13808   3.14637   3.19137
 Alpha virt. eigenvalues --    3.31144   3.32652   3.44644   3.52403   3.55128
 Alpha virt. eigenvalues --    3.67556   3.67623   3.68477   3.68478   3.70406
 Alpha virt. eigenvalues --    3.70937   3.71170   3.71239   3.72068   3.72623
 Alpha virt. eigenvalues --    3.73635   3.75694   3.77153   3.78255   3.79615
 Alpha virt. eigenvalues --    3.81341   3.81988   3.82063   3.83891   3.88667
 Alpha virt. eigenvalues --    3.95902   3.96891   3.98335   4.01559   4.02568
 Alpha virt. eigenvalues --    4.10919   4.13461   4.22416   4.22868   4.24622
 Alpha virt. eigenvalues --    4.25592   4.27579   4.58154   4.79421   6.18169
 Alpha virt. eigenvalues --    6.20431   6.22857   6.24353   6.25692   6.28240
 Alpha virt. eigenvalues --    6.29827   6.35698   6.36117   6.38099   6.38899
 Alpha virt. eigenvalues --    6.46692   6.48131   6.50576   6.53835   8.09675
 Alpha virt. eigenvalues --   17.32087  17.35366  17.42906  23.51994  23.87787
 Alpha virt. eigenvalues --   23.90679  24.00632  24.02115  24.11788  24.24021
 Alpha virt. eigenvalues --   35.87535  66.74096  66.74766  66.82033  66.83638
 Alpha virt. eigenvalues --   66.92826 189.16767
          Condensed to atoms (all electrons):
               1          2          3          4          5          6
     1  C   14.322291  -3.292697   3.572138  -2.109219  -2.468925  -6.662100
     2  C   -3.292697  23.455370 -12.676500   2.714211  -2.531464   2.412179
     3  C    3.572138 -12.676500  21.203151  -4.195966   1.273766  -5.569478
     4  C   -2.109219   2.714211  -4.195966  11.164543  -2.188149   1.989128
     5  C   -2.468925  -2.531464   1.273766  -2.188149  12.913738  -0.469261
     6  C   -6.662100   2.412179  -5.569478   1.989128  -0.469261  21.257882
     7  H    0.355000   0.018077  -0.063501  -0.006319   0.005892   0.000460
     8  H   -0.017781   0.087717   0.260145   0.021402  -0.019148  -0.011434
     9  H   -0.012213   0.053589  -0.073600   0.376899   0.011266  -0.012934
    10  H    0.013488  -0.003768  -0.002921  -0.036484   0.350050  -0.051563
    11  S   -0.178619  -0.324374  -0.725266  -0.034931   0.249799   0.023200
    12  F    0.062107  -0.161251   0.191498  -0.013077   0.009680  -0.039750
    13  F    0.061871  -0.160382   0.190477  -0.012838   0.009743  -0.040440
    14  F    0.005924   0.002153   0.116663  -0.012689   0.001301  -0.020707
    15  F    0.019145   0.142577  -0.167799   0.030998   0.020060   0.017315
    16  F    0.019529   0.141827  -0.166527   0.030592   0.019849   0.017764
    17  C    2.803522  -2.798264   2.502032  -1.571955  -0.675931  -9.381471
    18  N   -0.148681   0.082108  -0.058508   0.054263   0.054354   0.861375
               7          8          9         10         11         12
     1  C    0.355000  -0.017781  -0.012213   0.013488  -0.178619   0.062107
     2  C    0.018077   0.087717   0.053589  -0.003768  -0.324374  -0.161251
     3  C   -0.063501   0.260145  -0.073600  -0.002921  -0.725266   0.191498
     4  C   -0.006319   0.021402   0.376899  -0.036484  -0.034931  -0.013077
     5  C    0.005892  -0.019148   0.011266   0.350050   0.249799   0.009680
     6  C    0.000460  -0.011434  -0.012934  -0.051563   0.023200  -0.039750
     7  H    0.485276  -0.000035   0.000059  -0.000105   0.020169   0.002658
     8  H   -0.000035   0.501120  -0.006628  -0.000200   0.019109   0.000004
     9  H    0.000059  -0.006628   0.514987  -0.006519   0.002704   0.000035
    10  H   -0.000105  -0.000200  -0.006519   0.509820  -0.000025  -0.000009
    11  S    0.020169   0.019109   0.002704  -0.000025  16.725303   0.016022
    12  F    0.002658   0.000004   0.000035  -0.000009   0.016022   8.952896
    13  F    0.002604   0.000003   0.000036  -0.000009   0.016704  -0.041688
    14  F   -0.000964  -0.001191   0.000000   0.000001  -0.073265  -0.017516
    15  F   -0.000037   0.004452   0.000060  -0.000004   0.021739  -0.032526
    16  F   -0.000031   0.004497   0.000058  -0.000003   0.021144   0.019288
    17  C    0.010988  -0.005407   0.001646   0.078465  -0.355950   0.002758
    18  N   -0.000978   0.000036  -0.000067  -0.004378   0.008807   0.000000
              13         14         15         16         17         18
     1  C    0.061871   0.005924   0.019145   0.019529   2.803522  -0.148681
     2  C   -0.160382   0.002153   0.142577   0.141827  -2.798264   0.082108
     3  C    0.190477   0.116663  -0.167799  -0.166527   2.502032  -0.058508
     4  C   -0.012838  -0.012689   0.030998   0.030592  -1.571955   0.054263
     5  C    0.009743   0.001301   0.020060   0.019849  -0.675931   0.054354
     6  C   -0.040440  -0.020707   0.017315   0.017764  -9.381471   0.861375
     7  H    0.002604  -0.000964  -0.000037  -0.000031   0.010988  -0.000978
     8  H    0.000003  -0.001191   0.004452   0.004497  -0.005407   0.000036
     9  H    0.000036   0.000000   0.000060   0.000058   0.001646  -0.000067
    10  H   -0.000009   0.000001  -0.000004  -0.000003   0.078465  -0.004378
    11  S    0.016704  -0.073265   0.021739   0.021144  -0.355950   0.008807
    12  F   -0.041688  -0.017516  -0.032526   0.019288   0.002758   0.000000
    13  F    8.953245  -0.017501   0.019357  -0.032518   0.002561   0.000000
    14  F   -0.017501   9.004426  -0.027996  -0.027994   0.002882  -0.000014
    15  F    0.019357  -0.027996   8.965559  -0.035937  -0.008483   0.000038
    16  F   -0.032518  -0.027994  -0.035937   8.965227  -0.008372   0.000038
    17  C    0.002561   0.002882  -0.008483  -0.008372  17.021378  -0.551135
    18  N    0.000000  -0.000014   0.000038   0.000038  -0.551135   6.864420
 Mulliken charges:
               1
     1  C   -0.344781
     2  C   -1.161110
     3  C    0.390198
     4  C   -0.200407
     5  C   -0.566621
     6  C    1.679836
     7  H    0.170787
     8  H    0.163339
     9  H    0.150621
    10  H    0.154166
    11  S    0.567731
    12  F    0.048869
    13  F    0.048775
    14  F    0.066488
    15  F    0.031481
    16  F    0.031571
    17  C   -1.069265
    18  N   -0.161678
 Sum of Mulliken charges =   0.00000
 Mulliken charges with hydrogens summed into heavy atoms:
               1
     1  C   -0.173994
     2  C   -1.161110
     3  C    0.553537
     4  C   -0.049786
     5  C   -0.412455
     6  C    1.679836
    11  S    0.567731
    12  F    0.048869
    13  F    0.048775
    14  F    0.066488
    15  F    0.031481
    16  F    0.031571
    17  C   -1.069265
    18  N   -0.161678
 Electronic spatial extent (au):  <R**2>=           2968.6295
 Charge=              0.0000 electrons
 Dipole moment (field-independent basis, Debye):
    X=              0.5372    Y=              3.9873    Z=              0.0000  Tot=              4.0234
 Quadrupole moment (field-independent basis, Debye-Ang):
   XX=           -103.1688   YY=            -81.6765   ZZ=            -88.5460
   XY=            -13.3336   XZ=              0.0018   YZ=              0.0030
 Traceless Quadrupole moment (field-independent basis, Debye-Ang):
   XX=            -12.0383   YY=              9.4540   ZZ=              2.5844
   XY=            -13.3336   XZ=              0.0018   YZ=              0.0030
 Octapole moment (field-independent basis, Debye-Ang**2):
  XXX=            161.3815  YYY=             19.2585  ZZZ=              0.0080  XYY=             34.9059
  XXY=             63.1233  XXZ=             -0.0034  XZZ=             26.0089  YZZ=             -6.6230
  YYZ=              0.0080  XYZ=             -0.0036
 Hexadecapole moment (field-independent basis, Debye-Ang**3):
 XXXX=          -3199.6751 YYYY=           -742.7777 ZZZZ=           -237.8653 XXXY=           -338.0046
 XXXZ=              0.0379 YYYX=            -94.2794 YYYZ=              0.0351 ZZZX=              0.0002
 ZZZY=              0.0022 XXYY=           -662.4971 XXZZ=           -497.1145 YYZZ=           -183.6251
 XXYZ=              0.0136 YYXZ=              0.0018 ZZXY=             -3.1817
 N-N= 1.143652433943D+03 E-N=-5.173995059518D+03  KE= 1.218520425340D+03
 There are a total of      148576 grid points.
 ElSum from          density=      113.9997618659
 ElSum from atomic densities=      113.9996269749

 Hirshfeld populations at iteration   1 (CX, CA, CB, DipXYZ):
               1          2          3          4          5          6
     1  C    0.000000   3.012675   3.012675  -0.022813  -0.052156  -0.000002
     2  C    0.000000   3.022378   3.022378   0.037948  -0.015732  -0.000148
     3  C    0.000000   3.013181   3.013181   0.019486   0.062544   0.000088
     4  C    0.000000   3.012893   3.012893  -0.010923   0.071385  -0.000017
     5  C    0.000000   3.008963   3.008963  -0.061900   0.026006  -0.000054
     6  C    0.000000   2.986261   2.986261  -0.070376  -0.062822   0.000076
     7  H    0.000003   0.466864   0.466864   0.006385  -0.167496  -0.000037
     8  H    0.000001   0.468621   0.468621   0.105327   0.131378   0.000061
     9  H    0.000001   0.466928   0.466928  -0.029130   0.167214   0.000099
    10  H    0.000003   0.466154   0.466154  -0.154828   0.067600  -0.000022
    11  S    0.000000   7.730952   7.730952   0.106520  -0.038651   0.000072
    12  F    0.000014   4.556390   4.556390   0.000462   0.073101   0.080688
    13  F    0.000014   4.556381   4.556381   0.000497   0.073114  -0.080685
    14  F    0.000020   4.552426   4.552426  -0.090991   0.032811  -0.000040
    15  F    0.000012   4.556737   4.556737  -0.046920  -0.057522  -0.081160
    16  F    0.000012   4.556747   4.556747  -0.046963  -0.057556   0.081107
    17  C    0.000001   2.957004   2.957004   0.187366   0.155155  -0.000016
    18  N    0.000036   3.608327   3.608327   0.023011   0.017079  -0.000002
       Tot   0.000118  56.999881  56.999881  -0.047842   0.425453   0.000007

 Dip from Atomic Chgs              0.260349   1.142986  -0.000011
         Total Dipole              0.212508   1.568439  -0.000005

 Hirshfeld charges, spin densities, dipoles, and CM5 charges using IRadAn=      4:
              Q-H        S-H        Dx         Dy         Dz        Q-CM5   
     1  C   -0.025351   0.000000  -0.022813  -0.052156  -0.000002  -0.074552
     2  C   -0.044755   0.000000   0.037948  -0.015732  -0.000148  -0.069576
     3  C   -0.026363   0.000000   0.019486   0.062544   0.000088  -0.079127
     4  C   -0.025785   0.000000  -0.010923   0.071385  -0.000017  -0.079246
     5  C   -0.017925   0.000000  -0.061900   0.026006  -0.000054  -0.067947
     6  C    0.027478   0.000000  -0.070376  -0.062822   0.000076   0.023170
     7  H    0.066272   0.000000   0.006385  -0.167496  -0.000037   0.116567
     8  H    0.062758   0.000000   0.105327   0.131378   0.000061   0.111917
     9  H    0.066144   0.000000  -0.029130   0.167214   0.000099   0.119803
    10  H    0.067693   0.000000  -0.154828   0.067600  -0.000022   0.122492
    11  S    0.538097   0.000000   0.106520  -0.038651   0.000072   0.591580
    12  F   -0.112780   0.000000   0.000462   0.073101   0.080688  -0.116344
    13  F   -0.112763   0.000000   0.000497   0.073114  -0.080685  -0.116323
    14  F   -0.104853   0.000000  -0.090991   0.032811  -0.000040  -0.111893
    15  F   -0.113474   0.000000  -0.046920  -0.057522  -0.081160  -0.117030
    16  F   -0.113494   0.000000  -0.046963  -0.057556   0.081107  -0.117055
    17  C    0.085993   0.000000   0.187366   0.155155  -0.000016   0.205113
    18  N   -0.216654   0.000000   0.023011   0.017079  -0.000002  -0.341312
       Tot   0.000238   0.000000  -0.047842   0.425453   0.000007   0.000238
 Hirshfeld charges with hydrogens summed into heavy atoms:
              Q-H       Q-CM5   
     1  C    0.040922   0.042015
     2  C   -0.044755  -0.069576
     3  C    0.036395   0.032790
     4  C    0.040359   0.040557
     5  C    0.049768   0.054545
     6  C    0.027478   0.023170
    11  S    0.538097   0.591580
    12  F   -0.112780  -0.116344
    13  F   -0.112763  -0.116323
    14  F   -0.104853  -0.111893
    15  F   -0.113474  -0.117030
    16  F   -0.113494  -0.117055
    17  C    0.085993   0.205113
    18  N   -0.216654  -0.341312
 
 EQQ= 0.000000000000E+00 EQD= 0.000000000000E+00 EDD= 0.428064944207E-02
 EQQ+QD+DD= 0.428064944207E-02
 
          MBS Condensed to atoms (all electrons):
               1          2          3          4          5          6
     1  C    4.795436   0.504992  -0.029531  -0.011449  -0.031515   0.500383
     2  C    0.504992   4.784139   0.502266  -0.028656  -0.011741  -0.027757
     3  C   -0.029531   0.502266   4.796830   0.502598  -0.030287  -0.011545
     4  C   -0.011449  -0.028656   0.502598   4.807227   0.505537  -0.030289
     5  C   -0.031515  -0.011741  -0.030287   0.505537   4.798423   0.499107
     6  C    0.500383  -0.027757  -0.011545  -0.030289   0.499107   4.709326
     7  H    0.382745  -0.023734   0.001342   0.000064   0.001333  -0.022743
     8  H    0.001368  -0.025106   0.384010  -0.022968   0.001426   0.000058
     9  H    0.000038   0.001379  -0.024603   0.388592  -0.024564   0.001404
    10  H    0.001390   0.000069   0.001456  -0.023569   0.386191  -0.024757
    11  S   -0.023196   0.345016  -0.023292   0.000618   0.000001   0.000590
    12  F   -0.001505  -0.015491   0.000138  -0.000001   0.000000   0.000006
    13  F   -0.001510  -0.015494   0.000138  -0.000001   0.000000   0.000006
    14  F    0.000001   0.000067   0.000001   0.000000   0.000000   0.000000
    15  F    0.000135  -0.015443  -0.001494   0.000006   0.000000  -0.000001
    16  F    0.000135  -0.015441  -0.001489   0.000006   0.000000  -0.000001
    17  C   -0.026788   0.000794   0.000013   0.000834  -0.026836   0.396859
    18  N   -0.000043  -0.000001   0.000000  -0.000001  -0.000043  -0.008418
               7          8          9         10         11         12
     1  C    0.382745   0.001368   0.000038   0.001390  -0.023196  -0.001505
     2  C   -0.023734  -0.025106   0.001379   0.000069   0.345016  -0.015491
     3  C    0.001342   0.384010  -0.024603   0.001456  -0.023292   0.000138
     4  C    0.000064  -0.022968   0.388592  -0.023569   0.000618  -0.000001
     5  C    0.001333   0.001426  -0.024564   0.386191   0.000001   0.000000
     6  C   -0.022743   0.000058   0.001404  -0.024757   0.000590   0.000006
     7  H    0.514860  -0.000040   0.000002  -0.000037  -0.003577   0.000883
     8  H   -0.000040   0.526694  -0.003763  -0.000034  -0.003467   0.000012
     9  H    0.000002  -0.003763   0.538214  -0.003722  -0.000011   0.000000
    10  H   -0.000037  -0.000034  -0.003722   0.532141   0.000000   0.000000
    11  S   -0.003577  -0.003467  -0.000011   0.000000  13.766233   0.265651
    12  F    0.000883   0.000012   0.000000   0.000000   0.265651   8.937274
    13  F    0.000883   0.000012   0.000000   0.000000   0.265653  -0.007162
    14  F    0.000001   0.000001   0.000000   0.000000   0.263719  -0.007935
    15  F    0.000013   0.000855   0.000000   0.000000   0.265701   0.000035
    16  F    0.000013   0.000854   0.000000   0.000000   0.265700  -0.006946
    17  C   -0.002943   0.000001  -0.000016  -0.002766  -0.000003   0.000000
    18  N    0.000066   0.000000   0.000000   0.000063   0.000000   0.000000
              13         14         15         16         17         18
     1  C   -0.001510   0.000001   0.000135   0.000135  -0.026788  -0.000043
     2  C   -0.015494   0.000067  -0.015443  -0.015441   0.000794  -0.000001
     3  C    0.000138   0.000001  -0.001494  -0.001489   0.000013   0.000000
     4  C   -0.000001   0.000000   0.000006   0.000006   0.000834  -0.000001
     5  C    0.000000   0.000000   0.000000   0.000000  -0.026836  -0.000043
     6  C    0.000006   0.000000  -0.000001  -0.000001   0.396859  -0.008418
     7  H    0.000883   0.000001   0.000013   0.000013  -0.002943   0.000066
     8  H    0.000012   0.000001   0.000855   0.000854   0.000001   0.000000
     9  H    0.000000   0.000000   0.000000   0.000000  -0.000016   0.000000
    10  H    0.000000   0.000000   0.000000   0.000000  -0.002766   0.000063
    11  S    0.265653   0.263719   0.265701   0.265700  -0.000003   0.000000
    12  F   -0.007162  -0.007935   0.000035  -0.006946   0.000000   0.000000
    13  F    8.937275  -0.007935  -0.006946   0.000035   0.000000   0.000000
    14  F   -0.007935   8.900129  -0.007933  -0.007933   0.000000   0.000000
    15  F   -0.006946  -0.007933   8.937759  -0.007169   0.000000   0.000000
    16  F    0.000035  -0.007933  -0.007169   8.937760   0.000000   0.000000
    17  C    0.000000   0.000000   0.000000   0.000000   4.799799   0.736652
    18  N    0.000000   0.000000   0.000000   0.000000   0.736652   6.543923
 MBS Mulliken charges:
               1
     1  C   -0.061087
     2  C    0.040143
     3  C   -0.066551
     4  C   -0.088547
     5  C   -0.067032
     6  C    0.017770
     7  H    0.150869
     8  H    0.140088
     9  H    0.127051
    10  H    0.133574
    11  S    0.614665
    12  F   -0.164960
    13  F   -0.164955
    14  F   -0.132185
    15  F   -0.165519
    16  F   -0.165524
    17  C    0.124399
    18  N   -0.272198
 Sum of MBS Mulliken charges =   0.00000
 MBS Mulliken charges with hydrogens summed into heavy atoms:
               1
     1  C    0.089782
     2  C    0.040143
     3  C    0.073536
     4  C    0.038504
     5  C    0.066542
     6  C    0.017770
    11  S    0.614665
    12  F   -0.164960
    13  F   -0.164955
    14  F   -0.132185
    15  F   -0.165519
    16  F   -0.165524
    17  C    0.124399
    18  N   -0.272198
 Breneman (CHELPG) radii used.
 Generate Potential Derived Charges using the Breneman model, NDens= 1.
 Grid spacing= 0.300 Box extension= 2.800
 NStep X,Y,Z=   46     36     28   Total possible points=       46368
 Number of Points to Fit=   12397

 **********************************************************************

            Electrostatic Properties Using The SCF Density

 **********************************************************************

       Atomic Center    1 is at  -1.157984 -0.510825 -0.000407
       Atomic Center    2 is at  -0.089307  0.386060 -0.000725
       Atomic Center    3 is at  -0.331409  1.759598  0.000055
       Atomic Center    4 is at  -1.642699  2.236813 -0.000045
       Atomic Center    5 is at  -2.711069  1.340084 -0.000205
       Atomic Center    6 is at  -2.468723 -0.033844  0.000010
       Atomic Center    7 is at  -0.966892 -1.593704 -0.000572
       Atomic Center    8 is at   0.510883  2.466593  0.000438
       Atomic Center    9 is at  -1.833341  3.319842  0.000511
       Atomic Center   10 is at  -3.744635  1.715873 -0.000292
       Atomic Center   11 is at   1.583194 -0.223152  0.000001
       Atomic Center   12 is at   1.198910 -1.279486 -1.124537
       Atomic Center   13 is at   1.197886 -1.279619  1.124062
       Atomic Center   14 is at   3.077170 -0.767335  0.000649
       Atomic Center   15 is at   1.967477  0.833182  1.124538
       Atomic Center   16 is at   1.968502  0.833315 -1.124061
       Atomic Center   17 is at  -3.648510 -1.023643  0.000110
       Atomic Center   18 is at  -4.526916 -1.760593  0.000184
   12397 points will be used for fitting atomic charges
 Fitting point charges to electrostatic potential
 Charges from ESP fit, RMS=   0.00344 RRMS=   0.19225:
 ESP charges:
               1
     1  C   -0.142700
     2  C    0.052038
     3  C   -0.094049
     4  C   -0.066143
     5  C   -0.093765
     6  C    0.037183
     7  H    0.160795
     8  H    0.137860
     9  H    0.107529
    10  H    0.118745
    11  S    0.939733
    12  F   -0.229921
    13  F   -0.229941
    14  F   -0.139783
    15  F   -0.230504
    16  F   -0.230659
    17  C    0.348303
    18  N   -0.444722
 Sum of ESP charges =   0.00000
 ESP charges with hydrogens summed into heavy atoms:
               1
     1  C    0.018095
     2  C    0.052038
     3  C    0.043811
     4  C    0.041386
     5  C    0.024980
     6  C    0.037183
    11  S    0.939733
    12  F   -0.229921
    13  F   -0.229941
    14  F   -0.139783
    15  F   -0.230504
    16  F   -0.230659
    17  C    0.348303
    18  N   -0.444722
 Charge=   0.00000 Dipole=     0.3718     3.9641     0.0002 Tot=     3.9815
 -----------------------------------------------------------------

              Electrostatic Properties (Atomic Units)

 -----------------------------------------------------------------
    Center     Electric         -------- Electric Field --------
               Potential          X             Y             Z
 -----------------------------------------------------------------
    1 Atom    -14.709815
    2 Atom    -14.696918
    3 Atom    -14.714872
    4 Atom    -14.720487
    5 Atom    -14.715570
    6 Atom    -14.680233
    7 Atom     -1.051575
    8 Atom     -1.055934
    9 Atom     -1.058737
   10 Atom     -1.056435
   11 Atom    -58.842274
   12 Atom    -26.544771
   13 Atom    -26.544769
   14 Atom    -26.535553
   15 Atom    -26.544076
   16 Atom    -26.544081
   17 Atom    -14.724711
   18 Atom    -18.399457
 -----------------------------------------------------------------
 ******************************Gaussian NBO Version 3.1******************************
             N A T U R A L   A T O M I C   O R B I T A L   A N D
          N A T U R A L   B O N D   O R B I T A L   A N A L Y S I S
 ******************************Gaussian NBO Version 3.1******************************
       /RESON  / : Allow strongly delocalized NBO set

 Analyzing the SCF density

 Job title: Title Card Required                                             

 Storage needed:    348370 in NPA ( 536869040 available)


 NATURAL POPULATIONS:  Natural atomic orbital occupancies 
                                                          
   NAO  Atom  No  lang   Type(AO)    Occupancy      Energy
 ----------------------------------------------------------
     1    C    1  S      Cor( 1S)     1.99891     -10.08935
     2    C    1  S      Val( 2S)     0.93919      -0.20826
     3    C    1  S      Ryd( 4S)     0.00199       0.85962
     4    C    1  S      Ryd( 3S)     0.00018       0.82399
     5    C    1  S      Ryd( 5S)     0.00001      23.16983
     6    C    1  px     Val( 2p)     1.06384      -0.10949
     7    C    1  px     Ryd( 4p)     0.00348       0.79174
     8    C    1  px     Ryd( 3p)     0.00036       0.58788
     9    C    1  px     Ryd( 5p)     0.00014       3.22512
    10    C    1  py     Val( 2p)     1.19963      -0.12728
    11    C    1  py     Ryd( 4p)     0.00738       0.98601
    12    C    1  py     Ryd( 3p)     0.00024       0.38398
    13    C    1  py     Ryd( 5p)     0.00007       3.20248
    14    C    1  pz     Val( 2p)     0.93737      -0.15927
    15    C    1  pz     Ryd( 4p)     0.00094       0.50952
    16    C    1  pz     Ryd( 3p)     0.00042       0.33907
    17    C    1  pz     Ryd( 5p)     0.00001       2.71332
    18    C    1  dxy    Ryd( 3d)     0.00075       2.55750
    19    C    1  dxz    Ryd( 3d)     0.00070       1.62818
    20    C    1  dyz    Ryd( 3d)     0.00055       1.56762
    21    C    1  dx2y2  Ryd( 3d)     0.00065       2.45861
    22    C    1  dz2    Ryd( 3d)     0.00046       2.02113

    23    C    2  S      Cor( 1S)     1.99873     -10.12082
    24    C    2  S      Val( 2S)     0.96328      -0.25862
    25    C    2  S      Ryd( 3S)     0.00306       0.83283
    26    C    2  S      Ryd( 4S)     0.00016       1.01068
    27    C    2  S      Ryd( 5S)     0.00001      22.96770
    28    C    2  px     Val( 2p)     1.03275      -0.18820
    29    C    2  px     Ryd( 4p)     0.00894       1.13393
    30    C    2  px     Ryd( 3p)     0.00022       0.82022
    31    C    2  px     Ryd( 5p)     0.00021       3.27044
    32    C    2  py     Val( 2p)     1.10198      -0.14828
    33    C    2  py     Ryd( 4p)     0.00678       0.91735
    34    C    2  py     Ryd( 3p)     0.00030       0.61892
    35    C    2  py     Ryd( 5p)     0.00021       3.44571
    36    C    2  pz     Val( 2p)     1.09743      -0.19393
    37    C    2  pz     Ryd( 4p)     0.00255       0.51366
    38    C    2  pz     Ryd( 3p)     0.00034       0.42193
    39    C    2  pz     Ryd( 5p)     0.00005       2.76326
    40    C    2  dxy    Ryd( 3d)     0.00102       2.42193
    41    C    2  dxz    Ryd( 3d)     0.00055       1.62056
    42    C    2  dyz    Ryd( 3d)     0.00068       1.63308
    43    C    2  dx2y2  Ryd( 3d)     0.00113       2.36646
    44    C    2  dz2    Ryd( 3d)     0.00059       2.03058

    45    C    3  S      Cor( 1S)     1.99901     -10.08692
    46    C    3  S      Val( 2S)     0.95048      -0.21527
    47    C    3  S      Ryd( 4S)     0.00191       0.77719
    48    C    3  S      Ryd( 3S)     0.00013       0.72006
    49    C    3  S      Ryd( 5S)     0.00001      23.16880
    50    C    3  px     Val( 2p)     1.14739      -0.11212
    51    C    3  px     Ryd( 4p)     0.00654       0.98290
    52    C    3  px     Ryd( 3p)     0.00064       0.43601
    53    C    3  px     Ryd( 5p)     0.00009       3.17938
    54    C    3  py     Val( 2p)     1.11446      -0.11249
    55    C    3  py     Ryd( 4p)     0.00541       0.81331
    56    C    3  py     Ryd( 3p)     0.00035       0.36465
    57    C    3  py     Ryd( 5p)     0.00011       3.15525
    58    C    3  pz     Val( 2p)     0.93887      -0.15665
    59    C    3  pz     Ryd( 4p)     0.00096       0.50876
    60    C    3  pz     Ryd( 3p)     0.00048       0.33301
    61    C    3  pz     Ryd( 5p)     0.00002       2.66240
    62    C    3  dxy    Ryd( 3d)     0.00073       2.43044
    63    C    3  dxz    Ryd( 3d)     0.00057       1.58757
    64    C    3  dyz    Ryd( 3d)     0.00058       1.60445
    65    C    3  dx2y2  Ryd( 3d)     0.00073       2.54837
    66    C    3  dz2    Ryd( 3d)     0.00043       2.00396

    67    C    4  S      Cor( 1S)     1.99913     -10.08592
    68    C    4  S      Val( 2S)     0.95609      -0.21534
    69    C    4  S      Ryd( 4S)     0.00126       0.86776
    70    C    4  S      Ryd( 3S)     0.00010       0.71291
    71    C    4  S      Ryd( 5S)     0.00001      22.96494
    72    C    4  px     Val( 2p)     1.05461      -0.09306
    73    C    4  px     Ryd( 4p)     0.00446       0.77066
    74    C    4  px     Ryd( 3p)     0.00037       0.35425
    75    C    4  px     Ryd( 5p)     0.00016       3.04848
    76    C    4  py     Val( 2p)     1.17689      -0.10860
    77    C    4  py     Ryd( 4p)     0.00694       1.04793
    78    C    4  py     Ryd( 3p)     0.00024       0.30240
    79    C    4  py     Ryd( 5p)     0.00007       3.09780
    80    C    4  pz     Val( 2p)     0.98802      -0.15574
    81    C    4  pz     Ryd( 4p)     0.00073       0.50580
    82    C    4  pz     Ryd( 3p)     0.00025       0.28195
    83    C    4  pz     Ryd( 5p)     0.00001       2.64243
    84    C    4  dxy    Ryd( 3d)     0.00069       2.52667
    85    C    4  dxz    Ryd( 3d)     0.00048       1.62962
    86    C    4  dyz    Ryd( 3d)     0.00048       1.56018
    87    C    4  dx2y2  Ryd( 3d)     0.00075       2.43664
    88    C    4  dz2    Ryd( 3d)     0.00040       2.00070

    89    C    5  S      Cor( 1S)     1.99905     -10.08812
    90    C    5  S      Val( 2S)     0.95067      -0.21196
    91    C    5  S      Ryd( 4S)     0.00145       0.81152
    92    C    5  S      Ryd( 3S)     0.00015       0.71378
    93    C    5  S      Ryd( 5S)     0.00001      23.12816
    94    C    5  px     Val( 2p)     1.17626      -0.11202
    95    C    5  px     Ryd( 4p)     0.00612       1.01357
    96    C    5  px     Ryd( 3p)     0.00012       0.36557
    97    C    5  px     Ryd( 5p)     0.00007       3.13748
    98    C    5  py     Val( 2p)     1.06216      -0.09712
    99    C    5  py     Ryd( 4p)     0.00392       0.76900
   100    C    5  py     Ryd( 3p)     0.00029       0.40690
   101    C    5  py     Ryd( 5p)     0.00016       3.07581
   102    C    5  pz     Val( 2p)     0.94743      -0.15640
   103    C    5  pz     Ryd( 4p)     0.00075       0.50797
   104    C    5  pz     Ryd( 3p)     0.00030       0.30174
   105    C    5  pz     Ryd( 5p)     0.00001       2.63372
   106    C    5  dxy    Ryd( 3d)     0.00068       2.52434
   107    C    5  dxz    Ryd( 3d)     0.00047       1.56595
   108    C    5  dyz    Ryd( 3d)     0.00056       1.62611
   109    C    5  dx2y2  Ryd( 3d)     0.00077       2.47533
   110    C    5  dz2    Ryd( 3d)     0.00042       2.01872

   111    C    6  S      Cor( 1S)     1.99879     -10.12727
   112    C    6  S      Val( 2S)     0.90294      -0.20409
   113    C    6  S      Ryd( 4S)     0.00096       0.95870
   114    C    6  S      Ryd( 3S)     0.00012       0.72691
   115    C    6  S      Ryd( 5S)     0.00001      23.02302
   116    C    6  px     Val( 2p)     1.06580      -0.12020
   117    C    6  px     Ryd( 4p)     0.00561       0.97088
   118    C    6  px     Ryd( 3p)     0.00126       0.55073
   119    C    6  px     Ryd( 5p)     0.00020       2.91527
   120    C    6  py     Val( 2p)     1.08402      -0.12486
   121    C    6  py     Ryd( 4p)     0.00473       0.95932
   122    C    6  py     Ryd( 3p)     0.00111       0.46985
   123    C    6  py     Ryd( 5p)     0.00020       2.97579
   124    C    6  pz     Val( 2p)     1.06698      -0.16937
   125    C    6  pz     Ryd( 4p)     0.00063       0.51041
   126    C    6  pz     Ryd( 3p)     0.00028       0.29729
   127    C    6  pz     Ryd( 5p)     0.00003       2.62386
   128    C    6  dxy    Ryd( 3d)     0.00099       2.46405
   129    C    6  dxz    Ryd( 3d)     0.00057       1.58873
   130    C    6  dyz    Ryd( 3d)     0.00054       1.59528
   131    C    6  dx2y2  Ryd( 3d)     0.00078       2.56829
   132    C    6  dz2    Ryd( 3d)     0.00043       2.04787

   133    H    7  S      Val( 1S)     0.74548       0.00884
   134    H    7  S      Ryd( 2S)     0.00061       1.04699
   135    H    7  S      Ryd( 3S)     0.00016       1.60335
   136    H    7  px     Ryd( 2p)     0.00022       2.00918
   137    H    7  py     Ryd( 2p)     0.00044       2.65138
   138    H    7  pz     Ryd( 2p)     0.00019       1.57617

   139    H    8  S      Val( 1S)     0.75691       0.00784
   140    H    8  S      Ryd( 2S)     0.00067       0.94223
   141    H    8  S      Ryd( 3S)     0.00015       1.73950
   142    H    8  px     Ryd( 2p)     0.00036       2.37627
   143    H    8  py     Ryd( 2p)     0.00030       2.23871
   144    H    8  pz     Ryd( 2p)     0.00019       1.56940

   145    H    9  S      Val( 1S)     0.77091       0.00229
   146    H    9  S      Ryd( 2S)     0.00040       0.57233
   147    H    9  S      Ryd( 3S)     0.00017       2.12070
   148    H    9  px     Ryd( 2p)     0.00012       1.95257
   149    H    9  py     Ryd( 2p)     0.00043       2.61509
   150    H    9  pz     Ryd( 2p)     0.00017       1.55273

   151    H   10  S      Val( 1S)     0.76625       0.00381
   152    H   10  S      Ryd( 2S)     0.00036       0.63698
   153    H   10  S      Ryd( 3S)     0.00018       1.99410
   154    H   10  px     Ryd( 2p)     0.00040       2.58585
   155    H   10  py     Ryd( 2p)     0.00015       2.02360
   156    H   10  pz     Ryd( 2p)     0.00016       1.55798

   157    S   11  S      Cor( 1S)     2.00000     -87.98506
   158    S   11  S      Cor( 2S)     1.99845      -9.38648
   159    S   11  S      Val( 3S)     1.08749      -0.69681
   160    S   11  S      Ryd( 5S)     0.00362       0.88783
   161    S   11  S      Ryd( 4S)     0.00071       0.87407
   162    S   11  S      Ryd( 6S)     0.00005      15.48239
   163    S   11  S      Ryd( 7S)     0.00000     181.06062
   164    S   11  px     Cor( 2p)     1.99982      -6.23762
   165    S   11  px     Val( 3p)     0.90060      -0.28877
   166    S   11  px     Ryd( 6p)     0.00670       1.81982
   167    S   11  px     Ryd( 5p)     0.00109       1.02811
   168    S   11  px     Ryd( 4p)     0.00020       0.61159
   169    S   11  px     Ryd( 7p)     0.00001      16.03606
   170    S   11  py     Cor( 2p)     1.99991      -6.24218
   171    S   11  py     Val( 3p)     0.73276      -0.27624
   172    S   11  py     Ryd( 6p)     0.00900       1.65273
   173    S   11  py     Ryd( 5p)     0.00114       1.01371
   174    S   11  py     Ryd( 4p)     0.00014       0.42264
   175    S   11  py     Ryd( 7p)     0.00001      16.03606
   176    S   11  pz     Cor( 2p)     1.99994      -6.24280
   177    S   11  pz     Val( 3p)     0.70820      -0.27022
   178    S   11  pz     Ryd( 6p)     0.00855       1.54194
   179    S   11  pz     Ryd( 5p)     0.00092       0.92210
   180    S   11  pz     Ryd( 4p)     0.00031       0.40339
   181    S   11  pz     Ryd( 7p)     0.00000      16.07568
   182    S   11  dxy    Ryd( 3d)     0.03087       0.75597
   183    S   11  dxz    Ryd( 3d)     0.02402       0.64623
   184    S   11  dyz    Ryd( 3d)     0.04383       0.87793
   185    S   11  dx2y2  Ryd( 3d)     0.03537       0.77706
   186    S   11  dz2    Ryd( 3d)     0.03091       0.67305

   187    F   12  S      Cor( 1S)     1.99995     -24.49181
   188    F   12  S      Val( 2S)     1.91619      -1.38479
   189    F   12  S      Ryd( 4S)     0.00103       1.69720
   190    F   12  S      Ryd( 3S)     0.00043       1.45488
   191    F   12  S      Ryd( 5S)     0.00000      66.50895
   192    F   12  px     Val( 2p)     1.93812      -0.48503
   193    F   12  px     Ryd( 3p)     0.00071       0.63259
   194    F   12  px     Ryd( 4p)     0.00013       1.32417
   195    F   12  px     Ryd( 5p)     0.00001       6.23306
   196    F   12  py     Val( 2p)     1.81756      -0.48896
   197    F   12  py     Ryd( 3p)     0.00093       0.55855
   198    F   12  py     Ryd( 4p)     0.00027       1.34904
   199    F   12  py     Ryd( 5p)     0.00002       6.17114
   200    F   12  pz     Val( 2p)     1.78520      -0.48959
   201    F   12  pz     Ryd( 3p)     0.00089       0.56322
   202    F   12  pz     Ryd( 4p)     0.00027       1.34725
   203    F   12  pz     Ryd( 5p)     0.00002       6.15562
   204    F   12  dxy    Ryd( 3d)     0.00033       3.78480
   205    F   12  dxz    Ryd( 3d)     0.00037       3.78731
   206    F   12  dyz    Ryd( 3d)     0.00079       3.94683
   207    F   12  dx2y2  Ryd( 3d)     0.00032       3.78893
   208    F   12  dz2    Ryd( 3d)     0.00051       3.80527

   209    F   13  S      Cor( 1S)     1.99995     -24.49181
   210    F   13  S      Val( 2S)     1.91619      -1.38480
   211    F   13  S      Ryd( 4S)     0.00103       1.69683
   212    F   13  S      Ryd( 3S)     0.00043       1.45518
   213    F   13  S      Ryd( 5S)     0.00000      66.50896
   214    F   13  px     Val( 2p)     1.93799      -0.48503
   215    F   13  px     Ryd( 3p)     0.00071       0.63270
   216    F   13  px     Ryd( 4p)     0.00013       1.32428
   217    F   13  px     Ryd( 5p)     0.00001       6.23307
   218    F   13  py     Val( 2p)     1.81751      -0.48897
   219    F   13  py     Ryd( 3p)     0.00093       0.55851
   220    F   13  py     Ryd( 4p)     0.00027       1.34910
   221    F   13  py     Ryd( 5p)     0.00002       6.17109
   222    F   13  pz     Val( 2p)     1.78538      -0.48959
   223    F   13  pz     Ryd( 3p)     0.00089       0.56321
   224    F   13  pz     Ryd( 4p)     0.00027       1.34714
   225    F   13  pz     Ryd( 5p)     0.00002       6.15557
   226    F   13  dxy    Ryd( 3d)     0.00033       3.78485
   227    F   13  dxz    Ryd( 3d)     0.00037       3.78742
   228    F   13  dyz    Ryd( 3d)     0.00079       3.94673
   229    F   13  dx2y2  Ryd( 3d)     0.00032       3.78893
   230    F   13  dz2    Ryd( 3d)     0.00051       3.80515

   231    F   14  S      Cor( 1S)     1.99995     -24.50380
   232    F   14  S      Val( 2S)     1.91581      -1.38778
   233    F   14  S      Ryd( 3S)     0.00197       1.05334
   234    F   14  S      Ryd( 4S)     0.00047       1.72093
   235    F   14  S      Ryd( 5S)     0.00000      66.59904
   236    F   14  px     Val( 2p)     1.61713      -0.49434
   237    F   14  px     Ryd( 3p)     0.00053       0.75315
   238    F   14  px     Ryd( 4p)     0.00034       1.65370
   239    F   14  px     Ryd( 5p)     0.00005       6.14503
   240    F   14  py     Val( 2p)     1.92094      -0.49012
   241    F   14  py     Ryd( 3p)     0.00056       0.45873
   242    F   14  py     Ryd( 4p)     0.00010       1.52079
   243    F   14  py     Ryd( 5p)     0.00001       6.10614
   244    F   14  pz     Val( 2p)     1.96777      -0.48953
   245    F   14  pz     Ryd( 3p)     0.00052       0.40946
   246    F   14  pz     Ryd( 4p)     0.00006       1.48223
   247    F   14  pz     Ryd( 5p)     0.00001       6.08998
   248    F   14  dxy    Ryd( 3d)     0.00089       3.83758
   249    F   14  dxz    Ryd( 3d)     0.00058       3.77400
   250    F   14  dyz    Ryd( 3d)     0.00009       3.73259
   251    F   14  dx2y2  Ryd( 3d)     0.00099       3.86047
   252    F   14  dz2    Ryd( 3d)     0.00041       3.77870

   253    F   15  S      Cor( 1S)     1.99995     -24.49266
   254    F   15  S      Val( 2S)     1.91611      -1.38531
   255    F   15  S      Ryd( 4S)     0.00105       1.63557
   256    F   15  S      Ryd( 3S)     0.00044       1.50352
   257    F   15  S      Ryd( 5S)     0.00000      66.51130
   258    F   15  px     Val( 2p)     1.95580      -0.48532
   259    F   15  px     Ryd( 3p)     0.00085       0.58681
   260    F   15  px     Ryd( 4p)     0.00014       1.31207
   261    F   15  px     Ryd( 5p)     0.00001       6.20666
   262    F   15  py     Val( 2p)     1.80036      -0.49019
   263    F   15  py     Ryd( 3p)     0.00079       0.60072
   264    F   15  py     Ryd( 4p)     0.00026       1.35938
   265    F   15  py     Ryd( 5p)     0.00002       6.18595
   266    F   15  pz     Val( 2p)     1.78528      -0.49035
   267    F   15  pz     Ryd( 3p)     0.00089       0.56207
   268    F   15  pz     Ryd( 4p)     0.00027       1.34564
   269    F   15  pz     Ryd( 5p)     0.00002       6.15225
   270    F   15  dxy    Ryd( 3d)     0.00031       3.77706
   271    F   15  dxz    Ryd( 3d)     0.00036       3.79070
   272    F   15  dyz    Ryd( 3d)     0.00080       3.94170
   273    F   15  dx2y2  Ryd( 3d)     0.00034       3.79443
   274    F   15  dz2    Ryd( 3d)     0.00051       3.80447

   275    F   16  S      Cor( 1S)     1.99995     -24.49266
   276    F   16  S      Val( 2S)     1.91611      -1.38530
   277    F   16  S      Ryd( 4S)     0.00105       1.63588
   278    F   16  S      Ryd( 3S)     0.00044       1.50330
   279    F   16  S      Ryd( 5S)     0.00000      66.51128
   280    F   16  px     Val( 2p)     1.95572      -0.48531
   281    F   16  px     Ryd( 3p)     0.00085       0.58678
   282    F   16  px     Ryd( 4p)     0.00014       1.31213
   283    F   16  px     Ryd( 5p)     0.00001       6.20677
   284    F   16  py     Val( 2p)     1.80032      -0.49018
   285    F   16  py     Ryd( 3p)     0.00079       0.60063
   286    F   16  py     Ryd( 4p)     0.00026       1.35933
   287    F   16  py     Ryd( 5p)     0.00002       6.18590
   288    F   16  pz     Val( 2p)     1.78541      -0.49034
   289    F   16  pz     Ryd( 3p)     0.00088       0.56219
   290    F   16  pz     Ryd( 4p)     0.00027       1.34559
   291    F   16  pz     Ryd( 5p)     0.00002       6.15224
   292    F   16  dxy    Ryd( 3d)     0.00031       3.77717
   293    F   16  dxz    Ryd( 3d)     0.00036       3.79076
   294    F   16  dyz    Ryd( 3d)     0.00080       3.94158
   295    F   16  dx2y2  Ryd( 3d)     0.00034       3.79451
   296    F   16  dz2    Ryd( 3d)     0.00051       3.80441

   297    C   17  S      Cor( 1S)     1.99920     -10.11252
   298    C   17  S      Val( 2S)     0.84830      -0.15512
   299    C   17  S      Ryd( 4S)     0.01009       0.73909
   300    C   17  S      Ryd( 3S)     0.00017       0.69870
   301    C   17  S      Ryd( 5S)     0.00004      23.11831
   302    C   17  px     Val( 2p)     0.95803      -0.03542
   303    C   17  px     Ryd( 3p)     0.01210       0.92779
   304    C   17  px     Ryd( 4p)     0.00026       1.18960
   305    C   17  px     Ryd( 5p)     0.00003       1.77850
   306    C   17  py     Val( 2p)     0.94610      -0.06105
   307    C   17  py     Ryd( 3p)     0.00987       0.85270
   308    C   17  py     Ryd( 4p)     0.00023       1.18069
   309    C   17  py     Ryd( 5p)     0.00003       1.79858
   310    C   17  pz     Val( 2p)     0.91946      -0.12022
   311    C   17  pz     Ryd( 3p)     0.00026       0.60267
   312    C   17  pz     Ryd( 4p)     0.00011       1.07584
   313    C   17  pz     Ryd( 5p)     0.00002       1.81618
   314    C   17  dxy    Ryd( 3d)     0.00037       2.83845
   315    C   17  dxz    Ryd( 3d)     0.00070       1.82094
   316    C   17  dyz    Ryd( 3d)     0.00050       1.68774
   317    C   17  dx2y2  Ryd( 3d)     0.00094       2.26361
   318    C   17  dz2    Ryd( 3d)     0.00014       1.91918

   319    N   18  S      Cor( 1S)     1.99958     -14.07258
   320    N   18  S      Val( 2S)     1.58608      -0.59475
   321    N   18  S      Ryd( 3S)     0.00451       1.69546
   322    N   18  S      Ryd( 4S)     0.00004       2.40338
   323    N   18  S      Ryd( 5S)     0.00000      33.55175
   324    N   18  px     Val( 2p)     1.34321      -0.18841
   325    N   18  px     Ryd( 3p)     0.00134       0.55877
   326    N   18  px     Ryd( 4p)     0.00015       2.46933
   327    N   18  px     Ryd( 5p)     0.00003       2.48847
   328    N   18  py     Val( 2p)     1.26239      -0.18188
   329    N   18  py     Ryd( 3p)     0.00100       0.55764
   330    N   18  py     Ryd( 4p)     0.00011       2.33819
   331    N   18  py     Ryd( 5p)     0.00001       2.48651
   332    N   18  pz     Val( 2p)     1.09481      -0.16698
   333    N   18  pz     Ryd( 3p)     0.00043       0.52898
   334    N   18  pz     Ryd( 4p)     0.00000       2.04074
   335    N   18  pz     Ryd( 5p)     0.00002       2.41453
   336    N   18  dxy    Ryd( 3d)     0.00472       2.45466
   337    N   18  dxz    Ryd( 3d)     0.00221       2.01642
   338    N   18  dyz    Ryd( 3d)     0.00156       1.99841
   339    N   18  dx2y2  Ryd( 3d)     0.00382       2.12926
   340    N   18  dz2    Ryd( 3d)     0.00160       2.12653

 WARNING:  1 low occupancy (<1.9990e) core orbital  found on  C    1
           1 low occupancy (<1.9990e) core orbital  found on  C    2
           1 low occupancy (<1.9990e) core orbital  found on  C    6
           1 low occupancy (<1.9990e) core orbital  found on  S   11

 WARNING:  Population inversion found on atom  C    1
           Population inversion found on atom  C    2
           Population inversion found on atom  C    3
           Population inversion found on atom  C    4
           Population inversion found on atom  C    5
           Population inversion found on atom  C    6
           Population inversion found on atom  S   11
           Population inversion found on atom  F   12
           Population inversion found on atom  F   13
           Population inversion found on atom  F   15
           Population inversion found on atom  F   16
           Population inversion found on atom  C   17
           Population inversion found on atom  N   18


 Summary of Natural Population Analysis:                  
                                                          
                                       Natural Population 
                Natural  -----------------------------------------------
    Atom  No    Charge         Core      Valence    Rydberg      Total
 -----------------------------------------------------------------------
      C    1   -0.15728      1.99891     4.14004    0.01833     6.15728
      C    2   -0.22095      1.99873     4.19544    0.02678     6.22095
      C    3   -0.16990      1.99901     4.15120    0.01970     6.16990
      C    4   -0.19217      1.99913     4.17562    0.01742     6.19217
      C    5   -0.15183      1.99905     4.13651    0.01627     6.15183
      C    6   -0.13697      1.99879     4.11974    0.01844     6.13697
      H    7    0.25290      0.00000     0.74548    0.00161     0.74710
      H    8    0.24142      0.00000     0.75691    0.00167     0.75858
      H    9    0.22780      0.00000     0.77091    0.00129     0.77220
      H   10    0.23251      0.00000     0.76625    0.00124     0.76749
      S   11    2.37537      9.99813     3.42905    0.19746    13.62463
      F   12   -0.46404      1.99995     7.45707    0.00702     9.46404
      F   13   -0.46403      1.99995     7.45707    0.00702     9.46403
      F   14   -0.42918      1.99995     7.42166    0.00757     9.42918
      F   15   -0.46454      1.99995     7.45755    0.00704     9.46454
      F   16   -0.46454      1.99995     7.45755    0.00704     9.46454
      C   17    0.29306      1.99920     3.67190    0.03585     5.70694
      N   18   -0.30764      1.99958     5.28648    0.02157     7.30764
 =======================================================================
   * Total *    0.00000     35.99026    77.59642    0.41331   114.00000

                                 Natural Population      
 --------------------------------------------------------
   Core                      35.99026 ( 99.9730% of  36)
   Valence                   77.59642 ( 99.4826% of  78)
   Natural Minimal Basis    113.58669 ( 99.6374% of 114)
   Natural Rydberg Basis      0.41331 (  0.3626% of 114)
 --------------------------------------------------------

    Atom  No          Natural Electron Configuration
 ----------------------------------------------------------------------------
      C    1      [core]2S( 0.94)2p( 3.20)4p( 0.01)
      C    2      [core]2S( 0.96)2p( 3.23)4p( 0.02)
      C    3      [core]2S( 0.95)2p( 3.20)4p( 0.01)
      C    4      [core]2S( 0.96)2p( 3.22)4p( 0.01)
      C    5      [core]2S( 0.95)2p( 3.19)4p( 0.01)
      C    6      [core]2S( 0.90)2p( 3.22)4p( 0.01)
      H    7            1S( 0.75)
      H    8            1S( 0.76)
      H    9            1S( 0.77)
      H   10            1S( 0.77)
      S   11      [core]3S( 1.09)3p( 2.34)3d( 0.16)6p( 0.02)
      F   12      [core]2S( 1.92)2p( 5.54)
      F   13      [core]2S( 1.92)2p( 5.54)
      F   14      [core]2S( 1.92)2p( 5.51)
      F   15      [core]2S( 1.92)2p( 5.54)
      F   16      [core]2S( 1.92)2p( 5.54)
      C   17      [core]2S( 0.85)2p( 2.82)3p( 0.02)4S( 0.01)
      N   18      [core]2S( 1.59)2p( 3.70)3d( 0.01)


 NBO analysis skipped by request.
 Calling FoFJK, ICntrl=      2127 FMM=F ISym2X=0 I1Cent= 0 IOpClX= 0 NMat=1 NMatS=1 NMatT=0.
 ***** Axes restored to original set *****
 -------------------------------------------------------------------
 Center     Atomic                   Forces (Hartrees/Bohr)
 Number     Number              X              Y              Z
 -------------------------------------------------------------------
      1        6          -0.014487693   -0.010656108    0.000167982
      2        6          -0.001149860    0.034956762   -0.000371980
      3        6           0.011902334   -0.003990997   -0.000043927
      4        6           0.002442678    0.002665927   -0.000010302
      5        6           0.003439372    0.015319397   -0.000196753
      6        6          -0.039773373    0.022621127   -0.000220347
      7        1           0.010114703    0.007756685   -0.000135269
      8        1          -0.010246373    0.007060168   -0.000065769
      9        1          -0.009537155   -0.005892061    0.000090549
     10        1          -0.000367825   -0.010944823    0.000158181
     11       16          -0.001725493    0.038717369   -0.000557493
     12        9          -0.021431368   -0.014166106   -0.021973664
     13        9          -0.021276826   -0.013557688    0.022504080
     14        9           0.000275033   -0.015704451    0.000219144
     15        9           0.021847357   -0.012832923    0.022268847
     16        9           0.021706836   -0.013442565   -0.022041838
     17        6           0.063624525   -0.036823461    0.000273625
     18        7          -0.015356873    0.008913749   -0.000065066
 -------------------------------------------------------------------
 Cartesian Forces:  Max     0.063624525 RMS     0.017559774

 GradGradGradGradGradGradGradGradGradGradGradGradGradGradGradGradGradGrad
 Berny optimization.
 FormGI is forming the generalized inverse of G from B-inverse, IUseBI=4.
 Internal  Forces:  Max     0.055749411 RMS     0.011093153
 Search for a local minimum.
 Step number   1 out of a maximum of   98
 All quantities printed in internal units (Hartrees-Bohrs-Radians)
 Mixed Optimization -- RFO/linear search
 Second derivative matrix not updated -- first step.
 ITU=  0
     Eigenvalues ---    0.00635   0.01440   0.02152   0.02153   0.02154
     Eigenvalues ---    0.02155   0.02155   0.02155   0.02156   0.02157
     Eigenvalues ---    0.05044   0.05044   0.09374   0.09374   0.13743
     Eigenvalues ---    0.13743   0.13743   0.13743   0.16000   0.16000
     Eigenvalues ---    0.16000   0.16000   0.16878   0.22000   0.23479
     Eigenvalues ---    0.23493   0.25000   0.25000   0.25000   0.25000
     Eigenvalues ---    0.27758   0.28519   0.33709   0.33718   0.33718
     Eigenvalues ---    0.33725   0.42204   0.42409   0.46412   0.46453
     Eigenvalues ---    0.46466   0.46497   0.53201   0.53201   0.53201
     Eigenvalues ---    0.53201   0.53201   1.36980
 RFO step:  Lambda=-3.21155946D-02 EMin= 6.34863063D-03
 Linear search not attempted -- first point.
 Maximum step size (   0.300) exceeded in Quadratic search.
    -- Step size scaled by   0.876
 Iteration  1 RMS(Cart)=  0.05072769 RMS(Int)=  0.00110147
 Iteration  2 RMS(Cart)=  0.00101850 RMS(Int)=  0.00058477
 Iteration  3 RMS(Cart)=  0.00000140 RMS(Int)=  0.00058477
 Iteration  4 RMS(Cart)=  0.00000000 RMS(Int)=  0.00058477
 Variable       Old X    -DE/DX   Delta X   Delta X   Delta X     New X
                                 (Linear)    (Quad)   (Total)
    R1        2.63647  -0.00285   0.00000  -0.00480  -0.00480   2.63167
    R2        2.63584  -0.00157   0.00000  -0.00253  -0.00253   2.63332
    R3        2.07796  -0.01266   0.00000  -0.03003  -0.03003   2.04793
    R4        2.63562   0.00103   0.00000   0.00181   0.00181   2.63743
    R5        3.36371   0.03098   0.00000   0.08766   0.08766   3.45137
    R6        2.63697  -0.00263   0.00000  -0.00488  -0.00489   2.63209
    R7        2.07809  -0.01239   0.00000  -0.02940  -0.02940   2.04869
    R8        2.63584  -0.00528   0.00000  -0.00955  -0.00955   2.62629
    R9        2.07809  -0.01121   0.00000  -0.02660  -0.02660   2.05149
   R10        2.63643  -0.00091   0.00000  -0.00161  -0.00160   2.63483
   R11        2.07825  -0.01094   0.00000  -0.02597  -0.02597   2.05228
   R12        2.91018  -0.05575   0.00000  -0.15397  -0.15397   2.75620
   R13        3.00466   0.03095   0.00000   0.04808   0.04808   3.05275
   R14        3.00466   0.03095   0.00000   0.04808   0.04808   3.05274
   R15        3.00466   0.01571   0.00000   0.02440   0.02440   3.02907
   R16        3.00466   0.03095   0.00000   0.04807   0.04807   3.05274
   R17        3.00466   0.03095   0.00000   0.04808   0.04808   3.05274
   R18        2.16676   0.01776   0.00000   0.01110   0.01110   2.17786
    A1        2.09437  -0.00396   0.00000  -0.01245  -0.01244   2.08192
    A2        2.09435   0.00353   0.00000   0.01329   0.01329   2.10763
    A3        2.09447   0.00043   0.00000  -0.00084  -0.00084   2.09363
    A4        2.09455   0.00027   0.00000   0.00162   0.00161   2.09616
    A5        2.09406  -0.00133   0.00000  -0.00452  -0.00452   2.08954
    A6        2.09458   0.00106   0.00000   0.00290   0.00290   2.09748
    A7        2.09429   0.00009   0.00000   0.00024   0.00022   2.09452
    A8        2.09462   0.00116   0.00000   0.00537   0.00538   2.10000
[...]
 3,-0.0018107,-0.0011492,-0.0013886,-0.0614681,0.0808353,0.0409624,-0.0
 006023,-0.0945405,0.1012293,-0.0001329,0.0012528,-0.0006059,0.0677331,
 0.0816237,-0.0167386,0.0003986,-0.0203812,0.1162518,0.0002774,0.000450
 9,0.0002647,0.1315418,0.0730259,0.028214,-0.0001972,0.02696,0.1029065,
 0.0002472,-0.0001777,0.0002424,0.1277793,-0.0061642,-0.0350264,0.00098
 32,-0.0443085,0.0246448,0.0017437,0.001109,0.0017134,0.1415019,0.09166
 85,0.0119841,-0.0000072,0.0063821,-0.0040528,0.0019002,0.0000695,0.001
 8754,0.1370593,2.7059975,-0.0089783,0.0010322,-0.170401,3.5774797,-0.0
 076703,0.0032293,-0.0082185,2.971557,-0.5823952,-0.2104118,-0.2903752,
 -0.0470159,-0.6875862,-0.0770839,-0.247818,-0.2005916,-0.6459878,-0.57
 87201,-0.2010601,0.2954916,-0.0397315,-0.6799767,0.0782523,0.2485142,0
 .2028599,-0.6572701,-0.3574187,0.01177,-0.000243,0.0385693,-1.0090048,
 0.0084142,-0.0006077,0.0085052,-0.3815535,-0.6351269,0.2021552,-0.3019
 65,0.109964,-0.6721468,0.0685411,-0.2963935,0.1884023,-0.6566606,-0.63
 10925,0.2090113,0.2962137,0.1175234,-0.6791542,-0.0687588,0.2931432,-0
 .1892392,-0.653683,0.2507298,-0.1565902,0.001671,-0.1205737,0.0922687,
 0.0007449,0.0011729,0.0008746,0.1165628,-0.3505434,0.0709735,-0.000771
 3,0.0487694,-0.3109362,0.0000591,-0.0004694,-0.0000168,-0.2942255\Pola
 r=129.8806891,-18.5547443,134.4273417,0.0375646,-0.8532516,67.102937\P
 G=C01 [X(C7H4F5N1S1)]\NImag=0\\0.73623468,0.04380981,0.66367749,-0.002
 66802,-0.00739558,0.13154883,-0.29336637,0.05148590,0.00011649,0.70378
 494,0.11175119,-0.15040328,0.00092366,0.00052790,0.47220590,-0.0007041
 6,0.00113036,-0.05447169,-0.00192767,-0.00448634,0.14293533,-0.0594796
 8,0.02225313,-0.00007668,-0.28104063,-0.11319743,0.00231609,0.72415445
 ,-0.02720534,0.06281951,-0.00067213,-0.05061102,-0.15327069,0.00151362
 ,-0.05010451,0.67208819,0.00059676,-0.00084170,0.00661525,0.00146411,0
 .00172809,-0.05483618,-0.00134072,-0.00715998,0.13380242,-0.01908496,0
 .02949210,-0.00035001,0.03457552,-0.02529504,0.00024436,-0.12765754,-0
 .02992569,0.00063321,0.72527360,0.03212583,-0.04908864,0.00050260,-0.0
 7951924,-0.03248939,0.00078845,0.04155337,-0.32968137,0.00350601,0.033
 56453,0.67648561,-0.00038612,0.00051186,-0.00409353,0.00098292,0.00060
 265,0.00538878,-0.00034037,0.00375113,-0.06187244,-0.00248470,-0.00751
 151,0.13356035,0.03651978,-0.07237852,0.00088700,-0.06831414,0.0002374
 9,0.00021352,0.03448197,0.07639671,-0.00113803,-0.29117013,0.05760812,
 -0.00000479,0.65750575,-0.02850780,-0.02892154,0.00059700,-0.00119465,
 -0.00138486,-0.00004530,0.03102000,-0.02635660,0.00033399,0.12103814,-
 0.18043242,0.00118008,-0.01788666,0.74667481,0.00028915,0.00074693,0.0
 0771537,0.00023336,-0.00005030,-0.00501870,-0.00052021,0.00017823,0.00
 596759,-0.00086812,0.00139730,-0.06337410,-0.00153544,-0.00821631,0.13
 891840,-0.11727420,0.02009542,-0.00008289,0.02434992,0.02599891,-0.000
 42046,-0.01509668,-0.02770201,0.00041313,-0.05885712,0.02243844,-0.000
 07749,-0.24959146,-0.11332090,0.00217881,0.66202819,-0.03806767,-0.307
 25953,0.00347415,0.08058577,-0.02989190,0.00019659,-0.03160249,-0.0508
 6252,0.00073827,-0.02264145,0.06153327,-0.00065710,-0.05997149,-0.1789
 4972,0.00176252,-0.01332190,0.64576276,0.00070929,0.00327503,-0.061571
 51,-0.00116410,0.00038408,0.00483761,0.00046633,0.00072492,-0.00461143
 ,0.00053581,-0.00081147,0.00760435,0.00145231,0.00194525,-0.06474632,-
 0.00160458,-0.00682631,0.14119035,-0.27509162,-0.12779682,0.00255696,-
 0.01671774,-0.01395738,0.00025692,-0.00273011,0.00377144,-0.00002070,0
 .00039187,0.00062000,-0.00001410,0.00098401,0.00127148,0.00000144,0.00
 583792,0.00345196,-0.00005233,0.28701143,-0.12839802,-0.13227842,0.001
 74079,0.01311065,0.01187783,-0.00016840,0.00349111,-0.00173470,0.00009
 631,0.00057852,-0.00063268,-0.00001052,0.00155433,-0.00506819,0.000151
 43,-0.02618697,-0.01103916,0.00029833,0.13512250,0.14027120,0.00256571
 ,0.00173884,-0.03676092,-0.00011184,-0.00007562,0.00280670,-0.00001681
 ,0.00009546,0.00621495,-0.00001346,-0.00001073,-0.00125994,-0.00000242
 ,0.00015242,0.00644905,0.00035091,0.00019660,0.00427085,-0.00273860,-0
 .00203579,0.02480334,-0.00265566,-0.00381423,0.00008238,-0.01773728,0.
 01324670,-0.00011101,-0.28054707,0.12178153,-0.00082537,0.00533469,-0.
 00223385,0.00002906,0.00125648,-0.00098118,0.00003433,0.00044810,-0.00
 057059,0.00000189,-0.00063432,0.00077772,-0.00000712,0.29342903,-0.003
 51046,-0.00178811,0.00012119,-0.01436238,0.01126227,-0.00007003,0.1239
 9966,-0.12494549,0.00076503,0.02750097,-0.00963611,0.00010416,-0.00075
 107,-0.00528912,0.00017490,-0.00075641,-0.00086306,-0.00000290,-0.0007
 8946,0.00059854,-0.00000027,-0.13060434,0.13223402,0.00007816,0.000122
 21,0.00622765,0.00026502,-0.00016456,0.00250831,-0.00085535,0.00077242
 ,-0.03756679,-0.00037603,0.00020623,0.00493146,0.00003127,0.00017578,0
 .00736363,0.00000443,-0.00000358,-0.00126574,0.00001422,-0.00000564,0.
 00038072,0.00085813,-0.00101290,0.02498264,0.00014050,0.00079385,-0.00
 001552,0.00150402,0.00065153,0.00000846,0.00472408,0.00300067,-0.00004
 432,-0.26773672,-0.12398410,0.00247725,-0.01835542,-0.01541619,0.00028
 515,-0.00259037,0.00332080,-0.00001220,-0.00001011,-0.00005818,-0.0000
 0155,0.00067417,-0.00021880,-0.00001361,0.28144193,0.00083918,-0.00087
 533,-0.00000782,0.00097076,-0.00444463,0.00014663,-0.02758728,-0.01281
 607,0.00031966,-0.12387336,-0.13143240,0.00170307,0.01521174,0.0117656
 6,-0.00016386,0.00343529,-0.00065271,0.00009333,-0.00005981,0.00004223
 ,-0.00000982,0.00013873,0.00108836,-0.00007208,0.13181839,0.13702638,-
 0.00001618,-0.00000760,-0.00123796,0.00000412,0.00014774,0.00656421,0.
 00037231,0.00021482,0.00370874,0.00247583,0.00170344,-0.03759449,-0.00
 013208,-0.00005896,0.00356472,-0.00001372,0.00009363,0.00706178,-0.000
 00153,-0.00000982,-0.00069349,-0.00001850,-0.00007083,-0.00416733,-0.0
 0267043,-0.00196329,0.02608282,-0.00457621,-0.00235650,0.00006928,-0.0
 0142689,-0.00005853,0.00000425,-0.00452393,0.00258023,0.00000552,0.004
 40181,0.02798858,-0.00038039,-0.05931964,0.00685393,-0.00002474,0.0035
 9899,-0.02770958,0.00037825,0.00030622,-0.00126412,0.00001668,0.000161
 75,0.00123327,-0.00001820,0.00088123,-0.00040687,-0.00001157,0.0592992
 6,-0.00267522,0.00044975,0.00008824,0.00011466,0.00091380,-0.00001856,
 0.00241235,0.00052179,0.00008457,-0.00214365,-0.00900492,0.00019241,0.
 00499042,-0.34321756,0.00411919,0.00296868,-0.01046565,0.00018515,0.00
 023748,-0.00043762,0.00000726,-0.00023779,-0.00043590,0.00000342,0.000
 11365,0.00070385,-0.00006587,-0.00615960,0.36056681,0.00007369,0.00008
 715,0.00625561,0.00000194,-0.00001804,-0.00042041,0.00000771,0.0000839
 9,0.00734023,0.00002969,0.00008950,0.00459174,0.00000065,0.00411200,-0
 .03941842,-0.00003938,0.00029084,0.00388496,-0.00000376,0.00001244,0.0
 0015562,0.00000184,-0.00000162,-0.00024554,-0.00001864,-0.00006414,-0.
 00410650,-0.00002981,-0.00453068,0.02624529,0.00961167,0.01913505,-0.0
 0029694,-0.06141156,0.00058227,0.00005762,0.01124471,-0.01797545,0.000
 20147,-0.00511415,-0.00513818,0.00010052,-0.00377504,-0.00016289,0.000
 01556,-0.00524593,0.00554152,-0.00004406,-0.00410812,0.00453456,-0.000
 04557,-0.00433069,-0.00456074,0.00007926,0.00018363,-0.00125218,0.0000
 1809,-0.00053130,0.00000146,0.00000048,0.54490996,0.01069495,-0.022439
 10,0.00025477,0.00039037,-0.10012698,0.00078469,-0.00963413,-0.0224546
 7,0.00032048,-0.00416991,0.00436139,0.00000656,-0.00039833,0.00244449,
 -0.00003021,0.00349813,0.00549392,-0.00003343,-0.00016633,0.00063010,0
 .00000016,0.00023298,0.00026888,0.00000479,0.00052190,0.00038223,-0.00
 000043,-0.00000180,-0.00003821,-0.00000467,-0.00120244,0.55659369,-0.0
 0018211,0.00022579,-0.00104418,0.00006011,0.00078444,-0.04237240,0.000
 08809,0.00034903,-0.00134905,0.00008737,0.00000986,0.00379887,0.000018
 67,-0.00003091,0.00013221,-0.00001614,-0.00004039,0.00391203,0.0000184
 4,-0.00001599,0.00060354,0.00001394,0.00002123,0.00067669,-0.00000608,
 0.00000565,0.00048235,0.00000052,-0.00000477,-0.00038838,-0.00006473,-
 0.00047323,0.52157636,-0.00311685,-0.00112685,0.00058203,-0.00793530,0
 .00561916,-0.00970110,0.00249026,-0.00366331,-0.00132080,-0.00093677,0
 .00020436,0.00089993,0.00015909,-0.00014865,-0.00022220,0.00133559,-0.
 00042978,0.00092865,0.00136035,-0.00039661,-0.00110716,0.00042071,0.00
 066290,-0.00023858,0.00012920,-0.00043932,0.00015609,0.00014394,0.0000
 1297,-0.00021253,-0.10575844,-0.01389475,-0.04897883,0.14943886,0.0003
 0308,-0.00398728,-0.00255462,-0.01933916,-0.00479275,-0.01457752,0.004
 02533,-0.00213546,-0.00228851,-0.00056064,-0.00149617,0.00133887,-0.00
 116377,-0.00056012,-0.00020705,-0.00045979,0.00097108,0.00029194,-0.00
 088965,-0.00159576,-0.00032392,-0.00004375,0.00002663,-0.00034589,0.00
 006434,-0.00045702,0.00018671,-0.00004035,-0.00002313,-0.00005131,-0.0
 1537598,-0.06817859,-0.01668492,0.00339196,0.07918678,-0.00035939,-0.0
 0260654,0.00000665,-0.01309852,0.00720867,-0.00377795,0.00296466,-0.00
 493807,-0.00104576,-0.00175119,0.00004762,0.00057642,0.00011136,-0.000
 26797,-0.00018297,0.00033974,-0.00007710,0.00039005,0.00005621,-0.0010
 2795,-0.00115838,0.00015783,0.00031006,-0.00032961,0.00016468,-0.00054
 173,0.00011192,0.00004084,-0.00002497,-0.00012832,-0.04881530,-0.01495
 841,-0.10654334,0.08044187,0.00631070,0.14815578,-0.00311838,-0.001123
 59,-0.00053062,-0.00777982,0.00583211,0.00957229,0.00247905,-0.0035928
 3,0.00139487,-0.00093099,0.00017981,-0.00089475,0.00015994,-0.00014069
 ,0.00022377,0.00132709,-0.00045445,-0.00092294,0.00136752,-0.00035926,
 0.00109987,0.00042121,0.00066692,0.00021534,0.00012705,-0.00043968,-0.
 00014425,0.00014512,0.00001889,0.00021019,-0.10509464,-0.01245836,0.04
 932781,0.00736190,0.00057645,-0.01025238,0.14834930,0.00033115,-0.0038
 4444,0.00265756,-0.01887610,-0.00459055,0.01472784,0.00395851,-0.00193
 832,0.00228563,-0.00052173,-0.00153232,-0.00127781,-0.00116488,-0.0005
 4679,0.00022504,-0.00047111,0.00096486,-0.00030436,-0.00088897,-0.0015
 5903,0.00034103,-0.00004575,0.00002729,0.00033644,0.00005860,-0.000446
 92,-0.00017186,-0.00004114,-0.00002114,0.00004860,-0.01393141,-0.06734
 375,0.01570793,0.00083549,0.00854111,-0.00294735,0.00116430,0.07889645
 ,0.00037156,0.00271915,-0.00013538,0.01364557,-0.00722756,-0.00413718,
 -0.00309803,0.00498738,-0.00123150,0.00177641,0.00000832,0.00060651,-0
 .00008212,0.00027884,-0.00019712,-0.00033340,0.00006463,0.00040474,-0.
 00004939,0.00104159,-0.00120280,-0.00016175,-0.00032433,-0.00033068,-0
 .00016649,0.00055998,0.00010392,-0.00004161,0.00002192,-0.00013144,0.0
 4920459,0.01397185,-0.10804770,0.00993795,0.00172548,-0.03614561,-0.08
 050748,-0.00442584,0.14954403,-0.00067874,-0.00065812,0.00001103,0.003
 33591,0.00009014,-0.00000524,-0.00082077,0.00063777,-0.00000578,0.0003
 5634,0.00042686,-0.00000661,0.00022246,-0.00001836,-0.00000152,0.00027
 438,-0.00049654,0.00000708,0.00026107,-0.00028952,0.00000226,0.0002838
 4,0.00026481,-0.00000539,-0.00000943,0.00006997,-0.00000106,0.00005023
 ,-0.00000023,-0.00000018,-0.05837754,0.00176920,-0.00002158,-0.0082603
 9,0.02874976,-0.01644568,-0.00803837,0.02899475,0.01566689,0.08487248,
 -0.00021814,0.00019968,-0.00000311,0.00005876,-0.00115320,0.00004506,0
 .00027077,0.00024409,-0.00000404,0.00023749,-0.00017902,0.00000349,-0.
 00003324,-0.00026534,-0.00000055,-0.00018660,-0.00004565,0.00000668,-0
 .00026830,0.00017043,-0.00000460,0.00025893,0.00016402,-0.00000638,-0.
 00002190,-0.00008072,0.00000061,0.00000337,-0.00003255,0.00000039,0.00
 162317,-0.15551425,0.00132656,0.01218214,-0.02057195,0.01195240,0.0125
 5574,-0.02166543,-0.01165375,-0.00273326,0.24391691,0.00000503,-0.0000
 0154,-0.00007926,-0.00000478,0.00004487,0.00216646,-0.00000082,-0.0000
 0525,0.00001906,-0.00000400,0.00000282,0.00013396,-0.00000137,-0.00000
 057,-0.00031137,0.00000294,0.00000766,0.00039443,0.00000194,-0.0000045
 1,-0.00023503,-0.00000532,-0.00000642,-0.00023982,0.00000019,0.0000002
 9,-0.00004190,-0.00000023,0.00000040,-0.00000299,-0.00001966,0.0013263
 0,-0.05768199,-0.01682393,0.02843336,-0.00750121,0.01649461,-0.0282468
 8,-0.00663011,0.00003609,-0.00215986,0.08461718,0.00234431,0.00366675,
 -0.00150236,-0.00832655,-0.00615874,-0.00996590,-0.00332785,0.00151280
 ,0.00048497,0.00156724,0.00017633,0.00094525,-0.00011780,0.00019823,-0
 .00028094,-0.00049622,-0.00025133,0.00096359,0.00043151,-0.00067413,-0
 .00026727,0.00173609,0.00055680,-0.00111644,-0.00005660,0.00040780,0.0
 0002943,0.00013162,-0.00001761,-0.00018603,-0.10647233,0.01171815,-0.0
 4960823,-0.00052232,-0.00185492,-0.00414055,-0.03627237,0.00232357,-0.
 01038629,-0.00685372,-0.01211186,-0.01565868,0.14888213,-0.00360782,-0
 .00182735,0.00225822,0.01910238,-0.00443890,0.01437051,-0.00026704,-0.
 00395767,0.00259033,0.00036744,0.00108555,-0.00002444,0.00118177,-0.00
 047583,0.00015037,0.00043937,-0.00156336,-0.00137072,0.00001829,-0.000
 02223,0.00037996,0.00103047,-0.00134635,0.00026096,-0.00006843,-0.0000
 7199,-0.00001780,0.00005658,-0.00002709,0.00002467,0.01316295,-0.06669
 090,0.01421972,0.00144640,0.00789627,0.00113822,-0.00372382,0.00714734
 ,-0.00053069,-0.02873840,-0.02311538,-0.02860621,0.00057736,0.07924023
 ,0.00253856,0.00503823,-0.00124226,-0.01341992,-0.00757907,-0.00407822
 ,-0.00053913,0.00285925,-0.00010092,0.00048197,-0.00004388,0.00045896,
 -0.00000766,0.00032301,-0.00022193,-0.00123057,-0.00020249,0.00058379,
 0.00019641,-0.00031520,-0.00038039,-0.00001422,0.00091564,-0.00110045,
 -0.00002102,0.00028172,-0.00005466,0.00002553,0.00002331,-0.00011417,-
 0.04965818,0.01241023,-0.10710058,-0.00415152,-0.00145959,-0.00131057,
 0.01070508,-0.00019556,0.00885490,-0.01533419,-0.01211701,-0.00658584,
 0.08062600,-0.00198569,0.14852991,0.00233723,0.00367180,0.00137885,-0.
 00816854,-0.00583370,0.01015711,-0.00332767,0.00147995,-0.00050318,0.0
 0155750,0.00015059,-0.00095719,-0.00011599,0.00020360,0.00027479,-0.00
 049447,-0.00027582,-0.00094923,0.00043205,-0.00066452,0.00027991,0.001
 74378,0.00058061,0.00108153,-0.00005669,0.00040493,-0.00004047,0.00013
 272,-0.00001273,0.00018477,-0.10579797,0.01297607,0.04926344,-0.036272
 72,0.00261103,0.01062534,-0.00046608,-0.00173255,0.00418370,-0.0066396
 5,-0.01159710,0.01597812,0.00734234,-0.00089531,-0.01017148,0.14778467
 ,-0.00369120,-0.00202566,-0.00221180,0.01936260,-0.00462402,-0.0144881
 1,-0.00026958,-0.00410361,-0.00247959,0.00035430,0.00108684,0.00000495
 ,0.00118041,-0.00048866,-0.00015118,0.00048249,-0.00151892,0.00142472,
 0.00001021,-0.00002417,-0.00038974,0.00102863,-0.00137865,-0.00026073,
 -0.00006771,-0.00007918,0.00001894,0.00005567,-0.00002847,-0.00002743,
 0.01440873,-0.06744866,-0.01540195,-0.00400583,0.00716848,0.00060274,0
 .00155025,0.00789828,-0.00139999,-0.02811389,-0.02199103,0.02921591,-0
 .00060773,0.00848869,0.00149805,-0.00159694,0.07940045,-0.00246287,-0.
 00504173,-0.00103687,0.01292424,0.00763288,-0.00405008,0.00056891,-0.0
 0276047,0.00004419,-0.00049922,0.00002578,0.00046743,-0.00002522,-0.00
 031716,-0.00021093,0.00122522,0.00026159,0.00053748,-0.00020236,0.0003
 1007,-0.00037888,-0.00003308,-0.00091223,-0.00107593,0.00002290,-0.000
 28382,-0.00004737,-0.00002875,-0.00002555,-0.00011388,0.04927417,-0.01
 358302,-0.10701314,-0.01029361,0.00022465,0.00883357,0.00410491,0.0012
 2023,-0.00136882,0.01610489,0.01261427,-0.00792439,0.00989573,-0.00271
 286,-0.03629660,-0.08060479,0.00388669,0.14946349,-0.00777169,0.023317
 59,-0.00028393,0.00703916,-0.00099425,0.00001363,-0.00191401,-0.000553
 04,0.00000961,-0.00098703,-0.00745324,0.00012998,-0.04828579,0.0142579
 7,-0.00002103,-0.23887760,0.08530413,-0.00054688,0.00101419,-0.0013868
 9,0.00000140,-0.00002587,0.00011229,-0.00000454,-0.00088071,0.00066013
 ,-0.00000444,0.00136453,0.00071277,-0.00002753,0.00106247,0.00236749,-
 0.00003296,-0.00050384,-0.00041937,-0.00039591,-0.00050150,-0.00040836
 ,0.00041032,-0.00007119,-0.00034266,0.00000443,0.00019149,-0.00060603,
 0.00023067,0.00018859,-0.00061062,-0.00021431,1.21702969,0.03875568,-0
 .02672455,0.00025886,-0.00277535,-0.00519728,0.00017637,-0.00024023,-0
 .00208275,0.00001154,-0.00582060,0.00134012,0.00010111,-0.00136509,0.0
 1618953,-0.00018509,0.08594075,-0.13203591,0.00069737,0.00044838,0.000
 82423,-0.00006858,0.00003405,-0.00003117,-0.00001199,-0.00077674,0.000
 63982,-0.00000003,-0.00118501,0.00030996,-0.00005248,0.00070497,-0.000
 92618,0.00002170,-0.00020255,0.00020334,-0.00011218,-0.00020340,0.0002
 0650,0.00010684,0.00005147,0.00008453,-0.00000322,0.00046694,-0.000128
 21,0.00047812,0.00045825,-0.00013544,-0.00047341,-0.61860433,0.4688401
 2,-0.00049389,0.00031147,0.00202320,0.00003783,0.00017023,0.00706170,0
 .00000529,0.00001261,-0.00129741,0.00010769,0.00010684,0.00729488,0.00
 019227,-0.00023863,0.00226747,-0.00055621,0.00069975,-0.05924551,-0.00
 002363,-0.00006229,-0.00409788,-0.00000347,-0.00001226,-0.00090251,0.0
 0001513,-0.00000497,0.00044200,-0.00000172,-0.00005893,-0.00383999,-0.
 00001035,0.00001594,0.00084679,0.00006292,-0.00000768,-0.00003885,-0.0
 0005422,0.00000386,-0.00004437,-0.00000092,-0.00000188,-0.00013961,0.0
 0019480,-0.00020468,0.00015150,-0.00020764,0.00021674,0.00016159,0.004
 55641,-0.00309650,0.08614139,-0.00097382,-0.00846677,0.00012294,-0.002
 36465,0.00095768,-0.00000871,0.00089142,0.00017211,-0.00000472,-0.0009
 8318,0.00129178,-0.00001839,0.00775594,0.00293462,-0.00006215,-0.01067
 616,0.01758892,-0.00014688,-0.00010612,0.00050884,-0.00000493,0.000021
 03,-0.00002456,0.00000079,-0.00010976,0.00010158,-0.00000162,-0.000239
 47,-0.00033650,0.00000690,-0.00099474,-0.00224320,0.00003227,0.0004667
 3,0.00042543,0.00035640,0.00046398,0.00041563,-0.00037041,0.00009311,0
 .00032269,-0.00000457,-0.00018098,0.00052383,-0.00025632,-0.00017909,0
 .00053022,0.00024324,-0.92807091,0.50431282,-0.00382029,0.93518667,-0.
 00272923,0.00431680,-0.00003200,0.00096816,0.00054861,-0.00002585,-0.0
 0008153,0.00066633,-0.00000609,0.00181858,-0.00028735,-0.00001893,-0.0
 0324794,-0.00511774,0.00009865,0.01710823,0.01042220,0.00002236,-0.000
 13500,-0.00002258,0.00000735,0.00000172,0.00004396,0.00000148,0.000268
 33,-0.00029157,0.00000062,0.00045187,0.00026625,0.00000078,-0.00009543
 ,0.00098661,-0.00001975,-0.00004774,-0.00019546,-0.00006814,-0.0000483
 8,-0.00019314,0.00007616,-0.00000641,-0.00016512,0.00000285,0.00007159
 ,-0.00019281,0.00007095,0.00007185,-0.00019629,-0.00006591,0.50464642,
 -0.32137666,0.00215039,-0.51901511,0.31078797,0.00004484,-0.00001235,0
 .00128102,-0.00000887,-0.00002579,-0.00110630,-0.00000124,-0.00000696,
 0.00019906,-0.00002558,-0.00001716,-0.00121921,0.00002209,0.00007745,0
 .00130342,-0.00014033,0.00002073,0.01636809,0.00000386,0.00000515,0.00
 048295,0.00000043,0.00000158,0.00015331,-0.00000389,0.00000119,-0.0001
 7875,-0.00000384,0.00000346,0.00043657,0.00000303,-0.00001238,-0.00048
 807,0.00004082,-0.00001070,0.00008817,-0.00004210,0.00001552,0.0000886
 3,-0.00000008,0.00000172,0.00004242,-0.00002709,0.00006013,0.00000754,
 0.00002643,-0.00005822,0.00000913,-0.00382492,0.00215156,-0.03678438,0
 .00393644,-0.00219492,0.01931639\\0.00023015,-0.00010521,-0.00000115,0
 .00000384,0.00015262,-0.00000074,-0.00017542,0.00003912,0.00000052,-0.
 00013003,-0.00005817,0.00000159,0.00022360,0.00004316,-0.00000404,-0.0
 0017916,0.00007545,0.00000267,-0.00011078,-0.00001128,0.00000074,0.000
 09870,-0.00003451,-0.00000012,0.00009073,0.00000626,-0.00000034,-0.000
 03224,0.00005845,-0.00000014,0.00008313,0.00018608,-0.00000048,0.00011
 418,-0.00004115,0.00009329,0.00011462,-0.00004272,-0.00009468,-0.00000
 069,-0.00012184,0.00000153,-0.00017868,-0.00004242,-0.00017260,-0.0001
 7675,-0.00003833,0.00017356,0.00022086,-0.00021222,0.00000181,-0.00019
 606,0.00014670,-0.00000142\\\@


 OF ALL THE WONDERS OF THE UNIVERSE, THE GREATEST IS MAN.

                                    -- ARISTOTLE
 Job cpu time:       0 days  1 hours 13 minutes 11.2 seconds.
 File lengths (MBytes):  RWF=    265 Int=      0 D2E=      0 Chk=     10 Scr=      1
 Normal termination of Gaussian 09 at Mon Jan  9 17:16:40 2023.
