 Entering Gaussian System, Link 0=g09
 Initial command:
 /cm/shared/apps/gaussian/g09revD.01/g09/l1.exe "//home/sweav003/CHB/CHActivation_Mkhalid/OtherCharges/G09-Chart4_9.com.o9447079.tmp/Gau-75353.inp" -scrdir="//home/sweav003/CHB/CHActivation_Mkhalid/OtherCharges/G09-Chart4_9.com.o9447079.tmp/"
 Entering Link 1 = /cm/shared/apps/gaussian/g09revD.01/g09/l1.exe PID=     75354.
  
 Copyright (c) 1988,1990,1992,1993,1995,1998,2003,2009,2013,
            Gaussian, Inc.  All Rights Reserved.
  
 This is part of the Gaussian(R) 09 program.  It is based on
 the Gaussian(R) 03 system (copyright 2003, Gaussian, Inc.),
 the Gaussian(R) 98 system (copyright 1998, Gaussian, Inc.),
 the Gaussian(R) 94 system (copyright 1995, Gaussian, Inc.),
 the Gaussian 92(TM) system (copyright 1992, Gaussian, Inc.),
 the Gaussian 90(TM) system (copyright 1990, Gaussian, Inc.),
 the Gaussian 88(TM) system (copyright 1988, Gaussian, Inc.),
 the Gaussian 86(TM) system (copyright 1986, Carnegie Mellon
 University), and the Gaussian 82(TM) system (copyright 1983,
 Carnegie Mellon University). Gaussian is a federally registered
 trademark of Gaussian, Inc.
  
 This software contains proprietary and confidential information,
 including trade secrets, belonging to Gaussian, Inc.
  
 This software is provided under written license and may be
 used, copied, transmitted, or stored only in accord with that
 written license.
  
 The following legend is applicable only to US Government
 contracts under FAR:
  
                    RESTRICTED RIGHTS LEGEND
  
 Use, reproduction and disclosure by the US Government is
 subject to restrictions as set forth in subparagraphs (a)
 and (c) of the Commercial Computer Software - Restricted
 Rights clause in FAR 52.227-19.
  
 Gaussian, Inc.
 340 Quinnipiac St., Bldg. 40, Wallingford CT 06492
  
  
 ---------------------------------------------------------------
 Warning -- This program may not be used in any manner that
 competes with the business of Gaussian, Inc. or will provide
 assistance to any competitor of Gaussian, Inc.  The licensee
 of this program is prohibited from giving any competitor of
 Gaussian, Inc. access to this program.  By using this program,
 the user acknowledges that Gaussian, Inc. is engaged in the
 business of creating and licensing software in the field of
 computational chemistry and represents and warrants to the
 licensee that it is not a competitor of Gaussian, Inc. and that
 it will not use this program in any manner prohibited above.
 ---------------------------------------------------------------
  

 Cite this work as:
 Gaussian 09, Revision D.01,
 M. J. Frisch, G. W. Trucks, H. B. Schlegel, G. E. Scuseria, 
 M. A. Robb, J. R. Cheeseman, G. Scalmani, V. Barone, B. Mennucci, 
 G. A. Petersson, H. Nakatsuji, M. Caricato, X. Li, H. P. Hratchian, 
 A. F. Izmaylov, J. Bloino, G. Zheng, J. L. Sonnenberg, M. Hada, 
 M. Ehara, K. Toyota, R. Fukuda, J. Hasegawa, M. Ishida, T. Nakajima, 
 Y. Honda, O. Kitao, H. Nakai, T. Vreven, J. A. Montgomery, Jr., 
 J. E. Peralta, F. Ogliaro, M. Bearpark, J. J. Heyd, E. Brothers, 
 K. N. Kudin, V. N. Staroverov, T. Keith, R. Kobayashi, J. Normand, 
 K. Raghavachari, A. Rendell, J. C. Burant, S. S. Iyengar, J. Tomasi, 
 M. Cossi, N. Rega, J. M. Millam, M. Klene, J. E. Knox, J. B. Cross, 
 V. Bakken, C. Adamo, J. Jaramillo, R. Gomperts, R. E. Stratmann, 
 O. Yazyev, A. J. Austin, R. Cammi, C. Pomelli, J. W. Ochterski, 
 R. L. Martin, K. Morokuma, V. G. Zakrzewski, G. A. Voth, 
 P. Salvador, J. J. Dannenberg, S. Dapprich, A. D. Daniels, 
 O. Farkas, J. B. Foresman, J. V. Ortiz, J. Cioslowski, 
 and D. J. Fox, Gaussian, Inc., Wallingford CT, 2013.
 
 ******************************************
 Gaussian 09:  ES64L-G09RevD.01 24-Apr-2013
                23-Jul-2021 
 ******************************************
 %mem=100MW
 %nprocshared=20
 Will use up to   20 processors via shared memory.
 ---------------------------------------------------------------------
 # b3lyp/6-311+g(d,p) geom=connectivity pop=(hirshfeld,chelpg,mbs,npa)
 ---------------------------------------------------------------------
 1/38=1,57=2/1;
 2/12=2,17=6,18=5,40=1/2;
 3/5=4,6=6,7=111,11=2,16=1,25=1,30=1,74=-5/1,2,3;
 4//1;
 5/5=2,38=5/2;
 6/7=2,8=2,9=2,10=2,15=8,20=3,27=100,28=1,40=-1,79=1/1,2,7;
 99/5=1,9=1/99;
 --------
 Chart4_9
 --------
 Symbolic Z-matrix:
 Charge =  0 Multiplicity = 1
 6                    -1.21509  -0.26647  -0.01247 
 6                    -1.20178   1.12253  -0.01548 
 6                     0.        1.80987   0. 
 6                     1.20178   1.12253   0.01548 
 6                     1.21509  -0.26647   0.01247 
 6                     0.       -0.94055   0. 
 1                    -2.12978   1.66776  -0.0283 
 1                     0.        2.88587   0. 
 1                     2.12978   1.66776   0.0283 
 1                     0.       -2.01817   0. 
 6                     2.51945  -1.02854  -0.00849 
 1                     2.42058  -1.99045   0.48272 
 1                     2.84266  -1.2107   -1.03044 
 1                     3.30546  -0.47356   0.49201 
 6                    -2.51945  -1.02854   0.00849 
 1                    -2.42058  -1.99045  -0.48272 
 1                    -2.84266  -1.2107    1.03044 
 1                    -3.30546  -0.47356  -0.49201 
 
                          Input orientation:                          
 ---------------------------------------------------------------------
 Center     Atomic      Atomic             Coordinates (Angstroms)
 Number     Number       Type             X           Y           Z
 ---------------------------------------------------------------------
      1          6           0       -1.215085   -0.266467   -0.012465
      2          6           0       -1.201777    1.122529   -0.015482
      3          6           0        0.000000    1.809865    0.000000
      4          6           0        1.201777    1.122529    0.015482
      5          6           0        1.215085   -0.266467    0.012465
      6          6           0        0.000000   -0.940548    0.000000
      7          1           0       -2.129779    1.667755   -0.028303
      8          1           0        0.000000    2.885865    0.000000
      9          1           0        2.129779    1.667755    0.028303
     10          1           0        0.000000   -2.018175    0.000000
     11          6           0        2.519449   -1.028536   -0.008492
     12          1           0        2.420582   -1.990446    0.482722
     13          1           0        2.842656   -1.210700   -1.030440
     14          1           0        3.305456   -0.473564    0.492006
     15          6           0       -2.519449   -1.028536    0.008492
     16          1           0       -2.420582   -1.990446   -0.482722
     17          1           0       -2.842656   -1.210700    1.030440
     18          1           0       -3.305456   -0.473564   -0.492006
 ---------------------------------------------------------------------
                    Distance matrix (angstroms):
                    1          2          3          4          5
     1  C    0.000000
     2  C    1.389063   0.000000
     3  C    2.405773   1.384535   0.000000
     4  C    2.787707   2.403753   1.384535   0.000000
     5  C    2.430298   2.787707   2.405773   1.389063   0.000000
     6  C    1.389594   2.387634   2.750413   2.387634   1.389594
     7  H    2.139657   1.076394   2.134703   3.376160   3.864064
     8  H    3.378429   2.133978   1.076000   2.133978   3.378429
     9  H    3.864064   3.376160   2.134703   1.076394   2.139657
    10  H    2.131916   3.362816   3.828040   3.362816   2.131916
    11  C    3.811497   4.298215   3.795289   2.522680   1.510812
    12  H    4.054058   4.802115   4.531512   3.375561   2.155567
    13  H    4.288719   4.778236   4.273911   3.038156   2.151328
    14  H    4.553314   4.808348   4.047488   2.683292   2.154646
    15  C    1.510812   2.522680   3.795289   4.298215   3.811497
    16  H    2.155567   3.375561   4.531512   4.802115   4.054058
    17  H    2.151328   3.038156   4.273911   4.778236   4.288719
    18  H    2.154646   2.683292   4.047488   4.808348   4.553314
                    6          7          8          9         10
     6  C    0.000000
     7  H    3.367492   0.000000
     8  H    3.826413   2.453681   0.000000
     9  H    3.367492   4.259934   2.453681   0.000000
    10  H    1.077627   4.257093   4.904040   4.257093   0.000000
    11  C    2.520999   5.374542   4.655129   2.724552   2.706858
    12  H    2.682261   5.860833   5.465405   3.697769   2.468402
    13  H    3.035701   5.832229   5.091595   3.148751   3.129619
    14  H    3.374342   5.864959   4.738552   2.486460   3.681567
    15  C    2.520999   2.724552   4.655129   5.374542   2.706858
    16  H    2.682261   3.697769   5.465405   5.860833   2.468402
    17  H    3.035701   3.148751   5.091595   5.832229   3.129619
    18  H    3.374342   2.486460   4.738552   5.864959   3.681567
                   11         12         13         14         15
    11  C    0.000000
    12  H    1.084591   0.000000
    13  H    1.087209   1.753799   0.000000
    14  H    1.084573   1.756138   1.753680   0.000000
    15  C    5.038927   5.055103   5.464864   5.871226   0.000000
    16  H    5.055103   4.936492   5.348801   6.003211   1.084591
    17  H    5.464864   5.348801   6.047313   6.215510   1.087209
    18  H    5.871226   6.003211   6.215510   6.683744   1.084573
                   16         17         18
    16  H    0.000000
    17  H    1.753799   0.000000
    18  H    1.756138   1.753680   0.000000
 Stoichiometry    C8H10
 Framework group  C2[C2(HCCH),X(C6H8)]
 Deg. of freedom    23
 Full point group                 C2      NOp   2
 Largest Abelian subgroup         C2      NOp   2
 Largest concise Abelian subgroup C2      NOp   2
                         Standard orientation:                         
 ---------------------------------------------------------------------
 Center     Atomic      Atomic             Coordinates (Angstroms)
 Number     Number       Type             X           Y           Z
 ---------------------------------------------------------------------
      1          6           0        0.000000    1.215149   -0.266467
      2          6           0        0.003153    1.201873    1.122529
      3          6           0        0.000000    0.000000    1.809865
      4          6           0       -0.003153   -1.201873    1.122529
      5          6           0        0.000000   -1.215149   -0.266467
      6          6           0        0.000000    0.000000   -0.940548
      7          1           0        0.006454    2.129957    1.667755
      8          1           0        0.000000    0.000000    2.885865
      9          1           0       -0.006454   -2.129957    1.667755
     10          1           0        0.000000    0.000000   -2.018175
     11          6           0        0.034336   -2.519229   -1.028536
     12          1           0       -0.457866   -2.425406   -1.990446
     13          1           0        1.059546   -2.831936   -1.210700
     14          1           0       -0.458073   -3.310329   -0.473564
     15          6           0       -0.034336    2.519229   -1.028536
     16          1           0        0.457866    2.425406   -1.990446
     17          1           0       -1.059546    2.831936   -1.210700
     18          1           0        0.458073    3.310329   -0.473564
 ---------------------------------------------------------------------
 Rotational constants (GHZ):      3.6156950      1.7744153      1.2079805
 Standard basis: 6-311+G(d,p) (5D, 7F)
 There are   127 symmetry adapted cartesian basis functions of A   symmetry.
 There are   117 symmetry adapted cartesian basis functions of B   symmetry.
 There are   122 symmetry adapted basis functions of A   symmetry.
 There are   114 symmetry adapted basis functions of B   symmetry.
   236 basis functions,   368 primitive gaussians,   244 cartesian basis functions
    29 alpha electrons       29 beta electrons
       nuclear repulsion energy       342.6410215138 Hartrees.
 NAtoms=   18 NActive=   18 NUniq=   11 SFac= 2.68D+00 NAtFMM=   60 NAOKFM=F Big=F
 Integral buffers will be    131072 words long.
 Raffenetti 2 integral format.
 Two-electron integral symmetry is turned on.
 One-electron integrals computed using PRISM.
 NBasis=   236 RedAO= T EigKep=  2.23D-06  NBF=   122   114
 NBsUse=   236 1.00D-06 EigRej= -1.00D+00 NBFU=   122   114
 ExpMin= 4.38D-02 ExpMax= 4.56D+03 ExpMxC= 6.82D+02 IAcc=2 IRadAn=         4 AccDes= 0.00D+00
 Harris functional with IExCor=  402 and IRadAn=       4 diagonalized for initial guess.
 HarFok:  IExCor=  402 AccDes= 0.00D+00 IRadAn=         4 IDoV= 1 UseB2=F ITyADJ=14
 ICtDFT=  3500011 ScaDFX=  1.000000  1.000000  1.000000  1.000000
 FoFCou: FMM=F IPFlag=           0 FMFlag=      100000 FMFlg1=           0
         NFxFlg=           0 DoJE=T BraDBF=F KetDBF=T FulRan=T
         wScrn=  0.000000 ICntrl=     500 IOpCl=  0 I1Cent=   200000004 NGrid=           0
         NMat0=    1 NMatS0=      1 NMatT0=    0 NMatD0=    1 NMtDS0=    0 NMtDT0=    0
 Petite list used in FoFCou.
 Initial guess orbital symmetries:
       Occupied  (B) (A) (A) (B) (A) (A) (B) (A) (A) (B) (A) (A)
                 (B) (A) (B) (A) (B) (A) (A) (B) (B) (A) (A) (B)
                 (B) (A) (B) (B) (A)
       Virtual   (B) (A) (A) (B) (A) (B) (A) (B) (A) (B) (A) (A)
                 (B) (B) (A) (B) (B) (A) (B) (A) (A) (B) (A) (B)
                 (A) (A) (B) (B) (A) (B) (A) (B) (B) (A) (A) (B)
                 (B) (A) (A) (B) (A) (B) (A) (A) (B) (A) (B) (B)
                 (A) (A) (B) (B) (A) (B) (A) (A) (B) (A) (B) (B)
                 (A) (B) (A) (B) (A) (B) (A) (B) (A) (A) (B) (B)
                 (A) (A) (B) (B) (A) (A) (B) (A) (B) (A) (A) (B)
                 (B) (A) (A) (B) (A) (B) (B) (A) (A) (A) (B) (B)
                 (A) (A) (B) (B) (B) (B) (A) (A) (A) (A) (B) (B)
                 (A) (A) (B) (A) (B) (B) (A) (A) (A) (B) (A) (B)
                 (B) (B) (A) (B) (A) (B) (B) (A) (A) (B) (B) (B)
                 (A) (A) (B) (A) (B) (A) (A) (B) (B) (B) (A) (B)
                 (A) (B) (A) (A) (A) (B) (A) (A) (B) (B) (B) (A)
                 (B) (A) (A) (B) (B) (A) (B) (A) (B) (A) (A) (B)
                 (B) (A) (B) (A) (A) (B) (A) (A) (B) (A) (B) (B)
                 (B) (A) (B) (A) (B) (A) (A) (B) (A) (B) (A) (A)
                 (B) (A) (B) (A) (A) (B) (B) (A) (B) (A) (A) (B)
                 (B) (A) (A)
 The electronic state of the initial guess is 1-A.
 Requested convergence on RMS density matrix=1.00D-08 within 128 cycles.
 Requested convergence on MAX density matrix=1.00D-06.
 Requested convergence on             energy=1.00D-06.
 No special actions if energy rises.
 SCF Done:  E(RB3LYP) =  -310.965348336     A.U. after   12 cycles
            NFock= 12  Conv=0.28D-08     -V/T= 2.0041

 **********************************************************************

            Population analysis using the SCF density.

 **********************************************************************

 Orbital symmetries:
       Occupied  (B) (A) (A) (B) (A) (B) (A) (A) (A) (B) (A) (A)
                 (B) (A) (B) (A) (B) (A) (B) (A) (A) (B) (A) (B)
                 (B) (B) (A) (B) (A)
       Virtual   (B) (A) (A) (B) (A) (A) (B) (B) (A) (A) (A) (B)
                 (B) (B) (B) (A) (A) (B) (A) (B) (B) (A) (B) (A)
                 (A) (B) (A) (B) (A) (B) (A) (B) (B) (A) (A) (B)
                 (A) (B) (A) (B) (A) (A) (B) (A) (B) (B) (A) (A)
                 (B) (A) (B) (A) (B) (B) (A) (A) (A) (B) (B) (B)
                 (A) (B) (B) (A) (B) (A) (A) (B) (A) (B) (A) (A)
                 (B) (B) (A) (B) (A) (B) (A) (A) (B) (A) (A) (B)
                 (B) (A) (A) (A) (B) (B) (A) (B) (A) (A) (B) (A)
                 (B) (B) (A) (B) (A) (B) (B) (A) (A) (A) (B) (A)
                 (B) (A) (B) (A) (B) (B) (A) (A) (B) (A) (B) (A)
                 (B) (B) (A) (B) (A) (B) (B) (A) (A) (B) (B) (A)
                 (B) (A) (B) (B) (A) (A) (A) (B) (B) (B) (A) (B)
                 (A) (B) (A) (A) (B) (A) (A) (B) (A) (B) (B) (A)
                 (B) (A) (B) (A) (A) (B) (A) (B) (B) (A) (B) (A)
                 (A) (A) (B) (B) (A) (A) (B) (B) (A) (A) (B) (B)
                 (B) (A) (B) (A) (B) (A) (A) (B) (A) (B) (A) (A)
                 (B) (A) (B) (A) (A) (B) (B) (A) (B) (A) (A) (B)
                 (B) (A) (A)
 The electronic state is 1-A.
 Alpha  occ. eigenvalues --  -10.17912 -10.17912 -10.16874 -10.16455 -10.16455
 Alpha  occ. eigenvalues --  -10.16415 -10.16411 -10.16369  -0.86412  -0.78481
 Alpha  occ. eigenvalues --   -0.76203  -0.69519  -0.68360  -0.60088  -0.57439
 Alpha  occ. eigenvalues --   -0.50801  -0.47375  -0.44680  -0.42876  -0.41772
 Alpha  occ. eigenvalues --   -0.41386  -0.40698  -0.39947  -0.37857  -0.34958
 Alpha  occ. eigenvalues --   -0.34005  -0.33867  -0.24947  -0.24189
 Alpha virt. eigenvalues --   -0.01155  -0.00845   0.00406   0.01809   0.01965
 Alpha virt. eigenvalues --    0.03884   0.03963   0.04210   0.05730   0.06241
 Alpha virt. eigenvalues --    0.06463   0.07220   0.08127   0.08303   0.10155
 Alpha virt. eigenvalues --    0.10360   0.11395   0.11614   0.12232   0.13703
 Alpha virt. eigenvalues --    0.14331   0.14778   0.15696   0.16179   0.16373
 Alpha virt. eigenvalues --    0.16961   0.17678   0.18581   0.18774   0.19976
 Alpha virt. eigenvalues --    0.20125   0.21011   0.21312   0.21593   0.21839
 Alpha virt. eigenvalues --    0.22825   0.23821   0.24096   0.24947   0.25169
 Alpha virt. eigenvalues --    0.25538   0.26766   0.27156   0.28490   0.28597
 Alpha virt. eigenvalues --    0.30951   0.32100   0.33277   0.33917   0.35226
 Alpha virt. eigenvalues --    0.38675   0.42323   0.42645   0.44993   0.47875
 Alpha virt. eigenvalues --    0.48611   0.51225   0.52378   0.54680   0.54963
 Alpha virt. eigenvalues --    0.55162   0.55769   0.58375   0.58405   0.59651
 Alpha virt. eigenvalues --    0.60647   0.61779   0.63113   0.64202   0.64763
 Alpha virt. eigenvalues --    0.65126   0.66725   0.67911   0.68428   0.69077
 Alpha virt. eigenvalues --    0.70652   0.70942   0.72081   0.72683   0.75579
 Alpha virt. eigenvalues --    0.76377   0.78085   0.83305   0.84234   0.86625
 Alpha virt. eigenvalues --    0.87907   0.90904   0.92591   0.93371   0.94551
 Alpha virt. eigenvalues --    0.95715   0.96497   1.01787   1.02165   1.02512
 Alpha virt. eigenvalues --    1.04900   1.07373   1.11303   1.13464   1.13994
 Alpha virt. eigenvalues --    1.31676   1.31844   1.35218   1.38039   1.40332
 Alpha virt. eigenvalues --    1.42350   1.46602   1.49184   1.49642   1.53082
 Alpha virt. eigenvalues --    1.53394   1.54280   1.55406   1.57051   1.58713
 Alpha virt. eigenvalues --    1.60064   1.60330   1.61075   1.62709   1.62966
 Alpha virt. eigenvalues --    1.66783   1.70532   1.70764   1.72607   1.74565
 Alpha virt. eigenvalues --    1.76765   1.79568   1.84038   1.84916   1.85769
 Alpha virt. eigenvalues --    1.91420   1.93343   1.93450   1.93699   1.96448
 Alpha virt. eigenvalues --    2.01998   2.02012   2.03638   2.04680   2.06632
 Alpha virt. eigenvalues --    2.07579   2.16533   2.18261   2.19988   2.22892
 Alpha virt. eigenvalues --    2.23877   2.31884   2.33507   2.39729   2.39923
 Alpha virt. eigenvalues --    2.42319   2.44693   2.45296   2.46267   2.53898
 Alpha virt. eigenvalues --    2.55159   2.56767   2.57125   2.58826   2.58936
 Alpha virt. eigenvalues --    2.61072   2.64162   2.68502   2.69367   2.71997
 Alpha virt. eigenvalues --    2.72020   2.75564   2.76111   2.76833   2.79329
 Alpha virt. eigenvalues --    2.82952   2.84005   2.85160   2.88805   2.90431
 Alpha virt. eigenvalues --    2.92297   2.93952   2.96523   2.97994   3.11530
 Alpha virt. eigenvalues --    3.20135   3.21043   3.23286   3.38955   3.40876
 Alpha virt. eigenvalues --    3.53452   3.62819   3.67764   3.70475   3.82703
 Alpha virt. eigenvalues --    3.82833   3.83749   3.85018   4.03412   4.13493
 Alpha virt. eigenvalues --    4.16550   4.33778   4.35452   4.86543  23.59730
 Alpha virt. eigenvalues --   23.93880  23.95375  24.00248  24.01397  24.12133
 Alpha virt. eigenvalues --   24.13317  24.23199
          Condensed to atoms (all electrons):
               1          2          3          4          5          6
     1  C    7.856193  -0.695706   0.855267  -0.891772   1.249442  -1.790110
     2  C   -0.695706   7.493378  -0.172592  -0.108452  -0.891772   0.315711
     3  C    0.855267  -0.172592   6.069663  -0.172592   0.855267  -1.327008
     4  C   -0.891772  -0.108452  -0.172592   7.493378  -0.695706   0.315711
     5  C    1.249442  -0.891772   0.855267  -0.695706   7.856193  -1.790110
     6  C   -1.790110   0.315711  -1.327008   0.315711  -1.790110   9.851762
     7  H   -0.012217   0.307285   0.022346  -0.011995   0.005772  -0.005785
     8  H    0.001992  -0.002893   0.359710  -0.002893   0.001992  -0.022212
     9  H    0.005772  -0.011995   0.022346   0.307285  -0.012217  -0.005785
    10  H    0.017101   0.017781  -0.011705   0.017781   0.017101   0.223497
    11  C   -0.371581   0.224160  -0.266707   0.071361  -0.931524   0.545227
    12  H    0.018146  -0.001473  -0.003506  -0.098883  -0.147359   0.164230
    13  H    0.020032  -0.006202   0.004719  -0.025188   0.098877  -0.073955
    14  H   -0.003033   0.005521   0.026541   0.123207  -0.128074  -0.098243
    15  C   -0.931524   0.071361  -0.266707   0.224160  -0.371581   0.545227
    16  H   -0.147359  -0.098883  -0.003506  -0.001473   0.018146   0.164230
    17  H    0.098877  -0.025188   0.004719  -0.006202   0.020032  -0.073955
    18  H   -0.128074   0.123207   0.026541   0.005521  -0.003033  -0.098243
               7          8          9         10         11         12
     1  C   -0.012217   0.001992   0.005772   0.017101  -0.371581   0.018146
     2  C    0.307285  -0.002893  -0.011995   0.017781   0.224160  -0.001473
     3  C    0.022346   0.359710   0.022346  -0.011705  -0.266707  -0.003506
     4  C   -0.011995  -0.002893   0.307285   0.017781   0.071361  -0.098883
     5  C    0.005772   0.001992  -0.012217   0.017101  -0.931524  -0.147359
     6  C   -0.005785  -0.022212  -0.005785   0.223497   0.545227   0.164230
     7  H    0.553805  -0.008783  -0.000289  -0.000317  -0.001400  -0.000002
     8  H   -0.008783   0.552053  -0.008783   0.000089   0.004798   0.000016
     9  H   -0.000289  -0.008783   0.553805  -0.000317   0.036210   0.000242
    10  H   -0.000317   0.000089  -0.000317   0.558521   0.025156   0.000809
    11  C   -0.001400   0.004798   0.036210   0.025156   5.978902   0.435305
    12  H   -0.000002   0.000016   0.000242   0.000809   0.435305   0.551912
    13  H   -0.000001   0.000011   0.000341   0.000454   0.336204  -0.028388
    14  H   -0.000001  -0.000013   0.001015   0.000293   0.441000  -0.029235
    15  C    0.036210   0.004798  -0.001400   0.025156   0.016526   0.000300
    16  H    0.000242   0.000016  -0.000002   0.000809   0.000300   0.000036
    17  H    0.000341   0.000011  -0.000001   0.000454   0.000156  -0.000020
    18  H    0.001015  -0.000013  -0.000001   0.000293  -0.000782   0.000001
              13         14         15         16         17         18
     1  C    0.020032  -0.003033  -0.931524  -0.147359   0.098877  -0.128074
     2  C   -0.006202   0.005521   0.071361  -0.098883  -0.025188   0.123207
     3  C    0.004719   0.026541  -0.266707  -0.003506   0.004719   0.026541
     4  C   -0.025188   0.123207   0.224160  -0.001473  -0.006202   0.005521
     5  C    0.098877  -0.128074  -0.371581   0.018146   0.020032  -0.003033
     6  C   -0.073955  -0.098243   0.545227   0.164230  -0.073955  -0.098243
     7  H   -0.000001  -0.000001   0.036210   0.000242   0.000341   0.001015
     8  H    0.000011  -0.000013   0.004798   0.000016   0.000011  -0.000013
     9  H    0.000341   0.001015  -0.001400  -0.000002  -0.000001  -0.000001
    10  H    0.000454   0.000293   0.025156   0.000809   0.000454   0.000293
    11  C    0.336204   0.441000   0.016526   0.000300   0.000156  -0.000782
    12  H   -0.028388  -0.029235   0.000300   0.000036  -0.000020   0.000001
    13  H    0.534913  -0.027698   0.000156  -0.000020   0.000004   0.000000
    14  H   -0.027698   0.550963  -0.000782   0.000001   0.000000  -0.000001
    15  C    0.000156  -0.000782   5.978902   0.435305   0.336204   0.441000
    16  H   -0.000020   0.000001   0.435305   0.551912  -0.028388  -0.029235
    17  H    0.000004   0.000000   0.336204  -0.028388   0.534913  -0.027698
    18  H    0.000000  -0.000001   0.441000  -0.029235  -0.027698   0.550963
 Mulliken charges:
               1
     1  C    0.848554
     2  C   -0.543247
     3  C   -0.022796
     4  C   -0.543247
     5  C    0.848554
     6  C   -0.840194
     7  H    0.113776
     8  H    0.120104
     9  H    0.113776
    10  H    0.107042
    11  C   -0.543309
    12  H    0.137867
    13  H    0.165742
    14  H    0.138540
    15  C   -0.543309
    16  H    0.137867
    17  H    0.165742
    18  H    0.138540
 Sum of Mulliken charges =   0.00000
 Mulliken charges with hydrogens summed into heavy atoms:
               1
     1  C    0.848554
     2  C   -0.429471
     3  C    0.097308
     4  C   -0.429471
     5  C    0.848554
     6  C   -0.733152
    11  C   -0.101161
    15  C   -0.101161
 Electronic spatial extent (au):  <R**2>=           1020.9802
 Charge=              0.0000 electrons
 Dipole moment (field-independent basis, Debye):
    X=              0.0000    Y=              0.0000    Z=             -0.3710  Tot=              0.3710
 Quadrupole moment (field-independent basis, Debye-Ang):
   XX=            -52.6132   YY=            -44.9808   ZZ=            -46.0312
   XY=             -0.1680   XZ=              0.0000   YZ=              0.0000
 Traceless Quadrupole moment (field-independent basis, Debye-Ang):
   XX=             -4.7381   YY=              2.8943   ZZ=              1.8439
   XY=             -0.1680   XZ=              0.0000   YZ=              0.0000
 Octapole moment (field-independent basis, Debye-Ang**2):
  XXX=              0.0000  YYY=              0.0000  ZZZ=              2.4119  XYY=              0.0000
  XXY=              0.0000  XXZ=             -3.4482  XZZ=              0.0000  YZZ=              0.0000
  YYZ=              1.7172  XYZ=              0.5509
 Hexadecapole moment (field-independent basis, Debye-Ang**3):
 XXXX=            -75.6232 YYYY=           -882.5069 ZZZZ=           -438.4120 XXXY=              0.3365
 XXXZ=              0.0000 YYYX=              6.8473 YYYZ=              0.0000 ZZZX=              0.0000
 ZZZY=              0.0000 XXYY=           -163.0631 XXZZ=            -96.8994 YYZZ=           -223.1740
 XXYZ=              0.0000 YYXZ=              0.0000 ZZXY=              2.7648
 N-N= 3.426410215138D+02 E-N=-1.405992854379D+03  KE= 3.097065325232D+02
 Symmetry A    KE= 1.880564729873D+02
 Symmetry B    KE= 1.216500595359D+02
 There are a total of      147800 grid points.
 ElSum from          density=       58.0000438004
 ElSum from atomic densities=       58.0001142264

 Hirshfeld populations at iteration   1 (CX, CA, CB, DipXYZ):
               1          2          3          4          5          6
     1  C    0.000000   2.998744   2.998744  -0.003177   0.068231  -0.039590
     2  C    0.000000   3.029168   3.029168  -0.002514   0.053086   0.025257
     3  C    0.000000   3.024327   3.024327   0.000000   0.000000   0.063141
     4  C    0.000000   3.029168   3.029168   0.002514  -0.053086   0.025257
     5  C    0.000000   2.998744   2.998744   0.003177  -0.068231  -0.039590
     6  C    0.000000   3.029139   3.029139   0.000000   0.000000  -0.052725
     7  H    0.000001   0.479102   0.479102   0.000280   0.131911   0.082634
     8  H    0.000002   0.477774   0.477774   0.000000   0.000000   0.158521
     9  H    0.000001   0.479102   0.479102  -0.000280  -0.131911   0.082634
    10  H    0.000000   0.480080   0.480080   0.000000   0.000000  -0.151387
    11  C    0.000000   3.048106   3.048106   0.000131   0.012227   0.007522
    12  H    0.000001   0.480093   0.480093  -0.068177   0.009747  -0.131694
    13  H    0.000001   0.479205   0.479205   0.141221  -0.045332  -0.026194
    14  H    0.000001   0.479933   0.479933  -0.068170  -0.109952   0.073661
    15  C    0.000000   3.048106   3.048106  -0.000131  -0.012227   0.007522
    16  H    0.000001   0.480093   0.480093   0.068177  -0.009747  -0.131694
    17  H    0.000001   0.479205   0.479205  -0.141221   0.045332  -0.026194
    18  H    0.000001   0.479933   0.479933   0.068170   0.109952   0.073661
       Tot   0.000010  29.000022  29.000022   0.000000   0.000000   0.000741

 Dip from Atomic Chgs              0.000000   0.000000  -0.146557
         Total Dipole              0.000000   0.000000  -0.145815

 Hirshfeld charges, spin densities, dipoles, and CM5 charges using IRadAn=      4:
              Q-H        S-H        Dx         Dy         Dz        Q-CM5   
     1  C    0.002513   0.000000  -0.003177   0.068231  -0.039590  -0.015260
     2  C   -0.058335   0.000000  -0.002514   0.053086   0.025257  -0.113192
     3  C   -0.048655   0.000000   0.000000   0.000000   0.063141  -0.105496
     4  C   -0.058335   0.000000   0.002514  -0.053086   0.025257  -0.113192
     5  C    0.002513   0.000000   0.003177  -0.068231  -0.039590  -0.015260
     6  C   -0.058278   0.000000   0.000000   0.000000  -0.052725  -0.110907
     7  H    0.041796   0.000000   0.000280   0.131911   0.082634   0.099598
     8  H    0.044453   0.000000   0.000000   0.000000   0.158521   0.101534
     9  H    0.041796   0.000000  -0.000280  -0.131911   0.082634   0.099598
    10  H    0.039840   0.000000   0.000000   0.000000  -0.151387   0.098508
    11  C   -0.096213   0.000000   0.000131   0.012227   0.007522  -0.242887
    12  H    0.039814   0.000000  -0.068177   0.009747  -0.131694   0.092802
    13  H    0.041590   0.000000   0.141221  -0.045332  -0.026194   0.093971
    14  H    0.040133   0.000000  -0.068170  -0.109952   0.073661   0.093127
    15  C   -0.096213   0.000000  -0.000131  -0.012227   0.007522  -0.242887
    16  H    0.039814   0.000000   0.068177  -0.009747  -0.131694   0.092802
    17  H    0.041590   0.000000  -0.141221   0.045332  -0.026194   0.093971
    18  H    0.040133   0.000000   0.068170   0.109952   0.073661   0.093127
       Tot  -0.000044   0.000000   0.000000   0.000000   0.000741  -0.000044
 Hirshfeld charges with hydrogens summed into heavy atoms:
              Q-H       Q-CM5   
     1  C    0.002513  -0.015260
     2  C   -0.016539  -0.013594
     3  C   -0.004202  -0.003962
     4  C   -0.016539  -0.013594
     5  C    0.002513  -0.015260
     6  C   -0.018439  -0.012399
    11  C    0.025325   0.037013
    15  C    0.025325   0.037013
 
 EQQ= 0.000000000000E+00 EQD= 0.000000000000E+00 EDD= 0.478548337916E-02
 EQQ+QD+DD= 0.478548337916E-02
 
          MBS Condensed to atoms (all electrons):
               1          2          3          4          5          6
     1  C    4.776825   0.506866  -0.030740  -0.012126  -0.027431   0.508304
     2  C    0.506866   4.845901   0.510472  -0.032063  -0.012126  -0.033860
     3  C   -0.030740   0.510472   4.817512   0.510472  -0.030740  -0.013082
     4  C   -0.012126  -0.032063   0.510472   4.845901   0.506866  -0.033860
     5  C   -0.027431  -0.012126  -0.030740   0.506866   4.776825   0.508304
     6  C    0.508304  -0.033860  -0.013082  -0.033860   0.508304   4.860917
     7  H   -0.027378   0.391146  -0.026506   0.001603   0.000055   0.001644
     8  H    0.001588  -0.026511   0.392113  -0.026511   0.001588   0.000051
     9  H    0.000055   0.001603  -0.026506   0.391146  -0.027378   0.001644
    10  H   -0.027943   0.001662   0.000067   0.001662  -0.027943   0.388979
    11  C    0.000892   0.000023   0.000946  -0.028901   0.387042  -0.028951
    12  H    0.000035   0.000001  -0.000031   0.001322  -0.021768  -0.003987
    13  H   -0.000020   0.000005  -0.000020  -0.000596  -0.021530  -0.000613
    14  H   -0.000029   0.000002   0.000036  -0.003940  -0.021781   0.001321
    15  C    0.387042  -0.028901   0.000946   0.000023   0.000892  -0.028951
    16  H   -0.021768   0.001322  -0.000031   0.000001   0.000035  -0.003987
    17  H   -0.021530  -0.000596  -0.000020   0.000005  -0.000020  -0.000613
    18  H   -0.021781  -0.003940   0.000036   0.000002  -0.000029   0.001321
               7          8          9         10         11         12
     1  C   -0.027378   0.001588   0.000055  -0.027943   0.000892   0.000035
     2  C    0.391146  -0.026511   0.001603   0.001662   0.000023   0.000001
     3  C   -0.026506   0.392113  -0.026506   0.000067   0.000946  -0.000031
     4  C    0.001603  -0.026511   0.391146   0.001662  -0.028901   0.001322
     5  C    0.000055   0.001588  -0.027378  -0.027943   0.387042  -0.021768
     6  C    0.001644   0.000051   0.001644   0.388979  -0.028951  -0.003987
     7  H    0.567407  -0.004125  -0.000044  -0.000049   0.000001   0.000000
     8  H   -0.004125   0.561922  -0.004125   0.000003  -0.000020   0.000001
     9  H   -0.000044  -0.004125   0.567407  -0.000049  -0.003812   0.000037
    10  H   -0.000049   0.000003  -0.000049   0.575683  -0.004068   0.001180
    11  C    0.000001  -0.000020  -0.003812  -0.004068   4.811762   0.378664
    12  H    0.000000   0.000001   0.000037   0.001180   0.378664   0.593597
    13  H    0.000000   0.000001   0.000152   0.000164   0.373810  -0.022361
    14  H    0.000000  -0.000002   0.001134   0.000041   0.378740  -0.022410
    15  C   -0.003812  -0.000020   0.000001  -0.004068  -0.000006  -0.000001
    16  H    0.000037   0.000001   0.000000   0.001180  -0.000001   0.000000
    17  H    0.000152   0.000001   0.000000   0.000164   0.000000   0.000000
    18  H    0.001134  -0.000002   0.000000   0.000041   0.000000   0.000000
              13         14         15         16         17         18
     1  C   -0.000020  -0.000029   0.387042  -0.021768  -0.021530  -0.021781
     2  C    0.000005   0.000002  -0.028901   0.001322  -0.000596  -0.003940
     3  C   -0.000020   0.000036   0.000946  -0.000031  -0.000020   0.000036
     4  C   -0.000596  -0.003940   0.000023   0.000001   0.000005   0.000002
     5  C   -0.021530  -0.021781   0.000892   0.000035  -0.000020  -0.000029
     6  C   -0.000613   0.001321  -0.028951  -0.003987  -0.000613   0.001321
     7  H    0.000000   0.000000  -0.003812   0.000037   0.000152   0.001134
     8  H    0.000001  -0.000002  -0.000020   0.000001   0.000001  -0.000002
     9  H    0.000152   0.001134   0.000001   0.000000   0.000000   0.000000
    10  H    0.000164   0.000041  -0.004068   0.001180   0.000164   0.000041
    11  C    0.373810   0.378740  -0.000006  -0.000001   0.000000   0.000000
    12  H   -0.022361  -0.022410  -0.000001   0.000000   0.000000   0.000000
    13  H    0.589971  -0.022338   0.000000   0.000000   0.000000   0.000000
    14  H   -0.022338   0.592983   0.000000   0.000000   0.000000   0.000000
    15  C    0.000000   0.000000   4.811762   0.378664   0.373810   0.378740
    16  H    0.000000   0.000000   0.378664   0.593597  -0.022361  -0.022410
    17  H    0.000000   0.000000   0.373810  -0.022361   0.589971  -0.022338
    18  H    0.000000   0.000000   0.378740  -0.022410  -0.022338   0.592983
 MBS Mulliken charges:
               1
     1  C    0.009140
     2  C   -0.121007
     3  C   -0.104925
     4  C   -0.121007
     5  C    0.009140
     6  C   -0.124581
     7  H    0.098734
     8  H    0.104048
     9  H    0.098734
    10  H    0.093293
    11  C   -0.266121
    12  H    0.095719
    13  H    0.103376
    14  H    0.096242
    15  C   -0.266121
    16  H    0.095719
    17  H    0.103376
    18  H    0.096242
 Sum of MBS Mulliken charges =   0.00000
 MBS Mulliken charges with hydrogens summed into heavy atoms:
               1
     1  C    0.009140
     2  C   -0.022274
     3  C   -0.000876
     4  C   -0.022274
     5  C    0.009140
     6  C   -0.031288
    11  C    0.029216
    15  C    0.029216
 Breneman (CHELPG) radii used.
 Generate Potential Derived Charges using the Breneman model, NDens= 1.
 Grid spacing= 0.300 Box extension= 2.800
 NStep X,Y,Z=   27     42     36   Total possible points=       40824
 Number of Points to Fit=   12502

 **********************************************************************

            Electrostatic Properties Using The SCF Density

 **********************************************************************

       Atomic Center    1 is at   0.000000  1.215149 -0.266467
       Atomic Center    2 is at   0.003153  1.201873  1.122529
       Atomic Center    3 is at   0.000000  0.000000  1.809865
       Atomic Center    4 is at  -0.003153 -1.201873  1.122529
       Atomic Center    5 is at   0.000000 -1.215149 -0.266467
       Atomic Center    6 is at   0.000000  0.000000 -0.940548
       Atomic Center    7 is at   0.006454  2.129957  1.667755
       Atomic Center    8 is at   0.000000  0.000000  2.885865
       Atomic Center    9 is at  -0.006454 -2.129957  1.667755
       Atomic Center   10 is at   0.000000  0.000000 -2.018175
       Atomic Center   11 is at   0.034336 -2.519229 -1.028536
       Atomic Center   12 is at  -0.457866 -2.425406 -1.990446
       Atomic Center   13 is at   1.059546 -2.831936 -1.210700
       Atomic Center   14 is at  -0.458073 -3.310329 -0.473564
       Atomic Center   15 is at  -0.034336  2.519229 -1.028536
       Atomic Center   16 is at   0.457866  2.425406 -1.990446
       Atomic Center   17 is at  -1.059546  2.831936 -1.210700
       Atomic Center   18 is at   0.458073  3.310329 -0.473564
   12502 points will be used for fitting atomic charges
 Fitting point charges to electrostatic potential
 Charges from ESP fit, RMS=   0.00376 RRMS=   0.46770:
 ESP charges:
               1
     1  C    0.236990
     2  C   -0.232217
     3  C   -0.042339
     4  C   -0.232217
     5  C    0.236990
     6  C   -0.339265
     7  H    0.111534
     8  H    0.083597
     9  H    0.111534
    10  H    0.140608
    11  C   -0.212602
    12  H    0.057497
    13  H    0.059199
    14  H    0.058298
    15  C   -0.212602
    16  H    0.057497
    17  H    0.059199
    18  H    0.058298
 Sum of ESP charges =   0.00000
 ESP charges with hydrogens summed into heavy atoms:
               1
     1  C    0.236990
     2  C   -0.120682
     3  C    0.041258
     4  C   -0.120682
     5  C    0.236990
     6  C   -0.198658
    11  C   -0.037608
    15  C   -0.037608
 Charge=   0.00000 Dipole=     0.0000     0.0000    -0.3160 Tot=     0.3160
 -----------------------------------------------------------------

              Electrostatic Properties (Atomic Units)

 -----------------------------------------------------------------
    Center     Electric         -------- Electric Field --------
               Potential          X             Y             Z
 -----------------------------------------------------------------
    1 Atom    -14.772035
    2 Atom    -14.787749
    3 Atom    -14.783448
    4 Atom    -14.787749
    5 Atom    -14.772035
    6 Atom    -14.788477
    7 Atom     -1.116157
    8 Atom     -1.115562
    9 Atom     -1.116157
   10 Atom     -1.115993
   11 Atom    -14.781614
   12 Atom     -1.120432
   13 Atom     -1.118406
   14 Atom     -1.120472
   15 Atom    -14.781614
   16 Atom     -1.120432
   17 Atom     -1.118406
   18 Atom     -1.120472
 -----------------------------------------------------------------
 ******************************Gaussian NBO Version 3.1******************************
             N A T U R A L   A T O M I C   O R B I T A L   A N D
          N A T U R A L   B O N D   O R B I T A L   A N A L Y S I S
 ******************************Gaussian NBO Version 3.1******************************
       /RESON  / : Allow strongly delocalized NBO set

 Analyzing the SCF density

 Job title: Chart4_9                                                        

 Storage needed:    168314 in NPA ( 104855800 available)


 NATURAL POPULATIONS:  Natural atomic orbital occupancies 
                                                          
   NAO  Atom  No  lang   Type(AO)    Occupancy      Energy
 ----------------------------------------------------------
     1    C    1  S      Cor( 1S)     1.99903     -10.03069
     2    C    1  S      Val( 2S)     0.88525      -0.12499
     3    C    1  S      Ryd( 3S)     0.00072       0.70142
     4    C    1  S      Ryd( 4S)     0.00022       1.22227
     5    C    1  S      Ryd( 5S)     0.00001      22.64560
     6    C    1  px     Val( 2p)     0.97746      -0.09241
     7    C    1  px     Ryd( 3p)     0.00131       0.59146
     8    C    1  px     Ryd( 4p)     0.00036       0.83435
     9    C    1  px     Ryd( 5p)     0.00003       2.25481
    10    C    1  py     Val( 2p)     1.06377      -0.04314
    11    C    1  py     Ryd( 4p)     0.00521       1.19773
    12    C    1  py     Ryd( 3p)     0.00043       0.86267
    13    C    1  py     Ryd( 5p)     0.00008       2.87731
    14    C    1  pz     Val( 2p)     1.07966      -0.04158
    15    C    1  pz     Ryd( 4p)     0.00404       1.01244
    16    C    1  pz     Ryd( 3p)     0.00033       0.89171
    17    C    1  pz     Ryd( 5p)     0.00009       2.83280
    18    C    1  dxy    Ryd( 3d)     0.00060       1.68574
    19    C    1  dxz    Ryd( 3d)     0.00056       1.68891
    20    C    1  dyz    Ryd( 3d)     0.00072       2.54058
    21    C    1  dx2y2  Ryd( 3d)     0.00048       2.21271
    22    C    1  dz2    Ryd( 3d)     0.00068       2.49895

    23    C    2  S      Cor( 1S)     1.99904     -10.01163
    24    C    2  S      Val( 2S)     0.93331      -0.13323
    25    C    2  S      Ryd( 4S)     0.00123       0.88374
    26    C    2  S      Ryd( 3S)     0.00018       0.64391
    27    C    2  S      Ryd( 5S)     0.00001      23.08332
    28    C    2  px     Val( 2p)     1.02287      -0.10063
    29    C    2  px     Ryd( 4p)     0.00131       0.51830
    30    C    2  px     Ryd( 3p)     0.00032       0.29955
    31    C    2  px     Ryd( 5p)     0.00002       2.72515
    32    C    2  py     Val( 2p)     1.14767      -0.04434
    33    C    2  py     Ryd( 4p)     0.00578       1.06935
    34    C    2  py     Ryd( 3p)     0.00034       0.35500
    35    C    2  py     Ryd( 5p)     0.00008       3.17617
    36    C    2  pz     Val( 2p)     1.09642      -0.03888
    37    C    2  pz     Ryd( 4p)     0.00438       0.84505
    38    C    2  pz     Ryd( 3p)     0.00046       0.37652
    39    C    2  pz     Ryd( 5p)     0.00014       3.15057
    40    C    2  dxy    Ryd( 3d)     0.00039       1.64605
    41    C    2  dxz    Ryd( 3d)     0.00048       1.68250
    42    C    2  dyz    Ryd( 3d)     0.00080       2.56219
    43    C    2  dx2y2  Ryd( 3d)     0.00049       2.19066
    44    C    2  dz2    Ryd( 3d)     0.00059       2.49806

    45    C    3  S      Cor( 1S)     1.99916     -10.01866
    46    C    3  S      Val( 2S)     0.94135      -0.14399
    47    C    3  S      Ryd( 3S)     0.00163       0.79169
    48    C    3  S      Ryd( 4S)     0.00018       1.11062
    49    C    3  S      Ryd( 5S)     0.00000      22.59284
    50    C    3  px     Val( 2p)     0.99046      -0.10042
    51    C    3  px     Ryd( 4p)     0.00101       0.52618
    52    C    3  px     Ryd( 3p)     0.00029       0.34137
    53    C    3  px     Ryd( 5p)     0.00001       2.65959
    54    C    3  py     Val( 2p)     1.06455      -0.03464
    55    C    3  py     Ryd( 4p)     0.00458       0.80953
    56    C    3  py     Ryd( 3p)     0.00039       0.41346
    57    C    3  py     Ryd( 5p)     0.00017       3.04271
    58    C    3  pz     Val( 2p)     1.17157      -0.04307
    59    C    3  pz     Ryd( 4p)     0.00726       1.09034
    60    C    3  pz     Ryd( 3p)     0.00029       0.28185
    61    C    3  pz     Ryd( 5p)     0.00006       3.18032
    62    C    3  dxy    Ryd( 3d)     0.00054       1.69531
    63    C    3  dxz    Ryd( 3d)     0.00036       1.62313
    64    C    3  dyz    Ryd( 3d)     0.00062       2.62796
    65    C    3  dx2y2  Ryd( 3d)     0.00046       2.25466
    66    C    3  dz2    Ryd( 3d)     0.00075       2.34539

    67    C    4  S      Cor( 1S)     1.99904     -10.01163
    68    C    4  S      Val( 2S)     0.93331      -0.13323
    69    C    4  S      Ryd( 4S)     0.00123       0.88374
    70    C    4  S      Ryd( 3S)     0.00018       0.64391
    71    C    4  S      Ryd( 5S)     0.00001      23.08332
    72    C    4  px     Val( 2p)     1.02287      -0.10063
    73    C    4  px     Ryd( 4p)     0.00131       0.51830
    74    C    4  px     Ryd( 3p)     0.00032       0.29955
    75    C    4  px     Ryd( 5p)     0.00002       2.72515
    76    C    4  py     Val( 2p)     1.14767      -0.04434
    77    C    4  py     Ryd( 4p)     0.00578       1.06935
    78    C    4  py     Ryd( 3p)     0.00034       0.35500
    79    C    4  py     Ryd( 5p)     0.00008       3.17617
    80    C    4  pz     Val( 2p)     1.09642      -0.03888
    81    C    4  pz     Ryd( 4p)     0.00438       0.84505
    82    C    4  pz     Ryd( 3p)     0.00046       0.37652
    83    C    4  pz     Ryd( 5p)     0.00014       3.15057
    84    C    4  dxy    Ryd( 3d)     0.00039       1.64605
    85    C    4  dxz    Ryd( 3d)     0.00048       1.68250
    86    C    4  dyz    Ryd( 3d)     0.00080       2.56219
    87    C    4  dx2y2  Ryd( 3d)     0.00049       2.19066
    88    C    4  dz2    Ryd( 3d)     0.00059       2.49806

    89    C    5  S      Cor( 1S)     1.99903     -10.03069
    90    C    5  S      Val( 2S)     0.88525      -0.12499
    91    C    5  S      Ryd( 3S)     0.00072       0.70142
    92    C    5  S      Ryd( 4S)     0.00022       1.22227
    93    C    5  S      Ryd( 5S)     0.00001      22.64560
    94    C    5  px     Val( 2p)     0.97746      -0.09241
    95    C    5  px     Ryd( 3p)     0.00131       0.59146
    96    C    5  px     Ryd( 4p)     0.00036       0.83435
    97    C    5  px     Ryd( 5p)     0.00003       2.25481
    98    C    5  py     Val( 2p)     1.06377      -0.04314
    99    C    5  py     Ryd( 4p)     0.00521       1.19773
   100    C    5  py     Ryd( 3p)     0.00043       0.86267
   101    C    5  py     Ryd( 5p)     0.00008       2.87731
   102    C    5  pz     Val( 2p)     1.07966      -0.04158
   103    C    5  pz     Ryd( 4p)     0.00404       1.01244
   104    C    5  pz     Ryd( 3p)     0.00033       0.89171
   105    C    5  pz     Ryd( 5p)     0.00009       2.83280
   106    C    5  dxy    Ryd( 3d)     0.00060       1.68574
   107    C    5  dxz    Ryd( 3d)     0.00056       1.68891
   108    C    5  dyz    Ryd( 3d)     0.00072       2.54058
   109    C    5  dx2y2  Ryd( 3d)     0.00048       2.21271
   110    C    5  dz2    Ryd( 3d)     0.00068       2.49895

   111    C    6  S      Cor( 1S)     1.99894     -10.00817
   112    C    6  S      Val( 2S)     0.92388      -0.12310
   113    C    6  S      Ryd( 4S)     0.00111       0.94253
   114    C    6  S      Ryd( 3S)     0.00017       0.65538
   115    C    6  S      Ryd( 5S)     0.00001      23.09925
   116    C    6  px     Val( 2p)     1.02366      -0.10100
   117    C    6  px     Ryd( 4p)     0.00108       0.51595
   118    C    6  px     Ryd( 3p)     0.00041       0.29297
   119    C    6  px     Ryd( 5p)     0.00001       2.75965
   120    C    6  py     Val( 2p)     1.07593      -0.03752
   121    C    6  py     Ryd( 4p)     0.00350       0.82061
   122    C    6  py     Ryd( 3p)     0.00034       0.47472
   123    C    6  py     Ryd( 5p)     0.00015       3.23709
   124    C    6  pz     Val( 2p)     1.17248      -0.04814
   125    C    6  pz     Ryd( 4p)     0.00586       1.11354
   126    C    6  pz     Ryd( 3p)     0.00029       0.36909
   127    C    6  pz     Ryd( 5p)     0.00005       3.21543
   128    C    6  dxy    Ryd( 3d)     0.00052       1.70073
   129    C    6  dxz    Ryd( 3d)     0.00036       1.63434
   130    C    6  dyz    Ryd( 3d)     0.00070       2.61972
   131    C    6  dx2y2  Ryd( 3d)     0.00048       2.28440
   132    C    6  dz2    Ryd( 3d)     0.00075       2.34565

   133    H    7  S      Val( 1S)     0.79823       0.05585
   134    H    7  S      Ryd( 2S)     0.00072       0.87885
   135    H    7  S      Ryd( 3S)     0.00017       1.85851
   136    H    7  px     Ryd( 2p)     0.00020       1.61570
   137    H    7  py     Ryd( 2p)     0.00033       2.56029
   138    H    7  pz     Ryd( 2p)     0.00021       2.20503

   139    H    8  S      Val( 1S)     0.79704       0.05620
   140    H    8  S      Ryd( 2S)     0.00080       0.62895
   141    H    8  S      Ryd( 3S)     0.00017       2.12825
   142    H    8  px     Ryd( 2p)     0.00021       1.60740
   143    H    8  py     Ryd( 2p)     0.00012       1.99790
   144    H    8  pz     Ryd( 2p)     0.00041       2.72190

   145    H    9  S      Val( 1S)     0.79823       0.05585
   146    H    9  S      Ryd( 2S)     0.00072       0.87885
   147    H    9  S      Ryd( 3S)     0.00017       1.85851
   148    H    9  px     Ryd( 2p)     0.00020       1.61570
   149    H    9  py     Ryd( 2p)     0.00033       2.56029
   150    H    9  pz     Ryd( 2p)     0.00021       2.20503

   151    H   10  S      Val( 1S)     0.80133       0.05232
   152    H   10  S      Ryd( 2S)     0.00092       0.99223
   153    H   10  S      Ryd( 3S)     0.00014       1.72333
   154    H   10  px     Ryd( 2p)     0.00020       1.62124
   155    H   10  py     Ryd( 2p)     0.00014       2.04676
   156    H   10  pz     Ryd( 2p)     0.00043       2.75646

   157    C   11  S      Cor( 1S)     1.99930     -10.01854
   158    C   11  S      Val( 2S)     1.07315      -0.23472
   159    C   11  S      Ryd( 4S)     0.00050       0.83217
   160    C   11  S      Ryd( 3S)     0.00012       0.70043
   161    C   11  S      Ryd( 5S)     0.00000      23.25269
   162    C   11  px     Val( 2p)     1.20930      -0.09274
   163    C   11  px     Ryd( 4p)     0.00053       0.51017
   164    C   11  px     Ryd( 3p)     0.00005       0.27497
   165    C   11  px     Ryd( 5p)     0.00006       3.04574
   166    C   11  py     Val( 2p)     1.11343      -0.08475
   167    C   11  py     Ryd( 4p)     0.00187       0.50253
   168    C   11  py     Ryd( 3p)     0.00026       0.27398
   169    C   11  py     Ryd( 5p)     0.00006       3.04232
   170    C   11  pz     Val( 2p)     1.18097      -0.08941
   171    C   11  pz     Ryd( 4p)     0.00304       0.51711
   172    C   11  pz     Ryd( 3p)     0.00016       0.30200
   173    C   11  pz     Ryd( 5p)     0.00004       3.06974
   174    C   11  dxy    Ryd( 3d)     0.00060       1.96842
   175    C   11  dxz    Ryd( 3d)     0.00057       2.02945
   176    C   11  dyz    Ryd( 3d)     0.00067       2.20867
   177    C   11  dx2y2  Ryd( 3d)     0.00069       2.16287
   178    C   11  dz2    Ryd( 3d)     0.00059       2.10284

   179    H   12  S      Val( 1S)     0.79345       0.03729
   180    H   12  S      Ryd( 2S)     0.00074       0.68243
   181    H   12  S      Ryd( 3S)     0.00009       2.07883
   182    H   12  px     Ryd( 2p)     0.00014       1.96590
   183    H   12  py     Ryd( 2p)     0.00013       1.72973
   184    H   12  pz     Ryd( 2p)     0.00024       2.51170

   185    H   13  S      Val( 1S)     0.78726       0.03647
   186    H   13  S      Ryd( 2S)     0.00070       0.62352
   187    H   13  S      Ryd( 3S)     0.00009       2.16915
   188    H   13  px     Ryd( 2p)     0.00027       2.58568
   189    H   13  py     Ryd( 2p)     0.00019       1.84584
   190    H   13  pz     Ryd( 2p)     0.00014       1.81933

   191    H   14  S      Val( 1S)     0.79292       0.03765
   192    H   14  S      Ryd( 2S)     0.00072       0.69016
   193    H   14  S      Ryd( 3S)     0.00009       2.06951
   194    H   14  px     Ryd( 2p)     0.00014       1.96624
   195    H   14  py     Ryd( 2p)     0.00022       2.26172
   196    H   14  pz     Ryd( 2p)     0.00015       1.97926

   197    C   15  S      Cor( 1S)     1.99930     -10.01854
   198    C   15  S      Val( 2S)     1.07315      -0.23472
   199    C   15  S      Ryd( 4S)     0.00050       0.83217
   200    C   15  S      Ryd( 3S)     0.00012       0.70043
   201    C   15  S      Ryd( 5S)     0.00000      23.25269
   202    C   15  px     Val( 2p)     1.20930      -0.09274
   203    C   15  px     Ryd( 4p)     0.00053       0.51017
   204    C   15  px     Ryd( 3p)     0.00005       0.27497
   205    C   15  px     Ryd( 5p)     0.00006       3.04574
   206    C   15  py     Val( 2p)     1.11343      -0.08475
   207    C   15  py     Ryd( 4p)     0.00187       0.50253
   208    C   15  py     Ryd( 3p)     0.00026       0.27398
   209    C   15  py     Ryd( 5p)     0.00006       3.04232
   210    C   15  pz     Val( 2p)     1.18097      -0.08941
   211    C   15  pz     Ryd( 4p)     0.00304       0.51711
   212    C   15  pz     Ryd( 3p)     0.00016       0.30200
   213    C   15  pz     Ryd( 5p)     0.00004       3.06974
   214    C   15  dxy    Ryd( 3d)     0.00060       1.96842
   215    C   15  dxz    Ryd( 3d)     0.00057       2.02945
   216    C   15  dyz    Ryd( 3d)     0.00067       2.20867
   217    C   15  dx2y2  Ryd( 3d)     0.00069       2.16287
   218    C   15  dz2    Ryd( 3d)     0.00059       2.10284

   219    H   16  S      Val( 1S)     0.79345       0.03729
   220    H   16  S      Ryd( 2S)     0.00074       0.68243
   221    H   16  S      Ryd( 3S)     0.00009       2.07883
   222    H   16  px     Ryd( 2p)     0.00014       1.96590
   223    H   16  py     Ryd( 2p)     0.00013       1.72973
   224    H   16  pz     Ryd( 2p)     0.00024       2.51170

   225    H   17  S      Val( 1S)     0.78726       0.03647
   226    H   17  S      Ryd( 2S)     0.00070       0.62352
   227    H   17  S      Ryd( 3S)     0.00009       2.16915
   228    H   17  px     Ryd( 2p)     0.00027       2.58568
   229    H   17  py     Ryd( 2p)     0.00019       1.84584
   230    H   17  pz     Ryd( 2p)     0.00014       1.81933

   231    H   18  S      Val( 1S)     0.79292       0.03765
   232    H   18  S      Ryd( 2S)     0.00072       0.69016
   233    H   18  S      Ryd( 3S)     0.00009       2.06951
   234    H   18  px     Ryd( 2p)     0.00014       1.96624
   235    H   18  py     Ryd( 2p)     0.00022       2.26172
   236    H   18  pz     Ryd( 2p)     0.00015       1.97926

 WARNING:  1 low occupancy (<1.9990e) core orbital  found on  C    6

 WARNING:  Population inversion found on atom  C    1
           Population inversion found on atom  C    2
           Population inversion found on atom  C    3
           Population inversion found on atom  C    4
           Population inversion found on atom  C    5
           Population inversion found on atom  C    6
           Population inversion found on atom  C   11
           Population inversion found on atom  C   15


 Summary of Natural Population Analysis:                  
                                                          
                                       Natural Population 
                Natural  -----------------------------------------------
    Atom  No    Charge         Core      Valence    Rydberg      Total
 -----------------------------------------------------------------------
      C    1   -0.02104      1.99903     4.00614    0.01586     6.02104
      C    2   -0.21631      1.99904     4.20027    0.01700     6.21631
      C    3   -0.18568      1.99916     4.16794    0.01858     6.18568
      C    4   -0.21631      1.99904     4.20027    0.01700     6.21631
      C    5   -0.02104      1.99903     4.00614    0.01586     6.02104
      C    6   -0.21068      1.99894     4.19595    0.01579     6.21068
      H    7    0.20014      0.00000     0.79823    0.00163     0.79986
      H    8    0.20125      0.00000     0.79704    0.00172     0.79875
      H    9    0.20014      0.00000     0.79823    0.00163     0.79986
      H   10    0.19685      0.00000     0.80133    0.00183     0.80315
      C   11   -0.58596      1.99930     4.57686    0.00980     6.58596
      H   12    0.20520      0.00000     0.79345    0.00135     0.79480
      H   13    0.21134      0.00000     0.78726    0.00140     0.78866
      H   14    0.20576      0.00000     0.79292    0.00132     0.79424
      C   15   -0.58596      1.99930     4.57686    0.00980     6.58596
      H   16    0.20520      0.00000     0.79345    0.00135     0.79480
      H   17    0.21134      0.00000     0.78726    0.00140     0.78866
      H   18    0.20576      0.00000     0.79292    0.00132     0.79424
 =======================================================================
   * Total *    0.00000     15.99284    41.87252    0.13464    58.00000

                                 Natural Population      
 --------------------------------------------------------
   Core                      15.99284 ( 99.9553% of  16)
   Valence                   41.87252 ( 99.6965% of  42)
   Natural Minimal Basis     57.86536 ( 99.7679% of  58)
   Natural Rydberg Basis      0.13464 (  0.2321% of  58)
 --------------------------------------------------------

    Atom  No          Natural Electron Configuration
 ----------------------------------------------------------------------------
      C    1      [core]2S( 0.89)2p( 3.12)4p( 0.01)
      C    2      [core]2S( 0.93)2p( 3.27)4p( 0.01)
      C    3      [core]2S( 0.94)2p( 3.23)4p( 0.01)
      C    4      [core]2S( 0.93)2p( 3.27)4p( 0.01)
      C    5      [core]2S( 0.89)2p( 3.12)4p( 0.01)
      C    6      [core]2S( 0.92)2p( 3.27)4p( 0.01)
      H    7            1S( 0.80)
      H    8            1S( 0.80)
      H    9            1S( 0.80)
      H   10            1S( 0.80)
      C   11      [core]2S( 1.07)2p( 3.50)4p( 0.01)
      H   12            1S( 0.79)
      H   13            1S( 0.79)
      H   14            1S( 0.79)
      C   15      [core]2S( 1.07)2p( 3.50)4p( 0.01)
      H   16            1S( 0.79)
      H   17            1S( 0.79)
      H   18            1S( 0.79)


 NBO analysis skipped by request.
 1\1\GINC-COREV2-25-046\SP\RB3LYP\6-311+G(d,p)\C8H10\ROOT\23-Jul-2021\0
 \\# b3lyp/6-311+g(d,p) geom=connectivity pop=(hirshfeld,chelpg,mbs,npa
 )\\Chart4_9\\0,1\C,0,-1.215085,-0.266467,-0.012465\C,0,-1.201777,1.122
 529,-0.015482\C,0,0.,1.809865,0.\C,0,1.201777,1.122529,0.015482\C,0,1.
 215085,-0.266467,0.012465\C,0,0.,-0.940548,0.\H,0,-2.129779,1.667755,-
 0.028303\H,0,0.,2.885865,0.\H,0,2.129779,1.667755,0.028303\H,0,0.,-2.0
 18175,0.\C,0,2.519449,-1.028536,-0.008492\H,0,2.420582,-1.990446,0.482
 722\H,0,2.842656,-1.2107,-1.03044\H,0,3.305456,-0.473564,0.492006\C,0,
 -2.519449,-1.028536,0.008492\H,0,-2.420582,-1.990446,-0.482722\H,0,-2.
 842656,-1.2107,1.03044\H,0,-3.305456,-0.473564,-0.492006\\Version=ES64
 L-G09RevD.01\State=1-A\HF=-310.9653483\RMSD=2.800e-09\Dipole=0.,-0.145
 9613,0.\Quadrupole=2.1537812,1.3708754,-3.5246566,0.,-0.0666892,0.\PG=
 C02 [C2(H1C1C1H1),X(C6H8)]\\@


       THE DEATH-KNELL OF THE ATOM

 SO THE ATOMS IN TURN, WE NOW CLEARLY DISCERN,
 FLY TO BITS WITH THE UTMOST FACILITY;
 THEY WEND ON THEIR WAY, AND, IN SPLITTING, DISPLAY
 AN ABSOLUTE LACK OF STABILITY.

          SIR WM. RAMSAY, 1905
 Job cpu time:       0 days  0 hours  2 minutes 41.6 seconds.
 File lengths (MBytes):  RWF=     71 Int=      0 D2E=      0 Chk=      3 Scr=      1
 Normal termination of Gaussian 09 at Fri Jul 23 17:24:46 2021.
