 Entering Gaussian System, Link 0=g09
 Initial command:
 /cm/shared/apps/gaussian/g09revD.01/g09/l1.exe "//home/sweav003/CHB/CHActivation_Mkhalid/OtherCharges/G09-Table4_2.com.o9641315.tmp/Gau-101092.inp" -scrdir="//home/sweav003/CHB/CHActivation_Mkhalid/OtherCharges/G09-Table4_2.com.o9641315.tmp/"
 Entering Link 1 = /cm/shared/apps/gaussian/g09revD.01/g09/l1.exe PID=    101093.
  
 Copyright (c) 1988,1990,1992,1993,1995,1998,2003,2009,2013,
            Gaussian, Inc.  All Rights Reserved.
  
 Thisis part of the Gaussian(R) 09 program.  It is based on
 the Gaussian(R) 03 system (copyright 2003, Gaussian, Inc.),
 the Gaussian(R) 98 system (copyright 1998, Gaussian, Inc.),
 the Gaussian(R) 94 system (copyright 1995, Gaussian, Inc.),
 the Gaussian 92(TM) system (copyright 1992, Gaussian, Inc.),
 the Gaussian 90(TM) system (copyright 1990, Gaussian, Inc.),
 the Gaussian 88(TM) system (copyright 1988, Gaussian, Inc.),
 the Gaussian 86(TM) system (copyright 1986, Carnegie Mellon
 University), and the Gaussian 82(TM) system (copyright 1983,
 Carnegie Mellon University). Gaussian is a federally registered
 trademark of Gaussian, Inc.
  
 This software contains proprietary and confidential information,
 including trade secrets, belonging to Gaussian, Inc.
  
 This software is provided under written license and may be
 used, copied, transmitted, or stored only in accord with that
 written license.
  
 The following legend is applicable only to US Government
 contracts under FAR:
  
                    RESTRICTED RIGHTS LEGEND
  
 Use, reproduction and disclosure by the US Government is
 subject to restrictions as set forth in subparagraphs (a)
 and (c) of the Commercial Computer Software - Restricted
 Rights clause in FAR 52.227-19.
  
 Gaussian, Inc.
 340 Quinnipiac St., Bldg. 40, Wallingford CT 06492
  
  
 ---------------------------------------------------------------
 Warning -- This program may not be used in any manner that
 competes with the business of Gaussian, Inc. or will provide
 assistance to any competitor of Gaussian, Inc.  The licensee
 of this program is prohibited from giving any competitor of
 Gaussian, Inc. access to this program.  By using this program,
 the user acknowledges that Gaussian, Inc. is engaged in the
 business of creating and licensing software in the field of
 computational chemistry and represents and warrants to the
 licensee that it is not a competitor of Gaussian, Inc. and that
 it will not use this program in any manner prohibited above.
 ---------------------------------------------------------------
  

 Cite this work as:
 Gaussian 09, Revision D.01,
 M. J. Frisch, G. W. Trucks, H. B. Schlegel, G. E. Scuseria, 
 M. A. Robb, J. R. Cheeseman, G. Scalmani, V. Barone, B. Mennucci, 
 G. A. Petersson, H. Nakatsuji, M. Caricato, X. Li, H. P. Hratchian, 
 A. F. Izmaylov, J. Bloino, G. Zheng, J. L. Sonnenberg, M. Hada, 
 M. Ehara, K. Toyota, R. Fukuda, J. Hasegawa, M. Ishida, T. Nakajima, 
 Y. Honda, O. Kitao, H. Nakai, T. Vreven, J. A. Montgomery, Jr., 
 J. E. Peralta, F. Ogliaro, M. Bearpark, J. J. Heyd, E. Brothers, 
 K. N. Kudin, V. N. Staroverov, T. Keith, R. Kobayashi, J. Normand, 
 K. Raghavachari, A. Rendell, J. C. Burant, S. S. Iyengar, J. Tomasi, 
 M. Cossi, N. Rega, J. M. Millam, M. Klene, J. E. Knox, J. B. Cross, 
 V. Bakken, C. Adamo, J. Jaramillo, R. Gomperts, R. E. Stratmann, 
 O. Yazyev, A. J. Austin, R. Cammi, C. Pomelli, J. W. Ochterski, 
 R. L. Martin, K. Morokuma, V. G. Zakrzewski, G. A. Voth, 
 P. Salvador, J. J. Dannenberg, S. Dapprich, A. D. Daniels, 
 O. Farkas, J. B. Foresman, J. V. Ortiz, J. Cioslowski, 
 and D. J. Fox, Gaussian, Inc., Wallingford CT, 2013.
 
 ******************************************
 Gaussian 09:  ES64L-G09RevD.01 24-Apr-2013
                17-Nov-2021 
 ******************************************
 %nprocshared=15
 Will use up to   15 processors via shared memory.
 %chk=Table4_2.chk
 ----------------------------------------------------------------------
 # opt freq b3lyp/6-311+g(d,p) geom=connectivity pop=(hirshfeld,chelpg,
 mbs,npa)
 ----------------------------------------------------------------------
 1/14=-1,18=20,19=15,26=3,38=1,57=2/1,3;
 2/9=110,12=2,17=6,18=5,40=1/2;
 3/5=4,6=6,7=111,11=2,16=1,25=1,30=1,71=1,74=-5/1,2,3;
 4//1;
 5/5=2,38=5/2;
 6/7=2,8=2,9=2,10=2,15=8,20=3,27=100,28=1,40=-1,79=1/1,2,7;
 7//1,2,3,16;
 1/14=-1,18=20,19=15,26=3/3(2);
 2/9=110/2;
 99//99;
 2/9=110/2;
 3/5=4,6=6,7=111,11=2,16=1,25=1,30=1,71=1,74=-5/1,2,3;
 4/5=5,16=3,69=1/1;
 5/5=2,38=5/2;
 7//1,2,3,16;
 1/14=-1,18=20,19=15,26=3/3(-5);
 2/9=110/2;
 6/7=2,8=2,9=2,10=2,15=8,19=2,20=3,27=100,28=1,40=-1,79=1/1,2,7;
 99/9=1/99;
 --------
 Table4_2
 --------
 Symbolic Z-matrix:
 Charge =  0 Multiplicity = 1
 C                    -0.21189  -0.63078  -0.00185 
 C                     1.18923  -0.65873  -0.0056 
 C                     1.91392   0.54051  -0.0297 
 C                     1.2375    1.76768  -0.05004 
 C                    -0.16362   1.79562  -0.04629 
 C                    -0.88831   0.59639  -0.0222 
 H                     1.70569  -1.5957    0.00994 
 H                     2.9837    0.51917  -0.03256 
 H                    -0.68008   2.7326   -0.06183 
 H                    -1.9581    0.61772  -0.01933 
 C                     2.03386   3.08552  -0.07653 
 O                     1.42646   4.18748  -0.0948 
 O                     3.46357   3.05701  -0.08036 
 O                    -0.95137  -1.85449   0.02274 
 C                    -1.20196  -2.287    -1.31705 
 H                    -1.75528  -3.20265  -1.29866 
 H                    -1.76682  -1.53924  -1.83348 
 H                    -0.27129  -2.44275  -1.82153 
 C                     3.96541   4.22698   0.57098 
 H                     5.01847   4.12294   0.72957 
 H                     3.78004   5.0839   -0.04239 
 H                     3.47323   4.34952   1.51313 
 

 GradGradGradGradGradGradGradGradGradGradGradGradGradGradGradGradGradGrad
 Berny optimization.
 Initialization pass.
                           ----------------------------
                           !    Initial Parameters    !
                           ! (Angstroms and Degrees)  !
 --------------------------                            --------------------------
 ! Name  Definition              Value          Derivative Info.                !
 --------------------------------------------------------------------------------
 ! R1    R(1,2)                  1.4014         estimate D2E/DX2                !
 ! R2    R(1,6)                  1.4014         estimate D2E/DX2                !
 ! R3    R(1,14)                 1.43           estimate D2E/DX2                !
 ! R4    R(2,3)                  1.4014         estimate D2E/DX2                !
 ! R5    R(2,7)                  1.07           estimate D2E/DX2                !
 ! R6    R(3,4)                  1.4014         estimate D2E/DX2                !
 ! R7    R(3,8)                  1.07           estimate D2E/DX2                !
 ! R8    R(4,5)                  1.4014         estimate D2E/DX2                !
 ! R9    R(4,11)                 1.54           estimate D2E/DX2                !
 ! R10   R(5,6)                  1.4014         estimate D2E/DX2                !
 ! R11   R(5,9)                  1.07           estimate D2E/DX2                !
 ! R12   R(6,10)                 1.07           estimate D2E/DX2                !
 ! R13   R(11,12)                1.2584         estimate D2E/DX2                !
 ! R14   R(11,13)                1.43           estimate D2E/DX2                !
 ! R15   R(13,19)                1.43           estimate D2E/DX2                !
 ! R16   R(14,15)                1.43           estimate D2E/DX2                !
 ! R17   R(15,16)                1.07           estimate D2E/DX2                !
 ! R18   R(15,17)                1.07           estimate D2E/DX2                !
 ! R19   R(15,18)                1.07           estimate D2E/DX2                !
 ! R20   R(19,20)                1.07           estimate D2E/DX2                !
 ! R21   R(19,21)                1.07           estimate D2E/DX2                !
 ! R22   R(19,22)                1.07           estimate D2E/DX2                !
 ! A1    A(2,1,6)              120.0            estimate D2E/DX2                !
 ! A2    A(2,1,14)             120.0            estimate D2E/DX2                !
 ! A3    A(6,1,14)             120.0            estimate D2E/DX2                !
 ! A4    A(1,2,3)              120.0            estimate D2E/DX2                !
 ! A5    A(1,2,7)              120.0            estimate D2E/DX2                !
 ! A6    A(3,2,7)              120.0            estimate D2E/DX2                !
 ! A7    A(2,3,4)              120.0            estimate D2E/DX2                !
 ! A8    A(2,3,8)              120.0            estimate D2E/DX2                !
 ! A9    A(4,3,8)              120.0            estimate D2E/DX2                !
 ! A10   A(3,4,5)              120.0            estimate D2E/DX2                !
 ! A11   A(3,4,11)             120.0            estimate D2E/DX2                !
 ! A12   A(5,4,11)             120.0            estimate D2E/DX2                !
 ! A13   A(4,5,6)              120.0            estimate D2E/DX2                !
 ! A14   A(4,5,9)              120.0            estimate D2E/DX2                !
 ! A15   A(6,5,9)              120.0            estimate D2E/DX2                !
 ! A16   A(1,6,5)              120.0            estimate D2E/DX2                !
 ! A17   A(1,6,10)             120.0            estimate D2E/DX2                !
 ! A18   A(5,6,10)             120.0            estimate D2E/DX2                !
 ! A19   A(4,11,12)            120.0            estimate D2E/DX2                !
 ! A20   A(4,11,13)            120.0            estimate D2E/DX2                !
 ! A21   A(12,11,13)           120.0            estimate D2E/DX2                !
 ! A22   A(11,13,19)           109.4712         estimate D2E/DX2                !
 ! A23   A(1,14,15)            109.4712         estimate D2E/DX2                !
 ! A24   A(14,15,16)           109.4712         estimate D2E/DX2                !
 ! A25   A(14,15,17)           109.4712         estimate D2E/DX2                !
 ! A26   A(14,15,18)           109.4712         estimate D2E/DX2                !
 ! A27   A(16,15,17)           109.4712         estimate D2E/DX2                !
 ! A28   A(16,15,18)           109.4712         estimate D2E/DX2                !
 ! A29   A(17,15,18)           109.4712         estimate D2E/DX2                !
 ! A30   A(13,19,20)           109.4712         estimate D2E/DX2                !
 ! A31   A(13,19,21)           109.4712         estimate D2E/DX2                !
 ! A32   A(13,19,22)           109.4712         estimate D2E/DX2                !
 ! A33   A(20,19,21)           109.4713         estimate D2E/DX2                !
 ! A34   A(20,19,22)           109.4712         estimate D2E/DX2                !
 ! A35   A(21,19,22)           109.4712         estimate D2E/DX2                !
 ! D1    D(6,1,2,3)              0.0            estimate D2E/DX2                !
 ! D2    D(6,1,2,7)            179.9999         estimate D2E/DX2                !
 ! D3    D(14,1,2,3)           180.0            estimate D2E/DX2                !
 ! D4    D(14,1,2,7)            -0.0001         estimate D2E/DX2                !
 ! D5    D(2,1,6,5)              0.0            estimate D2E/DX2                !
 ! D6    D(2,1,6,10)          -180.0            estimate D2E/DX2                !
 ! D7    D(14,1,6,5)          -180.0            estimate D2E/DX2                !
 ! D8    D(14,1,6,10)            0.0            estimate D2E/DX2                !
 ! D9    D(2,1,14,15)          -90.0            estimate D2E/DX2                !
 ! D10   D(6,1,14,15)           90.0            estimate D2E/DX2                !
 ! D11   D(1,2,3,4)              0.0            estimate D2E/DX2                !
 ! D12   D(1,2,3,8)           -179.9998         estimate D2E/DX2                !
 ! D13   D(7,2,3,4)            180.0            estimate D2E/DX2                !
 ! D14   D(7,2,3,8)              0.0002         estimate D2E/DX2                !
 ! D15   D(2,3,4,5)              0.0001         estimate D2E/DX2                !
 ! D16   D(2,3,4,11)          -179.9999         estimate D2E/DX2                !
 ! D17   D(8,3,4,5)            179.9999         estimate D2E/DX2                !
 ! D18   D(8,3,4,11)            -0.0001         estimate D2E/DX2                !
 ! D19   D(3,4,5,6)             -0.0001         estimate D2E/DX2                !
 ! D20   D(3,4,5,9)            179.9999         estimate D2E/DX2                !
 ! D21   D(11,4,5,6)           179.9999         estimate D2E/DX2                !
 ! D22   D(11,4,5,9)            -0.0001         estimate D2E/DX2                !
 ! D23   D(3,4,11,12)         -180.0            estimate D2E/DX2                !
 ! D24   D(3,4,11,13)            0.0            estimate D2E/DX2                !
 ! D25   D(5,4,11,12)            0.0            estimate D2E/DX2                !
 ! D26   D(5,4,11,13)         -180.0            estimate D2E/DX2                !
 ! D27   D(4,5,6,1)              0.0            estimate D2E/DX2                !
 ! D28   D(4,5,6,10)          -180.0            estimate D2E/DX2                !
 ! D29   D(9,5,6,1)            180.0            estimate D2E/DX2                !
 ! D30   D(9,5,6,10)             0.0            estimate D2E/DX2                !
 ! D31   D(4,11,13,19)        -150.0            estimate D2E/DX2                !
 ! D32   D(12,11,13,19)         30.0            estimate D2E/DX2                !
 ! D33   D(11,13,19,20)        169.6394         estimate D2E/DX2                !
 ! D34   D(11,13,19,21)        -70.3606         estimate D2E/DX2                !
 ! D35   D(11,13,19,22)         49.6394         estimate D2E/DX2                !
 ! D36   D(1,14,15,16)         180.0            estimate D2E/DX2                !
 ! D37   D(1,14,15,17)         -60.0            estimate D2E/DX2                !
 ! D38   D(1,14,15,18)          60.0            estimate D2E/DX2                !
 --------------------------------------------------------------------------------
 Trust Radius=3.00D-01 FncErr=1.00D-07 GrdErr=1.00D-06
 Number of steps in this run=    105 maximum allowed number of steps=    132.
 GradGradGradGradGradGradGradGradGradGradGradGradGradGradGradGradGradGrad

                          Input orientation:                          
 ---------------------------------------------------------------------
 Center     Atomic      Atomic             Coordinates (Angstroms)
 Number     Number       Type             X           Y           Z
 ---------------------------------------------------------------------
      1          6           0       -0.211888   -0.630785   -0.001851
      2          6           0        1.189228   -0.658726   -0.005600
      3          6           0        1.913921    0.540508   -0.029697
      4          6           0        1.237497    1.767683   -0.050044
      5          6           0       -0.163620    1.795624   -0.046293
      6          6           0       -0.888312    0.596390   -0.022197
      7          1           0        1.705693   -1.595701    0.009935
      8          1           0        2.983704    0.519175   -0.032562
      9          1           0       -0.680084    2.732600   -0.061828
     10          1           0       -1.958095    0.617724   -0.019334
     11          6           0        2.033862    3.085523   -0.076527
     12          8           0        1.426461    4.187476   -0.094797
     13          8           0        3.463573    3.057012   -0.080355
     14          8           0       -0.951370   -1.854493    0.022736
     15          6           0       -1.201962   -2.287004   -1.317054
     16          1           0       -1.755281   -3.202645   -1.298657
     17          1           0       -1.766820   -1.539245   -1.833477
     18          1           0       -0.271291   -2.442747   -1.821530
     19          6           0        3.965411    4.226976    0.570982
     20          1           0        5.018467    4.122936    0.729567
     21          1           0        3.780038    5.083899   -0.042385
     22          1           0        3.473231    4.349522    1.513129
 ---------------------------------------------------------------------
                    Distance matrix (angstroms):
                    1          2          3          4          5
     1  C    0.000000
     2  C    1.401400   0.000000
     3  C    2.427296   1.401400   0.000000
     4  C    2.802800   2.427296   1.401400   0.000000
     5  C    2.427296   2.802800   2.427296   1.401400   0.000000
     6  C    1.401400   2.427296   2.802800   2.427296   1.401400
     7  H    2.146700   1.070000   2.146700   3.396345   3.872800
     8  H    3.396345   2.146700   1.070000   2.146700   3.396345
     9  H    3.396345   3.872800   3.396345   2.146700   1.070000
    10  H    2.146700   3.396345   3.872800   3.396345   2.146700
    11  C    4.342800   3.838989   2.548270   1.540000   2.548270
    12  O    5.090036   4.852825   3.679977   2.427572   2.872571
    13  O    5.207208   4.357170   2.955804   2.572683   3.840414
    14  O    1.430000   2.452106   3.734792   4.232800   3.734792
    15  C    2.335180   3.176317   4.400095   4.898649   4.400095
    16  H    3.267757   4.100446   5.393005   5.934637   5.393005
    17  H    2.568651   3.585341   4.596395   4.810647   4.109213
    18  H    2.568651   2.934868   4.109213   4.810647   4.596395
    19  C    6.432403   5.648869   4.261394   3.724958   4.831294
    20  H    7.105593   6.169913   4.800883   4.522250   5.733442
    21  H    6.970992   6.300110   4.911716   4.178739   5.134706
    22  H    6.377987   5.710144   4.395491   3.756049   4.709657
                    6          7          8          9         10
     6  C    0.000000
     7  H    3.396345   0.000000
     8  H    3.872800   2.471400   0.000000
     9  H    2.146700   4.942800   4.280590   0.000000
    10  H    1.070000   4.280590   4.942800   2.471400   0.000000
    11  C    3.838989   4.693509   2.736837   2.736837   4.693509
    12  O    4.273095   5.790861   3.985638   2.560329   4.919761
    13  O    4.999694   4.974538   2.583249   4.156378   5.945446
    14  O    2.452106   2.669667   4.595886   4.595886   2.669667
    15  C    3.176317   3.270055   5.200419   5.200420   3.270055
    16  H    4.100446   4.033984   6.157347   6.157347   4.033983
    17  H    2.934868   3.931883   5.481593   4.750620   2.824928
    18  H    3.585341   2.824928   4.750619   5.481594   3.931883
    19  C    6.090291   6.270939   3.882758   4.920797   6.961545
    20  H    6.920384   6.647943   4.208111   5.918854   7.843455
    21  H    6.475464   6.994477   4.633676   5.041992   7.271412
    22  H    5.955357   6.381963   4.159369   4.727045   6.765653
                   11         12         13         14         15
    11  C    0.000000
    12  O    1.258400   0.000000
    13  O    1.430000   2.329803   0.000000
    14  O    5.772800   6.494096   6.604939   0.000000
    15  C    6.393239   7.093758   7.201051   1.430000   0.000000
    16  H    7.442598   8.135518   8.240388   2.051796   1.070000
    17  H    6.238632   6.783464   7.180252   2.051796   1.070000
    18  H    6.238632   7.058599   6.872281   2.051796   1.070000
    19  C    2.335180   2.625089   1.430000   7.839616   8.526334
    20  H    3.260963   3.685953   2.051796   8.477513   9.163499
    21  H    2.654017   2.519057   2.051796   8.398318   8.987509
    22  H    2.489273   2.607864   2.051796   7.764545   8.597141
                   16         17         18         19         20
    16  H    0.000000
    17  H    1.747303   0.000000
    18  H    1.747303   1.747303   0.000000
    19  C    9.561441   8.478750   8.255845   0.000000
    20  H   10.181429   9.201609   8.808963   1.070000   0.000000
    21  H   10.044142   8.822793   8.730924   1.070000   1.747303
    22  H    9.606180   8.563613   8.442530   1.070000   1.747303
                   21         22
    21  H    0.000000
    22  H    1.747303   0.000000
 Stoichiometry    C9H10O3
 Framework group  C1[X(C9H10O3)]
 Deg. of freedom    60
 Full point group                 C1      NOp   1
 Largest Abelian subgroup         C1      NOp   1
 Largest concise Abelian subgroup C1      NOp   1
                         Standard orientation:                         
 ---------------------------------------------------------------------
 Center     Atomic      Atomic             Coordinates (Angstroms)
 Number     Number       Type             X           Y           Z
 ---------------------------------------------------------------------
      1          6           0        2.146920   -0.058770   -0.350885
      2          6           0        1.358346   -1.210624   -0.227175
      3          6           0       -0.027150   -1.095659   -0.050810
      4          6           0       -0.624073    0.171162    0.001845
      5          6           0        0.164501    1.323016   -0.121867
      6          6           0        1.549998    1.208050   -0.298232
      7          1           0        1.814109   -2.177870   -0.267377
      8          1           0       -0.629244   -1.975125    0.043649
      9          1           0       -0.291262    2.290261   -0.081665
     10          1           0        2.152091    2.087517   -0.392688
     11          6           0       -2.146596    0.297498    0.195655
     12          8           0       -2.682608    1.435050    0.242937
     13          8           0       -2.951263   -0.877864    0.321893
     14          8           0        3.560692   -0.176082   -0.530848
     15          6           0        4.204255   -0.189562    0.746079
     16          1           0        5.262113   -0.277341    0.611422
     17          1           0        3.985081    0.719832    1.265564
     18          1           0        3.847120   -1.021265    1.316715
     19          6           0       -4.259233   -0.617790   -0.194320
     20          1           0       -4.802822   -1.536486   -0.267863
     21          1           0       -4.775574    0.050543    0.462661
     22          1           0       -4.177993   -0.172825   -1.164014
 ---------------------------------------------------------------------
 Rotational constants (GHZ):      2.9974905      0.4182174      0.3799643
 Standard basis: 6-311+G(d,p) (5D, 7F)
 There are   336 symmetry adapted cartesian basis functions of A   symmetry.
 There are   324 symmetry adapted basis functions of A   symmetry.
   324 basis functions,   512 primitive gaussians,   336 cartesian basis functions
    44 alpha electrons       44 beta electrons
       nuclear repulsion energy       659.1863973120 Hartrees.
 NAtoms=   22 NActive=   22 NUniq=   22 SFac= 1.00D+00 NAtFMM=   60 NAOKFM=F Big=F
 Integral buffers will be    131072 words long.
 Raffenetti 2 integral format.
 Two-electron integral symmetry is turned on.
 One-electron integrals computed using PRISM.
 PrsmSu:  requested number of processors reduced to:   9 ShMem   1 Linda.
 NBasis=   324 RedAO= T EigKep=  2.16D-06  NBF=   324
 NBsUse=   324 1.00D-06 EigRej= -1.00D+00 NBFU=   324
 ExpMin= 4.38D-02 ExpMax= 8.59D+03 ExpMxC= 1.30D+03 IAcc=2 IRadAn=         4 AccDes= 0.00D+00
 Harris functional with IExCor=  402 and IRadAn=       4 diagonalized for initial guess.
 HarFok:  IExCor=  402 AccDes= 0.00D+00 IRadAn=         4 IDoV= 1 UseB2=F ITyADJ=14
 ICtDFT=  3500011 ScaDFX=  1.000000  1.000000  1.000000  1.000000
 FoFCou: FMM=F IPFlag=           0 FMFlag=      100000 FMFlg1=           0
         NFxFlg=           0 DoJE=T BraDBF=F KetDBF=T FulRan=T
         wScrn=  0.000000 ICntrl=     500 IOpCl=  0 I1Cent=   200000004 NGrid=           0
         NMat0=    1 NMatS0=      1 NMatT0=    0 NMatD0=    1 NMtDS0=    0 NMtDT0=    0
 Petite list used in FoFCou.
 Requested convergence on RMS density matrix=1.00D-08 within 128 cycles.
 Requested convergence on MAX density matrix=1.00D-06.
 Requested convergence on             energy=1.00D-06.
 No special actions if energy rises.
 SCF Done:  E(RB3LYP) =  -574.785911356     A.U. after   16 cycles
            NFock= 16  Conv=0.19D-08     -V/T= 2.0044

 **********************************************************************

            Population analysis using the SCF density.

 **********************************************************************

 Orbital symmetries:
       Occupied  (A) (A) (A) (A) (A) (A) (A) (A) (A) (A) (A) (A)
                 (A) (A) (A) (A) (A) (A) (A) (A) (A) (A) (A) (A)
                 (A) (A) (A) (A) (A) (A) (A) (A) (A) (A) (A) (A)
                 (A) (A) (A) (A) (A) (A) (A) (A)
       Virtual   (A) (A) (A) (A) (A) (A) (A) (A) (A) (A) (A) (A)
                 (A) (A) (A) (A) (A) (A) (A) (A) (A) (A) (A) (A)
                 (A) (A) (A) (A) (A) (A) (A) (A) (A) (A) (A) (A)
                 (A) (A) (A) (A) (A) (A) (A) (A) (A) (A) (A) (A)
                 (A) (A) (A) (A) (A) (A) (A) (A) (A) (A) (A) (A)
                 (A) (A) (A) (A) (A) (A) (A) (A) (A) (A) (A) (A)
                 (A) (A) (A) (A) (A) (A) (A) (A) (A) (A) (A) (A)
                 (A) (A) (A) (A) (A) (A) (A) (A) (A) (A) (A) (A)
                 (A) (A) (A) (A) (A) (A) (A) (A) (A) (A) (A) (A)
                 (A) (A) (A) (A) (A) (A) (A) (A) (A) (A) (A) (A)
                 (A) (A) (A) (A) (A) (A) (A) (A) (A) (A) (A) (A)
                 (A) (A) (A) (A) (A) (A) (A) (A) (A) (A) (A) (A)
                 (A) (A) (A) (A) (A) (A) (A) (A) (A) (A) (A) (A)
                 (A) (A) (A) (A) (A) (A) (A) (A) (A) (A) (A) (A)
                 (A) (A) (A) (A) (A) (A) (A) (A) (A) (A) (A) (A)
                 (A) (A) (A) (A) (A) (A) (A) (A) (A) (A) (A) (A)
                 (A) (A) (A) (A) (A) (A) (A) (A) (A) (A) (A) (A)
                 (A) (A) (A) (A) (A) (A) (A) (A) (A) (A) (A) (A)
                 (A) (A) (A) (A) (A) (A) (A) (A) (A) (A) (A) (A)
                 (A) (A) (A) (A) (A) (A) (A) (A) (A) (A) (A) (A)
                 (A) (A) (A) (A) (A) (A) (A) (A) (A) (A) (A) (A)
                 (A) (A) (A) (A) (A) (A) (A) (A) (A) (A) (A) (A)
                 (A) (A) (A) (A) (A) (A) (A) (A) (A) (A) (A) (A)
                 (A) (A) (A) (A)
 The electronic state is 1-A.
 Alpha  occ. eigenvalues --  -19.17326 -19.15203 -19.12407 -10.32442 -10.25430
 Alpha  occ. eigenvalues --  -10.22133 -10.21841 -10.21431 -10.20132 -10.20114
 Alpha  occ. eigenvalues --  -10.19635 -10.19585  -1.09008  -1.05568  -1.01052
 Alpha  occ. eigenvalues --   -0.87801  -0.78117  -0.77260  -0.72496  -0.70313
 Alpha  occ. eigenvalues --   -0.63719  -0.63147  -0.58100  -0.54684  -0.51967
 Alpha  occ. eigenvalues --   -0.49888  -0.48395  -0.47641  -0.47245  -0.46783
 Alpha  occ. eigenvalues --   -0.45342  -0.44893  -0.44365  -0.41187  -0.40012
 Alpha  occ. eigenvalues --   -0.38199  -0.37645  -0.36566  -0.35528  -0.30807
 Alpha  occ. eigenvalues --   -0.29246  -0.28790  -0.27738  -0.27019
 Alpha virt. eigenvalues --   -0.07171  -0.03616  -0.00088   0.00870   0.01483
 Alpha virt. eigenvalues --    0.02027   0.02220   0.02997   0.03875   0.04151
 Alpha virt. eigenvalues --    0.04620   0.04774   0.06276   0.06795   0.06919
 Alpha virt. eigenvalues --    0.07751   0.08521   0.09351   0.09457   0.10515
 Alpha virt. eigenvalues --    0.11394   0.12161   0.12264   0.13183   0.13462
 Alpha virt. eigenvalues --    0.13782   0.14176   0.14520   0.14922   0.15753
 Alpha virt. eigenvalues --    0.16427   0.17079   0.17619   0.17767   0.18422
 Alpha virt. eigenvalues --    0.18973   0.19250   0.19737   0.20367   0.20811
 Alpha virt. eigenvalues --    0.21087   0.21731   0.21915   0.22507   0.22821
 Alpha virt. eigenvalues --    0.22932   0.23432   0.24364   0.24892   0.25547
 Alpha virt. eigenvalues --    0.25819   0.26514   0.27370   0.27739   0.28292
 Alpha virt. eigenvalues --    0.29170   0.29547   0.30748   0.31520   0.31902
 Alpha virt. eigenvalues --    0.32314   0.34163   0.34656   0.35356   0.35710
 Alpha virt. eigenvalues --    0.36098   0.36518   0.36969   0.39215   0.41332
 Alpha virt. eigenvalues --    0.43608   0.44357   0.45310   0.46352   0.47586
 Alpha virt. eigenvalues --    0.48584   0.49843   0.52820   0.52945   0.53354
 Alpha virt. eigenvalues --    0.54355   0.55717   0.56165   0.56543   0.57958
 Alpha virt. eigenvalues --    0.59588   0.61304   0.61713   0.62896   0.63265
 Alpha virt. eigenvalues --    0.63983   0.65537   0.65966   0.66520   0.66942
 Alpha virt. eigenvalues --    0.68963   0.70232   0.70386   0.70855   0.71263
 Alpha virt. eigenvalues --    0.71865   0.72184   0.74109   0.79049   0.81218
 Alpha virt. eigenvalues --    0.82327   0.84629   0.85135   0.86073   0.87782
 Alpha virt. eigenvalues --    0.88138   0.89122   0.91105   0.92966   0.96367
 Alpha virt. eigenvalues --    0.98211   0.98887   0.99758   1.00383   1.01161
 Alpha virt. eigenvalues --    1.02776   1.04804   1.05316   1.06358   1.08410
 Alpha virt. eigenvalues --    1.09361   1.12858   1.13868   1.14708   1.18261
 Alpha virt. eigenvalues --    1.19827   1.21035   1.23576   1.26170   1.27555
 Alpha virt. eigenvalues --    1.29113   1.30899   1.31950   1.35936   1.38641
 Alpha virt. eigenvalues --    1.40400   1.44451   1.45727   1.47676   1.48792
 Alpha virt. eigenvalues --    1.49840   1.50661   1.51331   1.51733   1.53368
 Alpha virt. eigenvalues --    1.56555   1.57046   1.57684   1.59136   1.60532
 Alpha virt. eigenvalues --    1.63523   1.64742   1.65510   1.67915   1.68299
 Alpha virt. eigenvalues --    1.69566   1.70761   1.71990   1.72626   1.75685
 Alpha virt. eigenvalues --    1.76224   1.76930   1.78966   1.81307   1.81961
 Alpha virt. eigenvalues --    1.86100   1.88633   1.90115   1.90334   1.94055
 Alpha virt. eigenvalues --    1.96036   1.96246   1.97564   1.99792   2.04048
 Alpha virt. eigenvalues --    2.04941   2.06140   2.07208   2.11302   2.12890
 Alpha virt. eigenvalues --    2.14845   2.17608   2.19054   2.19461   2.21718
 Alpha virt. eigenvalues --    2.25578   2.31043   2.39206   2.39942   2.42335
 Alpha virt. eigenvalues --    2.43959   2.44837   2.51206   2.53686   2.53835
 Alpha virt. eigenvalues --    2.54348   2.54879   2.55949   2.60484   2.61250
 Alpha virt. eigenvalues --    2.63607   2.64281   2.65385   2.67292   2.69756
 Alpha virt. eigenvalues --    2.70138   2.70661   2.72855   2.74428   2.74984
 Alpha virt. eigenvalues --    2.77720   2.78880   2.81805   2.83879   2.85087
 Alpha virt. eigenvalues --    2.87870   2.89428   2.90475   2.91447   2.93897
 Alpha virt. eigenvalues --    2.97521   3.01709   3.04754   3.06831   3.08325
 Alpha virt. eigenvalues --    3.11634   3.12054   3.15664   3.18899   3.23482
 Alpha virt. eigenvalues --    3.27228   3.29287   3.29902   3.34580   3.37837
 Alpha virt. eigenvalues --    3.47429   3.51017   3.53146   3.60244   3.62530
 Alpha virt. eigenvalues --    3.71079   3.83745   3.84041   3.84675   3.84920
 Alpha virt. eigenvalues --    3.98751   4.01843   4.03292   4.09466   4.13058
 Alpha virt. eigenvalues --    4.15871   4.16358   4.26743   4.81685   5.01187
 Alpha virt. eigenvalues --    5.04353   5.13596   5.19065   5.32762   5.37179
 Alpha virt. eigenvalues --    5.57524   5.66864   5.77789  23.56645  23.69129
 Alpha virt. eigenvalues --   23.88416  23.94215  23.95363  23.95954  24.01939
 Alpha virt. eigenvalues --   24.06735  24.14998  49.87993  49.92180  49.97076
          Condensed to atoms (all electrons):
               1          2          3          4          5          6
     1  C    7.636402  -0.889251   0.499391  -0.502942   0.310503  -0.837426
     2  C   -0.889251  12.442994  -5.731570   0.491461   0.835045  -1.411159
     3  C    0.499391  -5.731570  15.393250  -1.186592  -3.614541   0.754141
     4  C   -0.502942   0.491461  -1.186592  14.097208  -0.904464   0.348456
     5  C    0.310503   0.835045  -3.614541  -0.904464  14.042385  -4.854161
     6  C   -0.837426  -1.411159   0.754141   0.348456  -4.854161  11.811686
     7  H   -0.024501   0.395205   0.008920   0.000342  -0.011045  -0.025619
     8  H    0.005667  -0.006237   0.370830  -0.047354  -0.017598  -0.003397
     9  H    0.015140  -0.015300   0.004423  -0.073455   0.365066  -0.025102
    10  H   -0.028155  -0.026593  -0.005626   0.008888  -0.010187   0.407339
    11  C   -0.084988  -0.162651   0.191580  -6.272125   0.302304  -0.217113
    12  O   -0.014215   0.074338  -0.075597  -0.186658  -0.041163   0.086701
    13  O   -0.009630   0.054766  -0.039071  -0.498844  -0.014065   0.034903
    14  O    0.647156  -0.277704   0.041189  -0.012909   0.032688  -0.276277
    15  C   -0.287814   0.085471  -0.002269   0.000393   0.004929   0.085255
    16  H    0.019775  -0.002128  -0.000002  -0.000561   0.000531  -0.000963
    17  H   -0.019407  -0.016951   0.014194   0.000131  -0.018859   0.037043
    18  H   -0.016823   0.035589  -0.016987  -0.000775   0.012221  -0.016114
    19  C   -0.005306  -0.016124  -0.005083  -0.309561  -0.012874  -0.017189
    20  H   -0.000050   0.000650  -0.006177   0.013191   0.004208   0.000606
    21  H    0.000075  -0.001300  -0.003532  -0.034795   0.000453  -0.002739
    22  H    0.000465   0.000856   0.002722   0.076706  -0.007180   0.000644
               7          8          9         10         11         12
     1  C   -0.024501   0.005667   0.015140  -0.028155  -0.084988  -0.014215
     2  C    0.395205  -0.006237  -0.015300  -0.026593  -0.162651   0.074338
     3  C    0.008920   0.370830   0.004423  -0.005626   0.191580  -0.075597
     4  C    0.000342  -0.047354  -0.073455   0.008888  -6.272125  -0.186658
     5  C   -0.011045  -0.017598   0.365066  -0.010187   0.302304  -0.041163
     6  C   -0.025619  -0.003397  -0.025102   0.407339  -0.217113   0.086701
     7  H    0.518982  -0.006949   0.000054  -0.000121   0.015704  -0.000018
     8  H   -0.006949   0.498525  -0.000161   0.000044   0.051254  -0.000124
     9  H    0.000054  -0.000161   0.491220  -0.006530   0.081546   0.004602
    10  H   -0.000121   0.000044  -0.006530   0.515704   0.013964   0.000008
    11  C    0.015704   0.051254   0.081546   0.013964  11.346682   0.507107
    12  O   -0.000018  -0.000124   0.004602   0.000008   0.507107   8.103280
    13  O    0.000216   0.002881   0.000770   0.000026   0.437921  -0.142299
    14  O   -0.004930  -0.000435  -0.000462  -0.004908  -0.006123   0.000031
    15  C   -0.001543  -0.000124  -0.000232  -0.001307  -0.018886   0.000029
    16  H   -0.000243  -0.000002  -0.000001  -0.000245  -0.000056   0.000000
    17  H    0.000088  -0.000005   0.000040   0.001059  -0.000518   0.000000
    18  H    0.001027   0.000052  -0.000003   0.000091  -0.000185  -0.000001
    19  C    0.000093  -0.000819   0.000825   0.000047   0.108219  -0.055291
    20  H    0.000000   0.000055   0.000000   0.000000   0.019988   0.004128
    21  H    0.000000  -0.000059  -0.000006   0.000000   0.020746  -0.004309
    22  H    0.000000   0.000101  -0.000018   0.000000  -0.077355  -0.000137
              13         14         15         16         17         18
     1  C   -0.009630   0.647156  -0.287814   0.019775  -0.019407  -0.016823
     2  C    0.054766  -0.277704   0.085471  -0.002128  -0.016951   0.035589
     3  C   -0.039071   0.041189  -0.002269  -0.000002   0.014194  -0.016987
     4  C   -0.498844  -0.012909   0.000393  -0.000561   0.000131  -0.000775
     5  C   -0.014065   0.032688   0.004929   0.000531  -0.018859   0.012221
     6  C    0.034903  -0.276277   0.085255  -0.000963   0.037043  -0.016114
     7  H    0.000216  -0.004930  -0.001543  -0.000243   0.000088   0.001027
     8  H    0.002881  -0.000435  -0.000124  -0.000002  -0.000005   0.000052
     9  H    0.000770  -0.000462  -0.000232  -0.000001   0.000040  -0.000003
    10  H    0.000026  -0.004908  -0.001307  -0.000245   0.001059   0.000091
    11  C    0.437921  -0.006123  -0.018886  -0.000056  -0.000518  -0.000185
    12  O   -0.142299   0.000031   0.000029   0.000000   0.000000  -0.000001
    13  O    8.246418  -0.000006  -0.000054   0.000000  -0.000001   0.000000
    14  O   -0.000006   8.004821   0.182128  -0.048749  -0.046761  -0.046951
    15  C   -0.000054   0.182128   4.976132   0.407802   0.417152   0.416255
    16  H    0.000000  -0.048749   0.407802   0.527162  -0.028553  -0.028659
    17  H   -0.000001  -0.046761   0.417152  -0.028553   0.574702  -0.050025
    18  H    0.000000  -0.046951   0.416255  -0.028659  -0.050025   0.575191
    19  C    0.198953  -0.000011  -0.000169   0.000000  -0.000005   0.000000
    20  H   -0.056603   0.000000   0.000000   0.000000   0.000000   0.000000
    21  H   -0.035410   0.000000   0.000000   0.000000   0.000000   0.000000
    22  H   -0.038072   0.000000  -0.000001   0.000000   0.000000   0.000000
              19         20         21         22
     1  C   -0.005306  -0.000050   0.000075   0.000465
     2  C   -0.016124   0.000650  -0.001300   0.000856
     3  C   -0.005083  -0.006177  -0.003532   0.002722
     4  C   -0.309561   0.013191  -0.034795   0.076706
     5  C   -0.012874   0.004208   0.000453  -0.007180
     6  C   -0.017189   0.000606  -0.002739   0.000644
     7  H    0.000093   0.000000   0.000000   0.000000
     8  H   -0.000819   0.000055  -0.000059   0.000101
     9  H    0.000825   0.000000  -0.000006  -0.000018
    10  H    0.000047   0.000000   0.000000   0.000000
    11  C    0.108219   0.019988   0.020746  -0.077355
    12  O   -0.055291   0.004128  -0.004309  -0.000137
    13  O    0.198953  -0.056603  -0.035410  -0.038072
    14  O   -0.000011   0.000000   0.000000   0.000000
    15  C   -0.000169   0.000000   0.000000  -0.000001
    16  H    0.000000   0.000000   0.000000   0.000000
    17  H   -0.000005   0.000000   0.000000   0.000000
    18  H    0.000000   0.000000   0.000000   0.000000
    19  C    5.065602   0.393886   0.443998   0.414205
    20  H    0.393886   0.537509  -0.029754  -0.028615
    21  H    0.443998  -0.029754   0.521894  -0.037518
    22  H    0.414205  -0.028615  -0.037518   0.547319
 Mulliken charges:
               1
     1  C   -0.414066
     2  C    0.140595
     3  C   -0.593590
     4  C    0.994259
     5  C   -0.404195
     6  C    0.120486
     7  H    0.134339
     8  H    0.153855
     9  H    0.157584
    10  H    0.136504
    11  C   -0.257017
    12  O   -0.260410
    13  O   -0.142797
    14  O   -0.181786
    15  C   -0.263150
    16  H    0.154892
    17  H    0.136677
    18  H    0.136100
    19  C   -0.203396
    20  H    0.146978
    21  H    0.162258
    22  H    0.145881
 Sum of Mulliken charges =   0.00000
 Mulliken charges with hydrogens summed into heavy atoms:
               1
     1  C   -0.414066
     2  C    0.274933
     3  C   -0.439735
     4  C    0.994259
     5  C   -0.246610
     6  C    0.256990
    11  C   -0.257017
    12  O   -0.260410
    13  O   -0.142797
    14  O   -0.181786
    15  C    0.164520
    19  C    0.251720
 Electronic spatial extent (au):  <R**2>=           2850.5217
 Charge=              0.0000 electrons
 Dipole moment (field-independent basis, Debye):
    X=              1.0932    Y=             -1.4269    Z=              0.5960  Tot=              1.8938
 Quadrupole moment (field-independent basis, Debye-Ang):
   XX=            -63.4355   YY=            -69.5822   ZZ=            -73.4006
   XY=              6.3373   XZ=              9.2241   YZ=             -0.4399
 Traceless Quadrupole moment (field-independent basis, Debye-Ang):
   XX=              5.3706   YY=             -0.7761   ZZ=             -4.5945
   XY=              6.3373   XZ=              9.2241   YZ=             -0.4399
 Octapole moment (field-independent basis, Debye-Ang**2):
  XXX=            -23.8848  YYY=             -4.9716  ZZZ=              2.3731  XYY=             15.1216
  XXY=            -21.6910  XXZ=             16.8226  XZZ=             -7.3397  YZZ=              0.6385
  YYZ=             -1.9913  XYZ=             -2.5346
 Hexadecapole moment (field-independent basis, Debye-Ang**3):
 XXXX=          -2718.2446 YYYY=           -434.6828 ZZZZ=           -147.5483 XXXY=             81.6911
 XXXZ=            133.2028 YYYX=             20.4706 YYYZ=             -2.0271 ZZZX=             -0.8529
 ZZZY=              0.5309 XXYY=           -611.2601 XXZZ=           -549.6985 YYZZ=           -107.5309
 XXYZ=             -1.7052 YYXZ=              2.1022 ZZXY=             -2.7604
 N-N= 6.591863973120D+02 E-N=-2.660853025073D+03  KE= 5.722495030350D+02
 There are a total of      182612 grid points.
 ElSum from          density=       88.0000533558
 ElSum from atomic densities=       87.9996709296

 Hirshfeld populations at iteration   1 (CX, CA, CB, DipXYZ):
               1          2          3          4          5          6
     1  C    0.000000   2.957726   2.957726   0.144803  -0.010833  -0.017815
     2  C    0.000000   3.023830   3.023830   0.019755  -0.059576  -0.005393
     3  C    0.000000   3.015418   3.015418  -0.025212  -0.057941   0.004025
     4  C    0.000000   3.006733   3.006733  -0.056888   0.011889   0.007754
     5  C    0.000000   3.011772   3.011772  -0.019522   0.058797  -0.000679
     6  C    0.000000   3.022554   3.022554   0.029633   0.056861  -0.009126
     7  H    0.000001   0.472371   0.472371   0.061413  -0.156264  -0.005019
     8  H    0.000001   0.473393   0.473393  -0.066687  -0.145042   0.012445
     9  H    0.000001   0.471944   0.471944  -0.040818   0.156365   0.002099
    10  H    0.000001   0.471614   0.471614   0.085552   0.144826  -0.013914
    11  C    0.000000   2.888851   2.888851  -0.037621  -0.090105   0.001779
    12  O    0.000002   4.138508   4.138508   0.041852  -0.097999  -0.007775
    13  O    0.000001   4.074613   4.074613  -0.072330   0.124934  -0.059096
    14  O    0.000005   4.086421   4.086421  -0.072876   0.010948   0.170643
    15  C    0.000000   3.007863   3.007863   0.000037  -0.001234  -0.050091
    16  H    0.000001   0.473623   0.473623   0.159718  -0.012883  -0.009521
    17  H    0.000000   0.481465   0.481465  -0.012983   0.122316   0.078111
    18  H    0.000000   0.481579   0.481579  -0.031512  -0.113717   0.085009
    19  C    0.000000   3.008239   3.008239   0.036123  -0.037959   0.019090
    20  H    0.000000   0.474531   0.474531  -0.093526  -0.129598  -0.015355
    21  H    0.000001   0.478665   0.478665  -0.097928   0.078204   0.090490
    22  H    0.000000   0.478315   0.478315  -0.006968   0.051304  -0.145729
       Tot   0.000017  44.000027  44.000027  -0.055986  -0.096708   0.131933

 Dip from Atomic Chgs              0.486116  -0.464570   0.102749
         Total Dipole              0.430131  -0.561277   0.234682

 Hirshfeld charges, spin densities, dipoles, and CM5 charges using IRadAn=      4:
              Q-H        S-H        Dx         Dy         Dz        Q-CM5   
     1  C    0.084547   0.000000   0.144803  -0.010833  -0.017815   0.095751
     2  C   -0.047659   0.000000   0.019755  -0.059576  -0.005393  -0.100481
     3  C   -0.030835   0.000000  -0.025212  -0.057941   0.004025  -0.084162
     4  C   -0.013465   0.000000  -0.056888   0.011889   0.007754  -0.017816
     5  C   -0.023544   0.000000  -0.019522   0.058797  -0.000679  -0.076772
     6  C   -0.045108   0.000000   0.029633   0.056861  -0.009126  -0.097928
     7  H    0.055257   0.000000   0.061413  -0.156264  -0.005019   0.115486
     8  H    0.053215   0.000000  -0.066687  -0.145042   0.012445   0.114766
     9  H    0.056112   0.000000  -0.040818   0.156365   0.002099   0.117763
    10  H    0.056772   0.000000   0.085552   0.144826  -0.013914   0.117002
    11  C    0.222299   0.000000  -0.037621  -0.090105   0.001779   0.271543
    12  O   -0.277016   0.000000   0.041852  -0.097999  -0.007775  -0.322877
    13  O   -0.149226   0.000000  -0.072330   0.124934  -0.059096  -0.230168
    14  O   -0.172841   0.000000  -0.072876   0.010948   0.170643  -0.257335
    15  C   -0.015725   0.000000   0.000037  -0.001234  -0.050091  -0.145568
    16  H    0.052753   0.000000   0.159718  -0.012883  -0.009521   0.114447
    17  H    0.037069   0.000000  -0.012983   0.122316   0.078111   0.100356
    18  H    0.036843   0.000000  -0.031512  -0.113717   0.085009   0.100130
    19  C   -0.016478   0.000000   0.036123  -0.037959   0.019090  -0.144832
    20  H    0.050938   0.000000  -0.093526  -0.129598  -0.015355   0.112790
    21  H    0.042669   0.000000  -0.097928   0.078204   0.090490   0.108644
    22  H    0.043371   0.000000  -0.006968   0.051304  -0.145729   0.109207
       Tot  -0.000053   0.000000  -0.055986  -0.096708   0.131933  -0.000053
 Hirshfeld charges with hydrogens summed into heavy atoms:
              Q-H       Q-CM5   
     1  C    0.084547   0.095751
     2  C    0.007598   0.015005
     3  C    0.022379   0.030605
     4  C   -0.013465  -0.017816
     5  C    0.032568   0.040991
     6  C    0.011664   0.019074
    11  C    0.222299   0.271543
    12  O   -0.277016  -0.322877
    13  O   -0.149226  -0.230168
    14  O   -0.172841  -0.257335
    15  C    0.110940   0.169366
    19  C    0.120500   0.185809
 
 EQQ= 0.000000000000E+00 EQD= 0.000000000000E+00 EDD= 0.247166378774E-02
 EQQ+QD+DD= 0.247166378774E-02
 
          MBS Condensed to atoms (all electrons):
               1          2          3          4          5          6
     1  C    4.701253   0.493529  -0.026625  -0.011388  -0.026461   0.491666
     2  C    0.493529   4.855893   0.500282  -0.029599  -0.009936  -0.037506
     3  C   -0.026625   0.500282   4.826639   0.491751  -0.032031  -0.009868
     4  C   -0.011388  -0.029599   0.491751   4.816619   0.497061  -0.029278
     5  C   -0.026461  -0.009936  -0.032031   0.497061   4.812087   0.502249
     6  C    0.491666  -0.037506  -0.009868  -0.029278   0.502249   4.853294
     7  H   -0.025542   0.389817  -0.023985   0.001443   0.000054   0.001431
     8  H    0.001345  -0.024127   0.390275  -0.025444   0.001446   0.000025
     9  H    0.001330   0.000016   0.001505  -0.025592   0.388224  -0.023712
    10  H   -0.025549   0.001424   0.000057   0.001432  -0.023952   0.390157
    11  C    0.000014   0.000774  -0.024539   0.378982  -0.023174   0.000755
    12  O    0.000000  -0.000001   0.000279  -0.025743  -0.002348   0.000010
    13  O    0.000000   0.000002  -0.000910  -0.019513   0.000151  -0.000001
    14  O    0.286766  -0.021764   0.000314   0.000005   0.000315  -0.021768
    15  C   -0.036675  -0.001363  -0.000014   0.000002  -0.000014  -0.001341
    16  H    0.002554   0.000002   0.000001   0.000000   0.000001   0.000001
    17  H   -0.003790  -0.000173   0.000004  -0.000001  -0.000042   0.001542
    18  H   -0.003788   0.001551  -0.000042  -0.000001   0.000004  -0.000174
    19  C    0.000000   0.000000   0.000016   0.001063  -0.000010   0.000000
    20  H    0.000000   0.000000   0.000000  -0.000018   0.000000   0.000000
    21  H    0.000000   0.000000  -0.000002  -0.000008   0.000001   0.000000
    22  H    0.000000   0.000000   0.000002   0.000135  -0.000001   0.000000
               7          8          9         10         11         12
     1  C   -0.025542   0.001345   0.001330  -0.025549   0.000014   0.000000
     2  C    0.389817  -0.024127   0.000016   0.001424   0.000774  -0.000001
     3  C   -0.023985   0.390275   0.001505   0.000057  -0.024539   0.000279
     4  C    0.001443  -0.025444  -0.025592   0.001432   0.378982  -0.025743
     5  C    0.000054   0.001446   0.388224  -0.023952  -0.023174  -0.002348
     6  C    0.001431   0.000025  -0.023712   0.390157   0.000755   0.000010
     7  H    0.534682  -0.003865   0.000002  -0.000046  -0.000015   0.000000
     8  H   -0.003865   0.524244  -0.000044   0.000002  -0.003872   0.000020
     9  H    0.000002  -0.000044   0.516860  -0.003870  -0.003255   0.002676
    10  H   -0.000046   0.000002  -0.003870   0.532411  -0.000014   0.000000
    11  C   -0.000015  -0.003872  -0.003255  -0.000014   4.581008   0.431953
    12  O    0.000000   0.000020   0.002676   0.000000   0.431953   8.064806
    13  O    0.000000   0.002113   0.000018   0.000000   0.269178  -0.019292
    14  O   -0.000616  -0.000005  -0.000005  -0.000606   0.000000   0.000000
    15  C   -0.000006   0.000000   0.000000  -0.000003   0.000000   0.000000
    16  H   -0.000019   0.000000   0.000000  -0.000019   0.000000   0.000000
    17  H    0.000025   0.000000   0.000002   0.000091   0.000000   0.000000
    18  H    0.000095   0.000002   0.000000   0.000025   0.000000   0.000000
    19  C    0.000000  -0.000070  -0.000001   0.000000  -0.033792  -0.003500
    20  H    0.000000  -0.000001   0.000000   0.000000   0.002467   0.000100
    21  H    0.000000   0.000003   0.000000   0.000000  -0.003227   0.001604
    22  H    0.000000   0.000000  -0.000001   0.000000  -0.006936   0.001156
              13         14         15         16         17         18
     1  C    0.000000   0.286766  -0.036675   0.002554  -0.003790  -0.003788
     2  C    0.000002  -0.021764  -0.001363   0.000002  -0.000173   0.001551
     3  C   -0.000910   0.000314  -0.000014   0.000001   0.000004  -0.000042
     4  C   -0.019513   0.000005   0.000002   0.000000  -0.000001  -0.000001
     5  C    0.000151   0.000315  -0.000014   0.000001  -0.000042   0.000004
     6  C   -0.000001  -0.021768  -0.001341   0.000001   0.001542  -0.000174
     7  H    0.000000  -0.000616  -0.000006  -0.000019   0.000025   0.000095
     8  H    0.002113  -0.000005   0.000000   0.000000   0.000000   0.000002
     9  H    0.000018  -0.000005   0.000000   0.000000   0.000002   0.000000
    10  H    0.000000  -0.000606  -0.000003  -0.000019   0.000091   0.000025
    11  C    0.269178   0.000000   0.000000   0.000000   0.000000   0.000000
    12  O   -0.019292   0.000000   0.000000   0.000000   0.000000   0.000000
    13  O    7.939501   0.000000   0.000000   0.000000   0.000000   0.000000
    14  O    0.000000   7.950221   0.267350  -0.017382  -0.019270  -0.019274
    15  C    0.000000   0.267350   4.726831   0.380388   0.374118   0.374052
    16  H    0.000000  -0.017382   0.380388   0.561940  -0.024133  -0.024136
    17  H    0.000000  -0.019270   0.374118  -0.024133   0.597298  -0.027483
    18  H    0.000000  -0.019274   0.374052  -0.024136  -0.027483   0.597620
    19  C    0.259775   0.000000   0.000000   0.000000   0.000000   0.000000
    20  H   -0.017459   0.000000   0.000000   0.000000   0.000000   0.000000
    21  H   -0.018553   0.000000   0.000000   0.000000   0.000000   0.000000
    22  H   -0.017531   0.000000   0.000000   0.000000   0.000000   0.000000
              19         20         21         22
     1  C    0.000000   0.000000   0.000000   0.000000
     2  C    0.000000   0.000000   0.000000   0.000000
     3  C    0.000016   0.000000  -0.000002   0.000002
     4  C    0.001063  -0.000018  -0.000008   0.000135
     5  C   -0.000010   0.000000   0.000001  -0.000001
     6  C    0.000000   0.000000   0.000000   0.000000
     7  H    0.000000   0.000000   0.000000   0.000000
     8  H   -0.000070  -0.000001   0.000003   0.000000
     9  H   -0.000001   0.000000   0.000000  -0.000001
    10  H    0.000000   0.000000   0.000000   0.000000
    11  C   -0.033792   0.002467  -0.003227  -0.006936
    12  O   -0.003500   0.000100   0.001604   0.001156
    13  O    0.259775  -0.017459  -0.018553  -0.017531
    14  O    0.000000   0.000000   0.000000   0.000000
    15  C    0.000000   0.000000   0.000000   0.000000
    16  H    0.000000   0.000000   0.000000   0.000000
    17  H    0.000000   0.000000   0.000000   0.000000
    18  H    0.000000   0.000000   0.000000   0.000000
    19  C    4.730263   0.380216   0.377150   0.378123
    20  H    0.380216   0.563615  -0.024528  -0.023432
    21  H    0.377150  -0.024528   0.564830  -0.025529
    22  H    0.378123  -0.023432  -0.025529   0.578369
 MBS Mulliken charges:
               1
     1  C    0.181363
     2  C   -0.118820
     3  C   -0.093109
     4  C   -0.021911
     5  C   -0.083623
     6  C   -0.117482
     7  H    0.126547
     8  H    0.137954
     9  H    0.145848
    10  H    0.128461
    11  C    0.433694
    12  O   -0.451720
    13  O   -0.377479
    14  O   -0.404280
    15  C   -0.083325
    16  H    0.120804
    17  H    0.101814
    18  H    0.101551
    19  C   -0.089233
    20  H    0.119040
    21  H    0.128259
    22  H    0.115645
 Sum of MBS Mulliken charges =   0.00000
 MBS Mulliken charges with hydrogens summed into heavy atoms:
               1
     1  C    0.181363
     2  C    0.007727
     3  C    0.044845
     4  C   -0.021911
     5  C    0.062225
     6  C    0.010979
    11  C    0.433694
    12  O   -0.451720
    13  O   -0.377479
    14  O   -0.404280
    15  C    0.240845
    19  C    0.273712
 Breneman (CHELPG) radii used.
 Generate Potential Derived Charges using the Breneman model, NDens= 1.
 Grid spacing= 0.300 Box extension= 2.800
 NStep X,Y,Z=   54     35     28   Total possible points=       52920
 Number of Points to Fit=   14767

 **********************************************************************

            Electrostatic Properties Using The SCF Density

 **********************************************************************

       Atomic Center    1 is at   2.146920 -0.058770 -0.350885
       Atomic Center    2 is at   1.358346 -1.210624 -0.227175
       Atomic Center    3 is at  -0.027150 -1.095659 -0.050810
       Atomic Center    4 is at  -0.624073  0.171162  0.001845
       Atomic Center    5 is at   0.164501  1.323016 -0.121867
       Atomic Center    6 is at   1.549998  1.208050 -0.298232
       Atomic Center    7 is at   1.814109 -2.177870 -0.267377
       Atomic Center    8 is at  -0.629244 -1.975125  0.043649
       Atomic Center    9 is at  -0.291262  2.290261 -0.081665
       Atomic Center   10 is at   2.152091  2.087517 -0.392688
       Atomic Center   11 is at  -2.146596  0.297498  0.195655
       Atomic Center   12 is at  -2.682608  1.435050  0.242937
       Atomic Center   13 is at  -2.951263 -0.877864  0.321893
       Atomic Center   14 is at   3.560692 -0.176082 -0.530848
       Atomic Center   15 is at   4.204255 -0.189562  0.746079
       Atomic Center   16 is at   5.262113 -0.277341  0.611422
       Atomic Center   17 is at   3.985081  0.719832  1.265564
       Atomic Center   18 is at   3.847120 -1.021265  1.316715
       Atomic Center   19 is at  -4.259233 -0.617790 -0.194320
       Atomic Center   20 is at  -4.802822 -1.536486 -0.267863
       Atomic Center   21 is at  -4.775574  0.050543  0.462661
       Atomic Center   22 is at  -4.177993 -0.172825 -1.164014
   14767 points will be used for fitting atomic charges
 Fitting point charges to electrostatic potential
 Charges from ESP fit, RMS=   0.00366 RRMS=   0.28071:
 ESP charges:
               1
     1  C    0.428942
     2  C   -0.246378
     3  C   -0.022927
     4  C   -0.145733
     5  C   -0.001818
     6  C   -0.248857
     7  H    0.161456
     8  H    0.079521
     9  H    0.088742
    10  H    0.160193
    11  C    0.687509
    12  O   -0.516902
    13  O   -0.424989
    14  O   -0.507108
    15  C    0.308642
    16  H    0.033223
    17  H   -0.041613
    18  H   -0.044721
    19  C    0.165325
    20  H    0.041007
    21  H    0.032351
    22  H    0.014134
 Sum of ESP charges =   0.00000
 ESP charges with hydrogens summed into heavy atoms:
               1
     1  C    0.428942
     2  C   -0.084922
     3  C    0.056594
     4  C   -0.145733
     5  C    0.086924
     6  C   -0.088664
    11  C    0.687509
    12  O   -0.516902
    13  O   -0.424989
    14  O   -0.507108
    15  C    0.255531
    19  C    0.252817
 Charge=   0.00000 Dipole=     1.1186    -1.4106     0.5126 Tot=     1.8718
 -----------------------------------------------------------------

              Electrostatic Properties (Atomic Units)

 -----------------------------------------------------------------
    Center     Electric         -------- Electric Field --------
               Potential          X             Y             Z
 -----------------------------------------------------------------
    1 Atom    -14.695182
    2 Atom    -14.755557
    3 Atom    -14.750487
    4 Atom    -14.735317
    5 Atom    -14.750562
    6 Atom    -14.755040
    7 Atom     -1.088688
    8 Atom     -1.090686
    9 Atom     -1.094255
   10 Atom     -1.088399
   11 Atom    -14.624606
   12 Atom    -22.376551
   13 Atom    -22.323369
   14 Atom    -22.342874
   15 Atom    -14.725746
   16 Atom     -1.102816
   17 Atom     -1.108854
   18 Atom     -1.108830
   19 Atom    -14.728320
   20 Atom     -1.104740
   21 Atom     -1.116670
   22 Atom     -1.109042
 -----------------------------------------------------------------
 ******************************Gaussian NBO Version 3.1******************************
             N A T U R A L   A T O M I C   O R B I T A L   A N D
          N A T U R A L   B O N D   O R B I T A L   A N A L Y S I S
 ******************************Gaussian NBO Version 3.1******************************
       /RESON  / : Allow strongly delocalized NBO set

 Analyzing the SCF density

 Job title: Table4_2                                                        

 Storage needed:    316726 in NPA (  33551792 available)


 NATURAL POPULATIONS:  Natural atomic orbital occupancies 
                                                          
   NAO  Atom  No  lang   Type(AO)    Occupancy      Energy
 ----------------------------------------------------------
     1    C    1  S      Cor( 1S)     1.99871     -10.12508
     2    C    1  S      Val( 2S)     0.85363      -0.16776
     3    C    1  S      Ryd( 3S)     0.00100       0.85368
     4    C    1  S      Ryd( 4S)     0.00031       0.94094
     5    C    1  S      Ryd( 5S)     0.00001      22.86093
     6    C    1  px     Val( 2p)     0.75897      -0.05767
     7    C    1  px     Ryd( 4p)     0.00726       1.11660
     8    C    1  px     Ryd( 3p)     0.00034       0.85846
     9    C    1  px     Ryd( 5p)     0.00017       2.79039
    10    C    1  py     Val( 2p)     1.06882      -0.06885
    11    C    1  py     Ryd( 4p)     0.00395       1.04231
    12    C    1  py     Ryd( 3p)     0.00032       0.87811
    13    C    1  py     Ryd( 5p)     0.00010       2.78187
    14    C    1  pz     Val( 2p)     0.96547      -0.13266
    15    C    1  pz     Ryd( 3p)     0.00287       0.65407
    16    C    1  pz     Ryd( 4p)     0.00026       0.77114
    17    C    1  pz     Ryd( 5p)     0.00009       2.30579
    18    C    1  dxy    Ryd( 3d)     0.00186       2.54101
    19    C    1  dxz    Ryd( 3d)     0.00186       1.65677
    20    C    1  dyz    Ryd( 3d)     0.00064       1.64700
    21    C    1  dx2y2  Ryd( 3d)     0.00196       2.38278
    22    C    1  dz2    Ryd( 3d)     0.00064       2.02340

    23    C    2  S      Cor( 1S)     1.99904     -10.04858
    24    C    2  S      Val( 2S)     0.95842      -0.18362
    25    C    2  S      Ryd( 3S)     0.00149       0.84390
    26    C    2  S      Ryd( 4S)     0.00015       0.91360
    27    C    2  S      Ryd( 5S)     0.00001      22.88278
    28    C    2  px     Val( 2p)     1.08711      -0.07034
    29    C    2  px     Ryd( 4p)     0.00489       0.90951
    30    C    2  px     Ryd( 3p)     0.00024       0.41875
    31    C    2  px     Ryd( 5p)     0.00014       3.09971
    32    C    2  py     Val( 2p)     1.16641      -0.07996
    33    C    2  py     Ryd( 4p)     0.00557       1.02837
    34    C    2  py     Ryd( 3p)     0.00024       0.37542
    35    C    2  py     Ryd( 5p)     0.00008       3.09759
    36    C    2  pz     Val( 2p)     1.01377      -0.12787
    37    C    2  pz     Ryd( 4p)     0.00128       0.52892
    38    C    2  pz     Ryd( 3p)     0.00029       0.30377
    39    C    2  pz     Ryd( 5p)     0.00001       2.71060
    40    C    2  dxy    Ryd( 3d)     0.00082       2.50978
    41    C    2  dxz    Ryd( 3d)     0.00045       1.67741
    42    C    2  dyz    Ryd( 3d)     0.00051       1.64332
    43    C    2  dx2y2  Ryd( 3d)     0.00059       2.53163
    44    C    2  dz2    Ryd( 3d)     0.00041       2.02907

    45    C    3  S      Cor( 1S)     1.99911     -10.05283
    46    C    3  S      Val( 2S)     0.94777      -0.17830
    47    C    3  S      Ryd( 4S)     0.00116       0.85967
    48    C    3  S      Ryd( 3S)     0.00013       0.85867
    49    C    3  S      Ryd( 5S)     0.00001      22.88547
    50    C    3  px     Val( 2p)     1.09204      -0.06794
    51    C    3  px     Ryd( 4p)     0.00392       0.96154
    52    C    3  px     Ryd( 3p)     0.00049       0.62817
    53    C    3  px     Ryd( 5p)     0.00014       3.12666
    54    C    3  py     Val( 2p)     1.14290      -0.06911
    55    C    3  py     Ryd( 4p)     0.00558       0.93913
    56    C    3  py     Ryd( 3p)     0.00030       0.33583
    57    C    3  py     Ryd( 5p)     0.00011       3.19443
    58    C    3  pz     Val( 2p)     0.95529      -0.12558
    59    C    3  pz     Ryd( 4p)     0.00101       0.53791
    60    C    3  pz     Ryd( 3p)     0.00032       0.36628
    61    C    3  pz     Ryd( 5p)     0.00001       2.66860
    62    C    3  dxy    Ryd( 3d)     0.00080       2.48831
    63    C    3  dxz    Ryd( 3d)     0.00053       1.66936
    64    C    3  dyz    Ryd( 3d)     0.00041       1.64002
    65    C    3  dx2y2  Ryd( 3d)     0.00061       2.56847
    66    C    3  dz2    Ryd( 3d)     0.00042       2.02661

    67    C    4  S      Cor( 1S)     1.99889     -10.07308
    68    C    4  S      Val( 2S)     0.91674      -0.17701
    69    C    4  S      Ryd( 3S)     0.00142       0.73871
    70    C    4  S      Ryd( 4S)     0.00011       1.32745
    71    C    4  S      Ryd( 5S)     0.00001      22.70220
    72    C    4  px     Val( 2p)     1.06197      -0.10030
    73    C    4  px     Ryd( 4p)     0.00597       1.15312
    74    C    4  px     Ryd( 3p)     0.00018       0.97248
    75    C    4  px     Ryd( 5p)     0.00010       2.89123
    76    C    4  py     Val( 2p)     1.10229      -0.08456
    77    C    4  py     Ryd( 4p)     0.00560       1.14114
    78    C    4  py     Ryd( 3p)     0.00025       0.93280
    79    C    4  py     Ryd( 5p)     0.00010       2.87476
    80    C    4  pz     Val( 2p)     1.06424      -0.13154
    81    C    4  pz     Ryd( 3p)     0.00083       0.58689
    82    C    4  pz     Ryd( 4p)     0.00013       0.82779
    83    C    4  pz     Ryd( 5p)     0.00001       2.28304
    84    C    4  dxy    Ryd( 3d)     0.00066       2.56218
    85    C    4  dxz    Ryd( 3d)     0.00038       1.63233
    86    C    4  dyz    Ryd( 3d)     0.00058       1.66220
    87    C    4  dx2y2  Ryd( 3d)     0.00101       2.46378
    88    C    4  dz2    Ryd( 3d)     0.00041       2.03733

    89    C    5  S      Cor( 1S)     1.99910     -10.05277
    90    C    5  S      Val( 2S)     0.94904      -0.17727
    91    C    5  S      Ryd( 3S)     0.00151       0.76753
    92    C    5  S      Ryd( 4S)     0.00010       1.14507
    93    C    5  S      Ryd( 5S)     0.00001      22.68444
    94    C    5  px     Val( 2p)     1.07087      -0.06365
    95    C    5  px     Ryd( 4p)     0.00403       0.90648
    96    C    5  px     Ryd( 3p)     0.00053       0.52662
    97    C    5  px     Ryd( 5p)     0.00017       3.13473
    98    C    5  py     Val( 2p)     1.16377      -0.07061
    99    C    5  py     Ryd( 4p)     0.00607       0.97218
   100    C    5  py     Ryd( 3p)     0.00038       0.32702
   101    C    5  py     Ryd( 5p)     0.00009       3.20620
   102    C    5  pz     Val( 2p)     0.94666      -0.12323
   103    C    5  pz     Ryd( 4p)     0.00092       0.52280
   104    C    5  pz     Ryd( 3p)     0.00040       0.33410
   105    C    5  pz     Ryd( 5p)     0.00001       2.68069
   106    C    5  dxy    Ryd( 3d)     0.00078       2.51489
   107    C    5  dxz    Ryd( 3d)     0.00054       1.67901
   108    C    5  dyz    Ryd( 3d)     0.00040       1.63347
   109    C    5  dx2y2  Ryd( 3d)     0.00064       2.53267
   110    C    5  dz2    Ryd( 3d)     0.00042       2.02727

   111    C    6  S      Cor( 1S)     1.99903     -10.04916
   112    C    6  S      Val( 2S)     0.95894      -0.18400
   113    C    6  S      Ryd( 3S)     0.00144       0.84342
   114    C    6  S      Ryd( 4S)     0.00016       1.01195
   115    C    6  S      Ryd( 5S)     0.00001      22.78647
   116    C    6  px     Val( 2p)     1.10165      -0.07036
   117    C    6  px     Ryd( 4p)     0.00517       0.95510
   118    C    6  px     Ryd( 3p)     0.00025       0.40303
   119    C    6  px     Ryd( 5p)     0.00013       3.10215
   120    C    6  py     Val( 2p)     1.14989      -0.07983
   121    C    6  py     Ryd( 4p)     0.00510       0.98768
   122    C    6  py     Ryd( 3p)     0.00028       0.36374
   123    C    6  py     Ryd( 5p)     0.00010       3.11944
   124    C    6  pz     Val( 2p)     1.01335      -0.12790
   125    C    6  pz     Ryd( 4p)     0.00125       0.53219
   126    C    6  pz     Ryd( 3p)     0.00029       0.30945
   127    C    6  pz     Ryd( 5p)     0.00001       2.70124
   128    C    6  dxy    Ryd( 3d)     0.00079       2.48685
   129    C    6  dxz    Ryd( 3d)     0.00046       1.66828
   130    C    6  dyz    Ryd( 3d)     0.00051       1.64992
   131    C    6  dx2y2  Ryd( 3d)     0.00062       2.55561
   132    C    6  dz2    Ryd( 3d)     0.00042       2.02703

   133    H    7  S      Val( 1S)     0.77820       0.04329
   134    H    7  S      Ryd( 2S)     0.00080       1.14296
   135    H    7  S      Ryd( 3S)     0.00020       1.57907
   136    H    7  px     Ryd( 2p)     0.00018       2.13922
   137    H    7  py     Ryd( 2p)     0.00035       2.60062
   138    H    7  pz     Ryd( 2p)     0.00016       1.61162

   139    H    8  S      Val( 1S)     0.77203       0.05260
   140    H    8  S      Ryd( 3S)     0.00079       1.43614
   141    H    8  S      Ryd( 2S)     0.00017       1.28475
   142    H    8  px     Ryd( 2p)     0.00022       2.25284
   143    H    8  py     Ryd( 2p)     0.00033       2.50342
   144    H    8  pz     Ryd( 2p)     0.00016       1.61582

   145    H    9  S      Val( 1S)     0.76470       0.05869
   146    H    9  S      Ryd( 2S)     0.00074       0.95167
   147    H    9  S      Ryd( 3S)     0.00019       1.76077
   148    H    9  px     Ryd( 2p)     0.00020       2.15811
   149    H    9  py     Ryd( 2p)     0.00038       2.61466
   150    H    9  pz     Ryd( 2p)     0.00015       1.61609

   151    H   10  S      Val( 1S)     0.77686       0.04411
   152    H   10  S      Ryd( 2S)     0.00077       1.18674
   153    H   10  S      Ryd( 3S)     0.00019       1.53494
   154    H   10  px     Ryd( 2p)     0.00021       2.23391
   155    H   10  py     Ryd( 2p)     0.00031       2.49680
   156    H   10  pz     Ryd( 2p)     0.00017       1.61603

   157    C   11  S      Cor( 1S)     1.99933     -10.21990
   158    C   11  S      Val( 2S)     0.82356      -0.21157
   159    C   11  S      Ryd( 4S)     0.00332       0.84662
   160    C   11  S      Ryd( 3S)     0.00018       0.80468
   161    C   11  S      Ryd( 5S)     0.00004      22.82738
   162    C   11  px     Val( 2p)     0.88100      -0.06498
   163    C   11  px     Ryd( 4p)     0.00623       1.17934
   164    C   11  px     Ryd( 3p)     0.00054       0.45244
   165    C   11  px     Ryd( 5p)     0.00013       2.54934
   166    C   11  py     Val( 2p)     0.68855      -0.03739
   167    C   11  py     Ryd( 4p)     0.01904       0.99091
   168    C   11  py     Ryd( 3p)     0.00026       0.43453
   169    C   11  py     Ryd( 5p)     0.00013       2.77809
   170    C   11  pz     Val( 2p)     0.75576      -0.14435
   171    C   11  pz     Ryd( 4p)     0.00115       0.67388
   172    C   11  pz     Ryd( 3p)     0.00049       0.36168
   173    C   11  pz     Ryd( 5p)     0.00009       2.52697
   174    C   11  dxy    Ryd( 3d)     0.00392       2.33841
   175    C   11  dxz    Ryd( 3d)     0.00148       1.57295
   176    C   11  dyz    Ryd( 3d)     0.00394       1.57928
   177    C   11  dx2y2  Ryd( 3d)     0.00396       2.32425
   178    C   11  dz2    Ryd( 3d)     0.00079       1.89799

   179    O   12  S      Cor( 1S)     1.99978     -18.87427
   180    O   12  S      Val( 2S)     1.73014      -0.91498
   181    O   12  S      Ryd( 3S)     0.00135       1.27216
   182    O   12  S      Ryd( 4S)     0.00012       1.36272
   183    O   12  S      Ryd( 5S)     0.00000      49.72932
   184    O   12  px     Val( 2p)     1.80324      -0.28008
   185    O   12  px     Ryd( 3p)     0.00223       0.71345
   186    O   12  px     Ryd( 4p)     0.00018       0.96803
   187    O   12  px     Ryd( 5p)     0.00003       5.11056
   188    O   12  py     Val( 2p)     1.60498      -0.30128
   189    O   12  py     Ryd( 3p)     0.00086       0.61824
   190    O   12  py     Ryd( 4p)     0.00018       0.95229
   191    O   12  py     Ryd( 5p)     0.00010       5.20471
   192    O   12  pz     Val( 2p)     1.45400      -0.26153
   193    O   12  pz     Ryd( 3p)     0.00093       0.55351
   194    O   12  pz     Ryd( 4p)     0.00005       0.89799
   195    O   12  pz     Ryd( 5p)     0.00002       4.95402
   196    O   12  dxy    Ryd( 3d)     0.00133       3.39841
   197    O   12  dxz    Ryd( 3d)     0.00027       2.88406
   198    O   12  dyz    Ryd( 3d)     0.00123       3.02568
   199    O   12  dx2y2  Ryd( 3d)     0.00137       3.30174
   200    O   12  dz2    Ryd( 3d)     0.00042       3.08185

   201    O   13  S      Cor( 1S)     1.99977     -18.98192
   202    O   13  S      Val( 2S)     1.65327      -0.90747
   203    O   13  S      Ryd( 3S)     0.00201       0.90692
   204    O   13  S      Ryd( 4S)     0.00019       1.35481
   205    O   13  S      Ryd( 5S)     0.00000      49.67330
   206    O   13  px     Val( 2p)     1.44408      -0.31915
   207    O   13  px     Ryd( 3p)     0.00164       0.89908
   208    O   13  px     Ryd( 4p)     0.00059       0.94458
   209    O   13  px     Ryd( 5p)     0.00001       5.12925
   210    O   13  py     Val( 2p)     1.67722      -0.34122
   211    O   13  py     Ryd( 3p)     0.00222       0.57482
   212    O   13  py     Ryd( 4p)     0.00092       0.87687
   213    O   13  py     Ryd( 5p)     0.00012       5.01948
   214    O   13  pz     Val( 2p)     1.78311      -0.32834
   215    O   13  pz     Ryd( 3p)     0.00254       0.52959
   216    O   13  pz     Ryd( 4p)     0.00041       0.79042
   217    O   13  pz     Ryd( 5p)     0.00001       4.93179
   218    O   13  dxy    Ryd( 3d)     0.00102       3.31950
   219    O   13  dxz    Ryd( 3d)     0.00037       3.10835
   220    O   13  dyz    Ryd( 3d)     0.00084       2.94090
   221    O   13  dx2y2  Ryd( 3d)     0.00081       3.23758
   222    O   13  dz2    Ryd( 3d)     0.00063       3.10565

   223    O   14  S      Cor( 1S)     1.99976     -18.95706
   224    O   14  S      Val( 2S)     1.62929      -0.87939
   225    O   14  S      Ryd( 3S)     0.00347       0.98190
   226    O   14  S      Ryd( 4S)     0.00010       1.52496
   227    O   14  S      Ryd( 5S)     0.00000      49.56013
   228    O   14  px     Val( 2p)     1.41686      -0.30166
   229    O   14  px     Ryd( 3p)     0.00300       0.70811
   230    O   14  px     Ryd( 4p)     0.00068       0.82685
   231    O   14  px     Ryd( 5p)     0.00003       5.11217
   232    O   14  py     Val( 2p)     1.93544      -0.31123
   233    O   14  py     Ryd( 3p)     0.00616       0.60377
   234    O   14  py     Ryd( 4p)     0.00022       0.84893
   235    O   14  py     Ryd( 5p)     0.00001       4.97802
   236    O   14  pz     Val( 2p)     1.58217      -0.31597
   237    O   14  pz     Ryd( 3p)     0.00182       0.63907
   238    O   14  pz     Ryd( 4p)     0.00041       0.83087
   239    O   14  pz     Ryd( 5p)     0.00003       5.10100
   240    O   14  dxy    Ryd( 3d)     0.00025       3.05774
   241    O   14  dxz    Ryd( 3d)     0.00096       3.20554
   242    O   14  dyz    Ryd( 3d)     0.00069       2.94847
   243    O   14  dx2y2  Ryd( 3d)     0.00064       3.33710
   244    O   14  dz2    Ryd( 3d)     0.00119       3.29288

   245    C   15  S      Cor( 1S)     1.99918     -10.09134
   246    C   15  S      Val( 2S)     1.06782      -0.26308
   247    C   15  S      Ryd( 4S)     0.00214       0.87774
   248    C   15  S      Ryd( 3S)     0.00017       0.81521
   249    C   15  S      Ryd( 5S)     0.00000      23.10567
   250    C   15  px     Val( 2p)     1.10861      -0.10746
   251    C   15  px     Ryd( 3p)     0.00128       0.73368
   252    C   15  px     Ryd( 4p)     0.00032       1.30534
   253    C   15  px     Ryd( 5p)     0.00007       1.81963
   254    C   15  py     Val( 2p)     1.18398      -0.11004
   255    C   15  py     Ryd( 3p)     0.00032       0.59977
   256    C   15  py     Ryd( 4p)     0.00065       1.27690
   257    C   15  py     Ryd( 5p)     0.00003       1.94078
   258    C   15  pz     Val( 2p)     0.81407      -0.08688
   259    C   15  pz     Ryd( 3p)     0.00310       0.57902
   260    C   15  pz     Ryd( 4p)     0.00029       1.33611
   261    C   15  pz     Ryd( 5p)     0.00005       1.85547
   262    C   15  dxy    Ryd( 3d)     0.00076       1.84413
   263    C   15  dxz    Ryd( 3d)     0.00168       2.00639
   264    C   15  dyz    Ryd( 3d)     0.00201       2.14174
   265    C   15  dx2y2  Ryd( 3d)     0.00108       2.23487
   266    C   15  dz2    Ryd( 3d)     0.00167       1.99913

   267    H   16  S      Val( 1S)     0.81449       0.01673
   268    H   16  S      Ryd( 2S)     0.00043       0.46761
   269    H   16  S      Ryd( 3S)     0.00012       2.17538
   270    H   16  px     Ryd( 2p)     0.00039       2.69945
   271    H   16  py     Ryd( 2p)     0.00017       1.74272
   272    H   16  pz     Ryd( 2p)     0.00007       1.71337

   273    H   17  S      Val( 1S)     0.83444       0.00859
   274    H   17  S      Ryd( 2S)     0.00136       0.50397
   275    H   17  S      Ryd( 3S)     0.00015       2.21619
   276    H   17  px     Ryd( 2p)     0.00018       1.79679
   277    H   17  py     Ryd( 2p)     0.00035       2.47858
   278    H   17  pz     Ryd( 2p)     0.00012       1.95927

   279    H   18  S      Val( 1S)     0.83465       0.00842
   280    H   18  S      Ryd( 2S)     0.00136       0.50504
   281    H   18  S      Ryd( 3S)     0.00015       2.21626
   282    H   18  px     Ryd( 2p)     0.00020       1.84962
   283    H   18  py     Ryd( 2p)     0.00032       2.37402
   284    H   18  pz     Ryd( 2p)     0.00013       2.01055

   285    C   19  S      Cor( 1S)     1.99918     -10.08863
   286    C   19  S      Val( 2S)     1.07197      -0.26425
   287    C   19  S      Ryd( 4S)     0.00237       0.87449
   288    C   19  S      Ryd( 3S)     0.00011       0.73822
   289    C   19  S      Ryd( 5S)     0.00000      23.22972
   290    C   19  px     Val( 2p)     0.79966      -0.08829
   291    C   19  px     Ryd( 3p)     0.00251       0.62801
   292    C   19  px     Ryd( 4p)     0.00024       1.37546
   293    C   19  px     Ryd( 5p)     0.00008       1.83025
   294    C   19  py     Val( 2p)     1.18313      -0.10679
   295    C   19  py     Ryd( 3p)     0.00306       0.68882
   296    C   19  py     Ryd( 4p)     0.00028       1.43380
   297    C   19  py     Ryd( 5p)     0.00008       1.79256
   298    C   19  pz     Val( 2p)     1.13197      -0.10617
   299    C   19  pz     Ryd( 3p)     0.00099       0.58233
   300    C   19  pz     Ryd( 4p)     0.00041       1.38621
   301    C   19  pz     Ryd( 5p)     0.00004       1.85578
   302    C   19  dxy    Ryd( 3d)     0.00149       2.11310
   303    C   19  dxz    Ryd( 3d)     0.00175       1.94100
   304    C   19  dyz    Ryd( 3d)     0.00077       2.09943
   305    C   19  dx2y2  Ryd( 3d)     0.00159       2.02242
   306    C   19  dz2    Ryd( 3d)     0.00112       2.07886

   307    H   20  S      Val( 1S)     0.81681       0.01764
   308    H   20  S      Ryd( 2S)     0.00043       0.44336
   309    H   20  S      Ryd( 3S)     0.00014       2.20826
   310    H   20  px     Ryd( 2p)     0.00014       1.96335
   311    H   20  py     Ryd( 2p)     0.00035       2.46516
   312    H   20  pz     Ryd( 2p)     0.00015       1.74014

   313    H   21  S      Val( 1S)     0.81196       0.02879
   314    H   21  S      Ryd( 2S)     0.00097       0.64454
   315    H   21  S      Ryd( 3S)     0.00020       2.06122
   316    H   21  px     Ryd( 2p)     0.00012       1.99730
   317    H   21  py     Ryd( 2p)     0.00030       2.15845
   318    H   21  pz     Ryd( 2p)     0.00023       2.11999

   319    H   22  S      Val( 1S)     0.82247       0.01499
   320    H   22  S      Ryd( 2S)     0.00113       0.57153
   321    H   22  S      Ryd( 3S)     0.00017       2.16152
   322    H   22  px     Ryd( 2p)     0.00010       1.71314
   323    H   22  py     Ryd( 2p)     0.00023       1.93289
   324    H   22  pz     Ryd( 2p)     0.00034       2.61157

 WARNING:  1 low occupancy (<1.9990e) core orbital  found on  C    1
           1 low occupancy (<1.9990e) core orbital  found on  C    4

 WARNING:  Population inversion found on atom  C    1
           Population inversion found on atom  C    2
           Population inversion found on atom  C    3
           Population inversion found on atom  C    4
           Population inversion found on atom  C    5
           Population inversion found on atom  C    6
           Population inversion found on atom  H    8
           Population inversion found on atom  C   11
           Population inversion found on atom  C   15
           Population inversion found on atom  C   19


 Summary of Natural Population Analysis:                  
                                                          
                                       Natural Population 
                Natural  -----------------------------------------------
    Atom  No    Charge         Core      Valence    Rydberg      Total
 -----------------------------------------------------------------------
      C    1    0.33074      1.99871     3.64689    0.02366     5.66926
      C    2   -0.24193      1.99904     4.22572    0.01717     6.24193
      C    3   -0.15304      1.99911     4.13799    0.01594     6.15304
      C    4   -0.16188      1.99889     4.14524    0.01775     6.16188
      C    5   -0.14644      1.99910     4.13033    0.01701     6.14644
      C    6   -0.23986      1.99903     4.22382    0.01700     6.23986
      H    7    0.22011      0.00000     0.77820    0.00168     0.77989
      H    8    0.22630      0.00000     0.77203    0.00167     0.77370
      H    9    0.23365      0.00000     0.76470    0.00165     0.76635
      H   10    0.22149      0.00000     0.77686    0.00165     0.77851
      C   11    0.80611      1.99933     3.14886    0.04570     5.19389
      O   12   -0.60282      1.99978     6.59236    0.01069     8.60282
      O   13   -0.57179      1.99977     6.55768    0.01434     8.57179
      O   14   -0.58318      1.99976     6.56375    0.01967     8.58318
      C   15   -0.18930      1.99918     4.17448    0.01564     6.18930
      H   16    0.18433      0.00000     0.81449    0.00118     0.81567
      H   17    0.16340      0.00000     0.83444    0.00216     0.83660
      H   18    0.16319      0.00000     0.83465    0.00216     0.83681
      C   19   -0.20282      1.99918     4.18673    0.01691     6.20282
      H   20    0.18197      0.00000     0.81681    0.00122     0.81803
      H   21    0.18622      0.00000     0.81196    0.00182     0.81378
      H   22    0.17556      0.00000     0.82247    0.00197     0.82444
 =======================================================================
   * Total *    0.00000     23.99088    63.76048    0.24864    88.00000

                                 Natural Population      
 --------------------------------------------------------
   Core                      23.99088 ( 99.9620% of  24)
[...]
 0424,-0.00096770,-0.00047484,-0.00031768,-0.00028169,-0.00010114,0.230
 08091,-0.54486510,0.06819373,-0.29624310,0.61559330,0.00015096,-0.0003
 5425,0.00005148,0.00076143,-0.00030611,-0.00113491,-0.00151920,-0.0006
 5613,0.00293323,-0.00055352,0.00047116,0.01944049,-0.00205119,-0.00097
 231,-0.00026011,0.00077235,0.00046046,-0.00030519,0.00009733,-0.000058
 28,-0.00043712,0.00000921,-0.00028586,0.00048083,0.00072884,-0.0003473
 2,-0.00007328,0.00001455,0.00006104,-0.00001781,-0.04533951,0.06898049
 ,-0.09311675,0.07496078,-0.08793886,0.05657252,0.00077991,0.00465828,0
 .00032178,-0.00172963,-0.00214375,-0.00043029,-0.00429672,0.00425083,-
 0.00153247,-0.03280391,-0.01738623,-0.01351371,0.00467926,-0.00221853,
 0.00099953,-0.00012997,-0.00343452,-0.00001452,-0.00005971,-0.00041606
 ,-0.00001867,0.00062588,-0.00137639,0.00011001,0.00123652,0.00101412,0
 .00036112,-0.00032668,-0.00044088,-0.00003490,-0.21081042,0.00564597,-
 0.04537044,-0.07082640,0.05518405,-0.03071942,0.42569097,-0.00024585,0
 .00244123,-0.00005726,-0.00112751,0.00081806,-0.00034263,-0.00102664,-
 0.00430078,-0.00035871,-0.04015165,-0.00105468,-0.01261541,0.00174519,
 -0.00607036,0.00048741,-0.00227649,-0.00144666,-0.00072069,0.00007756,
 -0.00011980,0.00002340,-0.00255348,-0.00191569,-0.00081337,-0.00043060
 ,0.00006547,-0.00013467,-0.00036328,-0.00061810,-0.00011640,-0.0160088
 0,-0.12280002,-0.00544238,0.05792633,-0.00172268,0.01783777,0.05779430
 ,0.38049243,0.00028380,0.00147351,-0.00003625,-0.00042229,-0.00065989,
 -0.00054166,-0.00157290,0.00128839,0.00023690,-0.01369025,-0.00551097,
 0.00575445,0.00102931,-0.00075068,0.00173840,-0.00000567,-0.00108161,-
 0.00017843,-0.00001494,-0.00013085,-0.00001519,0.00010108,-0.00044590,
 0.00026847,0.00034961,0.00031621,0.00021691,-0.00003426,-0.00014063,-0
 .00023732,-0.04553961,0.00131445,-0.07947356,-0.03069899,0.01698192,0.
 01953950,0.10979072,0.02041123,0.10973058,-0.12121493,-0.06826728,-0.0
 2456973,-0.02809162,-0.05757619,-0.01126997,-0.00443020,0.01030101,-0.
 00267979,0.00117428,-0.00786458,0.00058124,-0.00493501,0.00159795,-0.0
 0357956,0.01486536,0.00948136,0.00166641,0.00215484,-0.00010175,0.0016
 1260,-0.00067236,-0.00154613,-0.00025856,0.00034802,0.00057152,0.00025
 977,-0.00026283,-0.00195309,0.00069161,0.00338448,0.00639341,0.0012912
 9,0.00039123,-0.00357769,0.00007149,-0.00243426,-0.00149403,-0.0007762
 5,0.41818009,-0.03229038,-0.26278559,-0.01174780,-0.02735801,-0.016954
 02,-0.00871890,0.00348963,0.00664536,0.00110648,-0.00539002,-0.0111471
 0,-0.00176080,0.00863973,0.00332456,0.00267219,-0.01580177,-0.05370871
 ,-0.00541644,0.00034447,0.00072833,0.00013631,-0.00016914,-0.00002528,
 -0.00005387,-0.00098112,-0.00137217,-0.00031328,-0.00024139,0.00126725
 ,-0.00004627,0.00623991,0.01102513,0.00203669,0.00021254,-0.00539105,0
 .00002420,-0.00493011,-0.00228420,-0.00155611,0.10875981,0.40978825,-0
 .02429450,-0.02297404,-0.05192597,-0.01103991,-0.01815180,0.00302200,-
 0.00273198,0.00323288,0.00357954,0.00060021,-0.00253313,-0.00071306,-0
 .00352602,0.00047388,0.00547424,0.00147371,0.00247511,0.01023984,0.001
 61594,-0.00000328,-0.00250916,-0.00024757,-0.00048357,0.00003709,0.000
 24796,0.00017171,-0.00039147,0.00070489,-0.00058061,-0.00231036,0.0012
 9062,0.00208400,-0.00017624,0.00010043,-0.00115825,0.00009618,-0.00080
 291,-0.00048380,-0.00023785,0.11003678,0.03655105,0.10290012,-0.023838
 39,-0.02339997,-0.00601229,0.00539112,0.00204608,0.00077067,-0.0008474
 3,-0.00117339,-0.00083393,0.00237235,0.00381319,0.00086150,-0.00325650
 ,-0.00077224,-0.00117440,0.00527092,0.00792554,0.00214368,-0.00022720,
 -0.00000232,0.00012580,0.00014226,0.00004427,0.00016141,0.00021337,0.0
 0047154,0.00005629,-0.00093767,0.00072639,-0.00024260,-0.00243489,-0.0
 0466804,-0.00071635,-0.00021127,0.00242922,-0.00005710,0.00187413,0.00
 103375,0.00057333,-0.19802757,-0.01578365,-0.04355693,0.45135961,-0.04
 187167,-0.01235505,-0.01312327,0.00186638,-0.00426930,0.00052743,-0.00
 155076,-0.00047721,-0.00050142,-0.00003904,0.00090229,-0.00000324,-0.0
 0089502,0.00043456,-0.00027973,-0.00220825,-0.00155807,-0.00069021,-0.
 00038119,0.00021837,-0.00011251,-0.00007544,-0.00034226,-0.00002338,0.
 00007736,0.00011172,0.00002471,-0.00173489,-0.00214137,-0.00055661,-0.
 00053092,-0.00069992,-0.00016931,0.00001341,0.00037484,0.00000697,0.00
 036999,0.00011295,0.00011601,0.01320486,-0.08604265,0.00391444,-0.0131
 7824,0.61514457,-0.00615337,-0.00735764,-0.00712267,0.00076905,0.00058
 313,0.00321758,-0.00083701,-0.00038472,0.00153111,0.00083178,0.0012001
 5,-0.00002460,-0.00117487,-0.00024113,0.00011835,0.00206582,0.00247187
 ,-0.00073926,0.00012298,0.00000597,-0.00059231,0.00016068,0.00001407,-
 0.00032365,0.00005317,0.00014769,0.00006250,-0.00026078,0.00021174,-0.
 00022302,-0.00068491,-0.00146055,-0.00048039,-0.00007607,0.00076101,0.
 00001421,0.00056894,0.00032313,0.00024252,-0.04333544,-0.00513288,-0.0
 7241869,-0.03605396,-0.00375556,0.55531308,-0.00465600,0.00187600,-0.0
 0163125,-0.00034013,-0.00180734,-0.00018780,-0.00041834,0.00045460,-0.
 00013143,0.00003473,-0.00015108,0.00006175,0.00038421,-0.00029852,0.00
 005446,-0.00082113,0.00074149,-0.00035753,-0.00002177,0.00004683,-0.00
 001183,-0.00004698,-0.00012774,-0.00000203,-0.00003324,-0.00005465,-0.
 00002249,0.00069255,0.00001253,0.00035912,0.00016456,0.00025455,0.0000
 5007,0.00001690,-0.00015487,0.00000349,-0.00008949,-0.00005346,-0.0000
 2967,-0.01878217,-0.04158182,-0.00628785,-0.04752910,-0.02081742,0.000
 90679,0.06507359,0.00051373,0.00241105,0.00017408,-0.00002577,-0.00019
 921,-0.00001108,-0.00009207,-0.00001437,-0.00002899,-0.00019141,-0.000
 19644,-0.00006002,-0.00005557,0.00020794,-0.00001725,0.00037896,-0.000
 23706,0.00011387,-0.00001933,0.00000039,-0.00000612,-0.00000890,-0.000
 01587,-0.00000258,0.00000945,0.00000531,0.00000270,-0.00040302,0.00010
 215,-0.00012158,0.00019482,0.00035437,0.00006344,-0.00001795,-0.000185
 43,-0.00000707,-0.00019911,-0.00012696,-0.00006314,-0.00493658,-0.0020
 8800,-0.00155953,-0.03379269,-0.31921416,-0.01257866,0.03947186,0.3400
 1469,-0.00164216,0.00059883,0.00010966,-0.00017422,-0.00056722,0.00015
 870,-0.00013547,0.00014183,-0.00002759,0.00006138,-0.00004759,-0.00014
 797,0.00005631,-0.00009318,0.00021923,-0.00036019,0.00022708,0.0002313
 7,-0.00001236,0.00001445,0.00001366,-0.00000117,-0.00003967,-0.0000442
 6,-0.00002198,-0.00001731,0.00003045,0.00035582,0.00000812,-0.00034642
 ,0.00004966,0.00008218,0.00002672,0.00000465,-0.00004983,0.00000284,-0
 .00003091,-0.00001771,-0.00000562,-0.00600941,-0.01299638,-0.00162156,
 0.00080826,-0.00852941,-0.05075171,0.00601007,0.01454109,0.04876164,0.
 00281571,0.00768172,0.00200633,-0.00135194,-0.00123413,-0.00100919,0.0
 0024800,0.00100454,-0.00025814,0.00013423,-0.00089931,0.00014191,0.000
 06269,-0.00028648,-0.00021903,0.00042284,-0.00076418,-0.00010531,0.000
 13934,-0.00001000,0.00025379,-0.00005123,-0.00002643,0.00005896,-0.000
 02767,-0.00006000,-0.00000742,0.00011183,-0.00075144,0.00063755,0.0003
 6404,0.00065138,0.00018260,0.00004561,-0.00036935,-0.00000838,-0.00024
 419,-0.00012124,-0.00009420,-0.04035742,0.00667610,0.01335754,-0.13777
 247,0.05909139,0.10212359,0.00464553,-0.00059270,-0.00265883,0.1657648
 5,-0.00071142,0.00157393,0.00142106,-0.00034456,-0.00030404,-0.0004331
 1,-0.00006028,0.00059700,-0.00010859,0.00073722,0.00005657,0.00020544,
 -0.00050004,-0.00055049,-0.00065094,0.00071778,0.00046665,0.00036531,0
 .00001739,-0.00001465,0.00002844,0.00000168,0.00001161,0.00003373,-0.0
 0001743,0.00001365,0.00003827,-0.00099892,-0.00100689,0.00083571,-0.00
 021316,-0.00040100,0.00004815,-0.00000482,0.00017933,-0.00001273,0.000
 18712,0.00010878,0.00004906,-0.00359278,0.00399465,0.00510882,0.063034
 58,-0.09379541,-0.07154769,0.01903392,-0.01024458,-0.02206459,-0.06859
 388,0.09357174,-0.00006964,0.00027130,0.00109607,-0.00002259,0.0001006
 0,-0.00043435,-0.00005156,0.00009392,-0.00014593,0.00019625,-0.0000296
 9,0.00005453,-0.00054283,-0.00002401,-0.00032460,0.00125289,-0.0004296
 5,0.00034256,-0.00004454,-0.00000947,0.00004874,-0.00001404,0.00001036
 ,0.00003151,0.00002276,0.00002644,0.00001844,-0.00053689,0.00023402,-0
 .00009400,-0.00003191,-0.00008148,0.00004086,-0.00004169,0.00003712,-0
 .00001545,-0.00002674,-0.00002160,-0.00001476,-0.01032322,0.00632037,0
 .01283790,0.10663984,-0.07091142,-0.17188619,-0.00041697,0.00038309,0.
 00003248,-0.11311199,0.07674399,0.17640843,0.00313612,0.00648642,-0.00
 047834,-0.00153122,-0.00096657,0.00023195,-0.00002769,0.00087194,0.000
 35418,0.00026676,-0.00075563,-0.00000688,-0.00041452,-0.00025071,0.000
 14917,0.00093394,-0.00087801,0.00050140,0.00020780,-0.00001059,-0.0001
 4376,-0.00000360,-0.00001479,-0.00008325,-0.00000544,-0.00003430,-0.00
 000949,0.00009595,-0.00047325,-0.00050996,0.00032826,0.00049238,0.0000
 2495,0.00000383,-0.00028378,0.00001667,-0.00022673,-0.00011273,-0.0000
 5413,-0.02176740,0.00948870,-0.03710680,-0.05122881,0.00871730,-0.0189
 2270,0.00170186,-0.00026916,0.00369360,0.00500963,-0.00866639,0.017121
 34,0.06348680,0.00020924,0.00156720,-0.00156405,-0.00052462,-0.0003018
 2,0.00016054,-0.00011599,0.00059220,0.00006295,0.00072446,0.00006003,0
 .00025241,-0.00078723,-0.00055616,0.00024173,0.00081155,0.00046553,0.0
 0011872,0.00002930,-0.00001437,-0.00001406,0.00002074,0.00001234,-0.00
 002670,0.00000789,0.00001490,-0.00004118,-0.00035038,-0.00098455,-0.00
 127035,-0.00014796,-0.00040338,-0.00016745,-0.00001284,0.00018133,0.00
 000991,0.00018215,0.00010889,0.00006779,0.00002726,0.00414061,-0.00626
 960,0.01166006,-0.09632236,0.09687026,0.00313498,-0.01062094,0.0288026
 4,-0.00144960,0.00578137,-0.01271753,-0.01338719,0.09631781,0.00148574
 ,0.00416340,0.00078194,-0.00074447,-0.00078851,-0.00025703,0.00013208,
 0.00050169,0.00013423,-0.00003751,-0.00048588,-0.00008136,0.00046718,-
 0.00015116,0.00015840,-0.00083236,-0.00007561,-0.00016812,0.00015502,0
 .00000274,-0.00001993,-0.00001003,-0.00002326,-0.00001713,-0.00003896,
 -0.00005589,-0.00000500,0.00066329,-0.00062975,-0.00010060,0.00022811,
 0.00043203,0.00007862,0.00005522,-0.00023848,0.00002468,-0.00011737,-0
 .00004982,-0.00003210,-0.01357494,-0.00132261,-0.00589650,-0.02338696,
 0.09408533,-0.25592129,0.00162628,-0.00083365,0.00335297,-0.00130620,0
 .00995787,-0.01799197,0.03521098,-0.10451566,0.27595786,-0.00011979,-0
 .00095768,-0.00009059,0.00070487,-0.00010003,0.00017926,0.00008778,0.0
 0060078,0.00012673,-0.00208290,0.00375441,-0.00218823,-0.00077802,-0.0
 0153511,-0.00042930,-0.00034141,0.00102239,0.00000896,-0.00000806,0.00
 006789,-0.00000397,0.00053946,-0.00076900,0.00023890,-0.00008009,-0.00
 005462,-0.00008089,0.00001199,-0.00005947,0.00004288,-0.04040294,-0.04
 017078,-0.01333794,0.00529208,-0.00679581,0.00347411,-0.09436756,-0.02
 023597,-0.00958122,0.00072177,0.00111670,0.00025175,-0.00049211,-0.000
 08039,-0.00015914,0.00003505,0.00005299,0.00001062,0.00006274,-0.00004
 411,0.00000114,0.00005274,-0.00004979,0.00003788,0.58237411,-0.0003909
 0,-0.00151937,-0.00013448,0.00064601,0.00026836,0.00020269,0.00015414,
 -0.00045225,0.00004697,0.00494308,0.00281821,0.00152482,-0.00084659,0.
 00043247,-0.00026531,0.00023376,0.00106039,0.00008394,-0.00000933,0.00
 010321,-0.00000222,0.00004871,-0.00044066,0.00001371,-0.00016505,-0.00
 016106,-0.00005418,0.00013535,0.00011565,0.00004411,-0.03374132,0.0038
 5413,-0.01051004,0.01237415,-0.00863377,0.00384186,-0.04498898,-0.1779
 7905,-0.01492727,0.00098255,0.00157132,0.00031905,-0.00070108,-0.00012
 120,-0.00022019,0.00003669,0.00007955,0.00001212,0.00009120,-0.0000674
 1,0.00000916,0.00008052,-0.00006792,0.00004369,-0.07177485,0.46350644,
 -0.00008679,-0.00031140,0.00011798,0.00018519,-0.00002999,0.00018588,0
 .00012318,0.00018582,-0.00026400,-0.00217842,0.00115506,0.00435066,-0.
 00042354,-0.00047921,0.00042404,0.00000300,0.00032915,-0.00034166,-0.0
 0000450,0.00002197,0.00000490,0.00024534,-0.00024165,-0.00017009,-0.00
 008177,-0.00001971,0.00015209,0.00004459,-0.00001665,-0.00011317,-0.01
 328627,-0.01251677,-0.00290696,0.00362355,-0.00214002,-0.00489424,-0.0
 0977508,-0.00720271,-0.06727979,0.00025078,0.00036094,0.00002351,-0.00
 016379,-0.00002613,-0.00003657,0.00001047,0.00001725,0.00000598,0.0000
 2440,-0.00002363,-0.00000459,0.00001662,-0.00000672,0.00000601,-0.0002
 9522,-0.02332450,0.58126658,0.00006028,0.00024174,0.00002322,-0.000082
 20,-0.00008942,-0.00001332,-0.00010244,0.00011962,-0.00002381,-0.00074
 853,0.00009050,-0.00031170,0.00011071,-0.00024633,0.00002735,-0.000042
 22,-0.00012566,-0.00000023,-0.00000526,-0.00002850,-0.00000397,-0.0000
 3577,-0.00001390,-0.00003450,0.00003970,0.00002224,0.00000788,-0.00002
 186,-0.00002954,-0.00000633,0.00195009,-0.00188719,0.00052658,0.000026
 91,-0.00039524,-0.00020089,-0.01814867,-0.00397607,-0.00569565,-0.0001
 4726,-0.00027187,-0.00004882,0.00010643,0.00001998,0.00003012,-0.00000
 560,-0.00001242,-0.00000222,-0.00001389,0.00001106,-0.00000227,-0.0000
 1280,0.00001015,-0.00000520,-0.28290059,0.05971953,-0.07144656,0.30874
 094,-0.00001762,0.00011074,-0.00000459,0.00004327,-0.00004409,0.000013
 48,-0.00010945,0.00015094,-0.00003282,-0.00155664,0.00058216,-0.000483
 44,0.00004859,-0.00047737,0.00001138,-0.00013616,-0.00003066,-0.000042
 40,-0.00000681,-0.00001660,-0.00000230,0.00001123,-0.00008029,0.000002
 34,-0.00000788,0.00001545,-0.00000246,-0.00002151,-0.00004555,-0.00000
 704,0.00172679,-0.00837941,0.00047237,0.00077496,0.00332134,0.00026256
 ,-0.04234594,-0.00285793,-0.01323391,-0.00002837,-0.00008108,-0.000009
 50,0.00002498,0.00000298,0.00000776,-0.00000005,-0.00000334,-0.0000000
 5,-0.00000295,0.00000310,-0.00000174,-0.00000343,0.00000307,-0.0000001
 9,0.07177159,-0.06213585,0.02231492,-0.05798133,0.07355801,0.00002123,
 0.00007633,-0.00000094,-0.00001224,-0.00002795,-0.00004602,-0.00002554
 ,0.00003877,-0.00003086,-0.00032462,0.00003077,0.00015177,0.00002956,-
 0.00008077,0.00002572,-0.00000032,-0.00003906,-0.00004499,-0.00000380,
 -0.00000908,0.00000550,-0.00003433,-0.00000552,0.00006380,0.00000764,0
 .00000696,0.00001744,-0.00000627,-0.00000956,-0.00000437,0.00055386,-0
 .00065579,0.00038413,-0.00019204,-0.00010293,0.00060021,-0.00599594,-0
 .00126289,-0.00187476,-0.00004688,-0.00008547,-0.00001304,0.00003021,0
 .00000618,0.00001982,-0.00000214,-0.00000393,0.00000054,-0.00000384,0.
 00000187,-0.00000168,-0.00000392,0.00000482,-0.00000270,-0.07135177,0.
 01855501,-0.07450073,0.08126066,-0.01787850,0.07202243,-0.00005844,0.0
 0011019,-0.00003460,-0.00000580,0.00008803,-0.00002485,-0.00002857,0.0
 0000184,0.00006483,-0.00013928,-0.00000063,-0.00082148,0.00016585,0.00
 003002,0.00002212,-0.00004065,-0.00014277,0.00001529,0.00000444,-0.000
 00113,-0.00000261,-0.00004515,0.00006290,-0.00000070,-0.00003114,-0.00
 001100,-0.00001601,-0.00001007,-0.00000984,0.00001392,0.00427099,-0.00
 397201,0.00259011,-0.00061857,0.00237068,-0.00037373,-0.00540632,-0.01
 475784,0.01266875,-0.00006013,-0.00009219,-0.00000726,0.00004288,0.000
 00214,0.00001258,-0.00000241,-0.00000323,-0.00000177,-0.00000473,0.000
 00520,0.00000193,-0.00000324,0.00000329,-0.00000396,-0.04982542,0.0045
 3419,-0.00587940,0.00283585,0.01476374,-0.02550133,0.04814708,0.000027
 68,0.00028620,-0.00000144,-0.00012627,0.00000018,-0.00010128,-0.000021
 38,0.00002255,0.00000241,-0.00039999,-0.00045032,-0.00070394,0.0003078
 9,0.00003449,-0.00005759,-0.00006988,-0.00024648,0.00005338,0.00000045
 ,-0.00002421,0.00000464,-0.00010718,0.00019221,0.00006496,0.00000721,0
 .00002989,-0.00001178,-0.00002666,-0.00002001,0.00001322,0.00692584,-0
 .00117642,0.00282603,-0.00165843,0.00213057,-0.00055235,-0.01194008,-0
 .03061819,0.02130678,-0.00019163,-0.00030297,-0.00005930,0.00012948,0.
 00001835,0.00004646,-0.00000821,-0.00001455,-0.00000281,-0.00001648,0.
 00001353,-0.00000235,-0.00001579,0.00001263,-0.00000897,0.00147410,-0.
 11271731,0.11066442,0.00086719,-0.00181965,0.00565887,0.00450573,0.133
 96650,-0.00000130,-0.00001963,-0.00001652,0.00000661,-0.00002017,0.000
 00119,-0.00006619,-0.00002585,0.00001981,0.00040182,-0.00012058,-0.000
 56258,-0.00002041,0.00001572,-0.00001084,0.00002536,0.00000342,0.00002
 164,-0.00000143,-0.00000465,-0.00000405,0.00000381,-0.00002049,-0.0000
 0267,0.00000891,0.00000440,-0.00000350,-0.00000116,0.00000231,0.000008
 30,-0.00216394,0.00062401,0.00051656,-0.00042525,-0.00152089,0.0001754
 6,0.00139707,-0.00335049,0.01250197,0.00000345,-0.00000318,0.00001357,
 -0.00000439,-0.00000212,-0.00000561,-0.00000005,0.00000111,-0.00000066
 ,-0.00000041,0.00000048,0.00000053,0.00000018,-0.00000129,0.00000097,-
 0.00076821,0.11669523,-0.25074368,0.00061554,0.00221382,-0.00558273,0.
 00249937,-0.12593502,0.26215394,-0.00006230,0.00007804,0.00000446,-0.0
 0001150,0.00006065,0.00001639,-0.00001352,-0.00001233,-0.00008804,-0.0
 0046907,-0.00008131,0.00088103,0.00010859,0.00003332,0.00006069,-0.000
 00093,-0.00011428,-0.00003252,-0.00000020,-0.00000354,0.00000528,-0.00
 002979,0.00003934,-0.00001703,-0.00002548,-0.00000679,0.00000062,0.000
 00202,-0.00000642,-0.00001833,0.00323707,-0.00288293,-0.00074422,-0.00
 073176,0.00107663,-0.00023827,0.00701403,-0.01364148,-0.01658657,-0.00
 003691,-0.00007612,-0.00002930,0.00003034,0.00000044,0.00001274,-0.000
 00262,-0.00000192,0.00000031,-0.00000350,0.00000186,0.00000072,-0.0000
 0224,0.00000453,-0.00000382,-0.11848368,0.06863820,0.09909422,-0.01160
 382,0.01305298,0.02160183,0.00081286,0.00033642,-0.00150937,0.12027244
 ,0.00002105,0.00028524,0.00002109,-0.00016123,-0.00000140,0.00001136,-
 0.00001705,0.00002238,-0.00001433,-0.00072454,-0.00046056,0.00035276,0
 .00021922,0.00003242,0.00022267,-0.00002537,-0.00024457,-0.00008701,0.
 00000300,-0.00002415,-0.00000387,-0.00005192,0.00019287,-0.00011155,-0
 .00000066,0.00002980,0.00001435,-0.00001431,-0.00001964,-0.00002637,0.
 00726457,-0.00113958,0.00157296,-0.00168770,0.00209690,-0.00046516,0.0
 0253377,-0.03023272,-0.02482440,-0.00018963,-0.00030262,-0.00006454,0.
 00013255,0.00001835,0.00003578,-0.00000828,-0.00001454,-0.00000259,-0.
 00001816,0.00001254,-0.00000141,-0.00001492,0.00001359,-0.00000729,0.0
 6276675,-0.10951387,-0.08871047,0.00395547,-0.00177597,-0.00421814,-0.
 00748732,0.01068301,0.01146387,-0.06649531,0.13034253,-0.00002972,0.00
 008288,-0.00001202,-0.00001849,0.00006643,0.00000858,0.00004281,0.0000
 2299,0.00000492,-0.00035029,0.00009341,-0.00022284,0.00010658,0.000004
 28,0.00004883,-0.00004124,-0.00008718,-0.00002000,0.00000411,0.0000028
 4,0.00000057,-0.00002375,0.00005550,-0.00001875,-0.00002410,-0.0000094
 2,-0.00000906,-0.00000357,-0.00000776,-0.00000413,0.00417413,-0.002791
 15,0.00151430,-0.00024003,0.00262357,0.00032323,-0.00516578,-0.0060923
 8,-0.00030241,-0.00004169,-0.00005423,-0.00001009,0.00003171,0.0000032
 5,0.00000680,-0.00000148,-0.00000302,-0.00000046,-0.00000373,0.0000031
 0,0.00000147,-0.00000181,0.00000281,-0.00000198,0.09391423,-0.09195417
 ,-0.18528215,-0.00469587,0.00640033,0.00881147,0.01477880,-0.01320436,
 -0.01848110,-0.10241081,0.10484229,0.19364483\\0.00001246,-0.00001508,
 0.00000081,-0.00001453,-0.00000995,0.00000059,-0.00000402,0.00001647,-
 0.00000600,0.00001314,-0.00000535,0.00000620,-0.00001589,-0.00001074,-
 0.00000461,-0.00000164,0.00002226,-0.00000087,0.00000105,0.00000209,-0
 .00000076,0.00000034,-0.00000654,0.00000052,0.00000532,0.00000378,0.00
 000132,0.00000051,-0.00000151,-0.00000035,-0.00000953,-0.00000105,-0.0
 0000113,0.00001318,-0.00000841,0.00000356,-0.00000712,0.00000420,-0.00
 000468,-0.00000380,0.00000829,0.00000014,-0.00000238,0.00000391,-0.000
 00748,-0.00000596,0.00000180,-0.00000082,-0.00000419,0.00000349,0.0000
 0137,-0.00000145,0.00000163,0.00000297,0.00001111,-0.00000197,0.000001
 96,0.00000609,0.00000078,0.00000318,0.00000271,-0.00000488,0.00000199,
 0.00000462,-0.00000320,0.00000208\\\@


 BE LIKE A POSTAGE STAMP.  STICK TO ONE THING UNTIL
 YOU GET THERE -- JOSH BILLINGS
 Job cpu time:       0 days  1 hours 57 minutes 14.5 seconds.
 File lengths (MBytes):  RWF=    256 Int=      0 D2E=      0 Chk=      9 Scr=      1
 Normal termination of Gaussian 09 at Wed Nov 17 15:36:58 2021.
