 Entering Gaussian System, Link 0=g09
 Initial command:
 /cm/shared/apps/gaussian/g09revD.01/g09/l1.exe "//home/sweav003/CHB/CHActivation_Mkhalid/OtherCharges/G09-Table4_5.com.o9820134.tmp/Gau-78831.inp" -scrdir="//home/sweav003/CHB/CHActivation_Mkhalid/OtherCharges/G09-Table4_5.com.o9820134.tmp/"
 Entering Link 1 = /cm/shared/apps/gaussian/g09revD.01/g09/l1.exe PID=     78832.
  
 Copyright (c) 1988,1990,1992,1993,1995,1998,2003,2009,2013,
            Gaussian, Inc.  All Rights Reserved.
  
 This is part of the Gaussian(R) 09 program.  It is based on
 the Gaussian(R) 03 system (copyright 2003, Gaussian, Inc.),
 the Gaussian(R) 98 system (copyright 1998, Gaussian, Inc.),
 the Gaussian(R) 94 system (copyright 1995, Gaussian, Inc.),
 the Gaussian 92(TM) system (copyright 1992, Gaussian, Inc.),
 the Gaussian 90(TM) system (copyright 1990, Gaussian, Inc.),
 the Gaussian 88(TM) system (copyright 1988, Gaussian, Inc.),
 the Gaussian 86(TM) system (copyright 1986, Carnegie Mellon
 University), and the Gaussian 82(TM) system (copyright 1983,
 Carnegie Mellon University). Gaussian is a federally registered
 trademark of Gaussian, Inc.
  
 This software contains proprietary and confidential information,
 including trade secrets, belonging to Gaussian, Inc.
  
 This software is provided under written license and may be
 used, copied, transmitted, or stored only in accord with that
 written license.
  
 The following legend is applicable only to US Government
 contracts under FAR:
  
                    RESTRICTED RIGHTS LEGEND
  
 Use, reproduction and disclosure by the US Government is
 subject to restrictions as set forth in subparagraphs (a)
 and (c) of the Commercial Computer Software - Restricted
 Rights clause in FAR 52.227-19.
  
 Gaussian, Inc.
 340 Quinnipiac St., Bldg. 40, Wallingford CT 06492
  
  
 ---------------------------------------------------------------
 Warning -- This program may not be used in any manner that
 competes with the business of Gaussian, Inc. or will provide
 assistance to any competitor of Gaussian, Inc.  The licensee
 of this program is prohibited from giving any competitor of
 Gaussian, Inc. access to this program.  By using this program,
 the user acknowledges that Gaussian, Inc. is engaged in the
 business of creating and licensing software in the field of
 computational chemistry and represents and warrants to the
 licensee that it is not a competitor of Gaussian, Inc. and that
 it will not use this program in any manner prohibited above.
 ---------------------------------------------------------------
  

 Cite this work as:
 Gaussian 09, Revision D.01,
 M. J. Frisch, G. W. Trucks, H. B. Schlegel, G. E. Scuseria, 
 M. A. Robb, J. R. Cheeseman, G. Scalmani, V. Barone, B. Mennucci, 
 G. A. Petersson, H. Nakatsuji, M. Caricato, X. Li, H. P. Hratchian, 
 A. F. Izmaylov, J. Bloino, G. Zheng, J. L. Sonnenberg, M. Hada, 
 M. Ehara, K. Toyota, R. Fukuda, J. Hasegawa, M. Ishida, T. Nakajima, 
 Y. Honda, O. Kitao, H. Nakai, T. Vreven, J. A. Montgomery, Jr., 
 J. E. Peralta, F. Ogliaro, M. Bearpark, J. J. Heyd, E. Brothers, 
 K. N. Kudin, V. N. Staroverov, T. Keith, R. Kobayashi, J. Normand, 
 K. Raghavachari, A. Rendell, J. C. Burant, S. S. Iyengar, J. Tomasi, 
 M. Cossi, N. Rega, J. M. Millam, M. Klene, J. E. Knox, J. B. Cross, 
 V. Bakken, C. Adamo, J. Jaramillo, R. Gomperts, R. E. Stratmann, 
 O. Yazyev, A. J. Austin, R. Cammi, C. Pomelli, J. W. Ochterski, 
 R. L. Martin, K. Morokuma, V. G. Zakrzewski, G. A. Voth, 
 P. Salvador, J. J. Dannenberg, S. Dapprich, A. D. Daniels, 
 O. Farkas, J. B. Foresman, J. V. Ortiz, J. Cioslowski, 
 and D. J. Fox, Gaussian, Inc., Wallingford CT, 2013.
 
 ******************************************
 Gaussian 09:  ES64L-G09RevD.01 24-Apr-2013
                 3-Jan-2023 
 ******************************************
 %mem=100MW
 %nprocshared=20
 Will use up to   20 processors via shared memory.
 %chk=Table4_5.chk
 ----------------------------------------------------------------------
 # opt=rcfc freq=noraman b3lyp/6-311+g(d,p) pop=(npa,hirshfeld,chelpg,m
 bs) geom=connectivity
 ----------------------------------------------------------------------
 1/10=5,14=-1,18=20,19=15,26=3,38=1,57=2/1,3;
 2/9=110,12=2,17=6,18=5,40=1/2;
 3/5=4,6=6,7=111,11=2,16=1,25=1,30=1,71=1,74=-5/1,2,3;
 4//1;
 5/5=2,38=5/2;
 6/7=2,8=2,9=2,10=2,15=8,20=3,27=100,28=1,40=-1,79=1/1,2,7;
 7//1,2,3,16;
 1/14=-1,18=20,19=15,26=3/3(2);
 2/9=110/2;
 99//99;
 2/9=110/2;
 3/5=4,6=6,7=111,11=2,16=1,25=1,30=1,71=1,74=-5/1,2,3;
 4/5=5,16=3,69=1/1;
 5/5=2,38=5/2;
 7//1,2,3,16;
 1/14=-1,18=20,19=15,26=3/3(-5);
 2/9=110/2;
 6/7=2,8=2,9=2,10=2,15=8,19=2,20=3,27=100,28=1,40=-1,79=1/1,2,7;
 99/9=1/99;
 --------
 Table4_5
 --------
 Symbolic Z-matrix:
 Charge =  0 Multiplicity = 1
 6                    -2.48831   0.99462  -0.00011 
 6                    -1.4408    1.91172  -0.00008 
 6                    -0.12006   1.47033  -0.00001 
 6                     0.14346   0.09773   0.00002 
 6                    -0.91701  -0.81672   0. 
 6                    -2.24236  -0.38538  -0.00005 
 1                    -3.51319   1.35321  -0.00019 
 1                    -1.65417   2.97474  -0.00014 
 1                     0.69909   2.17675  -0.00001 
 1                    -0.68232  -1.8748    0.00002 
 6                     1.53027  -0.44869   0.00006 
 8                     1.80532  -1.62755   0.00011 
 8                     2.47053   0.52282   0.00001 
 6                    -3.38675  -1.37047   0.00007 
 1                    -3.02402  -2.39974  -0.00156 
 1                    -4.0209   -1.23909   0.88218 
 1                    -4.02296  -1.23697  -0.88021 
 6                     3.83649   0.073    -0.00005 
 1                     4.43979   0.97833  -0.00146 
 1                     4.04154  -0.52456   0.88934 
 1                     4.04074  -0.52689  -0.88803 
 

 GradGradGradGradGradGradGradGradGradGradGradGradGradGradGradGradGradGrad
 Berny optimization.
 Initialization pass.
 Cartesian force constants read from checkpoint file:
 "Table4_5.chk"
 FormGI is forming the generalized inverse of G from B-inverse, IUseBI=4.
                           ----------------------------
                           !    Initial Parameters    !
                           ! (Angstroms and Degrees)  !
 --------------------------                            --------------------------
 ! Name  Definition              Value          Derivative Info.                !
 --------------------------------------------------------------------------------
 ! R1    R(1,2)                  1.3922         D2E/DX2 =    0.3944             !
 ! R2    R(1,6)                  1.4017         D2E/DX2 =    0.3765             !
 ! R3    R(1,7)                  1.0858         D2E/DX2 =    0.352              !
 ! R4    R(2,3)                  1.3925         D2E/DX2 =    0.395              !
 ! R5    R(2,8)                  1.0842         D2E/DX2 =    0.3555             !
 ! R6    R(3,4)                  1.3977         D2E/DX2 =    0.3869             !
 ! R7    R(3,9)                  1.0817         D2E/DX2 =    0.3632             !
 ! R8    R(4,5)                  1.4003         D2E/DX2 =    0.3812             !
 ! R9    R(4,11)                 1.4906         D2E/DX2 =    0.3095             !
 ! R10   R(5,6)                  1.3938         D2E/DX2 =    0.3929             !
 ! R11   R(5,10)                 1.0838         D2E/DX2 =    0.3581             !
 ! R12   R(6,14)                 1.51           D2E/DX2 =    0.2987             !
 ! R13   R(11,12)                1.2105         D2E/DX2 =    0.8124             !
 ! R14   R(11,13)                1.352          D2E/DX2 =    0.3806             !
 ! R15   R(13,18)                1.4381         D2E/DX2 =    0.3138             !
 ! R16   R(14,15)                1.0913         D2E/DX2 =    0.3392             !
 ! R17   R(14,16)                1.0943         D2E/DX2 =    0.3316             !
 ! R18   R(14,17)                1.0943         D2E/DX2 =    0.3316             !
 ! R19   R(18,19)                1.0879         D2E/DX2 =    0.3476             !
 ! R20   R(18,20)                1.0909         D2E/DX2 =    0.3395             !
 ! R21   R(18,21)                1.0909         D2E/DX2 =    0.3396             !
 ! A1    A(2,1,6)              121.0969         D2E/DX2 =    0.0836             !
 ! A2    A(2,1,7)              119.5135         D2E/DX2 =    0.0832             !
 ! A3    A(6,1,7)              119.3896         D2E/DX2 =    0.0831             !
 ! A4    A(1,2,3)              120.3181         D2E/DX2 =    0.0822             !
 ! A5    A(1,2,8)              119.8527         D2E/DX2 =    0.0818             !
 ! A6    A(3,2,8)              119.8292         D2E/DX2 =    0.0819             !
 ! A7    A(2,3,4)              119.347          D2E/DX2 =    0.0829             !
 ! A8    A(2,3,9)              120.7466         D2E/DX2 =    0.0809             !
 ! A9    A(4,3,9)              119.9064         D2E/DX2 =    0.0812             !
 ! A10   A(3,4,5)              119.9041         D2E/DX2 =    0.0877             !
 ! A11   A(3,4,11)             122.3726         D2E/DX2 =    0.14               !
 ! A12   A(5,4,11)             117.7233         D2E/DX2 =    0.1394             !
 ! A13   A(4,5,6)              121.201          D2E/DX2 =    0.0842             !
 ! A14   A(4,5,10)             118.2659         D2E/DX2 =    0.0825             !
 ! A15   A(6,5,10)             120.5331         D2E/DX2 =    0.0814             !
 ! A16   A(1,6,5)              118.1327         D2E/DX2 =    0.0857             !
 ! A17   A(1,6,14)             120.6165         D2E/DX2 =    0.1162             !
 ! A18   A(5,6,14)             121.2507         D2E/DX2 =    0.1192             !
 ! A19   A(4,11,12)            124.6383         D2E/DX2 =    0.1777             !
 ! A20   A(4,11,13)            112.5585         D2E/DX2 =    0.1995             !
 ! A21   A(12,11,13)           122.8032         D2E/DX2 =    0.2209             !
 ! A22   A(11,13,18)           115.8366         D2E/DX2 =    0.297              !
 ! A23   A(6,14,15)            111.3088         D2E/DX2 =    0.1068             !
 ! A24   A(6,14,16)            111.1574         D2E/DX2 =    0.1017             !
 ! A25   A(6,14,17)            111.1597         D2E/DX2 =    0.1017             !
 ! A26   A(15,14,16)           107.8814         D2E/DX2 =    0.056              !
 ! A27   A(15,14,17)           107.8845         D2E/DX2 =    0.056              !
 ! A28   A(16,14,17)           107.2704         D2E/DX2 =    0.0551             !
 ! A29   A(13,18,19)           105.4518         D2E/DX2 =    0.1417             !
 ! A30   A(13,18,20)           110.4762         D2E/DX2 =    0.1414             !
 ! A31   A(13,18,21)           110.4792         D2E/DX2 =    0.1414             !
 ! A32   A(19,18,20)           110.6491         D2E/DX2 =    0.0686             !
 ! A33   A(19,18,21)           110.6539         D2E/DX2 =    0.0686             !
 ! A34   A(20,18,21)           109.099          D2E/DX2 =    0.0705             !
 ! D1    D(6,1,2,3)              0.0009         D2E/DX2 =    0.0087             !
 ! D2    D(6,1,2,8)            179.9996         D2E/DX2 =    0.0082             !
 ! D3    D(7,1,2,3)           -179.9985         D2E/DX2 =    0.0083             !
 ! D4    D(7,1,2,8)              0.0002         D2E/DX2 =    0.009              !
 ! D5    D(2,1,6,5)             -0.0015         D2E/DX2 =    0.0068             !
 ! D6    D(2,1,6,14)           179.9931         D2E/DX2 =    0.0065             !
 ! D7    D(7,1,6,5)            179.9979         D2E/DX2 =    0.0069             !
 ! D8    D(7,1,6,14)            -0.0075         D2E/DX2 =    0.0072             !
 ! D9    D(1,2,3,4)              0.0002         D2E/DX2 =    0.0089             !
 ! D10   D(1,2,3,9)            179.9988         D2E/DX2 =    0.0082             !
 ! D11   D(8,2,3,4)           -179.9985         D2E/DX2 =    0.0082             !
 ! D12   D(8,2,3,9)              0.0001         D2E/DX2 =    0.009              !
 ! D13   D(2,3,4,5)             -0.0006         D2E/DX2 =    0.0076             !
 ! D14   D(2,3,4,11)           179.9985         D2E/DX2 =    0.0071             !
 ! D15   D(9,3,4,5)           -179.9993         D2E/DX2 =    0.0073             !
 ! D16   D(9,3,4,11)            -0.0001         D2E/DX2 =    0.0075             !
 ! D17   D(3,4,5,6)              0.0            D2E/DX2 =    0.0074             !
 ! D18   D(3,4,5,10)           179.999          D2E/DX2 =    0.0073             !
 ! D19   D(11,4,5,6)          -179.9992         D2E/DX2 =    0.0068             !
 ! D20   D(11,4,5,10)           -0.0002         D2E/DX2 =    0.0077             !
 ! D21   D(3,4,11,12)          179.9991         D2E/DX2 =    0.0139             !
 ! D22   D(3,4,11,13)           -0.0022         D2E/DX2 =    0.0139             !
 ! D23   D(5,4,11,12)           -0.0017         D2E/DX2 =    0.0148             !
 ! D24   D(5,4,11,13)          179.997          D2E/DX2 =    0.0141             !
 ! D25   D(4,5,6,1)              0.001          D2E/DX2 =    0.0068             !
 ! D26   D(4,5,6,14)          -179.9935         D2E/DX2 =    0.0067             !
 ! D27   D(10,5,6,1)          -179.9979         D2E/DX2 =    0.0072             !
 ! D28   D(10,5,6,14)            0.0075         D2E/DX2 =    0.0075             !
 ! D29   D(1,6,14,15)          179.9063         D2E/DX2 =    0.0127             !
 ! D30   D(1,6,14,16)          -59.8048         D2E/DX2 =    0.0128             !
 ! D31   D(1,6,14,17)           59.6118         D2E/DX2 =    0.0128             !
 ! D32   D(5,6,14,15)           -0.0993         D2E/DX2 =    0.0129             !
 ! D33   D(5,6,14,16)          120.1896         D2E/DX2 =    0.0123             !
 ! D34   D(5,6,14,17)         -120.3938         D2E/DX2 =    0.0123             !
 ! D35   D(4,11,13,18)        -179.9957         D2E/DX2 =    0.0211             !
 ! D36   D(12,11,13,18)          0.003          D2E/DX2 =    0.0213             !
 ! D37   D(11,13,18,19)        179.9249         D2E/DX2 =    0.0241             !
 ! D38   D(11,13,18,20)        -60.487          D2E/DX2 =    0.0235             !
 ! D39   D(11,13,18,21)         60.3295         D2E/DX2 =    0.0235             !
 --------------------------------------------------------------------------------
 Trust Radius=3.00D-01 FncErr=1.00D-07 GrdErr=1.00D-06
 Number of steps in this run=    104 maximum allowed number of steps=    126.
 GradGradGradGradGradGradGradGradGradGradGradGradGradGradGradGradGradGrad

                          Input orientation:                          
 ---------------------------------------------------------------------
 Center     Atomic      Atomic             Coordinates (Angstroms)
 Number     Number       Type             X           Y           Z
 ---------------------------------------------------------------------
      1          6           0       -2.488310    0.994624   -0.000110
      2          6           0       -1.440800    1.911723   -0.000082
      3          6           0       -0.120055    1.470331   -0.000014
      4          6           0        0.143457    0.097734    0.000022
      5          6           0       -0.917005   -0.816715    0.000003
      6          6           0       -2.242361   -0.385380   -0.000052
      7          1           0       -3.513185    1.353213   -0.000188
      8          1           0       -1.654169    2.974743   -0.000135
      9          1           0        0.699094    2.176749   -0.000011
     10          1           0       -0.682322   -1.874802    0.000015
     11          6           0        1.530269   -0.448689    0.000062
     12          8           0        1.805320   -1.627553    0.000109
     13          8           0        2.470528    0.522817    0.000011
     14          6           0       -3.386753   -1.370473    0.000073
     15          1           0       -3.024025   -2.399744   -0.001558
     16          1           0       -4.020895   -1.239092    0.882177
     17          1           0       -4.022961   -1.236971   -0.880207
     18          6           0        3.836492    0.072998   -0.000051
     19          1           0        4.439790    0.978332   -0.001460
     20          1           0        4.041540   -0.524562    0.889336
     21          1           0        4.040742   -0.526893   -0.888033
 ---------------------------------------------------------------------
                    Distance matrix (angstroms):
                    1          2          3          4          5
     1  C    0.000000
     2  C    1.392246   0.000000
     3  C    2.415560   1.392550   0.000000
     4  C    2.780397   2.408407   1.397663   0.000000
     5  C    2.397905   2.778261   2.421923   1.400284   0.000000
     6  C    1.401750   2.432937   2.819192   2.434240   1.393778
     7  H    1.085797   2.146325   3.395151   3.866168   3.383598
     8  H    2.148642   1.084222   2.148665   3.392439   3.862456
     9  H    3.399553   2.156243   1.081680   2.151984   3.401853
    10  H    3.390457   3.861743   3.392058   2.138413   1.083801
    11  C    4.269910   3.794575   2.531049   1.490579   2.474792
    12  O    5.031011   4.802475   3.647459   2.395497   2.840513
    13  O    4.981232   4.150608   2.758424   2.365577   3.642763
    14  C    2.529997   3.815697   4.329143   3.823351   2.531068
    15  H    3.436383   4.592968   4.838442   4.033651   2.635435
    16  H    2.848988   4.166882   4.830713   4.461741   3.254346
    17  H    2.847761   4.166107   4.830828   4.462654   3.255510
    18  C    6.391597   5.588445   4.196046   3.693118   4.836044
    19  H    6.928119   5.954205   4.586311   4.385651   5.649553
    20  H    6.762986   6.064866   4.699938   4.046379   5.046131
    21  H    6.762540   6.064867   4.699969   4.045693   5.044984
                    6          7          8          9         10
     6  C    0.000000
     7  H    2.153532   0.000000
     8  H    3.411216   2.466840   0.000000
     9  H    3.900854   4.292028   2.484883   0.000000
    10  H    2.156873   4.293468   4.945965   4.280581   0.000000
    11  C    3.773161   5.355677   4.675525   2.753866   2.632367
    12  O    4.233995   6.096840   5.757534   3.961875   2.499899
    13  O    4.799598   6.041058   4.798444   2.423524   3.960939
    14  C    1.509981   2.726619   4.677900   5.410816   2.751053
    15  H    2.160709   3.784702   5.546316   5.899653   2.399821
    16  H    2.161096   2.785028   4.912868   5.892752   3.511183
    17  H    2.161115   2.782689   4.911643   5.892880   3.513045
    18  C    6.096111   7.460342   6.210272   3.777438   4.920732
    19  H    6.819887   7.961806   6.412643   3.927978   5.863140
    20  H    6.348054   7.835251   6.743693   4.388618   4.992886
    21  H    6.347119   7.834850   6.744022   4.389177   4.991275
                   11         12         13         14         15
    11  C    0.000000
    12  O    1.210526   0.000000
    13  O    1.352003   2.250909   0.000000
    14  C    5.002678   5.198434   6.155671   0.000000
    15  H    4.954615   4.890691   6.223462   1.091317   0.000000
    16  H    5.676115   5.905398   6.783886   1.094305   1.766876
    17  H    5.677555   5.907315   6.785060   1.094293   1.766901
    18  C    2.364492   2.649063   1.438122   7.366063   7.292541
    19  H    3.240633   3.705546   2.021259   8.171393   8.192675
    20  H    2.665154   2.647262   2.087099   7.529003   7.364252
    21  H    2.664076   2.645252   2.087124   7.527818   7.362360
                   16         17         18         19         20
    16  H    0.000000
    17  H    1.762386   0.000000
    18  C    8.014888   8.016339   0.000000
    19  H    8.790960   8.791923   1.087934   0.000000
    20  H    8.094039   8.287037   1.090932   1.791874   0.000000
    21  H    8.284375   8.094911   1.090917   1.791913   1.777371
                   21
    21  H    0.000000
 Stoichiometry    C9H10O2
 Framework group  C1[X(C9H10O2)]
 Deg. of freedom    57
 Full point group                 C1      NOp   1
 Largest Abelian subgroup         C1      NOp   1
 Largest concise Abelian subgroup C1      NOp   1
                         Standard orientation:                         
 ---------------------------------------------------------------------
 Center     Atomic      Atomic             Coordinates (Angstroms)
 Number     Number       Type             X           Y           Z
 ---------------------------------------------------------------------
      1          6           0       -2.488310    0.994624   -0.000110
      2          6           0       -1.440800    1.911723   -0.000082
      3          6           0       -0.120055    1.470331   -0.000014
      4          6           0        0.143457    0.097734    0.000022
      5          6           0       -0.917005   -0.816715    0.000003
      6          6           0       -2.242361   -0.385380   -0.000052
      7          1           0       -3.513185    1.353213   -0.000188
      8          1           0       -1.654169    2.974743   -0.000135
      9          1           0        0.699094    2.176749   -0.000011
     10          1           0       -0.682322   -1.874802    0.000015
     11          6           0        1.530269   -0.448689    0.000062
     12          8           0        1.805320   -1.627553    0.000109
     13          8           0        2.470528    0.522817    0.000011
     14          6           0       -3.386753   -1.370473    0.000073
     15          1           0       -3.024025   -2.399744   -0.001558
     16          1           0       -4.020895   -1.239092    0.882177
     17          1           0       -4.022961   -1.236971   -0.880207
     18          6           0        3.836492    0.072998   -0.000051
     19          1           0        4.439790    0.978332   -0.001460
     20          1           0        4.041540   -0.524562    0.889336
     21          1           0        4.040742   -0.526893   -0.888033
 ---------------------------------------------------------------------
 Rotational constants (GHZ):      2.5811134      0.6510959      0.5233388
 Standard basis: 6-311+G(d,p) (5D, 7F)
 There are   313 symmetry adapted cartesian basis functions of A   symmetry.
 There are   302 symmetry adapted basis functions of A   symmetry.
   302 basis functions,   476 primitive gaussians,   313 cartesian basis functions
    40 alpha electrons       40 beta electrons
       nuclear repulsion energy       575.1372440479 Hartrees.
 NAtoms=   21 NActive=   21 NUniq=   21 SFac= 1.00D+00 NAtFMM=   60 NAOKFM=F Big=F
 Integral buffers will be    131072 words long.
 Raffenetti 2 integral format.
 Two-electron integral symmetry is turned on.
 One-electron integrals computed using PRISM.
 NBasis=   302 RedAO= T EigKep=  2.61D-06  NBF=   302
 NBsUse=   301 1.00D-06 EigRej=  8.65D-07 NBFU=   301
 ExpMin= 4.38D-02 ExpMax= 8.59D+03 ExpMxC= 1.30D+03 IAcc=2 IRadAn=         4 AccDes= 0.00D+00
 Harris functional with IExCor=  402 and IRadAn=       4 diagonalized for initial guess.
 HarFok:  IExCor=  402 AccDes= 0.00D+00 IRadAn=         4 IDoV= 1 UseB2=F ITyADJ=14
 ICtDFT=  3500011 ScaDFX=  1.000000  1.000000  1.000000  1.000000
 FoFCou: FMM=F IPFlag=           0 FMFlag=      100000 FMFlg1=           0
         NFxFlg=           0 DoJE=T BraDBF=F KetDBF=T FulRan=T
         wScrn=  0.000000 ICntrl=     500 IOpCl=  0 I1Cent=   200000004 NGrid=           0
         NMat0=    1 NMatS0=      1 NMatT0=    0 NMatD0=    1 NMtDS0=    0 NMtDT0=    0
 Petite list used in FoFCou.
 Requested convergence on RMS density matrix=1.00D-08 within 128 cycles.
 Requested convergence on MAX density matrix=1.00D-06.
 Requested convergence on             energy=1.00D-06.
 No special actions if energy rises.
 SCF Done:  E(RB3LYP) =  -499.585866749     A.U. after   15 cycles
            NFock= 15  Conv=0.52D-08     -V/T= 2.0042

 **********************************************************************

            Population analysis using the SCF density.

 **********************************************************************

 Orbital symmetries:
       Occupied  (A) (A) (A) (A) (A) (A) (A) (A) (A) (A) (A) (A)
                 (A) (A) (A) (A) (A) (A) (A) (A) (A) (A) (A) (A)
                 (A) (A) (A) (A) (A) (A) (A) (A) (A) (A) (A) (A)
                 (A) (A) (A) (A)
       Virtual   (A) (A) (A) (A) (A) (A) (A) (A) (A) (A) (A) (A)
                 (A) (A) (A) (A) (A) (A) (A) (A) (A) (A) (A) (A)
                 (A) (A) (A) (A) (A) (A) (A) (A) (A) (A) (A) (A)
                 (A) (A) (A) (A) (A) (A) (A) (A) (A) (A) (A) (A)
                 (A) (A) (A) (A) (A) (A) (A) (A) (A) (A) (A) (A)
                 (A) (A) (A) (A) (A) (A) (A) (A) (A) (A) (A) (A)
                 (A) (A) (A) (A) (A) (A) (A) (A) (A) (A) (A) (A)
                 (A) (A) (A) (A) (A) (A) (A) (A) (A) (A) (A) (A)
                 (A) (A) (A) (A) (A) (A) (A) (A) (A) (A) (A) (A)
                 (A) (A) (A) (A) (A) (A) (A) (A) (A) (A) (A) (A)
                 (A) (A) (A) (A) (A) (A) (A) (A) (A) (A) (A) (A)
                 (A) (A) (A) (A) (A) (A) (A) (A) (A) (A) (A) (A)
                 (A) (A) (A) (A) (A) (A) (A) (A) (A) (A) (A) (A)
                 (A) (A) (A) (A) (A) (A) (A) (A) (A) (A) (A) (A)
                 (A) (A) (A) (A) (A) (A) (A) (A) (A) (A) (A) (A)
                 (A) (A) (A) (A) (A) (A) (A) (A) (A) (A) (A) (A)
                 (A) (A) (A) (A) (A) (A) (A) (A) (A) (A) (A) (A)
                 (A) (A) (A) (A) (A) (A) (A) (A) (A) (A) (A) (A)
                 (A) (A) (A) (A) (A) (A) (A) (A) (A) (A) (A) (A)
                 (A) (A) (A) (A) (A) (A) (A) (A) (A) (A) (A) (A)
                 (A) (A) (A) (A) (A) (A) (A) (A) (A) (A) (A) (A)
                 (A) (A) (A) (A) (A) (A) (A) (A) (A)
 The electronic state is 1-A.
 Alpha  occ. eigenvalues --  -19.17193 -19.11220 -10.30475 -10.22819 -10.19515
 Alpha  occ. eigenvalues --  -10.19431 -10.18628 -10.18599 -10.18517 -10.18285
 Alpha  occ. eigenvalues --  -10.17470  -1.11218  -1.02372  -0.87423  -0.79336
 Alpha  occ. eigenvalues --   -0.77060  -0.73211  -0.69611  -0.63756  -0.60606
 Alpha  occ. eigenvalues --   -0.56974  -0.53402  -0.49657  -0.48930  -0.48717
 Alpha  occ. eigenvalues --   -0.46280  -0.44906  -0.43126  -0.43008  -0.41985
 Alpha  occ. eigenvalues --   -0.41085  -0.39554  -0.37016  -0.36332  -0.36264
 Alpha  occ. eigenvalues --   -0.35168  -0.31370  -0.28620  -0.26721  -0.25821
 Alpha virt. eigenvalues --   -0.05825  -0.01954   0.00129   0.01030   0.01713
 Alpha virt. eigenvalues --    0.02807   0.03473   0.04087   0.04120   0.04499
 Alpha virt. eigenvalues --    0.05463   0.05657   0.05853   0.06937   0.07838
 Alpha virt. eigenvalues --    0.08991   0.09052   0.09477   0.10455   0.11639
 Alpha virt. eigenvalues --    0.12260   0.12653   0.13378   0.13565   0.14611
 Alpha virt. eigenvalues --    0.14792   0.14990   0.15826   0.16023   0.16889
 Alpha virt. eigenvalues --    0.17252   0.17887   0.18552   0.18790   0.19821
 Alpha virt. eigenvalues --    0.20024   0.21023   0.21370   0.21431   0.21911
 Alpha virt. eigenvalues --    0.21952   0.22818   0.23620   0.24506   0.24580
 Alpha virt. eigenvalues --    0.25158   0.26380   0.27222   0.27442   0.27774
 Alpha virt. eigenvalues --    0.27902   0.28756   0.30054   0.30511   0.30867
 Alpha virt. eigenvalues --    0.31246   0.31711   0.33744   0.34664   0.35365
 Alpha virt. eigenvalues --    0.36260   0.39218   0.40399   0.41990   0.42652
 Alpha virt. eigenvalues --    0.43395   0.44175   0.46716   0.48000   0.49777
 Alpha virt. eigenvalues --    0.51528   0.53336   0.54010   0.54041   0.54747
 Alpha virt. eigenvalues --    0.55199   0.57228   0.57446   0.59074   0.59942
 Alpha virt. eigenvalues --    0.60560   0.60729   0.62869   0.63069   0.63164
 Alpha virt. eigenvalues --    0.64434   0.65006   0.66800   0.67861   0.68835
 Alpha virt. eigenvalues --    0.69261   0.69866   0.70604   0.71372   0.72032
 Alpha virt. eigenvalues --    0.74365   0.74980   0.78228   0.79949   0.82966
 Alpha virt. eigenvalues --    0.84951   0.87290   0.88487   0.90850   0.92581
 Alpha virt. eigenvalues --    0.93782   0.93835   0.94534   0.97922   0.98882
 Alpha virt. eigenvalues --    0.98893   1.00464   1.01405   1.03772   1.04208
 Alpha virt. eigenvalues --    1.05675   1.06876   1.07809   1.09152   1.12527
 Alpha virt. eigenvalues --    1.13918   1.17680   1.17744   1.20685   1.24742
 Alpha virt. eigenvalues --    1.28837   1.32470   1.34728   1.37023   1.38324
 Alpha virt. eigenvalues --    1.39787   1.43160   1.43520   1.45191   1.47702
 Alpha virt. eigenvalues --    1.50234   1.50804   1.51377   1.52923   1.53726
 Alpha virt. eigenvalues --    1.53773   1.54327   1.57128   1.58478   1.60264
 Alpha virt. eigenvalues --    1.61183   1.66019   1.67123   1.67709   1.69236
 Alpha virt. eigenvalues --    1.69692   1.71106   1.71804   1.72308   1.75751
 Alpha virt. eigenvalues --    1.76943   1.80094   1.82298   1.83067   1.86504
 Alpha virt. eigenvalues --    1.90243   1.90907   1.91703   1.92794   1.94867
 Alpha virt. eigenvalues --    1.96585   1.98841   2.01187   2.01434   2.04387
 Alpha virt. eigenvalues --    2.04713   2.08007   2.10475   2.11604   2.19321
 Alpha virt. eigenvalues --    2.20163   2.20256   2.23462   2.24913   2.30346
 Alpha virt. eigenvalues --    2.38080   2.38667   2.39877   2.41283   2.42990
 Alpha virt. eigenvalues --    2.44071   2.46820   2.50938   2.51346   2.51747
 Alpha virt. eigenvalues --    2.54607   2.57290   2.58956   2.63592   2.63882
 Alpha virt. eigenvalues --    2.64195   2.65874   2.67309   2.69529   2.72026
 Alpha virt. eigenvalues --    2.73159   2.75514   2.78470   2.79463   2.80195
 Alpha virt. eigenvalues --    2.82144   2.82619   2.85751   2.86245   2.90492
 Alpha virt. eigenvalues --    2.90653   2.92180   2.93946   2.95174   3.03334
 Alpha virt. eigenvalues --    3.03957   3.08455   3.11325   3.17387   3.19809
 Alpha virt. eigenvalues --    3.21138   3.22783   3.29361   3.37357   3.37650
 Alpha virt. eigenvalues --    3.39334   3.51430   3.54887   3.59451   3.64384
 Alpha virt. eigenvalues --    3.67574   3.73351   3.76953   3.78739   3.83090
 Alpha virt. eigenvalues --    3.85191   4.00916   4.06135   4.10037   4.14289
 Alpha virt. eigenvalues --    4.17390   4.32212   4.37537   4.84457   4.97305
 Alpha virt. eigenvalues --    5.05032   5.22352   5.37029   5.66614   5.85847
 Alpha virt. eigenvalues --   23.59908  23.85399  23.91228  23.92385  23.94794
 Alpha virt. eigenvalues --   23.97622  24.06493  24.09101  24.17927  49.89851
 Alpha virt. eigenvalues --   50.04164
          Condensed to atoms (all electrons):
               1          2          3          4          5          6
     1  C    8.103969  -1.087867   0.821183  -0.765216  -1.382223  -0.387562
     2  C   -1.087867   8.515792  -3.464253   1.447312   0.440321   1.395304
     3  C    0.821183  -3.464253  11.259630  -3.065967  -0.675957  -1.375110
     4  C   -0.765216   1.447312  -3.065967  15.416983   2.339139  -0.364742
     5  C   -1.382223   0.440321  -0.675957   2.339139   7.350644   0.075490
     6  C   -0.387562   1.395304  -1.375110  -0.364742   0.075490   7.070503
     7  H    0.352279  -0.008335  -0.029768   0.021703  -0.010868  -0.005832
     8  H    0.027783   0.334930   0.018421  -0.009782  -0.015017  -0.031561
     9  H    0.000396  -0.007700   0.376655  -0.054963  -0.019559  -0.007370
    10  H    0.033462  -0.028689   0.028098  -0.072301   0.325233  -0.072282
    11  C    1.196641  -1.508030   2.329911  -8.049863  -2.441572  -0.049751
    12  O   -0.034084   0.085490  -0.104600   0.293845   0.028406   0.066120
    13  O    0.016553   0.041578   0.104198  -0.813473  -0.115978   0.004486
    14  C   -0.463009  -0.030181   0.100655  -0.052782   0.340964  -0.416397
    15  H   -0.080470  -0.000627   0.001533   0.037992   0.092200  -0.127825
    16  H    0.012806   0.009859  -0.006491  -0.003866  -0.017588  -0.013066
    17  H    0.013925   0.010016  -0.006398  -0.004020  -0.017678  -0.014620
    18  C    0.009484  -0.046445   0.089586  -0.616708  -0.095271  -0.003598
    19  H    0.000044   0.001133  -0.011416   0.019589   0.009545   0.000690
    20  H   -0.000096  -0.000989   0.000831   0.023784  -0.006706  -0.000944
    21  H   -0.000098  -0.000994   0.000766   0.024061  -0.006718  -0.000945
               7          8          9         10         11         12
     1  C    0.352279   0.027783   0.000396   0.033462   1.196641  -0.034084
     2  C   -0.008335   0.334930  -0.007700  -0.028689  -1.508030   0.085490
     3  C   -0.029768   0.018421   0.376655   0.028098   2.329911  -0.104600
     4  C    0.021703  -0.009782  -0.054963  -0.072301  -8.049863   0.293845
     5  C   -0.010868  -0.015017  -0.019559   0.325233  -2.441572   0.028406
     6  C   -0.005832  -0.031561  -0.007370  -0.072282  -0.049751   0.066120
     7  H    0.540012  -0.008225  -0.000259  -0.000266   0.000960   0.000019
     8  H   -0.008225   0.542585  -0.007411   0.000075   0.019829  -0.000033
     9  H   -0.000259  -0.007411   0.511044  -0.000134   0.063521  -0.000904
    10  H   -0.000266   0.000075  -0.000134   0.507310   0.135727   0.004699
    11  C    0.000960   0.019829   0.063521   0.135727  13.580524   0.057428
    12  O    0.000019  -0.000033  -0.000904   0.004699   0.057428   8.185594
    13  O    0.000021   0.000311   0.006337   0.002474   0.549373  -0.205819
    14  C    0.021898   0.000362  -0.002026  -0.009036  -0.315863   0.008523
    15  H    0.000262   0.000013  -0.000002   0.001977  -0.002267   0.000011
    16  H    0.000139   0.000003   0.000000   0.000218   0.000221   0.000010
    17  H    0.000139   0.000003   0.000000   0.000218   0.000222   0.000010
    18  C   -0.000009   0.000208   0.000140   0.002546   0.319490  -0.093272
    19  H    0.000000  -0.000001   0.000217  -0.000002   0.024085   0.003786
    20  H    0.000000   0.000000  -0.000046  -0.000012  -0.029238  -0.002235
    21  H    0.000000   0.000000  -0.000046  -0.000012  -0.029402  -0.002233
              13         14         15         16         17         18
     1  C    0.016553  -0.463009  -0.080470   0.012806   0.013925   0.009484
     2  C    0.041578  -0.030181  -0.000627   0.009859   0.010016  -0.046445
     3  C    0.104198   0.100655   0.001533  -0.006491  -0.006398   0.089586
     4  C   -0.813473  -0.052782   0.037992  -0.003866  -0.004020  -0.616708
     5  C   -0.115978   0.340964   0.092200  -0.017588  -0.017678  -0.095271
     6  C    0.004486  -0.416397  -0.127825  -0.013066  -0.014620  -0.003598
     7  H    0.000021   0.021898   0.000262   0.000139   0.000139  -0.000009
     8  H    0.000311   0.000362   0.000013   0.000003   0.000003   0.000208
     9  H    0.006337  -0.002026  -0.000002   0.000000   0.000000   0.000140
    10  H    0.002474  -0.009036   0.001977   0.000218   0.000218   0.002546
    11  C    0.549373  -0.315863  -0.002267   0.000221   0.000222   0.319490
    12  O   -0.205819   0.008523   0.000011   0.000010   0.000010  -0.093272
    13  O    8.410896  -0.004049  -0.000005  -0.000008  -0.000008   0.275620
    14  C   -0.004049   6.082155   0.451096   0.373642   0.374103  -0.004447
    15  H   -0.000005   0.451096   0.532986  -0.024752  -0.024781  -0.000006
    16  H   -0.000008   0.373642  -0.024752   0.545851  -0.034322   0.000001
    17  H   -0.000008   0.374103  -0.024781  -0.034322   0.546036   0.000001
    18  C    0.275620  -0.004447  -0.000006   0.000001   0.000001   5.082300
    19  H   -0.067416   0.000008   0.000000   0.000000   0.000000   0.384662
    20  H   -0.028427   0.000016   0.000000   0.000000   0.000000   0.423209
    21  H   -0.028399   0.000016   0.000000   0.000000   0.000000   0.423196
              19         20         21
     1  C    0.000044  -0.000096  -0.000098
     2  C    0.001133  -0.000989  -0.000994
     3  C   -0.011416   0.000831   0.000766
     4  C    0.019589   0.023784   0.024061
     5  C    0.009545  -0.006706  -0.006718
     6  C    0.000690  -0.000944  -0.000945
     7  H    0.000000   0.000000   0.000000
     8  H   -0.000001   0.000000   0.000000
     9  H    0.000217  -0.000046  -0.000046
    10  H   -0.000002  -0.000012  -0.000012
    11  C    0.024085  -0.029238  -0.029402
    12  O    0.003786  -0.002235  -0.002233
    13  O   -0.067416  -0.028427  -0.028399
    14  C    0.000008   0.000016   0.000016
    15  H    0.000000   0.000000   0.000000
    16  H    0.000000   0.000000   0.000000
    17  H    0.000000   0.000000   0.000000
    18  C    0.384662   0.423209   0.423196
    19  H    0.540612  -0.028601  -0.028595
    20  H   -0.028601   0.525322  -0.034656
    21  H   -0.028595  -0.034656   0.525253
 Mulliken charges:
               1
     1  C   -0.387901
     2  C   -0.097623
     3  C   -0.391506
     4  C    0.249274
     5  C   -0.196808
     6  C    0.259013
     7  H    0.126131
     8  H    0.127505
     9  H    0.142110
    10  H    0.140696
    11  C    0.148053
    12  O   -0.290760
    13  O   -0.148263
    14  C   -0.455648
    15  H    0.142665
    16  H    0.157342
    17  H    0.157156
    18  C   -0.150689
    19  H    0.151658
    20  H    0.158788
    21  H    0.158807
 Sum of Mulliken charges =   0.00000
 Mulliken charges with hydrogens summed into heavy atoms:
               1
     1  C   -0.261770
     2  C    0.029882
     3  C   -0.249396
     4  C    0.249274
     5  C   -0.056112
     6  C    0.259013
    11  C    0.148053
    12  O   -0.290760
    13  O   -0.148263
    14  C    0.001515
    18  C    0.318564
 Electronic spatial extent (au):  <R**2>=           2119.8575
 Charge=              0.0000 electrons
 Dipole moment (field-independent basis, Debye):
    X=             -0.6950    Y=              1.6763    Z=             -0.0001  Tot=              1.8147
 Quadrupole moment (field-independent basis, Debye-Ang):
   XX=            -51.4431   YY=            -66.2309   ZZ=            -67.3949
   XY=              3.8769   XZ=             -0.0012   YZ=              0.0000
 Traceless Quadrupole moment (field-independent basis, Debye-Ang):
   XX=             10.2465   YY=             -4.5412   ZZ=             -5.7052
   XY=              3.8769   XZ=             -0.0012   YZ=              0.0000
 Octapole moment (field-independent basis, Debye-Ang**2):
  XXX=             43.3628  YYY=             12.5344  ZZZ=              0.0070  XYY=             -9.3410
  XXY=              6.1353  XXZ=             -0.0033  XZZ=             11.6995  YZZ=             -5.1123
  YYZ=             -0.0057  XYZ=              0.0027
 Hexadecapole moment (field-independent basis, Debye-Ang**3):
 XXXX=          -1895.3328 YYYY=           -578.3403 ZZZZ=            -87.5295 XXXY=              8.5318
 XXXZ=             -0.0004 YYYX=             13.4784 YYYZ=              0.0206 ZZZX=             -0.0071
 ZZZY=              0.0075 XXYY=           -465.7815 XXZZ=           -374.6118 YYZZ=           -122.8662
 XXYZ=             -0.0121 YYXZ=             -0.0127 ZZXY=              0.0690
 N-N= 5.751372440479D+02 E-N=-2.315300407204D+03  KE= 4.975113475397D+02
 There are a total of      173252 grid points.
 ElSum from          density=       80.0002124818
 ElSum from atomic densities=       80.0006733243

 Hirshfeld populations at iteration   1 (CX, CA, CB, DipXYZ):
               1          2          3          4          5          6
     1  C    0.000000   3.019857   3.019857  -0.061707   0.012052   0.000008
     2  C    0.000000   3.022363   3.022363  -0.010708   0.062575  -0.000002
     3  C    0.000000   3.020316   3.020316   0.034473   0.042119   0.000000
     4  C    0.000000   3.008861   3.008861   0.054211  -0.020259   0.000002
     5  C    0.000000   3.018347   3.018347   0.004803  -0.050366   0.000013
     6  C    0.000000   2.996822   2.996822  -0.060396  -0.047895   0.000014
     7  H    0.000001   0.475688   0.475688  -0.148056   0.055345  -0.000010
     8  H    0.000002   0.475325   0.475325  -0.031024   0.158386  -0.000008
     9  H    0.000001   0.476277   0.476277   0.097755   0.122355   0.000000
    10  H    0.000001   0.475717   0.475717   0.009814  -0.150182   0.000002
    11  C    0.000000   2.891101   2.891101   0.057279   0.053606   0.000003
    12  O    0.000003   4.143399   4.143399  -0.027659   0.106757  -0.000026
    13  O    0.000000   4.064415   4.064415   0.049940  -0.118245   0.000003
    14  C    0.000000   3.046979   3.046979   0.011658   0.007453   0.000000
    15  H    0.000000   0.477990   0.477990   0.046756  -0.143986  -0.000225
    16  H    0.000001   0.478360   0.478360  -0.088303   0.014991   0.121457
    17  H    0.000001   0.478364   0.478364  -0.088581   0.015282  -0.121208
    18  C    0.000000   3.004601   3.004601  -0.045908   0.030290  -0.000005
    19  H    0.000000   0.474232   0.474232   0.096583   0.127034  -0.000202
    20  H    0.000001   0.475544   0.475544   0.049386  -0.075162   0.126661
    21  H    0.000001   0.475549   0.475549   0.049344  -0.075437  -0.126495
       Tot   0.000013  40.000106  40.000106  -0.000340   0.126710  -0.000019

 Dip from Atomic Chgs             -0.272898   0.532660  -0.000020
         Total Dipole             -0.273238   0.659370  -0.000039

 Hirshfeld charges, spin densities, dipoles, and CM5 charges using IRadAn=      4:
              Q-H        S-H        Dx         Dy         Dz        Q-CM5   
     1  C   -0.039714   0.000000  -0.061707   0.012052   0.000008  -0.093161
     2  C   -0.044725   0.000000  -0.010708   0.062575  -0.000002  -0.100184
     3  C   -0.040632   0.000000   0.034473   0.042119   0.000000  -0.092358
     4  C   -0.017721   0.000000   0.054211  -0.020259   0.000002  -0.021049
     5  C   -0.036694   0.000000   0.004803  -0.050366   0.000013  -0.086346
     6  C    0.006356   0.000000  -0.060396  -0.047895   0.000014  -0.010799
     7  H    0.048625   0.000000  -0.148056   0.055345  -0.000010   0.105050
     8  H    0.049350   0.000000  -0.031024   0.158386  -0.000008   0.105169
     9  H    0.047445   0.000000   0.097755   0.122355   0.000000   0.108858
    10  H    0.048566   0.000000   0.009814  -0.150182   0.000002   0.110077
    11  C    0.217798   0.000000   0.057279   0.053606   0.000003   0.275964
    12  O   -0.286798   0.000000  -0.027659   0.106757  -0.000026  -0.336183
    13  O   -0.128829   0.000000   0.049940  -0.118245   0.000003  -0.215560
    14  C   -0.093959   0.000000   0.011658   0.007453   0.000000  -0.237745
    15  H    0.044021   0.000000   0.046756  -0.143986  -0.000225   0.096268
    16  H    0.043281   0.000000  -0.088303   0.014991   0.121457   0.094809
    17  H    0.043271   0.000000  -0.088581   0.015282  -0.121208   0.094802
    18  C   -0.009202   0.000000  -0.045908   0.030290  -0.000005  -0.130812
    19  H    0.051535   0.000000   0.096583   0.127034  -0.000202   0.112099
    20  H    0.048912   0.000000   0.049386  -0.075162   0.126661   0.110441
    21  H    0.048902   0.000000   0.049344  -0.075437  -0.126495   0.110447
       Tot  -0.000212   0.000000  -0.000340   0.126710  -0.000019  -0.000212
 Hirshfeld charges with hydrogens summed into heavy atoms:
              Q-H       Q-CM5   
     1  C    0.008911   0.011889
     2  C    0.004625   0.004985
     3  C    0.006813   0.016500
     4  C   -0.017721  -0.021049
     5  C    0.011871   0.023731
     6  C    0.006356  -0.010799
    11  C    0.217798   0.275964
    12  O   -0.286798  -0.336183
    13  O   -0.128829  -0.215560
    14  C    0.036614   0.048135
    18  C    0.140148   0.202175
 
 EQQ= 0.000000000000E+00 EQD= 0.000000000000E+00 EDD= 0.312509333405E-02
 EQQ+QD+DD= 0.312509333405E-02
 
          MBS Condensed to atoms (all electrons):
               1          2          3          4          5          6
     1  C    4.835628   0.507925  -0.030765  -0.012200  -0.032456   0.498286
     2  C    0.507925   4.820630   0.505436  -0.030873  -0.012033  -0.028903
     3  C   -0.030765   0.505436   4.828747   0.496038  -0.030807  -0.010887
     4  C   -0.012200  -0.030873   0.496038   4.824050   0.496136  -0.027719
     5  C   -0.032456  -0.012033  -0.030807   0.496136   4.839813   0.508645
     6  C    0.498286  -0.028903  -0.010887  -0.027719   0.508645   4.777586
     7  H    0.388103  -0.026088   0.001545   0.000062   0.001585  -0.026972
     8  H   -0.025873   0.390715  -0.026055   0.001519   0.000046   0.001459
     9  H    0.001467  -0.024052   0.387934  -0.025604   0.001458   0.000045
    10  H    0.001496   0.000052   0.001499  -0.027064   0.384640  -0.024750
    11  C    0.000008   0.000819  -0.023810   0.392556  -0.028000   0.000880
    12  O    0.000000  -0.000002   0.000285  -0.026760  -0.002739   0.000011
    13  O    0.000000   0.000012  -0.002448  -0.033716   0.000309  -0.000001
    14  C   -0.028521   0.000849   0.000020   0.000891  -0.028729   0.387501
    15  H    0.001425  -0.000027   0.000001   0.000044  -0.004445  -0.021576
    16  H   -0.002298   0.000007   0.000003  -0.000027   0.000696  -0.021335
    17  H   -0.002309   0.000007   0.000003  -0.000027   0.000702  -0.021336
    18  C    0.000000   0.000000   0.000043   0.001625  -0.000015   0.000000
    19  H    0.000000   0.000000   0.000000  -0.000026   0.000000   0.000000
    20  H    0.000000   0.000000  -0.000002   0.000006   0.000001   0.000000
    21  H    0.000000   0.000000  -0.000002   0.000006   0.000001   0.000000
               7          8          9         10         11         12
     1  C    0.388103  -0.025873   0.001467   0.001496   0.000008   0.000000
     2  C   -0.026088   0.390715  -0.024052   0.000052   0.000819  -0.000002
     3  C    0.001545  -0.026055   0.387934   0.001499  -0.023810   0.000285
     4  C    0.000062   0.001519  -0.025604  -0.027064   0.392556  -0.026760
     5  C    0.001585   0.000046   0.001458   0.384640  -0.028000  -0.002739
     6  C   -0.026972   0.001459   0.000045  -0.024750   0.000880   0.000011
     7  H    0.564156  -0.003923  -0.000039  -0.000043   0.000001   0.000000
     8  H   -0.003923   0.556571  -0.003731   0.000002  -0.000017   0.000000
     9  H   -0.000039  -0.003731   0.535573  -0.000043  -0.003911   0.000016
    10  H   -0.000043   0.000002  -0.000043   0.539266  -0.004326   0.003164
    11  C    0.000001  -0.000017  -0.003911  -0.004326   4.474132   0.458451
    12  O    0.000000   0.000000   0.000016   0.003164   0.458451   8.067154
    13  O    0.000000   0.000000   0.002761   0.000037   0.291300  -0.024306
    14  C   -0.003264  -0.000018   0.000001  -0.003803  -0.000005   0.000000
    15  H    0.000026   0.000000   0.000000   0.001409  -0.000001   0.000000
    16  H    0.000459   0.000000   0.000000   0.000060   0.000000   0.000000
    17  H    0.000462   0.000000   0.000000   0.000060   0.000000   0.000000
    18  C    0.000000   0.000000  -0.000096  -0.000002  -0.033152  -0.001799
    19  H    0.000000   0.000000   0.000000   0.000000   0.002431   0.000084
    20  H    0.000000   0.000000   0.000003   0.000000  -0.003638   0.001289
    21  H    0.000000   0.000000   0.000003   0.000000  -0.003656   0.001299
              13         14         15         16         17         18
     1  C    0.000000  -0.028521   0.001425  -0.002298  -0.002309   0.000000
     2  C    0.000012   0.000849  -0.000027   0.000007   0.000007   0.000000
     3  C   -0.002448   0.000020   0.000001   0.000003   0.000003   0.000043
     4  C   -0.033716   0.000891   0.000044  -0.000027  -0.000027   0.001625
     5  C    0.000309  -0.028729  -0.004445   0.000696   0.000702  -0.000015
     6  C   -0.000001   0.387501  -0.021576  -0.021335  -0.021336   0.000000
     7  H    0.000000  -0.003264   0.000026   0.000459   0.000462   0.000000
     8  H    0.000000  -0.000018   0.000000   0.000000   0.000000   0.000000
     9  H    0.002761   0.000001   0.000000   0.000000   0.000000  -0.000096
    10  H    0.000037  -0.003803   0.001409   0.000060   0.000060  -0.000002
    11  C    0.291300  -0.000005  -0.000001   0.000000   0.000000  -0.033152
    12  O   -0.024306   0.000000   0.000000   0.000000   0.000000  -0.001799
    13  O    7.932951   0.000000   0.000000   0.000000   0.000000   0.258901
    14  C    0.000000   4.809932   0.378799   0.373798   0.373819   0.000000
    15  H    0.000000   0.378799   0.589796  -0.021722  -0.021722   0.000000
    16  H    0.000000   0.373798  -0.021722   0.591031  -0.022154   0.000000
    17  H    0.000000   0.373819  -0.021722  -0.022154   0.591046   0.000000
    18  C    0.258901   0.000000   0.000000   0.000000   0.000000   4.729288
    19  H   -0.019831   0.000000   0.000000   0.000000   0.000000   0.378790
    20  H   -0.016245   0.000000   0.000000   0.000000   0.000000   0.372991
    21  H   -0.016238   0.000000   0.000000   0.000000   0.000000   0.372986
              19         20         21
     1  C    0.000000   0.000000   0.000000
     2  C    0.000000   0.000000   0.000000
     3  C    0.000000  -0.000002  -0.000002
     4  C   -0.000026   0.000006   0.000006
     5  C    0.000000   0.000001   0.000001
     6  C    0.000000   0.000000   0.000000
     7  H    0.000000   0.000000   0.000000
     8  H    0.000000   0.000000   0.000000
     9  H    0.000000   0.000003   0.000003
    10  H    0.000000   0.000000   0.000000
    11  C    0.002431  -0.003638  -0.003656
    12  O    0.000084   0.001289   0.001299
    13  O   -0.019831  -0.016245  -0.016238
    14  C    0.000000   0.000000   0.000000
    15  H    0.000000   0.000000   0.000000
    16  H    0.000000   0.000000   0.000000
    17  H    0.000000   0.000000   0.000000
    18  C    0.378790   0.372991   0.372986
    19  H    0.565190  -0.022008  -0.021996
    20  H   -0.022008   0.573364  -0.024863
    21  H   -0.021996  -0.024863   0.573300
 MBS Mulliken charges:
               1
     1  C   -0.099915
     2  C   -0.104475
     3  C   -0.096776
     4  C   -0.028915
     5  C   -0.094807
     6  C    0.009065
     7  H    0.103931
     8  H    0.109305
     9  H    0.128214
    10  H    0.128344
    11  C    0.479938
    12  O   -0.476148
    13  O   -0.373485
    14  C   -0.261271
    15  H    0.097992
    16  H    0.101483
    17  H    0.101450
    18  C   -0.079559
    19  H    0.117365
    20  H    0.119103
    21  H    0.119160
 Sum of MBS Mulliken charges =   0.00000
 MBS Mulliken charges with hydrogens summed into heavy atoms:
               1
     1  C    0.004016
     2  C    0.004831
     3  C    0.031438
     4  C   -0.028915
     5  C    0.033537
     6  C    0.009065
    11  C    0.479938
    12  O   -0.476148
    13  O   -0.373485
    14  C    0.039655
    18  C    0.276069
 Breneman (CHELPG) radii used.
 Generate Potential Derived Charges using the Breneman model, NDens= 1.
 Grid spacing= 0.300 Box extension= 2.800
 NStep X,Y,Z=   48     38     26   Total possible points=       47424
 Number of Points to Fit=   14176

 **********************************************************************

            Electrostatic Properties Using The SCF Density

 **********************************************************************

       Atomic Center    1 is at  -2.488310  0.994624 -0.000110
       Atomic Center    2 is at  -1.440800  1.911723 -0.000082
       Atomic Center    3 is at  -0.120055  1.470331 -0.000014
       Atomic Center    4 is at   0.143457  0.097734  0.000022
       Atomic Center    5 is at  -0.917005 -0.816715  0.000003
       Atomic Center    6 is at  -2.242361 -0.385380 -0.000052
       Atomic Center    7 is at  -3.513185  1.353213 -0.000188
       Atomic Center    8 is at  -1.654169  2.974743 -0.000135
       Atomic Center    9 is at   0.699094  2.176749 -0.000011
       Atomic Center   10 is at  -0.682322 -1.874802  0.000015
       Atomic Center   11 is at   1.530269 -0.448689  0.000062
       Atomic Center   12 is at   1.805320 -1.627553  0.000109
       Atomic Center   13 is at   2.470528  0.522817  0.000011
       Atomic Center   14 is at  -3.386753 -1.370473  0.000073
       Atomic Center   15 is at  -3.024025 -2.399744 -0.001558
       Atomic Center   16 is at  -4.020895 -1.239092  0.882177
       Atomic Center   17 is at  -4.022961 -1.236971 -0.880207
       Atomic Center   18 is at   3.836492  0.072998 -0.000051
       Atomic Center   19 is at   4.439790  0.978332 -0.001460
       Atomic Center   20 is at   4.041540 -0.524562  0.889336
       Atomic Center   21 is at   4.040742 -0.526893 -0.888033
   14176 points will be used for fitting atomic charges
 Fitting point charges to electrostatic potential
 Charges from ESP fit, RMS=   0.00365 RRMS=   0.31018:
 ESP charges:
               1
     1  C   -0.193122
     2  C   -0.051276
     3  C   -0.095244
     4  C   -0.106304
     5  C   -0.150925
     6  C    0.211324
     7  H    0.115768
     8  H    0.086855
     9  H    0.078959
    10  H    0.100004
    11  C    0.712221
    12  O   -0.538301
    13  O   -0.357446
    14  C   -0.253460
    15  H    0.083940
    16  H    0.068673
    17  H    0.068695
    18  C    0.011787
    19  H    0.072696
    20  H    0.067533
    21  H    0.067622
 Sum of ESP charges =   0.00000
 ESP charges with hydrogens summed into heavy atoms:
               1
     1  C   -0.077354
     2  C    0.035579
     3  C   -0.016285
     4  C   -0.106304
     5  C   -0.050921
     6  C    0.211324
    11  C    0.712221
    12  O   -0.538301
    13  O   -0.357446
    14  C   -0.032151
    18  C    0.219639
 Charge=   0.00000 Dipole=    -0.7062     1.6675    -0.0008 Tot=     1.8108
 -----------------------------------------------------------------

              Electrostatic Properties (Atomic Units)

 -----------------------------------------------------------------
    Center     Electric         -------- Electric Field --------
               Potential          X             Y             Z
 -----------------------------------------------------------------
    1 Atom    -14.765612
    2 Atom    -14.766075
    3 Atom    -14.765744
    4 Atom    -14.755819
    5 Atom    -14.769309
    6 Atom    -14.756308
    7 Atom     -1.099767
    8 Atom     -1.101273
    9 Atom     -1.103010
   10 Atom     -1.106371
   11 Atom    -14.646271
   12 Atom    -22.387279
   13 Atom    -22.324116
   14 Atom    -14.771025
   15 Atom     -1.113207
   16 Atom     -1.110259
   17 Atom     -1.110266
   18 Atom    -14.717408
   19 Atom     -1.100926
   20 Atom     -1.104120
   21 Atom     -1.104123
 -----------------------------------------------------------------
 ******************************Gaussian NBO Version 3.1******************************
             N A T U R A L   A T O M I C   O R B I T A L   A N D
          N A T U R A L   B O N D   O R B I T A L   A N A L Y S I S
 ******************************Gaussian NBO Version 3.1******************************
       /RESON  / : Allow strongly delocalized NBO set

 Analyzing the SCF density

 Job title: Table4_5                                                        

 Storage needed:    275258 in NPA ( 104855185 available)


 NATURAL POPULATIONS:  Natural atomic orbital occupancies 
                                                          
   NAO  Atom  No  lang   Type(AO)    Occupancy      Energy
 ----------------------------------------------------------
     1    C    1  S      Cor( 1S)     1.99905     -10.03662
     2    C    1  S      Val( 2S)     0.94454      -0.16195
     3    C    1  S      Ryd( 4S)     0.00139       0.80677
     4    C    1  S      Ryd( 3S)     0.00016       0.74277
     5    C    1  S      Ryd( 5S)     0.00001      23.06514
     6    C    1  px     Val( 2p)     1.16097      -0.06220
     7    C    1  px     Ryd( 4p)     0.00644       1.05682
     8    C    1  px     Ryd( 3p)     0.00024       0.31728
     9    C    1  px     Ryd( 5p)     0.00006       3.21894
    10    C    1  py     Val( 2p)     1.07781      -0.05305
    11    C    1  py     Ryd( 4p)     0.00394       0.77838
    12    C    1  py     Ryd( 3p)     0.00048       0.41509
    13    C    1  py     Ryd( 5p)     0.00014       3.15322
    14    C    1  pz     Val( 2p)     0.98062      -0.11611
    15    C    1  pz     Ryd( 4p)     0.00084       0.51004
    16    C    1  pz     Ryd( 3p)     0.00030       0.30653
    17    C    1  pz     Ryd( 5p)     0.00001       2.68893
    18    C    1  dxy    Ryd( 3d)     0.00074       2.55247
    19    C    1  dxz    Ryd( 3d)     0.00039       1.61151
    20    C    1  dyz    Ryd( 3d)     0.00049       1.66615
    21    C    1  dx2y2  Ryd( 3d)     0.00076       2.51732
    22    C    1  dz2    Ryd( 3d)     0.00039       2.05472

    23    C    2  S      Cor( 1S)     1.99916     -10.03848
    24    C    2  S      Val( 2S)     0.95019      -0.16775
    25    C    2  S      Ryd( 3S)     0.00148       0.88506
    26    C    2  S      Ryd( 4S)     0.00015       1.23838
    27    C    2  S      Ryd( 5S)     0.00000      22.44188
    28    C    2  px     Val( 2p)     1.06565      -0.05199
    29    C    2  px     Ryd( 4p)     0.00459       0.79627
    30    C    2  px     Ryd( 3p)     0.00036       0.40498
    31    C    2  px     Ryd( 5p)     0.00016       3.07481
    32    C    2  py     Val( 2p)     1.16928      -0.06048
    33    C    2  py     Ryd( 4p)     0.00687       1.05834
    34    C    2  py     Ryd( 3p)     0.00027       0.29024
    35    C    2  py     Ryd( 5p)     0.00007       3.16575
    36    C    2  pz     Val( 2p)     0.99752      -0.11578
    37    C    2  pz     Ryd( 4p)     0.00093       0.51475
    38    C    2  pz     Ryd( 3p)     0.00024       0.32217
    39    C    2  pz     Ryd( 5p)     0.00001       2.66113
    40    C    2  dxy    Ryd( 3d)     0.00067       2.57586
    41    C    2  dxz    Ryd( 3d)     0.00050       1.67144
    42    C    2  dyz    Ryd( 3d)     0.00039       1.60534
    43    C    2  dx2y2  Ryd( 3d)     0.00078       2.50618
    44    C    2  dz2    Ryd( 3d)     0.00039       2.05610

    45    C    3  S      Cor( 1S)     1.99909     -10.03659
    46    C    3  S      Val( 2S)     0.94491      -0.16098
    47    C    3  S      Ryd( 4S)     0.00124       0.88933
    48    C    3  S      Ryd( 3S)     0.00011       0.55775
    49    C    3  S      Ryd( 5S)     0.00001      23.20171
    50    C    3  px     Val( 2p)     1.13560      -0.05932
    51    C    3  px     Ryd( 4p)     0.00501       1.06837
    52    C    3  px     Ryd( 3p)     0.00045       0.54103
    53    C    3  px     Ryd( 5p)     0.00010       3.19927
    54    C    3  py     Val( 2p)     1.10605      -0.05234
    55    C    3  py     Ryd( 4p)     0.00511       0.87925
    56    C    3  py     Ryd( 3p)     0.00042       0.36163
    57    C    3  py     Ryd( 5p)     0.00015       3.21057
    58    C    3  pz     Val( 2p)     0.96842      -0.11372
    59    C    3  pz     Ryd( 4p)     0.00119       0.53628
    60    C    3  pz     Ryd( 3p)     0.00029       0.34402
    61    C    3  pz     Ryd( 5p)     0.00002       2.67614
    62    C    3  dxy    Ryd( 3d)     0.00076       2.50940
    63    C    3  dxz    Ryd( 3d)     0.00046       1.63450
    64    C    3  dyz    Ryd( 3d)     0.00042       1.65163
    65    C    3  dx2y2  Ryd( 3d)     0.00068       2.64746
    66    C    3  dz2    Ryd( 3d)     0.00040       2.07605

    67    C    4  S      Cor( 1S)     1.99891     -10.05028
    68    C    4  S      Val( 2S)     0.90686      -0.14900
    69    C    4  S      Ryd( 3S)     0.00135       0.79179
    70    C    4  S      Ryd( 4S)     0.00016       1.28572
    71    C    4  S      Ryd( 5S)     0.00001      22.69136
    72    C    4  px     Val( 2p)     1.07409      -0.07968
    73    C    4  px     Ryd( 4p)     0.00650       1.24686
    74    C    4  px     Ryd( 3p)     0.00030       0.75783
    75    C    4  px     Ryd( 5p)     0.00012       3.16928
    76    C    4  py     Val( 2p)     1.10559      -0.07334
    77    C    4  py     Ryd( 4p)     0.00629       1.24799
    78    C    4  py     Ryd( 3p)     0.00015       0.70538
    79    C    4  py     Ryd( 5p)     0.00012       3.11625
    80    C    4  pz     Val( 2p)     1.04780      -0.11804
    81    C    4  pz     Ryd( 3p)     0.00075       0.58131
    82    C    4  pz     Ryd( 4p)     0.00019       0.58392
    83    C    4  pz     Ryd( 5p)     0.00002       2.52235
    84    C    4  dxy    Ryd( 3d)     0.00077       2.63155
    85    C    4  dxz    Ryd( 3d)     0.00033       1.62796
    86    C    4  dyz    Ryd( 3d)     0.00059       1.66544
    87    C    4  dx2y2  Ryd( 3d)     0.00091       2.58019
    88    C    4  dz2    Ryd( 3d)     0.00042       2.10803

    89    C    5  S      Cor( 1S)     1.99899     -10.03046
    90    C    5  S      Val( 2S)     0.93668      -0.14884
    91    C    5  S      Ryd( 4S)     0.00131       0.86929
    92    C    5  S      Ryd( 3S)     0.00010       0.65589
    93    C    5  S      Ryd( 5S)     0.00001      23.22393
    94    C    5  px     Val( 2p)     1.06486      -0.04648
    95    C    5  px     Ryd( 4p)     0.00367       0.88967
    96    C    5  px     Ryd( 3p)     0.00039       0.59901
    97    C    5  px     Ryd( 5p)     0.00017       3.23724
    98    C    5  py     Val( 2p)     1.18023      -0.06265
    99    C    5  py     Ryd( 4p)     0.00618       1.03184
   100    C    5  py     Ryd( 3p)     0.00041       0.35099
   101    C    5  py     Ryd( 5p)     0.00006       3.26644
   102    C    5  pz     Val( 2p)     0.96247      -0.11135
   103    C    5  pz     Ryd( 4p)     0.00093       0.51542
   104    C    5  pz     Ryd( 3p)     0.00045       0.32121
   105    C    5  pz     Ryd( 5p)     0.00001       2.71997
   106    C    5  dxy    Ryd( 3d)     0.00078       2.60173
   107    C    5  dxz    Ryd( 3d)     0.00054       1.67677
   108    C    5  dyz    Ryd( 3d)     0.00037       1.61913
   109    C    5  dx2y2  Ryd( 3d)     0.00074       2.53107
   110    C    5  dz2    Ryd( 3d)     0.00041       2.07752

   111    C    6  S      Cor( 1S)     1.99905     -10.04805
   112    C    6  S      Val( 2S)     0.89160      -0.14548
   113    C    6  S      Ryd( 3S)     0.00059       0.76955
   114    C    6  S      Ryd( 4S)     0.00019       1.48875
   115    C    6  S      Ryd( 5S)     0.00001      22.38490
   116    C    6  px     Val( 2p)     1.07192      -0.05747
   117    C    6  px     Ryd( 4p)     0.00480       1.08206
   118    C    6  px     Ryd( 3p)     0.00044       0.94393
   119    C    6  px     Ryd( 5p)     0.00008       2.84715
   120    C    6  py     Val( 2p)     1.07391      -0.05949
   121    C    6  py     Ryd( 4p)     0.00432       1.07289
   122    C    6  py     Ryd( 3p)     0.00032       0.95114
   123    C    6  py     Ryd( 5p)     0.00009       2.80293
   124    C    6  pz     Val( 2p)     0.98237      -0.10672
   125    C    6  pz     Ryd( 3p)     0.00127       0.57532
   126    C    6  pz     Ryd( 4p)     0.00032       0.88649
   127    C    6  pz     Ryd( 5p)     0.00003       2.18954
   128    C    6  dxy    Ryd( 3d)     0.00069       2.47799
   129    C    6  dxz    Ryd( 3d)     0.00069       1.66103
   130    C    6  dyz    Ryd( 3d)     0.00047       1.66983
   131    C    6  dx2y2  Ryd( 3d)     0.00089       2.61585
   132    C    6  dz2    Ryd( 3d)     0.00034       2.07878

   133    H    7  S      Val( 1S)     0.79427       0.03786
   134    H    7  S      Ryd( 2S)     0.00065       0.86714
   135    H    7  S      Ryd( 3S)     0.00016       1.85202
   136    H    7  px     Ryd( 2p)     0.00038       2.64168
   137    H    7  py     Ryd( 2p)     0.00017       2.06482
   138    H    7  pz     Ryd( 2p)     0.00018       1.59670

   139    H    8  S      Val( 1S)     0.79046       0.04139
   140    H    8  S      Ryd( 2S)     0.00068       0.62638
   141    H    8  S      Ryd( 3S)     0.00017       2.12121
   142    H    8  px     Ryd( 2p)     0.00012       2.02139
   143    H    8  py     Ryd( 2p)     0.00041       2.66851
   144    H    8  pz     Ryd( 2p)     0.00019       1.59144

   145    H    9  S      Val( 1S)     0.77334       0.05676
   146    H    9  S      Ryd( 3S)     0.00069       1.52155
   147    H    9  S      Ryd( 2S)     0.00014       1.21691
   148    H    9  px     Ryd( 2p)     0.00031       2.44354
   149    H    9  py     Ryd( 2p)     0.00025       2.32881
   150    H    9  pz     Ryd( 2p)     0.00017       1.60691

   151    H   10  S      Val( 1S)     0.77045       0.05902
   152    H   10  S      Ryd( 2S)     0.00099       1.04469
   153    H   10  S      Ryd( 3S)     0.00015       1.67421
   154    H   10  px     Ryd( 2p)     0.00015       2.10575
   155    H   10  py     Ryd( 2p)     0.00043       2.71113
   156    H   10  pz     Ryd( 2p)     0.00015       1.61489

   157    C   11  S      Cor( 1S)     1.99928     -10.18525
   158    C   11  S      Val( 2S)     0.75994      -0.13422
   159    C   11  S      Ryd( 4S)     0.00344       1.06176
   160    C   11  S      Ryd( 3S)     0.00015       0.84231
   161    C   11  S      Ryd( 5S)     0.00006      22.44066
   162    C   11  px     Val( 2p)     0.88275      -0.05176
   163    C   11  px     Ryd( 4p)     0.00552       1.39137
   164    C   11  px     Ryd( 3p)     0.00052       0.52630
   165    C   11  px     Ryd( 5p)     0.00017       2.27660
   166    C   11  py     Val( 2p)     0.74414      -0.00966
   167    C   11  py     Ryd( 4p)     0.02062       1.16880
   168    C   11  py     Ryd( 3p)     0.00022       0.46527
   169    C   11  py     Ryd( 5p)     0.00018       2.49568
   170    C   11  pz     Val( 2p)     0.76859      -0.12994
   171    C   11  pz     Ryd( 4p)     0.00070       0.74807
   172    C   11  pz     Ryd( 3p)     0.00051       0.37319
   173    C   11  pz     Ryd( 5p)     0.00015       2.41508
   174    C   11  dxy    Ryd( 3d)     0.00514       2.53511
   175    C   11  dxz    Ryd( 3d)     0.00167       1.52886
   176    C   11  dyz    Ryd( 3d)     0.00480       1.63133
   177    C   11  dx2y2  Ryd( 3d)     0.00268       2.54722
   178    C   11  dz2    Ryd( 3d)     0.00067       2.00151

   179    O   12  S      Cor( 1S)     1.99975     -18.84431
   180    O   12  S      Val( 2S)     1.70151      -0.89386
   181    O   12  S      Ryd( 3S)     0.00123       1.40115
   182    O   12  S      Ryd( 4S)     0.00008       1.40332
   183    O   12  S      Ryd( 5S)     0.00000      49.69402
   184    O   12  px     Val( 2p)     1.83309      -0.26930
   185    O   12  px     Ryd( 3p)     0.00231       0.81201
   186    O   12  px     Ryd( 4p)     0.00022       0.96002
   187    O   12  px     Ryd( 5p)     0.00002       5.09963
   188    O   12  py     Val( 2p)     1.58950      -0.30354
   189    O   12  py     Ryd( 3p)     0.00074       0.67250
   190    O   12  py     Ryd( 4p)     0.00020       0.94301
   191    O   12  py     Ryd( 5p)     0.00013       5.28982
   192    O   12  pz     Val( 2p)     1.46745      -0.25599
   193    O   12  pz     Ryd( 3p)     0.00104       0.60816
   194    O   12  pz     Ryd( 4p)     0.00004       0.88117
   195    O   12  pz     Ryd( 5p)     0.00002       4.94241
   196    O   12  dxy    Ryd( 3d)     0.00152       3.33309
   197    O   12  dxz    Ryd( 3d)     0.00009       2.85651
   198    O   12  dyz    Ryd( 3d)     0.00163       3.09692
   199    O   12  dx2y2  Ryd( 3d)     0.00165       3.51108
   200    O   12  dz2    Ryd( 3d)     0.00047       3.10728

   201    O   13  S      Cor( 1S)     1.99973     -18.97320
   202    O   13  S      Val( 2S)     1.62368      -0.89548
   203    O   13  S      Ryd( 3S)     0.00172       0.99169
   204    O   13  S      Ryd( 4S)     0.00018       1.20487
   205    O   13  S      Ryd( 5S)     0.00000      49.65024
   206    O   13  px     Val( 2p)     1.39196      -0.32547
   207    O   13  px     Ryd( 4p)     0.00117       1.18017
   208    O   13  px     Ryd( 3p)     0.00054       0.89639
   209    O   13  px     Ryd( 5p)     0.00003       5.21897
   210    O   13  py     Val( 2p)     1.72971      -0.35165
   211    O   13  py     Ryd( 3p)     0.00269       0.69205
   212    O   13  py     Ryd( 4p)     0.00100       0.85927
   213    O   13  py     Ryd( 5p)     0.00015       5.05088
   214    O   13  pz     Val( 2p)     1.79538      -0.33075
   215    O   13  pz     Ryd( 3p)     0.00279       0.57906
   216    O   13  pz     Ryd( 4p)     0.00034       0.73492
   217    O   13  pz     Ryd( 5p)     0.00000       4.89840
   218    O   13  dxy    Ryd( 3d)     0.00136       3.52003
   219    O   13  dxz    Ryd( 3d)     0.00012       2.95124
   220    O   13  dyz    Ryd( 3d)     0.00090       2.90087
   221    O   13  dx2y2  Ryd( 3d)     0.00083       3.25774
   222    O   13  dz2    Ryd( 3d)     0.00064       3.23707

   223    C   14  S      Cor( 1S)     1.99931     -10.03075
   224    C   14  S      Val( 2S)     1.07834      -0.24855
   225    C   14  S      Ryd( 4S)     0.00054       0.85855
   226    C   14  S      Ryd( 3S)     0.00011       0.68774
   227    C   14  S      Ryd( 5S)     0.00000      23.25955
   228    C   14  px     Val( 2p)     1.13747      -0.09552
   229    C   14  px     Ryd( 4p)     0.00217       0.49706
   230    C   14  px     Ryd( 3p)     0.00019       0.23228
   231    C   14  px     Ryd( 5p)     0.00006       3.09109
   232    C   14  py     Val( 2p)     1.15570      -0.09677
   233    C   14  py     Ryd( 4p)     0.00273       0.52992
   234    C   14  py     Ryd( 3p)     0.00024       0.23963
   235    C   14  py     Ryd( 5p)     0.00004       3.11526
   236    C   14  pz     Val( 2p)     1.20933      -0.10216
   237    C   14  pz     Ryd( 4p)     0.00062       0.49201
   238    C   14  pz     Ryd( 3p)     0.00005       0.21933
   239    C   14  pz     Ryd( 5p)     0.00005       3.07621
   240    C   14  dxy    Ryd( 3d)     0.00066       2.20084
   241    C   14  dxz    Ryd( 3d)     0.00105       2.21283
   242    C   14  dyz    Ryd( 3d)     0.00022       1.76345
   243    C   14  dx2y2  Ryd( 3d)     0.00054       2.11852
   244    C   14  dz2    Ryd( 3d)     0.00063       2.09894

   245    H   15  S      Val( 1S)     0.78894       0.03067
   246    H   15  S      Ryd( 2S)     0.00068       0.69209
   247    H   15  S      Ryd( 3S)     0.00009       2.05210
   248    H   15  px     Ryd( 2p)     0.00013       1.85215
   249    H   15  py     Ryd( 2p)     0.00026       2.61322
   250    H   15  pz     Ryd( 2p)     0.00009       1.72204

   251    H   16  S      Val( 1S)     0.78606       0.02645
   252    H   16  S      Ryd( 2S)     0.00068       0.62742
   253    H   16  S      Ryd( 3S)     0.00009       2.15470
   254    H   16  px     Ryd( 2p)     0.00019       2.07944
   255    H   16  py     Ryd( 2p)     0.00014       1.73589
   256    H   16  pz     Ryd( 2p)     0.00023       2.36696

   257    H   17  S      Val( 1S)     0.78609       0.02645
   258    H   17  S      Ryd( 2S)     0.00068       0.62755
   259    H   17  S      Ryd( 3S)     0.00009       2.15445
   260    H   17  px     Ryd( 2p)     0.00019       2.08151
   261    H   17  py     Ryd( 2p)     0.00014       1.73593
   262    H   17  pz     Ryd( 2p)     0.00023       2.36461

   263    C   18  S      Cor( 1S)     1.99925     -10.10499
   264    C   18  S      Val( 2S)     1.09223      -0.28508
   265    C   18  S      Ryd( 4S)     0.00205       0.89169
   266    C   18  S      Ryd( 3S)     0.00009       0.81255
   267    C   18  S      Ryd( 5S)     0.00000      23.19763
   268    C   18  px     Val( 2p)     0.75002      -0.09049
   269    C   18  px     Ryd( 3p)     0.00289       0.61425
   270    C   18  px     Ryd( 4p)     0.00020       1.28564
   271    C   18  px     Ryd( 5p)     0.00006       1.92152
   272    C   18  py     Val( 2p)     1.15557      -0.10926
   273    C   18  py     Ryd( 3p)     0.00310       0.63826
   274    C   18  py     Ryd( 4p)     0.00028       1.33952
   275    C   18  py     Ryd( 5p)     0.00006       1.90612
   276    C   18  pz     Val( 2p)     1.20000      -0.11764
   277    C   18  pz     Ryd( 3p)     0.00056       0.56085
   278    C   18  pz     Ryd( 4p)     0.00036       1.27713
   279    C   18  pz     Ryd( 5p)     0.00003       1.95034
   280    C   18  dxy    Ryd( 3d)     0.00158       2.10072
   281    C   18  dxz    Ryd( 3d)     0.00118       1.73299
   282    C   18  dyz    Ryd( 3d)     0.00090       2.16345
   283    C   18  dx2y2  Ryd( 3d)     0.00162       2.03588
   284    C   18  dz2    Ryd( 3d)     0.00103       2.11639

   285    H   19  S      Val( 1S)     0.81326       0.00808
   286    H   19  S      Ryd( 2S)     0.00035       0.47194
   287    H   19  S      Ryd( 3S)     0.00016       2.20380
   288    H   19  px     Ryd( 2p)     0.00015       1.98838
   289    H   19  py     Ryd( 2p)     0.00037       2.37921
   290    H   19  pz     Ryd( 2p)     0.00013       1.71888

   291    H   20  S      Val( 1S)     0.81128       0.00988
   292    H   20  S      Ryd( 2S)     0.00101       0.59295
   293    H   20  S      Ryd( 3S)     0.00018       2.12896
   294    H   20  px     Ryd( 2p)     0.00008       1.73610
   295    H   20  py     Ryd( 2p)     0.00024       2.03929
   296    H   20  pz     Ryd( 2p)     0.00033       2.38990

   297    H   21  S      Val( 1S)     0.81122       0.00992
   298    H   21  S      Ryd( 2S)     0.00101       0.59344
   299    H   21  S      Ryd( 3S)     0.00018       2.12853
   300    H   21  px     Ryd( 2p)     0.00008       1.73561
   301    H   21  py     Ryd( 2p)     0.00024       2.04128
   302    H   21  pz     Ryd( 2p)     0.00033       2.38799

 WARNING:  1 low occupancy (<1.9990e) core orbital  found on  C    4
           1 low occupancy (<1.9990e) core orbital  found on  C    5

 WARNING:  Population inversion found on atom  C    1
           Population inversion found on atom  C    2
           Population inversion found on atom  C    3
           Population inversion found on atom  C    4
           Population inversion found on atom  C    5
           Population inversion found on atom  C    6
           Population inversion found on atom  H    9
           Population inversion found on atom  C   11
           Population inversion found on atom  O   13
           Population inversion found on atom  C   14
           Population inversion found on atom  C   18


 Summary of Natural Population Analysis:                  
                                                          
                                       Natural Population 
                Natural  -----------------------------------------------
    Atom  No    Charge         Core      Valence    Rydberg      Total
 -----------------------------------------------------------------------
      C    1   -0.17978      1.99905     4.16395    0.01678     6.17978
      C    2   -0.19967      1.99916     4.18264    0.01786     6.19967
      C    3   -0.17090      1.99909     4.15499    0.01683     6.17090
      C    4   -0.15222      1.99891     4.13434    0.01897     6.15222
      C    5   -0.15978      1.99899     4.14425    0.01655     6.15978
      C    6   -0.03440      1.99905     4.01980    0.01555     6.03440
      H    7    0.20420      0.00000     0.79427    0.00153     0.79580
      H    8    0.20797      0.00000     0.79046    0.00157     0.79203
      H    9    0.22510      0.00000     0.77334    0.00156     0.77490
      H   10    0.22768      0.00000     0.77045    0.00187     0.77232
      C   11    0.79810      1.99928     3.15542    0.04720     5.20190
      O   12   -0.60269      1.99975     6.59154    0.01140     8.60269
      O   13   -0.55491      1.99973     6.54073    0.01446     8.55491
      C   14   -0.59002      1.99931     4.58084    0.00988     6.59002
      H   15    0.20981      0.00000     0.78894    0.00125     0.79019
      H   16    0.21260      0.00000     0.78606    0.00134     0.78740
      H   17    0.21257      0.00000     0.78609    0.00134     0.78743
      C   18   -0.21306      1.99925     4.19782    0.01599     6.21306
      H   19    0.18559      0.00000     0.81326    0.00115     0.81441
      H   20    0.18688      0.00000     0.81128    0.00184     0.81312
      H   21    0.18693      0.00000     0.81122    0.00184     0.81307
 =======================================================================
   * Total *    0.00000     21.99156    57.79168    0.21676    80.00000

                                 Natural Population      
 --------------------------------------------------------
   Core                      21.99156 ( 99.9616% of  22)
   Valence                   57.79168 ( 99.6408% of  58)
   Natural Minimal Basis     79.78324 ( 99.7290% of  80)
   Natural Rydberg Basis      0.21676 (  0.2710% of  80)
 --------------------------------------------------------

    Atom  No          Natural Electron Configuration
 ----------------------------------------------------------------------------
      C    1      [core]2S( 0.94)2p( 3.22)4p( 0.01)
      C    2      [core]2S( 0.95)2p( 3.23)4p( 0.01)
      C    3      [core]2S( 0.94)2p( 3.21)4p( 0.01)
      C    4      [core]2S( 0.91)2p( 3.23)4p( 0.01)
      C    5      [core]2S( 0.94)2p( 3.21)4p( 0.01)
      C    6      [core]2S( 0.89)2p( 3.13)4p( 0.01)
      H    7            1S( 0.79)
      H    8            1S( 0.79)
      H    9            1S( 0.77)
      H   10            1S( 0.77)
      C   11      [core]2S( 0.76)2p( 2.40)3d( 0.01)4p( 0.03)
      O   12      [core]2S( 1.70)2p( 4.89)3d( 0.01)
      O   13      [core]2S( 1.62)2p( 4.92)3p( 0.01)
      C   14      [core]2S( 1.08)2p( 3.50)4p( 0.01)
      H   15            1S( 0.79)
      H   16            1S( 0.79)
      H   17            1S( 0.79)
      C   18      [core]2S( 1.09)2p( 3.11)3p( 0.01)3d( 0.01)
      H   19            1S( 0.81)
      H   20            1S( 0.81)
      H   21            1S( 0.81)


 NBO analysis skipped by request.
 Calling FoFJK, ICntrl=      2127 FMM=F ISym2X=0 I1Cent= 0 IOpClX= 0 NMat=1 NMatS=1 NMatT=0.
 ***** Axes restored to original set *****
 -------------------------------------------------------------------
 Center     Atomic                   Forces (Hartrees/Bohr)
 Number     Number              X              Y              Z
 -------------------------------------------------------------------
      1        6          -0.000013726   -0.000025447    0.000000043
      2        6           0.000022498    0.000016939   -0.000000048
      3        6          -0.000015781    0.000026393   -0.000000101
      4        6          -0.000018657   -0.000035676    0.000001104
      5        6           0.000014137    0.000007036    0.000000007
      6        6          -0.000008994    0.000018286   -0.000000021
      7        1           0.000000990   -0.000000522    0.000000017
      8        1          -0.000005014   -0.000006088   -0.000000016
      9        1          -0.000002377   -0.000003134    0.000000035
     10        1          -0.000002084    0.000000916   -0.000000017
     11        6           0.000061487    0.000030562    0.000000813
     12        8           0.000000333    0.000012013    0.000000972
     13        8          -0.000025522   -0.000030375   -0.000005103
     14        6          -0.000011574   -0.000009821   -0.000000076
     15        1           0.000000828    0.000002106    0.000000048
     16        1           0.000004964   -0.000003480   -0.000002923
     17        1           0.000005205   -0.000003667    0.000002960
     18        6          -0.000007953   -0.000012083    0.000005244
     19        1          -0.000004651   -0.000015724    0.000000380
     20        1           0.000002257    0.000014653   -0.000009967
     21        1           0.000003634    0.000017113    0.000006649
 -------------------------------------------------------------------
 Cartesian Forces:  Max     0.000061487 RMS     0.000014316

 GradGradGradGradGradGradGradGradGradGradGradGradGradGradGradGradGradGrad
 Berny optimization.
 FormGI is forming the generalized inverse of G from B-inverse, IUseBI=4.
 GSVD:  received Info=                   1 from GESDD.
 Internal  Forces:  Max     0.000049688 RMS     0.000008565
 Search for a local minimum.
 Step number   1 out of a maximum of  104
 All quantities printed in internal units (Hartrees-Bohrs-Radians)
 Mixed Optimization -- En-DIIS/RFO-DIIS
[...]
 225109,0.00001200,0.00814526,0.00422193,-0.00000037,0.00084880,0.00220
 957,0.00000009,-0.00032988,0.00088544,-0.00000006,-0.00085791,-0.00094
 951,0.00000007,0.00099365,0.00026105,-0.00000018,0.23236063,0.00260265
 ,0.00012808,0.00000021,0.00993958,0.01098472,-0.00000063,-0.14005838,-
 0.18123683,0.00001079,-0.02457956,-0.01492584,0.00000161,0.00297873,-0
 .00489065,0.00000039,0.00075029,-0.00037121,-0.00000005,0.00056441,0.0
 0035306,-0.00000004,-0.00051275,0.00074278,-0.00000019,0.15113739,0.18
 855773,0.00000026,0.00000020,0.00722261,0.00000026,0.00000037,0.003942
 57,0.00001187,0.00001085,-0.03765051,0.00000085,0.00000063,0.00286764,
 0.00000005,0.00000041,0.00643110,-0.00000004,-0.00000005,-0.00098338,0
 .,0.00000002,-0.00001872,-0.00000015,-0.00000022,-0.00412592,-0.000013
 17,-0.00001202,0.02589283,-0.00531527,0.00133893,0.00000035,-0.0010386
 8,-0.00036335,0.00000002,-0.00392343,-0.00296943,0.00000046,0.00965377
 ,-0.02283177,0.00000079,-0.06955374,0.05750108,-0.00000147,-0.00232694
 ,0.02781173,-0.00000097,-0.00011872,0.00146197,-0.00000006,0.00006538,
 0.00002700,-0.00000003,0.00039836,-0.00135638,0.00000006,0.07096361,0.
 00121623,0.00127614,0.00000021,0.00000280,0.00058579,-0.00000007,-0.00
 377580,-0.00032506,0.00000040,0.00476104,-0.01735606,0.00000074,0.0565
 5224,-0.32417406,0.00001058,-0.00041614,-0.00580661,0.00000050,-0.0000
 1537,-0.00022239,0.,0.00004163,-0.00007294,-0.00000004,0.00036318,-0.0
 0078721,0.00000005,-0.06094288,0.34519699,0.00000036,0.00000017,0.0069
 1468,0.00000001,-0.00000006,-0.00099935,0.00000050,0.00000038,0.006086
 15,-0.00000043,0.00000167,0.00380008,-0.00000145,0.00001059,-0.0391361
 6,0.00000031,-0.00000042,0.00491310,0.,-0.00000005,-0.00014961,-0.0000
 0003,-0.00000004,-0.00090256,-0.00000001,0.00000011,0.00057740,0.00000
 117,-0.00001187,0.02673266,0.00081355,-0.00156072,0.,0.00724376,-0.001
 30705,0.00000009,-0.00325999,0.01977101,-0.00000075,-0.17888265,0.0308
 5771,0.00000196,-0.03717902,-0.00085534,0.00000133,0.00073898,-0.00616
 070,0.00000046,0.00013705,-0.00013889,-0.00000004,0.00114632,-0.000928
 24,0.00000002,0.00039155,-0.00336125,0.,-0.00004902,0.00183593,-0.0000
 0017,0.59759823,-0.00106653,-0.00416879,0.00000016,0.00051019,-0.00705
 086,0.00000064,0.03111004,-0.00690088,-0.00000076,0.02307127,-0.104144
 01,0.00000032,-0.00870931,0.01971616,-0.00000048,-0.00823358,-0.000928
 92,0.00000067,-0.00013632,-0.00034851,-0.00000003,0.00130666,-0.000181
 13,-0.00000001,-0.00011107,-0.00160241,-0.00000011,-0.00369306,-0.0029
 2523,0.00000009,-0.11281865,0.91005844,-0.00000002,0.00000018,-0.00129
 338,0.,0.00000070,0.00831286,-0.00000123,-0.00000038,-0.00041572,0.000
 00229,0.00000007,-0.07977064,0.00000166,-0.00000073,0.00189333,0.00000
 061,0.00000057,0.00764115,-0.00000004,-0.00000003,-0.00123571,-0.00000
 008,0.00000006,0.00058896,-0.00000014,0.00000002,-0.00388698,0.0000000
 3,-0.00000011,-0.00370627,-0.00000796,-0.00002555,0.21312662,-0.000234
 52,0.00151391,-0.00000005,-0.00208323,0.00222940,-0.00000008,-0.006400
 84,-0.00397175,0.00000048,-0.00872655,0.04555704,-0.00000096,-0.001727
 78,0.00192118,0.,0.00174580,0.00098540,-0.00000012,-0.00015353,0.00017
 754,0.,-0.00080511,0.00037649,0.,0.00011723,0.00052870,0.,-0.00074528,
 0.00164467,-0.00000008,-0.14873555,0.14149922,-0.00000364,0.14579324,-
 0.00029822,0.00011095,0.00000001,0.00226512,-0.00020205,-0.00000014,0.
 00291703,0.00477744,-0.00000018,0.02826399,-0.03431275,0.00000139,-0.0
 0786302,-0.00563890,0.00000052,0.00167523,-0.00040573,-0.00000009,0.00
 014494,0.00023371,0.,0.00053690,-0.00027106,-0.00000002,-0.00053414,0.
 00098980,0.,0.00193407,0.00223911,-0.00000022,0.14622620,-0.64710604,0
 .00001905,-0.14542608,0.78083484,0.00000002,-0.00000005,0.00013739,-0.
 00000008,-0.00000014,-0.00165286,0.00000018,0.00000005,0.00278073,-0.0
 0000024,0.00000079,0.02009904,0.00000040,0.00000020,0.00044839,-0.0000
 0015,-0.00000005,-0.00074129,0.,0.,0.00016656,0.,-0.00000002,-0.000350
 36,0.00000004,-0.00000004,0.00054682,-0.00000006,-0.00000016,-0.000358
 67,-0.00000388,0.00001921,-0.07918187,0.00000240,-0.00002656,0.0335620
 0,-0.00111332,-0.00103929,0.00000008,-0.00037458,-0.00066969,0.0000000
 2,-0.00431313,-0.00180843,0.00000024,-0.04756915,-0.02899082,0.0000030
 7,-0.00230698,0.00769666,-0.00000022,-0.00211163,0.00042161,0.00000006
 ,-0.00025796,0.00010429,0.,-0.00031437,0.00038961,0.,-0.00276288,0.000
 82969,0.00000008,0.00105790,-0.00019663,-0.00000003,-0.18415306,-0.064
 33132,0.00000671,0.01693177,-0.04059675,0.00000213,0.48342458,0.000131
 08,0.00047060,-0.00000003,-0.00119780,0.00122644,-0.00000004,0.0019917
 3,-0.00547466,0.00000019,-0.00386978,0.01089506,0.,0.00290645,-0.00053
 600,-0.00000002,0.00042523,0.00153695,-0.00000009,0.00007504,0.0001841
 0,0.,-0.00023332,0.00012363,0.,0.00212832,0.00132524,-0.00000003,0.001
 43518,0.00042598,-0.00000006,-0.04305952,-0.16886309,0.00000569,-0.042
 71965,-0.10016619,0.00000680,0.04055807,0.36125246,0.00000003,0.,-0.00
 003025,0.00000005,-0.00000005,-0.00055316,0.00000007,0.00000032,0.0007
 2753,0.00000203,0.00000087,0.00978777,0.,-0.00000017,0.00123549,0.0000
 0004,-0.00000008,-0.00019058,0.,0.,0.00008973,0.00000002,-0.00000002,0
 .00000858,0.,-0.00000008,0.00026603,-0.00000009,0.,0.00009660,0.000005
 79,0.00000636,-0.06545298,0.00000221,0.00000677,0.02929568,-0.00001515
 ,-0.00001319,0.07594600,0.00565401,-0.00381674,0.00000017,0.00267909,0
 .00466426,0.,-0.00243527,0.00026646,0.00000004,-0.00144146,0.00219286,
 0.00000020,-0.02730818,-0.02175028,0.00000196,-0.15525889,-0.05597998,
 0.00000526,0.00058574,0.00069836,-0.00000021,0.00059178,0.00065065,-0.
 00000006,0.00008550,-0.00005617,-0.00000004,0.00130816,-0.00124049,-0.
 00000012,-0.00019399,-0.00116047,0.00000006,0.00001385,0.00022471,0.,-
 0.00052224,0.00019820,0.,0.51104654,-0.02878935,-0.02548808,0.00000211
 ,0.00398756,-0.00351240,0.00000019,-0.00036148,0.00049553,-0.00000005,
 0.00260808,-0.00125461,0.00000044,0.00353386,0.00853317,-0.00000018,-0
 .06279245,-0.14059463,0.00000507,-0.00094266,0.00161733,-0.00000010,-0
 .00093757,-0.00069616,0.00000006,-0.00011233,0.00008976,-0.00000004,0.
 00190464,0.00082002,-0.00000037,-0.00009540,0.00090331,-0.00000003,0.0
 0017458,-0.00034261,0.00000002,0.00055587,-0.00010830,-0.00000002,-0.0
 4803086,0.54317487,0.00000120,0.00000137,0.00303252,-0.00000003,0.0000
 0030,0.00514843,0.,-0.00000012,-0.00108308,0.00000030,0.00000036,0.008
 30958,0.00000095,0.00000064,0.00548266,0.00000589,0.00000511,-0.069573
 31,-0.00000004,-0.00000025,-0.00229027,0.00000003,0.00000002,0.0001269
 7,-0.00000002,-0.00000003,-0.00081908,-0.00000032,-0.00000017,-0.00449
 100,0.00000004,0.,0.00031410,-0.00000001,0.00000003,0.00009444,-0.0000
 0002,0.,-0.00018180,0.00000176,0.00000037,0.53190120,-0.00441751,-0.00
 251428,0.00000029,0.00070395,-0.00117550,0.,0.00003157,0.00013495,0.,0
 .00007172,-0.00009265,0.,0.00160188,-0.00134686,0.00000001,0.00885279,
 -0.02533620,0.00000150,0.00006410,-0.00023999,0.00000001,-0.00026053,-
 0.00024777,0.00000001,-0.00001215,0.00004963,0.,-0.00038252,0.00046249
 ,0.,-0.00007758,-0.00011444,0.,0.00007803,0.00008328,0.,0.00012799,0.0
 0005689,0.,-0.07949282,0.08845457,-0.00000515,0.08634523,-0.00436947,-
 0.00174372,0.00000034,0.00106829,-0.00065044,-0.00000002,-0.00020125,0
 .00030541,0.,-0.00056104,0.00002290,-0.00000003,0.00285434,0.00106185,
 -0.00000019,0.00788546,-0.01974990,0.00000099,-0.00001817,0.00028400,-
 0.00000002,-0.00027121,-0.00023112,0.,-0.00005687,0.00006799,0.,-0.000
 92251,0.00077274,0.00000006,0.00034877,-0.00041354,0.,-0.00010099,0.00
 032152,-0.00000001,-0.00013167,0.00006522,0.,0.08358591,-0.28072730,0.
 00001400,-0.09143898,0.30611207,0.00000038,0.00000021,0.00127603,-0.00
 000012,0.00000005,0.00047985,0.00000004,-0.00000004,-0.00000448,0.0000
 0003,0.,-0.00017814,-0.00000019,0.,0.00005741,-0.00000070,0.00000133,-
 0.00165199,-0.00000002,0.,-0.00027871,0.00000001,0.,-0.00015262,0.,0.,
 0.00000352,0.00000009,-0.00000004,0.00026492,-0.00000002,0.00000004,-0
 .00005929,0.,-0.00000003,-0.00004752,0.,0.,0.00000178,-0.00000481,0.00
 001404,-0.04676284,0.00000533,-0.00001558,0.04533290,0.00101869,0.0022
 2016,-0.00064576,-0.00100871,-0.00033060,-0.00089854,0.00033280,-0.000
 34571,0.00012239,-0.00058270,0.00038092,-0.00138777,-0.00159052,-0.002
 88520,0.00019655,-0.01750093,0.00171539,0.01878370,0.00037029,-0.00022
 742,0.00065883,-0.00000470,-0.00003259,0.00003208,0.00002589,-0.000050
 42,0.00019065,0.00011959,-0.00011158,0.00073311,0.00029971,-0.00027191
 ,-0.00003038,-0.00018167,0.00013205,-0.00004397,-0.00034095,-0.0000148
 5,0.00002111,-0.12765356,0.02042591,0.12108296,-0.00660783,0.00114600,
 0.00866387,0.14164631,-0.00110349,0.00006357,-0.00041701,0.00076623,0.
 00049994,-0.00037876,-0.00077771,0.00028849,0.00014543,-0.00046454,-0.
 00034699,-0.00065072,0.00001569,-0.00150543,0.00019495,-0.01334112,0.0
 0262216,0.01825486,0.00038371,-0.00039769,0.00012842,0.00003578,-0.000
 00530,0.00000978,0.00004188,0.00000919,-0.00005049,-0.00018905,0.00017
 503,0.00006741,0.00010891,-0.00031528,-0.00013079,-0.00005081,0.000137
 26,0.00002446,-0.00017860,0.00004367,0.00002984,0.01981976,-0.05149478
 ,-0.02707219,0.01662563,-0.00274594,-0.02568518,-0.01872063,0.05285849
 ,0.00013546,-0.00066345,0.00107219,0.00034926,0.00036507,0.00018288,-0
 .00026776,0.00018407,-0.00002513,-0.00020473,-0.00018382,-0.00022689,-
 0.00042373,0.00017446,-0.00025291,-0.00160505,0.00099371,0.00285491,-0
 .00003137,0.00037089,-0.00034248,0.00003643,0.00003091,-0.00000824,-0.
 00001971,0.00002077,-0.00003961,-0.00007915,0.00001551,0.00009521,-0.0
 0013480,-0.00003207,0.00000273,0.00006300,0.00000262,0.00000640,0.0000
 9427,0.00002899,0.00000757,0.12065734,-0.02787367,-0.21456536,-0.00145
 878,-0.00037526,0.00085278,-0.13228554,0.03122858,0.23243923,0.0010186
 5,0.00222018,0.00064550,-0.00100873,-0.00033055,0.00089865,0.00033281,
 -0.00034577,-0.00012239,-0.00058255,0.00038102,0.00138781,-0.00159042,
 -0.00288506,-0.00019611,-0.01750145,0.00171269,-0.01878339,0.00037022,
 -0.00022745,-0.00065884,-0.00000471,-0.00003260,-0.00003207,0.00002588
 ,-0.00005043,-0.00019065,0.00011951,-0.00011162,-0.00073314,0.00029973
 ,-0.00027191,0.00003038,-0.00018167,0.00013206,0.00004398,-0.00034095,
 -0.00001485,-0.00002108,-0.12765916,0.02041135,-0.12108755,-0.00660801
 ,0.00114495,-0.00866389,0.01161463,-0.00300116,0.01521182,0.14165257,-
 0.00110353,0.00006354,0.00041720,0.00076627,0.00049992,0.00037879,-0.0
 0077774,0.00028850,-0.00014540,-0.00046448,-0.00034703,0.00065075,0.00
 001594,-0.00150528,-0.00019487,-0.01334165,0.00261964,-0.01825450,0.00
 038369,-0.00039776,-0.00012851,0.00003577,-0.00000531,-0.00000979,0.00
 004189,0.00000919,0.00005047,-0.00018903,0.00017501,-0.00006740,0.0001
 0895,-0.00031526,0.00013081,-0.00005082,0.00013726,-0.00002446,-0.0001
 7862,0.00004366,-0.00002983,0.01980514,-0.05148723,0.02705057,0.016626
 52,-0.00274264,0.02568521,-0.00300324,0.00012573,-0.00429099,-0.018704
 59,0.05285017,-0.00013537,0.00066339,0.00107205,-0.00034927,-0.0003650
 9,0.00018285,0.00026781,-0.00018403,-0.00002512,0.00020471,0.00018373,
 -0.00022706,0.00042387,-0.00017418,-0.00025290,0.00160706,-0.00099388,
 0.00285791,0.00003127,-0.00037083,-0.00034243,-0.00003643,-0.00003091,
 -0.00000823,0.00001970,-0.00002077,-0.00003961,0.00007917,-0.00001553,
 0.00009523,0.00013479,0.00003210,0.00000271,-0.00006298,-0.00000264,0.
 00000640,-0.00009424,-0.00002900,0.00000758,-0.12066154,0.02785219,-0.
 21456571,0.00145677,0.00037571,0.00084956,-0.01521231,0.00428824,-0.02
 205315,0.13229003,-0.03120484,0.23244002,0.00046708,0.00032137,-0.0000
 0003,0.00012668,0.00052285,-0.00000002,0.00068642,-0.00022872,-0.00000
 002,0.00389048,-0.00239884,0.00000015,-0.00071767,-0.00018336,0.000000
 04,0.00023528,-0.00090707,0.00000001,0.00015050,0.00000821,0.,0.000095
 62,-0.00013066,0.,-0.00025881,0.00096553,-0.00000004,-0.00026044,-0.00
 000479,0.00000001,-0.05972881,-0.01992452,0.00000284,0.00208891,0.0177
 7690,-0.00000104,-0.16986420,0.02803438,0.00000225,0.00006646,-0.00006
 981,0.,-0.00003125,0.00006863,0.,0.00009238,0.00005875,-0.00004880,0.0
 0009239,0.00005876,0.00004879,0.44800885,0.00010508,-0.00003557,0.,-0.
 00004302,0.00023818,0.,0.00044548,-0.00049341,0.,-0.00351245,-0.004412
 66,0.00000053,-0.00107986,0.00104187,0.,-0.00017577,-0.00033822,0.,-0.
 00001293,0.00002809,0.,-0.00002152,0.00002139,0.,0.00011989,0.00043700
 ,-0.00000003,0.00009026,-0.00002839,0.,-0.02639611,0.01875967,0.000000
 15,-0.00277527,-0.00418335,-0.00000002,0.05401248,-0.10424956,-0.00000
 011,-0.00009838,0.00009368,0.,0.00001856,-0.00001488,0.,-0.00004414,-0
 .00002296,0.00000783,-0.00004414,-0.00002296,-0.00000783,0.06230275,0.
 59681318,-0.00000002,0.,0.00004715,0.,-0.00000002,0.00013934,-0.000000
 05,0.00000001,-0.00033185,0.00000020,0.00000049,0.00542613,0.00000008,
 -0.00000002,0.00037040,-0.00000001,0.00000003,-0.00034436,0.,0.,-0.000
 04402,0.,0.,0.00001975,0.,-0.00000006,-0.00024933,0.00000001,0.,0.0001
 6069,0.00000311,-0.00000006,0.00145709,-0.00000012,-0.00000065,-0.0061
 2517,0.00000115,0.00000072,-0.06442414,0.,0.,-0.00007701,0.,0.,0.00001
 929,0.00002133,0.00001185,-0.00000094,-0.00002134,-0.00001185,-0.00000
 094,0.00000167,-0.00000260,0.58197013,-0.00004518,-0.00003686,0.,0.000
 01018,0.00005098,0.,-0.00005014,-0.00017011,0.,-0.00083559,-0.00158384
 ,0.00000010,-0.00034803,0.00046204,0.,-0.00008949,-0.00006763,0.,-0.00
 001040,0.00000971,0.,-0.00003180,0.00002358,0.,-0.00005144,0.00003605,
 0.,0.00003616,-0.00000698,0.,-0.00316973,0.00710794,-0.00000018,0.0017
 9102,-0.00108140,0.,-0.03589762,-0.02786822,0.00000237,-0.00003411,0.0
 0003778,0.,0.00000781,-0.00000465,0.,-0.00001932,-0.00000915,0.0000046
 6,-0.00001932,-0.00000916,-0.00000466,-0.11867131,-0.11738083,0.000007
 27,0.14720739,-0.00003143,0.00002239,0.,-0.00004594,-0.00003550,0.,-0.
 00004041,0.00004250,0.,0.00022335,0.00064104,-0.00000002,0.00009458,-0
 .00009041,0.,0.00005318,0.00007419,0.,-0.00001013,0.00000130,0.,-0.000
 00707,0.00000937,0.,-0.00000857,-0.00006264,0.,0.00002875,0.00002247,0
 .,0.00331852,-0.00314665,0.00000003,-0.00226196,0.00145729,0.00000004,
 0.01238161,0.01309141,-0.00000098,0.00000683,-0.00000351,0.,0.00000214
 ,-0.00000115,0.,-0.00000369,-0.00000118,0.00000401,-0.00000369,-0.0000
 0118,-0.00000401,-0.13005809,-0.24887994,0.00001281,0.13214790,0.26055
 370,0.,0.,0.00002056,0.,0.,-0.00006227,0.,0.,-0.00000637,0.00000002,0.
 00000003,0.00018980,0.,-0.00000001,0.00001820,0.,0.,-0.00003614,0.,0.,
 0.00000620,0.,0.,0.00000798,0.,0.,0.00007736,0.,0.,0.00001393,-0.00000
 003,-0.00000010,0.00025032,0.00000005,0.,0.00066289,0.00000066,0.00000
 037,-0.00003646,0.,0.,-0.00000511,0.,0.,0.00000092,0.00000095,0.000000
 87,0.00000002,-0.00000095,-0.00000087,0.00000002,0.00000779,0.00001235
 ,-0.05233052,-0.00000902,-0.00001362,0.04677490,-0.00011531,-0.0001000
 2,0.00002569,0.00005848,-0.00010869,0.00004686,-0.00008660,0.00001034,
 -0.00004404,-0.00056829,-0.00015302,0.00104527,0.00013026,0.00016686,0
 .00010127,-0.00011129,0.00012460,-0.00008196,-0.00002101,-0.00000567,-
 0.00001578,-0.00001297,0.00001949,0.00000511,0.00005208,-0.00017866,-0
 .00007849,-0.00000421,-0.00002895,0.00001270,0.00338022,0.00811896,-0.
 00148750,0.00070797,-0.00325651,0.00008624,-0.02465065,0.02051739,-0.0
 2882892,-0.00001572,0.00001885,-0.00001463,0.00000256,-0.00001277,0.00
 000023,-0.00001332,-0.00000632,0.00000425,-0.00001609,-0.00001374,-0.0
 0000292,-0.05323615,0.01724782,-0.02731969,0.00511099,-0.00789236,0.01
 494105,0.06646912,0.00001867,0.00000694,-0.00000610,0.00005687,0.00002
 216,-0.00002796,0.00001582,-0.00000882,-0.00006939,0.00032523,-0.00006
 101,0.00025853,-0.00001498,-0.00006278,-0.00008084,0.00001253,-0.00002
 781,0.00003443,0.00001574,-0.00000038,0.00000197,0.00001328,-0.0000144
 0,0.00000797,-0.00004611,0.00009114,0.00006324,-0.00003808,0.00000433,
 -0.00000455,-0.00294704,-0.00051338,-0.00059301,0.00037467,0.00069469,
 0.00002445,0.01058595,-0.00564316,0.00576863,0.00001010,-0.00000902,0.
 00000252,-0.00000399,0.00000346,0.00000072,0.00001184,0.00000561,-0.00
 000470,0.00000973,0.00000642,0.00000348,0.02189639,-0.12736519,0.11875
 765,0.00417221,-0.01184591,0.02167147,-0.03065783,0.13413137,-0.000000
 53,-0.00004511,0.00000014,0.00003451,-0.00003453,0.00000810,0.00004827
 ,0.00001150,0.00002270,-0.00014064,-0.00027786,-0.00042019,0.00003153,
 0.00005058,0.00001067,-0.00004360,0.00001432,-0.00000129,-0.00000386,-
 0.00000300,0.00000244,0.00000553,-0.00000093,-0.00000373,0.00001499,-0
 .00003853,-0.00000737,-0.00001775,-0.00000903,-0.00000352,0.00112315,0
 .00354134,0.00070637,0.00155939,-0.00145676,0.00032550,-0.00466526,-0.
 00263368,0.00670049,-0.00000793,0.00000699,0.00000233,-0.00000003,-0.0
 0000427,-0.00000168,-0.00000384,-0.00000330,0.00000180,-0.00000059,-0.
 00000378,-0.00000097,-0.03446980,0.11868540,-0.23284901,0.00125862,-0.
 00190890,0.00222548,0.03844214,-0.13084826,0.24379379,-0.00011532,-0.0
 0010002,-0.00002568,0.00005848,-0.00010869,-0.00004686,-0.00008660,0.0
 0001034,0.00004404,-0.00056834,-0.00015309,-0.00104525,0.00013025,0.00
 016685,-0.00010129,-0.00011128,0.00012461,0.00008196,-0.00002100,-0.00
 000567,0.00001579,-0.00001297,0.00001949,-0.00000511,0.00005208,-0.000
 17866,0.00007851,-0.00000421,-0.00002895,-0.00001270,0.00338031,0.0081
 1882,0.00148659,0.00070789,-0.00325636,-0.00008596,-0.02464856,0.02052
 003,0.02882926,-0.00001572,0.00001885,0.00001463,0.00000256,-0.0000127
 7,-0.00000023,-0.00001609,-0.00001374,0.00000292,-0.00001332,-0.000006
 32,-0.00000425,-0.05323242,0.01724211,0.02730641,0.00510992,-0.0078935
 2,-0.01494054,0.00293994,-0.00381100,-0.00316432,0.06646440,0.00001867
 ,0.00000694,0.00000610,0.00005687,0.00002217,0.00002795,0.00001582,-0.
 00000882,0.00006940,0.00032522,-0.00006101,-0.00025858,-0.00001498,-0.
 00006278,0.00008084,0.00001253,-0.00002781,-0.00003444,0.00001574,-0.0
 0000038,-0.00000197,0.00001328,-0.00001440,-0.00000797,-0.00004612,0.0
 0009113,-0.00006325,-0.00003808,0.00000433,0.00000456,-0.00294709,-0.0
 0051362,0.00059331,0.00037453,0.00069480,-0.00002449,0.01058598,-0.005
 64344,-0.00576826,0.00001010,-0.00000902,-0.00000252,-0.00000399,0.000
 00346,-0.00000072,0.00000973,0.00000642,-0.00000348,0.00001184,0.00000
 561,0.00000470,0.02189135,-0.12738597,-0.11876829,0.00417067,-0.011847
 59,-0.02167051,-0.00380976,0.01058574,0.01495783,-0.03065232,0.1341542
 2,0.00000053,0.00004512,0.00000014,-0.00003452,0.00003454,0.00000810,-
 0.00004827,-0.00001150,0.00002270,0.00014062,0.00027785,-0.00042012,-0
 .00003154,-0.00005059,0.00001068,0.00004360,-0.00001432,-0.00000129,0.
 00000386,0.00000300,0.00000243,-0.00000553,0.00000093,-0.00000373,-0.0
 0001499,0.00003853,-0.00000737,0.00001776,0.00000903,-0.00000352,-0.00
 112308,-0.00354176,0.00070659,-0.00155947,0.00145690,0.00032548,0.0046
 6642,0.00263339,0.00669853,0.00000793,-0.00000699,0.00000233,0.0000000
 3,0.00000427,-0.00000168,0.00000059,0.00000378,-0.00000097,0.00000384,
 0.00000330,0.00000180,0.03445620,-0.11869566,-0.23283266,-0.00125917,0
 .00191064,0.00222828,0.00316311,-0.01496025,-0.02051207,-0.03842791,0.
 13085979,0.24377636\\0.00000058,0.00000136,0.,0.00000114,0.00000073,0.
 ,0.00000087,-0.00000008,0.,0.00000003,-0.00000020,0.,-0.00000049,0.000
 00041,0.,-0.00000020,0.00000119,0.,0.00000079,0.00000196,0.,0.00000176
 ,0.00000086,0.,0.00000129,-0.00000054,0.,-0.00000112,0.00000029,0.,-0.
 00000023,-0.00000099,0.,-0.00000095,-0.00000122,0.,0.00000028,-0.00000
 159,0.,-0.00000083,0.00000188,0.,-0.00000143,0.00000168,0.,-0.00000073
 ,0.00000226,0.,-0.00000074,0.00000226,0.,0.00000003,-0.00000242,0.,0.0
 0000057,-0.00000277,0.,-0.00000031,-0.00000254,0.,-0.00000031,-0.00000
 253,0.\\\@


 REPARTEE - WHAT YOU THINK OF AFTER YOU BECOME A DEPARTEE.
 Job cpu time:       0 days  0 hours 59 minutes 40.6 seconds.
 File lengths (MBytes):  RWF=    224 Int=      0 D2E=      0 Chk=      8 Scr=      1
 Normal termination of Gaussian 09 at Tue Jan  3 11:29:15 2023.
