	You are loading a legacy vmd module, please load an up to date module instead.


	 module load container_env vmd

	Please run vmd command with crun.vmd prepend to it:
	
	 crun.vmd vmd

	 
module: Command not found.
module: Command not found.
 Entering Gaussian System, Link 0=g09
 Initial command:
 /opt/gaussian/g09/l1.exe "/tmp/G09-9.com.o10577484.tmp/Gau-1890065.inp" -scrdir="/tmp/G09-9.com.o10577484.tmp/"
 Entering Link 1 = /opt/gaussian/g09/l1.exe PID=   1890066.
  
 Copyright (c) 1988,1990,1992,1993,1995,1998,2003,2009,2013,
            Gaussian, Inc.  All Rights Reserved.
  
 This is part of the Gaussian(R) 09 program.  It is based on
 the Gaussian(R) 03 system (copyright 2003, Gaussian, Inc.),
 the Gaussian(R) 98 system (copyright 1998, Gaussian, Inc.),
 the Gaussian(R) 94 system (copyright 1995, Gaussian, Inc.),
 the Gaussian 92(TM) system (copyright 1992, Gaussian, Inc.),
 the Gaussian 90(TM) system (copyright 1990, Gaussian, Inc.),
 the Gaussian 88(TM) system (copyright 1988, Gaussian, Inc.),
 the Gaussian 86(TM) system (copyright 1986, Carnegie Mellon
 University), and the Gaussian 82(TM) system (copyright 1983,
 Carnegie Mellon University). Gaussian is a federally registered
 trademark of Gaussian, Inc.
  
 This software contains proprietary and confidential information,
 including trade secrets, belonging to Gaussian, Inc.
  
 This software is provided under written license and may be
 used, copied, transmitted, or stored only in accord with that
 written license.
  
 The following legend is applicable only to US Government
 contracts under FAR:
  
                    RESTRICTED RIGHTS LEGEND
  
 Use, reproduction and disclosure by the US Government is
 subject to restrictions as set forth in subparagraphs (a)
 and (c) of the Commercial Computer Software - Restricted
 Rights clause in FAR 52.227-19.
  
 Gaussian, Inc.
 340 Quinnipiac St., Bldg. 40, Wallingford CT 06492
  
  
 ---------------------------------------------------------------
 Warning -- This program may not be used in any manner that
 competes with the business of Gaussian, Inc. or will provide
 assistance to any competitor of Gaussian, Inc.  The licensee
 of this program is prohibited from giving any competitor of
 Gaussian, Inc. access to this program.  By using this program,
 the user acknowledges that Gaussian, Inc. is engaged in the
 business of creating and licensing software in the field of
 computational chemistry and represents and warrants to the
 licensee that it is not a competitor of Gaussian, Inc. and that
 it will not use this program in any manner prohibited above.
 ---------------------------------------------------------------
  

 Cite this work as:
 Gaussian 09, Revision D.01,
 M. J. Frisch, G. W. Trucks, H. B. Schlegel, G. E. Scuseria, 
 M. A. Robb, J. R. Cheeseman, G. Scalmani, V. Barone, B. Mennucci, 
 G. A. Petersson, H. Nakatsuji, M. Caricato, X. Li, H. P. Hratchian, 
 A. F. Izmaylov, J. Bloino, G. Zheng, J. L. Sonnenberg, M. Hada, 
 M. Ehara, K. Toyota, R. Fukuda, J. Hasegawa, M. Ishida, T. Nakajima, 
 Y. Honda, O. Kitao, H. Nakai, T. Vreven, J. A. Montgomery, Jr., 
 J. E. Peralta, F. Ogliaro, M. Bearpark, J. J. Heyd, E. Brothers, 
 K. N. Kudin, V. N. Staroverov, T. Keith, R. Kobayashi, J. Normand, 
 K. Raghavachari, A. Rendell, J. C. Burant, S. S. Iyengar, J. Tomasi, 
 M. Cossi, N. Rega, J. M. Millam, M. Klene, J. E. Knox, J. B. Cross, 
 V. Bakken, C. Adamo, J. Jaramillo, R. Gomperts, R. E. Stratmann, 
 O. Yazyev, A. J. Austin, R. Cammi, C. Pomelli, J. W. Ochterski, 
 R. L. Martin, K. Morokuma, V. G. Zakrzewski, G. A. Voth, 
 P. Salvador, J. J. Dannenberg, S. Dapprich, A. D. Daniels, 
 O. Farkas, J. B. Foresman, J. V. Ortiz, J. Cioslowski, 
 and D. J. Fox, Gaussian, Inc., Wallingford CT, 2013.
 
 ******************************************
 Gaussian 09:  ES64L-G09RevD.01 24-Apr-2013
                23-Apr-2024 
 ******************************************
 %nprocshared=20
 Will use up to   20 processors via shared memory.
 %mem=4GB
 %chk=9.chk
 ----------------------------------------------------------------------
 # opt freq=noraman b3lyp/6-311+g(d,p) pop=(npa,hirshfeld,chelpg,mbs) g
 eom=connectivity
 ----------------------------------------------------------------------
 1/14=-1,18=20,19=15,26=3,38=1,57=2/1,3;
 2/9=110,12=2,17=6,18=5,40=1/2;
 3/5=4,6=6,7=111,11=2,16=1,25=1,30=1,71=1,74=-5/1,2,3;
 4//1;
 5/5=2,38=5/2;
 6/7=2,8=2,9=2,10=2,15=8,20=3,27=100,28=1,40=-1,79=1/1,2,7;
 7//1,2,3,16;
 1/14=-1,18=20,19=15,26=3/3(2);
 2/9=110/2;
 99//99;
 2/9=110/2;
 3/5=4,6=6,7=111,11=2,16=1,25=1,30=1,71=1,74=-5/1,2,3;
 4/5=5,16=3,69=1/1;
 5/5=2,38=5/2;
 7//1,2,3,16;
 1/14=-1,18=20,19=15,26=3/3(-5);
 2/9=110/2;
 6/7=2,8=2,9=2,10=2,15=8,19=2,20=3,27=100,28=1,40=-1,79=1/1,2,7;
 99/9=1/99;
 -------------------
 Title Card Required
 -------------------
 Symbolic Z-matrix:
 Charge =  0 Multiplicity = 1
 C                     0.02644   0.05784  -0.00194 
 C                     1.42783   0.05906  -0.00517 
 C                     2.12729   1.27067  -0.08693 
 C                     1.42535   2.48106  -0.16548 
 C                     0.02396   2.47984  -0.16225 
 C                    -0.6755    1.26823  -0.08048 
 H                     3.19729   1.2716   -0.08939 
 H                     1.9594    3.40615  -0.22791 
 C                     2.19919  -1.27103   0.08115 
 O                     3.45759  -1.26993   0.07825 
 H                     1.66514  -2.19612   0.14358 
 H                    -0.50761  -0.86725   0.06049 
 H                    -1.7455    1.26729  -0.07802 
 C                    -0.7474    3.80993  -0.24856 
 H                    -1.68785   3.64612  -0.73191 
 H                    -0.17567   4.51793  -0.81138 
 C                    -0.98809   4.3568    1.1708 
 H                    -1.54097   5.27099   1.1118 
 H                    -1.54311   3.6404    1.73969 
 H                    -0.04743   4.53897   1.64711 
 

 GradGradGradGradGradGradGradGradGradGradGradGradGradGradGradGradGradGrad
 Berny optimization.
 Initialization pass.
                           ----------------------------
                           !    Initial Parameters    !
                           ! (Angstroms and Degrees)  !
 --------------------------                            --------------------------
 ! Name  Definition              Value          Derivative Info.                !
 --------------------------------------------------------------------------------
 ! R1    R(1,2)                  1.4014         estimate D2E/DX2                !
 ! R2    R(1,6)                  1.4014         estimate D2E/DX2                !
 ! R3    R(1,12)                 1.07           estimate D2E/DX2                !
 ! R4    R(2,3)                  1.4014         estimate D2E/DX2                !
 ! R5    R(2,9)                  1.54           estimate D2E/DX2                !
 ! R6    R(3,4)                  1.4014         estimate D2E/DX2                !
 ! R7    R(3,7)                  1.07           estimate D2E/DX2                !
 ! R8    R(4,5)                  1.4014         estimate D2E/DX2                !
 ! R9    R(4,8)                  1.07           estimate D2E/DX2                !
 ! R10   R(5,6)                  1.4014         estimate D2E/DX2                !
 ! R11   R(5,14)                 1.54           estimate D2E/DX2                !
 ! R12   R(6,13)                 1.07           estimate D2E/DX2                !
 ! R13   R(9,10)                 1.2584         estimate D2E/DX2                !
 ! R14   R(9,11)                 1.07           estimate D2E/DX2                !
 ! R15   R(14,15)                1.07           estimate D2E/DX2                !
 ! R16   R(14,16)                1.07           estimate D2E/DX2                !
 ! R17   R(14,17)                1.54           estimate D2E/DX2                !
 ! R18   R(17,18)                1.07           estimate D2E/DX2                !
 ! R19   R(17,19)                1.07           estimate D2E/DX2                !
 ! R20   R(17,20)                1.07           estimate D2E/DX2                !
 ! A1    A(2,1,6)              120.0            estimate D2E/DX2                !
 ! A2    A(2,1,12)             120.0            estimate D2E/DX2                !
 ! A3    A(6,1,12)             120.0            estimate D2E/DX2                !
 ! A4    A(1,2,3)              120.0            estimate D2E/DX2                !
 ! A5    A(1,2,9)              120.0            estimate D2E/DX2                !
 ! A6    A(3,2,9)              120.0            estimate D2E/DX2                !
 ! A7    A(2,3,4)              120.0            estimate D2E/DX2                !
 ! A8    A(2,3,7)              120.0            estimate D2E/DX2                !
 ! A9    A(4,3,7)              120.0            estimate D2E/DX2                !
 ! A10   A(3,4,5)              120.0            estimate D2E/DX2                !
 ! A11   A(3,4,8)              120.0            estimate D2E/DX2                !
 ! A12   A(5,4,8)              120.0            estimate D2E/DX2                !
 ! A13   A(4,5,6)              120.0            estimate D2E/DX2                !
 ! A14   A(4,5,14)             120.0            estimate D2E/DX2                !
 ! A15   A(6,5,14)             120.0            estimate D2E/DX2                !
 ! A16   A(1,6,5)              120.0            estimate D2E/DX2                !
 ! A17   A(1,6,13)             120.0            estimate D2E/DX2                !
 ! A18   A(5,6,13)             120.0            estimate D2E/DX2                !
 ! A19   A(2,9,10)             120.0            estimate D2E/DX2                !
 ! A20   A(2,9,11)             120.0            estimate D2E/DX2                !
 ! A21   A(10,9,11)            120.0            estimate D2E/DX2                !
 ! A22   A(5,14,15)            109.4712         estimate D2E/DX2                !
 ! A23   A(5,14,16)            109.4712         estimate D2E/DX2                !
 ! A24   A(5,14,17)            109.4712         estimate D2E/DX2                !
 ! A25   A(15,14,16)           109.4712         estimate D2E/DX2                !
 ! A26   A(15,14,17)           109.4713         estimate D2E/DX2                !
 ! A27   A(16,14,17)           109.4712         estimate D2E/DX2                !
 ! A28   A(14,17,18)           109.4712         estimate D2E/DX2                !
 ! A29   A(14,17,19)           109.4712         estimate D2E/DX2                !
 ! A30   A(14,17,20)           109.4712         estimate D2E/DX2                !
 ! A31   A(18,17,19)           109.4713         estimate D2E/DX2                !
 ! A32   A(18,17,20)           109.4712         estimate D2E/DX2                !
 ! A33   A(19,17,20)           109.4712         estimate D2E/DX2                !
 ! D1    D(6,1,2,3)             -0.0001         estimate D2E/DX2                !
 ! D2    D(6,1,2,9)            179.9999         estimate D2E/DX2                !
 ! D3    D(12,1,2,3)           179.9999         estimate D2E/DX2                !
 ! D4    D(12,1,2,9)            -0.0001         estimate D2E/DX2                !
 ! D5    D(2,1,6,5)              0.0001         estimate D2E/DX2                !
 ! D6    D(2,1,6,13)          -179.9999         estimate D2E/DX2                !
 ! D7    D(12,1,6,5)          -179.9999         estimate D2E/DX2                !
 ! D8    D(12,1,6,13)            0.0001         estimate D2E/DX2                !
 ! D9    D(1,2,3,4)              0.0001         estimate D2E/DX2                !
 ! D10   D(1,2,3,7)            179.9999         estimate D2E/DX2                !
 ! D11   D(9,2,3,4)           -179.9999         estimate D2E/DX2                !
 ! D12   D(9,2,3,7)             -0.0001         estimate D2E/DX2                !
 ! D13   D(1,2,9,10)           179.9999         estimate D2E/DX2                !
 ! D14   D(1,2,9,11)             0.0            estimate D2E/DX2                !
 ! D15   D(3,2,9,10)            -0.0001         estimate D2E/DX2                !
 ! D16   D(3,2,9,11)          -180.0            estimate D2E/DX2                !
 ! D17   D(2,3,4,5)              0.0            estimate D2E/DX2                !
 ! D18   D(2,3,4,8)            180.0            estimate D2E/DX2                !
 ! D19   D(7,3,4,5)           -179.9998         estimate D2E/DX2                !
 ! D20   D(7,3,4,8)              0.0002         estimate D2E/DX2                !
 ! D21   D(3,4,5,6)              0.0            estimate D2E/DX2                !
 ! D22   D(3,4,5,14)          -180.0            estimate D2E/DX2                !
 ! D23   D(8,4,5,6)           -180.0            estimate D2E/DX2                !
 ! D24   D(8,4,5,14)             0.0            estimate D2E/DX2                !
 ! D25   D(4,5,6,1)              0.0            estimate D2E/DX2                !
 ! D26   D(4,5,6,13)           180.0            estimate D2E/DX2                !
 ! D27   D(14,5,6,1)           179.9999         estimate D2E/DX2                !
 ! D28   D(14,5,6,13)           -0.0001         estimate D2E/DX2                !
 ! D29   D(4,5,14,15)          150.601          estimate D2E/DX2                !
 ! D30   D(4,5,14,16)           30.601          estimate D2E/DX2                !
 ! D31   D(4,5,14,17)          -89.399          estimate D2E/DX2                !
 ! D32   D(6,5,14,15)          -29.3989         estimate D2E/DX2                !
 ! D33   D(6,5,14,16)         -149.3989         estimate D2E/DX2                !
 ! D34   D(6,5,14,17)           90.6011         estimate D2E/DX2                !
 ! D35   D(5,14,17,18)        -178.8826         estimate D2E/DX2                !
 ! D36   D(5,14,17,19)         -58.8826         estimate D2E/DX2                !
 ! D37   D(5,14,17,20)          61.1174         estimate D2E/DX2                !
 ! D38   D(15,14,17,18)        -58.8826         estimate D2E/DX2                !
 ! D39   D(15,14,17,19)         61.1174         estimate D2E/DX2                !
 ! D40   D(15,14,17,20)       -178.8826         estimate D2E/DX2                !
 ! D41   D(16,14,17,18)         61.1174         estimate D2E/DX2                !
 ! D42   D(16,14,17,19)       -178.8826         estimate D2E/DX2                !
 ! D43   D(16,14,17,20)        -58.8826         estimate D2E/DX2                !
 --------------------------------------------------------------------------------
 Trust Radius=3.00D-01 FncErr=1.00D-07 GrdErr=1.00D-06
 Number of steps in this run=    106 maximum allowed number of steps=    120.
 GradGradGradGradGradGradGradGradGradGradGradGradGradGradGradGradGradGrad

                          Input orientation:                          
 ---------------------------------------------------------------------
 Center     Atomic      Atomic             Coordinates (Angstroms)
 Number     Number       Type             X           Y           Z
 ---------------------------------------------------------------------
      1          6           0        0.026438    0.057840   -0.001942
      2          6           0        1.427834    0.059063   -0.005165
      3          6           0        2.127291    1.270671   -0.086934
      4          6           0        1.425353    2.481058   -0.165477
      5          6           0        0.023957    2.479835   -0.162252
      6          6           0       -0.675500    1.268227   -0.080484
      7          1           0        3.197288    1.271605   -0.089394
      8          1           0        1.959404    3.406148   -0.227909
      9          6           0        2.199195   -1.271032    0.081148
     10          8           0        3.457591   -1.269935    0.078251
     11          1           0        1.665144   -2.196122    0.143580
     12          1           0       -0.507613   -0.867250    0.060488
     13          1           0       -1.745497    1.267294   -0.078021
     14          6           0       -0.747404    3.809930   -0.248564
     15          1           0       -1.687854    3.646123   -0.731907
     16          1           0       -0.175668    4.517928   -0.811376
     17          6           0       -0.988091    4.356797    1.170804
     18          1           0       -1.540971    5.270986    1.111803
     19          1           0       -1.543106    3.640396    1.739688
     20          1           0       -0.047427    4.538973    1.647106
 ---------------------------------------------------------------------
                    Distance matrix (angstroms):
                    1          2          3          4          5
     1  C    0.000000
     2  C    1.401400   0.000000
     3  C    2.427296   1.401400   0.000000
     4  C    2.802800   2.427296   1.401400   0.000000
     5  C    2.427296   2.802800   2.427296   1.401400   0.000000
     6  C    1.401400   2.427296   2.802800   2.427296   1.401400
     7  H    3.396345   2.146700   1.070000   2.146700   3.396345
     8  H    3.872800   3.396345   2.146700   1.070000   2.146700
     9  C    2.548270   1.540000   2.548270   3.838989   4.342800
    10  O    3.679977   2.427572   2.872571   4.273095   5.090036
    11  H    2.790498   2.272510   3.505050   4.693509   4.965039
    12  H    1.070000   2.146700   3.396345   3.872800   3.396345
    13  H    2.146700   3.396345   3.872800   3.396345   2.146700
    14  C    3.838989   4.342800   3.838989   2.548270   1.540000
    15  H    4.043195   4.806524   4.540275   3.371984   2.148263
    16  H    4.537446   4.806524   4.046371   2.670074   2.148263
    17  C    4.570080   5.068542   4.561983   3.335979   2.514809
    18  H    5.556446   6.101276   5.558385   4.267813   3.444233
    19  H    4.281525   4.969603   4.735395   3.712879   2.723962
    20  H    4.775496   4.997598   4.291630   3.112805   2.742065
                    6          7          8          9         10
     6  C    0.000000
     7  H    3.872800   0.000000
     8  H    3.396345   2.471400   0.000000
     9  C    3.838989   2.736837   4.693509   0.000000
    10  O    4.852825   2.560329   4.919761   1.258400   0.000000
    11  H    4.186948   3.798272   5.622279   1.070000   2.018653
    12  H    2.146700   4.280590   4.942800   2.736837   3.985638
    13  H    1.070000   4.942800   4.280590   4.693509   5.790861
    14  C    2.548270   4.693509   2.736837   5.882800   6.602562
    15  H    2.665259   5.469532   3.689728   6.320493   7.162373
    16  H    3.368174   4.736740   2.476897   6.320493   6.891398
    17  C    3.347043   5.350132   3.398215   6.558857   7.253818
    18  H    4.265287   6.315776   4.186297   7.605860   8.296837
    19  H    3.113351   5.606073   4.024163   6.393568   7.202687
    20  H    3.751909   4.921311   2.970917   6.423060   6.963467
                   11         12         13         14         15
    11  H    0.000000
    12  H    2.548270   0.000000
    13  H    4.865884   2.471400   0.000000
    14  C    6.484353   4.693509   2.736837   0.000000
    15  H    6.792710   4.731955   2.467736   1.070000   0.000000
    16  H    7.027019   5.465389   3.683585   1.070000   1.747303
    17  C    7.143920   5.362306   3.417346   1.540000   2.148263
    18  H    8.183785   6.312768   4.181754   2.148263   2.461914
    19  H    6.848750   4.920451   2.996105   2.148263   2.475837
    20  H    7.110204   5.652996   4.069814   2.148263   3.024547
                   16         17         18         19         20
    16  H    0.000000
    17  C    2.148263   0.000000
    18  H    2.475837   1.070000   0.000000
    19  H    3.024546   1.070000   1.747303   0.000000
    20  H    2.461914   1.070000   1.747303   1.747303   0.000000
 Stoichiometry    C9H10O
 Framework group  C1[X(C9H10O)]
 Deg. of freedom    54
 Full point group                 C1      NOp   1
 Largest Abelian subgroup         C1      NOp   1
 Largest concise Abelian subgroup C1      NOp   1
                         Standard orientation:                         
 ---------------------------------------------------------------------
 Center     Atomic      Atomic             Coordinates (Angstroms)
 Number     Number       Type             X           Y           Z
 ---------------------------------------------------------------------
      1          6           0       -0.686077    1.388704   -0.030106
      2          6           0       -1.481321    0.235262    0.002785
      3          6           0       -0.889620   -1.027876   -0.132469
      4          6           0        0.497325   -1.137573   -0.300611
      5          6           0        1.292569    0.015868   -0.333500
      6          6           0        0.700868    1.279007   -0.198247
      7          1           0       -1.496806   -1.908555   -0.107354
      8          1           0        0.949102   -2.102007   -0.403879
      9          6           0       -3.005437    0.355808    0.187558
     10          8           0       -3.719533   -0.679935    0.217090
     11          1           0       -3.457213    1.320242    0.290827
     12          1           0       -1.137855    2.353138    0.073161
     13          1           0        1.308054    2.159685   -0.223358
     14          6           0        2.816684   -0.104678   -0.518272
     15          1           0        3.185853    0.768069   -1.015190
     16          1           0        3.037211   -0.970474   -1.107054
     17          6           0        3.492079   -0.235226    0.859552
     18          1           0        4.552544   -0.299398    0.732291
     19          1           0        3.255544    0.621517    1.455323
     20          1           0        3.137416   -1.118504    1.348362
 ---------------------------------------------------------------------
 Rotational constants (GHZ):      3.9431742      0.6800940      0.6130340
 Standard basis: 6-311+G(d,p) (5D, 7F)
 There are   290 symmetry adapted cartesian basis functions of A   symmetry.
 There are   280 symmetry adapted basis functions of A   symmetry.
   280 basis functions,   440 primitive gaussians,   290 cartesian basis functions
    36 alpha electrons       36 beta electrons
       nuclear repulsion energy       472.5815247780 Hartrees.
 NAtoms=   20 NActive=   20 NUniq=   20 SFac= 1.00D+00 NAtFMM=   60 NAOKFM=F Big=F
 Integral buffers will be    131072 words long.
 Raffenetti 2 integral format.
 Two-electron integral symmetry is turned on.
 One-electron integrals computed using PRISM.
 NBasis=   280 RedAO= T EigKep=  1.72D-06  NBF=   280
 NBsUse=   280 1.00D-06 EigRej= -1.00D+00 NBFU=   280
 ExpMin= 4.38D-02 ExpMax= 8.59D+03 ExpMxC= 1.30D+03 IAcc=2 IRadAn=         4 AccDes= 0.00D+00
 Harris functional with IExCor=  402 and IRadAn=       4 diagonalized for initial guess.
 HarFok:  IExCor=  402 AccDes= 0.00D+00 IRadAn=         4 IDoV= 1 UseB2=F ITyADJ=14
 ICtDFT=  3500011 ScaDFX=  1.000000  1.000000  1.000000  1.000000
 FoFCou: FMM=F IPFlag=           0 FMFlag=      100000 FMFlg1=           0
         NFxFlg=           0 DoJE=T BraDBF=F KetDBF=T FulRan=T
         wScrn=  0.000000 ICntrl=     500 IOpCl=  0 I1Cent=   200000004 NGrid=           0
         NMat0=    1 NMatS0=      1 NMatT0=    0 NMatD0=    1 NMtDS0=    0 NMtDT0=    0
 Petite list used in FoFCou.
 Requested convergence on RMS density matrix=1.00D-08 within 128 cycles.
 Requested convergence on MAX density matrix=1.00D-06.
 Requested convergence on             energy=1.00D-06.
 No special actions if energy rises.
 SCF Done:  E(RB3LYP) =  -424.311088770     A.U. after   15 cycles
            NFock= 15  Conv=0.27D-08     -V/T= 2.0046

 **********************************************************************

            Population analysis using the SCF density.

 **********************************************************************

 Orbital symmetries:
       Occupied  (A) (A) (A) (A) (A) (A) (A) (A) (A) (A) (A) (A)
                 (A) (A) (A) (A) (A) (A) (A) (A) (A) (A) (A) (A)
                 (A) (A) (A) (A) (A) (A) (A) (A) (A) (A) (A) (A)
       Virtual   (A) (A) (A) (A) (A) (A) (A) (A) (A) (A) (A) (A)
                 (A) (A) (A) (A) (A) (A) (A) (A) (A) (A) (A) (A)
                 (A) (A) (A) (A) (A) (A) (A) (A) (A) (A) (A) (A)
                 (A) (A) (A) (A) (A) (A) (A) (A) (A) (A) (A) (A)
                 (A) (A) (A) (A) (A) (A) (A) (A) (A) (A) (A) (A)
                 (A) (A) (A) (A) (A) (A) (A) (A) (A) (A) (A) (A)
                 (A) (A) (A) (A) (A) (A) (A) (A) (A) (A) (A) (A)
                 (A) (A) (A) (A) (A) (A) (A) (A) (A) (A) (A) (A)
                 (A) (A) (A) (A) (A) (A) (A) (A) (A) (A) (A) (A)
                 (A) (A) (A) (A) (A) (A) (A) (A) (A) (A) (A) (A)
                 (A) (A) (A) (A) (A) (A) (A) (A) (A) (A) (A) (A)
                 (A) (A) (A) (A) (A) (A) (A) (A) (A) (A) (A) (A)
                 (A) (A) (A) (A) (A) (A) (A) (A) (A) (A) (A) (A)
                 (A) (A) (A) (A) (A) (A) (A) (A) (A) (A) (A) (A)
                 (A) (A) (A) (A) (A) (A) (A) (A) (A) (A) (A) (A)
                 (A) (A) (A) (A) (A) (A) (A) (A) (A) (A) (A) (A)
                 (A) (A) (A) (A) (A) (A) (A) (A) (A) (A) (A) (A)
                 (A) (A) (A) (A) (A) (A) (A) (A) (A) (A) (A) (A)
                 (A) (A) (A) (A) (A) (A) (A) (A) (A) (A) (A) (A)
                 (A) (A) (A) (A) (A) (A) (A) (A) (A) (A) (A) (A)
                 (A) (A) (A) (A)
 The electronic state is 1-A.
 Alpha  occ. eigenvalues --  -19.12408 -10.27108 -10.20288 -10.19977 -10.19748
 Alpha  occ. eigenvalues --  -10.19153 -10.18993 -10.18876 -10.18256 -10.16552
 Alpha  occ. eigenvalues --   -1.02828  -0.87733  -0.80724  -0.76579  -0.74860
 Alpha  occ. eigenvalues --   -0.66521  -0.63323  -0.61800  -0.58538  -0.52461
 Alpha  occ. eigenvalues --   -0.49313  -0.47933  -0.45686  -0.44833  -0.44153
 Alpha  occ. eigenvalues --   -0.43019  -0.41542  -0.40289  -0.38898  -0.37469
 Alpha  occ. eigenvalues --   -0.35900  -0.35815  -0.34787  -0.27271  -0.26670
 Alpha  occ. eigenvalues --   -0.26350
 Alpha virt. eigenvalues --   -0.07729  -0.03244  -0.00538   0.00494   0.01024
 Alpha virt. eigenvalues --    0.01926   0.02473   0.03078   0.03967   0.04823
 Alpha virt. eigenvalues --    0.05652   0.05798   0.06554   0.06816   0.07269
 Alpha virt. eigenvalues --    0.08187   0.09378   0.09829   0.10335   0.10812
 Alpha virt. eigenvalues --    0.12359   0.12602   0.13215   0.14061   0.14592
 Alpha virt. eigenvalues --    0.14873   0.15154   0.16019   0.16219   0.16631
 Alpha virt. eigenvalues --    0.17641   0.18203   0.18518   0.19207   0.19556
 Alpha virt. eigenvalues --    0.20297   0.20407   0.21064   0.21128   0.22300
 Alpha virt. eigenvalues --    0.22555   0.23062   0.23884   0.24122   0.24803
 Alpha virt. eigenvalues --    0.26001   0.26067   0.27086   0.27724   0.27965
 Alpha virt. eigenvalues --    0.28083   0.28694   0.28864   0.30785   0.32498
 Alpha virt. eigenvalues --    0.33204   0.34046   0.34157   0.36326   0.40374
 Alpha virt. eigenvalues --    0.40875   0.41796   0.43300   0.44931   0.45799
 Alpha virt. eigenvalues --    0.47016   0.49210   0.50711   0.51275   0.52436
 Alpha virt. eigenvalues --    0.53361   0.54619   0.54813   0.56224   0.57020
 Alpha virt. eigenvalues --    0.59540   0.59915   0.61475   0.63800   0.64224
 Alpha virt. eigenvalues --    0.64449   0.64828   0.66235   0.66709   0.68151
 Alpha virt. eigenvalues --    0.68250   0.68793   0.70183   0.70482   0.71164
 Alpha virt. eigenvalues --    0.72067   0.73116   0.74042   0.76878   0.79878
 Alpha virt. eigenvalues --    0.81230   0.83899   0.84586   0.85736   0.87310
 Alpha virt. eigenvalues --    0.88676   0.89074   0.92623   0.94669   0.95225
 Alpha virt. eigenvalues --    0.97826   0.98903   0.99827   1.02980   1.04594
 Alpha virt. eigenvalues --    1.06109   1.06681   1.08330   1.08951   1.10416
 Alpha virt. eigenvalues --    1.12178   1.18203   1.19795   1.23662   1.26161
 Alpha virt. eigenvalues --    1.27066   1.30818   1.39213   1.39334   1.44302
 Alpha virt. eigenvalues --    1.46244   1.47683   1.48664   1.49737   1.50304
 Alpha virt. eigenvalues --    1.51882   1.52583   1.53992   1.55438   1.55501
 Alpha virt. eigenvalues --    1.58799   1.60179   1.62449   1.64883   1.65326
 Alpha virt. eigenvalues --    1.66293   1.67522   1.68138   1.69829   1.71420
 Alpha virt. eigenvalues --    1.72956   1.76986   1.77499   1.79064   1.81031
 Alpha virt. eigenvalues --    1.82039   1.87129   1.88543   1.89163   1.91269
 Alpha virt. eigenvalues --    1.93009   1.94446   1.96248   1.97270   2.00525
 Alpha virt. eigenvalues --    2.02103   2.05226   2.07712   2.09241   2.11120
 Alpha virt. eigenvalues --    2.14045   2.15993   2.19487   2.21412   2.27809
 Alpha virt. eigenvalues --    2.30007   2.31940   2.35005   2.39318   2.40177
 Alpha virt. eigenvalues --    2.42196   2.45218   2.50790   2.51821   2.57088
 Alpha virt. eigenvalues --    2.59213   2.60327   2.61316   2.62787   2.63849
 Alpha virt. eigenvalues --    2.65847   2.67515   2.67864   2.69695   2.70905
 Alpha virt. eigenvalues --    2.71964   2.73057   2.73546   2.75259   2.76846
 Alpha virt. eigenvalues --    2.79504   2.80381   2.80660   2.83805   2.86602
 Alpha virt. eigenvalues --    2.88743   2.90093   2.91114   2.93756   2.95065
 Alpha virt. eigenvalues --    2.97924   3.07847   3.09518   3.13442   3.18781
 Alpha virt. eigenvalues --    3.28598   3.29412   3.33991   3.37125   3.42222
 Alpha virt. eigenvalues --    3.47322   3.50397   3.61852   3.62069   3.67799
 Alpha virt. eigenvalues --    3.85779   3.86262   3.89210   3.95471   4.01395
 Alpha virt. eigenvalues --    4.15916   4.16689   4.21584   4.25204   4.34454
 Alpha virt. eigenvalues --    4.82726   5.01170   5.14680   5.69089  23.58716
 Alpha virt. eigenvalues --   23.80160  23.87633  23.94889  23.95193  24.01865
 Alpha virt. eigenvalues --   24.05264  24.07560  24.15826  49.93390
          Condensed to atoms (all electrons):
               1          2          3          4          5          6
     1  C    9.486899  -1.654437   0.020542  -0.688635   1.121863  -2.094982
     2  C   -1.654437   7.549927   0.343054   0.168302  -0.843752   1.185559
     3  C    0.020542   0.343054   9.025593  -2.632380   0.802738  -0.992400
     4  C   -0.688635   0.168302  -2.632380   9.004706  -0.689861   0.223655
     5  C    1.121863  -0.843752   0.802738  -0.689861   7.146565  -0.943546
     6  C   -2.094982   1.185559  -0.992400   0.223655  -0.943546   8.467052
     7  H    0.035780   0.042685   0.352600  -0.059618  -0.002776  -0.024975
     8  H   -0.020294  -0.010751   0.017132   0.259015   0.056552   0.037236
     9  C    0.323495  -1.219155  -0.276125   0.161089   0.074974  -0.093810
    10  O   -0.003348  -0.121026  -0.190206   0.141207  -0.010658   0.029477
    11  H    0.119062  -0.197704  -0.092457   0.024941  -0.001920   0.030521
    12  H    0.326397  -0.018136  -0.001498  -0.013879   0.001499   0.020396
    13  H    0.006418  -0.023445  -0.010609   0.028705   0.073274   0.258092
    14  C   -0.035079   0.019934  -0.279201   0.192721  -0.863616  -0.004339
    15  H    0.015067   0.001312   0.005810  -0.066641  -0.116465   0.107544
    16  H    0.003111   0.000900   0.015082   0.108962  -0.117972  -0.066590
    17  C    0.002808   0.007791  -0.037681   0.113436  -0.066797   0.082644
    18  H    0.004107  -0.001130   0.004346  -0.008104   0.056727  -0.007131
    19  H   -0.007877   0.003754  -0.009190  -0.002209  -0.069799   0.043064
    20  H   -0.008095   0.003329  -0.005135   0.041055  -0.068361  -0.004690
               7          8          9         10         11         12
     1  C    0.035780  -0.020294   0.323495  -0.003348   0.119062   0.326397
     2  C    0.042685  -0.010751  -1.219155  -0.121026  -0.197704  -0.018136
     3  C    0.352600   0.017132  -0.276125  -0.190206  -0.092457  -0.001498
     4  C   -0.059618   0.259015   0.161089   0.141207   0.024941  -0.013879
     5  C   -0.002776   0.056552   0.074974  -0.010658  -0.001920   0.001499
     6  C   -0.024975   0.037236  -0.093810   0.029477   0.030521   0.020396
     7  H    0.493887  -0.007310   0.003469   0.003745   0.000094  -0.000214
     8  H   -0.007310   0.538353   0.004003   0.000226   0.000017   0.000076
     9  C    0.003469   0.004003   6.260279   0.449540   0.428449   0.021176
    10  O    0.003745   0.000226   0.449540   8.010986  -0.048482   0.000346
    11  H    0.000094   0.000017   0.428449  -0.048482   0.611837   0.002269
    12  H   -0.000214   0.000076   0.021176   0.000346   0.002269   0.537006
    13  H    0.000060  -0.000239   0.004001   0.000013   0.000065  -0.007769
    14  C    0.005956   0.002245  -0.018903   0.001442   0.000497   0.003790
    15  H    0.000010   0.000471   0.000138   0.000000   0.000000   0.000005
    16  H    0.000009   0.000408   0.000103   0.000000   0.000000   0.000014
    17  C   -0.000163   0.001833  -0.001712   0.000029   0.000084  -0.000165
    18  H   -0.000001  -0.000130  -0.000067   0.000000   0.000000  -0.000001
    19  H    0.000004   0.000035   0.000121   0.000000   0.000000   0.000022
    20  H    0.000021   0.000357   0.000138   0.000000   0.000000   0.000003
              13         14         15         16         17         18
     1  C    0.006418  -0.035079   0.015067   0.003111   0.002808   0.004107
     2  C   -0.023445   0.019934   0.001312   0.000900   0.007791  -0.001130
     3  C   -0.010609  -0.279201   0.005810   0.015082  -0.037681   0.004346
     4  C    0.028705   0.192721  -0.066641   0.108962   0.113436  -0.008104
     5  C    0.073274  -0.863616  -0.116465  -0.117972  -0.066797   0.056727
     6  C    0.258092  -0.004339   0.107544  -0.066590   0.082644  -0.007131
     7  H    0.000060   0.005956   0.000010   0.000009  -0.000163  -0.000001
     8  H   -0.000239   0.002245   0.000471   0.000408   0.001833  -0.000130
     9  C    0.004001  -0.018903   0.000138   0.000103  -0.001712  -0.000067
    10  O    0.000013   0.001442   0.000000   0.000000   0.000029   0.000000
    11  H    0.000065   0.000497   0.000000   0.000000   0.000084   0.000000
    12  H   -0.007769   0.003790   0.000005   0.000014  -0.000165  -0.000001
    13  H    0.540829   0.007701   0.000587   0.000467   0.002556  -0.000135
    14  C    0.007701   6.102263   0.437163   0.443046   0.147680  -0.087104
    15  H    0.000587   0.437163   0.551722  -0.031439  -0.035449  -0.004593
    16  H    0.000467   0.443046  -0.031439   0.548977  -0.037772  -0.004221
    17  C    0.002556   0.147680  -0.035449  -0.037772   5.092684   0.415470
    18  H   -0.000135  -0.087104  -0.004593  -0.004221   0.415470   0.543919
    19  H    0.000363   0.006785  -0.007793   0.007709   0.411934  -0.026173
    20  H    0.000033   0.007625   0.007728  -0.008255   0.411746  -0.025577
              19         20
     1  C   -0.007877  -0.008095
     2  C    0.003754   0.003329
     3  C   -0.009190  -0.005135
     4  C   -0.002209   0.041055
     5  C   -0.069799  -0.068361
     6  C    0.043064  -0.004690
     7  H    0.000004   0.000021
     8  H    0.000035   0.000357
     9  C    0.000121   0.000138
    10  O    0.000000   0.000000
    11  H    0.000000   0.000000
    12  H    0.000022   0.000003
    13  H    0.000363   0.000033
    14  C    0.006785   0.007625
    15  H   -0.007793   0.007728
    16  H    0.007709  -0.008255
    17  C    0.411934   0.411746
    18  H   -0.026173  -0.025577
    19  H    0.542340  -0.029600
    20  H   -0.029600   0.540399
 Mulliken charges:
               1
     1  C   -0.952800
     2  C    0.762992
     3  C   -0.060013
     4  C   -0.306468
     5  C    0.461332
     6  C   -0.252776
     7  H    0.156739
     8  H    0.120765
     9  C   -0.121204
    10  O   -0.263291
    11  H    0.122725
    12  H    0.128663
    13  H    0.119033
    14  C   -0.090606
    15  H    0.134821
    16  H    0.137461
    17  C   -0.510957
    18  H    0.139798
    19  H    0.136511
    20  H    0.137278
 Sum of Mulliken charges =   0.00000
 Mulliken charges with hydrogens summed into heavy atoms:
               1
     1  C   -0.824137
     2  C    0.762992
     3  C    0.096726
     4  C   -0.185704
     5  C    0.461332
     6  C   -0.133743
     9  C    0.001522
    10  O   -0.263291
    14  C    0.181676
    17  C   -0.097371
 Electronic spatial extent (au):  <R**2>=           1848.1634
 Charge=              0.0000 electrons
 Dipole moment (field-independent basis, Debye):
    X=              3.6470    Y=              1.8442    Z=             -0.2313  Tot=              4.0933
 Quadrupole moment (field-independent basis, Debye-Ang):
   XX=            -68.8027   YY=            -54.9896   ZZ=            -62.9681
   XY=             -7.6813   XZ=             -0.2910   YZ=              0.9890
 Traceless Quadrupole moment (field-independent basis, Debye-Ang):
   XX=             -6.5492   YY=              7.2638   ZZ=             -0.7146
   XY=             -7.6813   XZ=             -0.2910   YZ=              0.9890
 Octapole moment (field-independent basis, Debye-Ang**2):
  XXX=             61.7803  YYY=              0.0413  ZZZ=              2.2826  XYY=             -1.5965
  XXY=             28.7178  XXZ=             -5.5635  XZZ=             -3.8976  YZZ=             -1.4696
  YYZ=             -0.4289  XYZ=             -1.9166
 Hexadecapole moment (field-independent basis, Debye-Ang**3):
 XXXX=          -2217.9870 YYYY=           -342.0185 ZZZZ=           -149.4109 XXXY=           -103.1558
 XXXZ=              1.9659 YYYX=              0.6455 YYYZ=              2.7980 ZZZX=             -4.9985
 ZZZY=              0.0997 XXYY=           -383.9905 XXZZ=           -358.5245 YYZZ=            -90.8187
 XXYZ=              8.4534 YYXZ=             -3.6875 ZZXY=              2.1798
 N-N= 4.725815247780D+02 E-N=-1.931824446544D+03  KE= 4.223884562047D+02
 There are a total of      164622 grid points.
 ElSum from          density=       72.0001554791
 ElSum from atomic densities=       71.9997233339

 Hirshfeld populations at iteration   1 (CX, CA, CB, DipXYZ):
               1          2          3          4          5          6
     1  C    0.000000   3.018809   3.018809  -0.023193   0.058874   0.005298
     2  C    0.000000   3.010266   3.010266  -0.051011   0.003443   0.005857
     3  C    0.000000   3.013082   3.013082  -0.031777  -0.052040   0.000546
     4  C    0.000000   3.021318   3.021318   0.032637  -0.059638  -0.004315
     5  C    0.000000   2.990554   2.990554   0.073261  -0.008362   0.000244
     6  C    0.000000   3.023715   3.023715   0.040170   0.050097   0.000739
     7  H    0.000001   0.473774   0.473774  -0.063172  -0.144987  -0.000022
     8  H    0.000001   0.474960   0.474960   0.063120  -0.148818  -0.014579
     9  C    0.000000   2.933654   2.933654   0.010194   0.051098   0.001577
    10  O    0.000010   4.134183   4.134183   0.104340   0.084295  -0.007892
    11  H    0.000002   0.473140   0.473140  -0.069298   0.133227   0.015014
    12  H    0.000001   0.475895   0.475895  -0.059758   0.148044   0.014852
    13  H    0.000001   0.475981   0.475981   0.087876   0.135488  -0.002507
    14  C    0.000000   3.025834   3.025834   0.006451  -0.001920   0.010875
    15  H    0.000000   0.480465   0.480465   0.059101   0.121577  -0.066323
    16  H    0.000001   0.480145   0.480145   0.038109  -0.122799  -0.079486
    17  C    0.000000   3.049079   3.049079   0.007271  -0.000358  -0.014221
    18  H    0.000000   0.481288   0.481288   0.147657  -0.008568  -0.023755
    19  H    0.000000   0.482127   0.482127  -0.024789   0.119124   0.081737
    20  H    0.000000   0.481810   0.481810  -0.042035  -0.124701   0.066541
       Tot   0.000020  36.000078  36.000078   0.305153   0.233076  -0.009821

 Dip from Atomic Chgs              1.129708   0.492601  -0.081417
         Total Dipole              1.434861   0.725677  -0.091237

 Hirshfeld charges, spin densities, dipoles, and CM5 charges using IRadAn=      4:
              Q-H        S-H        Dx         Dy         Dz        Q-CM5   
     1  C   -0.037618   0.000000  -0.023193   0.058874   0.005298  -0.092219
     2  C   -0.020532   0.000000  -0.051011   0.003443   0.005857  -0.028629
     3  C   -0.026164   0.000000  -0.031777  -0.052040   0.000546  -0.079659
     4  C   -0.042636   0.000000   0.032637  -0.059638  -0.004315  -0.098068
     5  C    0.018891   0.000000   0.073261  -0.008362   0.000244   0.002825
     6  C   -0.047431   0.000000   0.040170   0.050097   0.000739  -0.102899
     7  H    0.052452   0.000000  -0.063172  -0.144987  -0.000022   0.114023
     8  H    0.050081   0.000000   0.063120  -0.148818  -0.014579   0.108631
     9  C    0.132692   0.000000   0.010194   0.051098   0.001577   0.113259
    10  O   -0.268366   0.000000   0.104340   0.084295  -0.007892  -0.318740
    11  H    0.053719   0.000000  -0.069298   0.133227   0.015014   0.119523
    12  H    0.048211   0.000000  -0.059758   0.148044   0.014852   0.106688
    13  H    0.048039   0.000000   0.087876   0.135488  -0.002507   0.106573
    14  C   -0.051667   0.000000   0.006451  -0.001920   0.010875  -0.164159
    15  H    0.039069   0.000000   0.059101   0.121577  -0.066323   0.097424
    16  H    0.039710   0.000000   0.038109  -0.122799  -0.079486   0.098054
    17  C   -0.098157   0.000000   0.007271  -0.000358  -0.014221  -0.256038
    18  H    0.037424   0.000000   0.147657  -0.008568  -0.023755   0.091289
    19  H    0.035746   0.000000  -0.024789   0.119124   0.081737   0.090689
    20  H    0.036381   0.000000  -0.042035  -0.124701   0.066541   0.091280
       Tot  -0.000155   0.000000   0.305153   0.233076  -0.009821  -0.000155
 Hirshfeld charges with hydrogens summed into heavy atoms:
              Q-H       Q-CM5   
     1  C    0.010593   0.014469
     2  C   -0.020532  -0.028629
     3  C    0.026288   0.034364
     4  C    0.007445   0.010562
     5  C    0.018891   0.002825
     6  C    0.000608   0.003673
     9  C    0.186411   0.232782
    10  O   -0.268366  -0.318740
    14  C    0.027112   0.031319
    17  C    0.011394   0.017219
 
 EQQ= 0.000000000000E+00 EQD= 0.000000000000E+00 EDD= 0.704856537379E-02
 EQQ+QD+DD= 0.704856537379E-02
 
          MBS Condensed to atoms (all electrons):
               1          2          3          4          5          6
     1  C    4.833054   0.493042  -0.031432  -0.011046  -0.029041   0.505056
     2  C    0.493042   4.852171   0.494260  -0.029244  -0.011705  -0.029526
     3  C   -0.031432   0.494260   4.816624   0.506806  -0.028737  -0.011221
     4  C   -0.011046  -0.029244   0.506806   4.842245   0.498497  -0.031070
     5  C   -0.029041  -0.011705  -0.028737   0.498497   4.797276   0.501962
     6  C    0.505056  -0.029526  -0.011221  -0.031070   0.501962   4.844819
     7  H    0.001505  -0.026325   0.387736  -0.024577   0.001419   0.000042
     8  H    0.000046   0.001463  -0.025957   0.392468  -0.027080   0.001498
     9  C   -0.024159   0.379610  -0.023624   0.000775   0.000009   0.000744
    10  O    0.000281  -0.026664  -0.002261   0.000007   0.000000  -0.000001
    11  H   -0.000617  -0.035337   0.000966  -0.000015  -0.000001  -0.000030
    12  H    0.390673  -0.027108   0.001507   0.000047   0.001467  -0.025496
    13  H   -0.025927   0.001453   0.000044   0.001502  -0.026887   0.392142
    14  C    0.000847   0.000028   0.000847  -0.027183   0.376453  -0.027176
    15  H    0.000030   0.000001  -0.000029   0.001250  -0.023128  -0.003799
    16  H   -0.000029   0.000001   0.000028  -0.003722  -0.023086   0.001234
    17  C   -0.000009   0.000001  -0.000009  -0.000902  -0.024128  -0.000886
    18  H    0.000000   0.000000   0.000000   0.000008   0.001615   0.000008
    19  H   -0.000017   0.000000  -0.000001   0.000014  -0.002265   0.000615
    20  H   -0.000001   0.000000  -0.000016   0.000593  -0.002090   0.000014
               7          8          9         10         11         12
     1  C    0.001505   0.000046  -0.024159   0.000281  -0.000617   0.390673
     2  C   -0.026325   0.001463   0.379610  -0.026664  -0.035337  -0.027108
     3  C    0.387736  -0.025957  -0.023624  -0.002261   0.000966   0.001507
     4  C   -0.024577   0.392468   0.000775   0.000007  -0.000015   0.000047
     5  C    0.001419  -0.027080   0.000009   0.000000  -0.000001   0.001467
     6  C    0.000042   0.001498   0.000744  -0.000001  -0.000030  -0.025496
     7  H    0.524527  -0.003581  -0.003741   0.003082   0.000130  -0.000040
     8  H   -0.003581   0.551050  -0.000016   0.000000   0.000000   0.000003
     9  C   -0.003741  -0.000016   4.654006   0.440035   0.363015  -0.003554
    10  O    0.003082   0.000000   0.440035   8.030122  -0.024720   0.000014
    11  H    0.000130   0.000000   0.363015  -0.024720   0.581761   0.001737
    12  H   -0.000040   0.000003  -0.003554   0.000014   0.001737   0.551614
    13  H    0.000003  -0.000042  -0.000016   0.000000   0.000001  -0.003639
    14  C   -0.000017  -0.003592   0.000000   0.000000   0.000000  -0.000018
    15  H    0.000001   0.000044   0.000000   0.000000   0.000000  -0.000001
    16  H   -0.000001   0.001069   0.000000   0.000000   0.000000   0.000001
    17  C    0.000000   0.000068   0.000000   0.000000   0.000000   0.000000
    18  H    0.000000  -0.000014   0.000000   0.000000   0.000000   0.000000
    19  H    0.000000   0.000009   0.000000   0.000000   0.000000   0.000001
    20  H    0.000001   0.000186   0.000000   0.000000   0.000000   0.000000
              13         14         15         16         17         18
     1  C   -0.025927   0.000847   0.000030  -0.000029  -0.000009   0.000000
     2  C    0.001453   0.000028   0.000001   0.000001   0.000001   0.000000
     3  C    0.000044   0.000847  -0.000029   0.000028  -0.000009   0.000000
     4  C    0.001502  -0.027183   0.001250  -0.003722  -0.000902   0.000008
     5  C   -0.026887   0.376453  -0.023128  -0.023086  -0.024128   0.001615
     6  C    0.392142  -0.027176  -0.003799   0.001234  -0.000886   0.000008
     7  H    0.000003  -0.000017   0.000001  -0.000001   0.000000   0.000000
     8  H   -0.000042  -0.003592   0.000044   0.001069   0.000068  -0.000014
     9  C   -0.000016   0.000000   0.000000   0.000000   0.000000   0.000000
    10  O    0.000000   0.000000   0.000000   0.000000   0.000000   0.000000
    11  H    0.000001   0.000000   0.000000   0.000000   0.000000   0.000000
    12  H   -0.003639  -0.000018  -0.000001   0.000001   0.000000   0.000000
    13  H    0.553340  -0.003632   0.001094   0.000045   0.000071  -0.000015
    14  C   -0.003632   4.787964   0.382367   0.382375   0.357587  -0.020949
    15  H    0.001094   0.382367   0.594889  -0.024267  -0.022848  -0.002487
    16  H    0.000045   0.382375  -0.024267   0.593758  -0.022833  -0.002228
    17  C    0.000071   0.357587  -0.022848  -0.022833   4.837242   0.380024
    18  H   -0.000015  -0.020949  -0.002487  -0.002228   0.380024   0.594622
    19  H    0.000178  -0.023278  -0.002514   0.002365   0.382712  -0.022595
    20  H    0.000008  -0.023200   0.002361  -0.002772   0.382889  -0.022602
              19         20
     1  C   -0.000017  -0.000001
     2  C    0.000000   0.000000
     3  C   -0.000001  -0.000016
     4  C    0.000014   0.000593
     5  C   -0.002265  -0.002090
     6  C    0.000615   0.000014
     7  H    0.000000   0.000001
     8  H    0.000009   0.000186
     9  C    0.000000   0.000000
    10  O    0.000000   0.000000
    11  H    0.000000   0.000000
    12  H    0.000001   0.000000
    13  H    0.000178   0.000008
    14  C   -0.023278  -0.023200
    15  H   -0.002514   0.002361
    16  H    0.002365  -0.002772
    17  C    0.382712   0.382889
    18  H   -0.022595  -0.022602
    19  H    0.591623  -0.023091
    20  H   -0.023091   0.590850
 MBS Mulliken charges:
               1
     1  C   -0.102258
     2  C   -0.036121
     3  C   -0.085530
     4  C   -0.116454
     5  C    0.019450
     6  C   -0.118928
     7  H    0.139838
     8  H    0.112380
     9  C    0.216916
    10  O   -0.419896
    11  H    0.113111
    12  H    0.112792
    13  H    0.110277
    14  C   -0.159423
    15  H    0.097035
    16  H    0.098063
    17  C   -0.268979
    18  H    0.094611
    19  H    0.096243
    20  H    0.096872
 Sum of MBS Mulliken charges =   0.00000
 MBS Mulliken charges with hydrogens summed into heavy atoms:
               1
     1  C    0.010535
     2  C   -0.036121
     3  C    0.054308
     4  C   -0.004074
     5  C    0.019450
     6  C   -0.008652
     9  C    0.330027
    10  O   -0.419896
    14  C    0.035676
    17  C    0.018747
 Breneman (CHELPG) radii used.
 Generate Potential Derived Charges using the Breneman model, NDens= 1.
 Grid spacing= 0.300 Box extension= 2.800
 NStep X,Y,Z=   48     35     29   Total possible points=       48720
 Number of Points to Fit=   13386

 **********************************************************************

            Electrostatic Properties Using The SCF Density

 **********************************************************************

       Atomic Center    1 is at  -0.686077  1.388704 -0.030106
       Atomic Center    2 is at  -1.481321  0.235262  0.002785
       Atomic Center    3 is at  -0.889620 -1.027876 -0.132469
       Atomic Center    4 is at   0.497325 -1.137573 -0.300611
       Atomic Center    5 is at   1.292569  0.015868 -0.333500
       Atomic Center    6 is at   0.700868  1.279007 -0.198247
       Atomic Center    7 is at  -1.496806 -1.908555 -0.107354
       Atomic Center    8 is at   0.949102 -2.102007 -0.403879
       Atomic Center    9 is at  -3.005437  0.355808  0.187558
       Atomic Center   10 is at  -3.719533 -0.679935  0.217090
       Atomic Center   11 is at  -3.457213  1.320242  0.290827
       Atomic Center   12 is at  -1.137855  2.353138  0.073161
       Atomic Center   13 is at   1.308054  2.159685 -0.223358
       Atomic Center   14 is at   2.816684 -0.104678 -0.518272
       Atomic Center   15 is at   3.185853  0.768069 -1.015190
       Atomic Center   16 is at   3.037211 -0.970474 -1.107054
       Atomic Center   17 is at   3.492079 -0.235226  0.859552
       Atomic Center   18 is at   4.552544 -0.299398  0.732291
       Atomic Center   19 is at   3.255544  0.621517  1.455323
       Atomic Center   20 is at   3.137416 -1.118504  1.348362
   13386 points will be used for fitting atomic charges
 Fitting point charges to electrostatic potential
 Charges from ESP fit, RMS=   0.00396 RRMS=   0.26140:
 ESP charges:
               1
     1  C   -0.167496
     2  C    0.001803
     3  C   -0.010340
     4  C   -0.205763
     5  C    0.087187
     6  C   -0.119574
     7  H    0.089545
     8  H    0.133448
     9  C    0.378640
    10  O   -0.477834
    11  H    0.032383
    12  H    0.099272
    13  H    0.119192
    14  C    0.023662
    15  H   -0.010932
    16  H   -0.002430
    17  C    0.160768
    18  H   -0.030509
    19  H   -0.054244
    20  H   -0.046778
 Sum of ESP charges =   0.00000
 ESP charges with hydrogens summed into heavy atoms:
               1
     1  C   -0.068224
     2  C    0.001803
     3  C    0.079205
     4  C   -0.072314
     5  C    0.087187
     6  C   -0.000383
     9  C    0.411022
    10  O   -0.477834
    14  C    0.010300
    17  C    0.029238
 Charge=   0.00000 Dipole=     3.5283     1.8461    -0.3262 Tot=     3.9955
 -----------------------------------------------------------------

              Electrostatic Properties (Atomic Units)

 -----------------------------------------------------------------
    Center     Electric         -------- Electric Field --------
               Potential          X             Y             Z
 -----------------------------------------------------------------
    1 Atom    -14.754256
    2 Atom    -14.750904
    3 Atom    -14.760380
    4 Atom    -14.762636
    5 Atom    -14.748521
    6 Atom    -14.761337
    7 Atom     -1.102708
    8 Atom     -1.096527
    9 Atom    -14.681768
   10 Atom    -22.377190
   11 Atom     -1.082195
   12 Atom     -1.089564
   13 Atom     -1.094749
   14 Atom    -14.763222
   15 Atom     -1.115086
   16 Atom     -1.115015
   17 Atom    -14.781674
   18 Atom     -1.119608
   19 Atom     -1.120073
   20 Atom     -1.120131
 -----------------------------------------------------------------
 ******************************Gaussian NBO Version 3.1******************************
             N A T U R A L   A T O M I C   O R B I T A L   A N D
          N A T U R A L   B O N D   O R B I T A L   A N A L Y S I S
 ******************************Gaussian NBO Version 3.1******************************
       /RESON  / : Allow strongly delocalized NBO set

 Analyzing the SCF density

 Job title: Title Card Required                                             

 Storage needed:    236700 in NPA ( 536868712 available)


 NATURAL POPULATIONS:  Natural atomic orbital occupancies 
                                                          
   NAO  Atom  No  lang   Type(AO)    Occupancy      Energy
 ----------------------------------------------------------
     1    C    1  S      Cor( 1S)     1.99910     -10.04810
     2    C    1  S      Val( 2S)     0.94356      -0.17274
     3    C    1  S      Ryd( 4S)     0.00116       0.84912
     4    C    1  S      Ryd( 3S)     0.00014       0.81665
     5    C    1  S      Ryd( 5S)     0.00001      22.85367
     6    C    1  px     Val( 2p)     1.08157      -0.06366
     7    C    1  px     Ryd( 4p)     0.00412       0.83573
     8    C    1  px     Ryd( 3p)     0.00036       0.43183
     9    C    1  px     Ryd( 5p)     0.00016       3.15655
    10    C    1  py     Val( 2p)     1.15155      -0.06639
    11    C    1  py     Ryd( 4p)     0.00593       0.95877
    12    C    1  py     Ryd( 3p)     0.00036       0.31938
    13    C    1  py     Ryd( 5p)     0.00008       3.19537
    14    C    1  pz     Val( 2p)     0.96944      -0.12395
    15    C    1  pz     Ryd( 4p)     0.00110       0.49550
    16    C    1  pz     Ryd( 3p)     0.00038       0.31803
    17    C    1  pz     Ryd( 5p)     0.00002       2.68880
    18    C    1  dxy    Ryd( 3d)     0.00075       2.50227
    19    C    1  dxz    Ryd( 3d)     0.00055       1.67406
    20    C    1  dyz    Ryd( 3d)     0.00037       1.63144
    21    C    1  dx2y2  Ryd( 3d)     0.00069       2.53149
    22    C    1  dz2    Ryd( 3d)     0.00040       2.02607

    23    C    2  S      Cor( 1S)     1.99897     -10.06041
    24    C    2  S      Val( 2S)     0.92880      -0.17267
    25    C    2  S      Ryd( 3S)     0.00155       0.74966
    26    C    2  S      Ryd( 4S)     0.00010       1.59020
    27    C    2  S      Ryd( 5S)     0.00001      22.31508
    28    C    2  px     Val( 2p)     1.07386      -0.08554
    29    C    2  px     Ryd( 4p)     0.00599       1.25467
    30    C    2  px     Ryd( 3p)     0.00015       0.81341
    31    C    2  px     Ryd( 5p)     0.00011       2.95980
    32    C    2  py     Val( 2p)     1.09529      -0.07181
    33    C    2  py     Ryd( 4p)     0.00501       1.15301
    34    C    2  py     Ryd( 3p)     0.00029       0.68671
    35    C    2  py     Ryd( 5p)     0.00009       3.01685
    36    C    2  pz     Val( 2p)     1.05053      -0.12176
    37    C    2  pz     Ryd( 3p)     0.00086       0.59484
    38    C    2  pz     Ryd( 4p)     0.00020       0.66840
    39    C    2  pz     Ryd( 5p)     0.00002       2.38989
    40    C    2  dxy    Ryd( 3d)     0.00070       2.57048
    41    C    2  dxz    Ryd( 3d)     0.00037       1.62557
    42    C    2  dyz    Ryd( 3d)     0.00054       1.67415
    43    C    2  dx2y2  Ryd( 3d)     0.00084       2.46900
    44    C    2  dz2    Ryd( 3d)     0.00039       2.03236

    45    C    3  S      Cor( 1S)     1.99909     -10.04206
    46    C    3  S      Val( 2S)     0.94821      -0.16690
    47    C    3  S      Ryd( 3S)     0.00141       0.81825
    48    C    3  S      Ryd( 4S)     0.00012       0.98905
    49    C    3  S      Ryd( 5S)     0.00001      22.79940
    50    C    3  px     Val( 2p)     1.09548      -0.05526
    51    C    3  px     Ryd( 4p)     0.00540       0.93781
    52    C    3  px     Ryd( 3p)     0.00044       0.49607
    53    C    3  px     Ryd( 5p)     0.00014       3.15176
    54    C    3  py     Val( 2p)     1.14629      -0.05991
    55    C    3  py     Ryd( 4p)     0.00590       0.93157
    56    C    3  py     Ryd( 3p)     0.00040       0.33152
    57    C    3  py     Ryd( 5p)     0.00011       3.20433
    58    C    3  pz     Val( 2p)     0.93854      -0.11492
    59    C    3  pz     Ryd( 4p)     0.00086       0.51727
    60    C    3  pz     Ryd( 3p)     0.00037       0.32519
    61    C    3  pz     Ryd( 5p)     0.00001       2.69373
    62    C    3  dxy    Ryd( 3d)     0.00084       2.49446
    63    C    3  dxz    Ryd( 3d)     0.00050       1.67371
    64    C    3  dyz    Ryd( 3d)     0.00040       1.64806
    65    C    3  dx2y2  Ryd( 3d)     0.00066       2.56431
    66    C    3  dz2    Ryd( 3d)     0.00040       2.03673

    67    C    4  S      Cor( 1S)     1.99905     -10.03925
    68    C    4  S      Val( 2S)     0.94466      -0.16653
    69    C    4  S      Ryd( 3S)     0.00120       0.86992
    70    C    4  S      Ryd( 4S)     0.00017       0.99356
    71    C    4  S      Ryd( 5S)     0.00001      22.76287
    72    C    4  px     Val( 2p)     1.08364      -0.06101
    73    C    4  px     Ryd( 4p)     0.00456       0.86841
    74    C    4  px     Ryd( 3p)     0.00038       0.43154
    75    C    4  px     Ryd( 5p)     0.00013       3.17350
    76    C    4  py     Val( 2p)     1.15691      -0.06508
    77    C    4  py     Ryd( 4p)     0.00576       0.96411
    78    C    4  py     Ryd( 3p)     0.00029       0.33232
    79    C    4  py     Ryd( 5p)     0.00006       3.19088
    80    C    4  pz     Val( 2p)     1.00626      -0.12009
    81    C    4  pz     Ryd( 4p)     0.00113       0.50959
    82    C    4  pz     Ryd( 3p)     0.00030       0.33487
    83    C    4  pz     Ryd( 5p)     0.00001       2.71270
    84    C    4  dxy    Ryd( 3d)     0.00076       2.50378
    85    C    4  dxz    Ryd( 3d)     0.00047       1.68016
    86    C    4  dyz    Ryd( 3d)     0.00042       1.64749
    87    C    4  dx2y2  Ryd( 3d)     0.00073       2.53297
    88    C    4  dz2    Ryd( 3d)     0.00038       2.02659

    89    C    5  S      Cor( 1S)     1.99905     -10.05801
    90    C    5  S      Val( 2S)     0.90042      -0.16033
    91    C    5  S      Ryd( 3S)     0.00137       0.85596
    92    C    5  S      Ryd( 4S)     0.00036       0.96260
    93    C    5  S      Ryd( 5S)     0.00001      22.96342
    94    C    5  px     Val( 2p)     1.04756      -0.06302
    95    C    5  px     Ryd( 4p)     0.00676       1.15263
    96    C    5  px     Ryd( 3p)     0.00049       0.99330
    97    C    5  px     Ryd( 5p)     0.00009       2.96317
    98    C    5  py     Val( 2p)     1.07448      -0.06070
    99    C    5  py     Ryd( 3p)     0.00334       0.86495
   100    C    5  py     Ryd( 4p)     0.00055       0.90210
   101    C    5  py     Ryd( 5p)     0.00008       2.93012
   102    C    5  pz     Val( 2p)     0.94906      -0.11180
   103    C    5  pz     Ryd( 3p)     0.00230       0.60611
   104    C    5  pz     Ryd( 4p)     0.00026       0.83541
   105    C    5  pz     Ryd( 5p)     0.00001       2.29214
   106    C    5  dxy    Ryd( 3d)     0.00086       2.55724
   107    C    5  dxz    Ryd( 3d)     0.00070       1.68492
   108    C    5  dyz    Ryd( 3d)     0.00058       1.67914
   109    C    5  dx2y2  Ryd( 3d)     0.00070       2.43841
   110    C    5  dz2    Ryd( 3d)     0.00037       2.04046

   111    C    6  S      Cor( 1S)     1.99906     -10.04026
   112    C    6  S      Val( 2S)     0.94281      -0.16735
   113    C    6  S      Ryd( 3S)     0.00134       0.84089
   114    C    6  S      Ryd( 4S)     0.00016       0.84798
   115    C    6  S      Ryd( 5S)     0.00001      22.91187
   116    C    6  px     Val( 2p)     1.09696      -0.06395
   117    C    6  px     Ryd( 4p)     0.00499       0.90618
   118    C    6  px     Ryd( 3p)     0.00037       0.41079
   119    C    6  px     Ryd( 5p)     0.00011       3.17961
   120    C    6  py     Val( 2p)     1.14463      -0.06680
   121    C    6  py     Ryd( 4p)     0.00572       0.90940
   122    C    6  py     Ryd( 3p)     0.00029       0.34810
   123    C    6  py     Ryd( 5p)     0.00008       3.17696
   124    C    6  pz     Val( 2p)     1.01281      -0.12175
   125    C    6  pz     Ryd( 4p)     0.00121       0.49949
   126    C    6  pz     Ryd( 3p)     0.00030       0.31997
   127    C    6  pz     Ryd( 5p)     0.00002       2.72059
   128    C    6  dxy    Ryd( 3d)     0.00081       2.47953
   129    C    6  dxz    Ryd( 3d)     0.00041       1.67067
   130    C    6  dyz    Ryd( 3d)     0.00043       1.65555
   131    C    6  dx2y2  Ryd( 3d)     0.00068       2.55032
   132    C    6  dz2    Ryd( 3d)     0.00039       2.02492

   133    H    7  S      Val( 1S)     0.76982       0.06490
   134    H    7  S      Ryd( 2S)     0.00107       1.08975
   135    H    7  S      Ryd( 3S)     0.00019       1.63027
   136    H    7  px     Ryd( 2p)     0.00023       2.26142
   137    H    7  py     Ryd( 2p)     0.00033       2.51872
   138    H    7  pz     Ryd( 2p)     0.00015       1.61903

   139    H    8  S      Val( 1S)     0.79143       0.04520
   140    H    8  S      Ryd( 2S)     0.00083       0.95396
   141    H    8  S      Ryd( 3S)     0.00017       1.76016
   142    H    8  px     Ryd( 2p)     0.00016       2.13321
   143    H    8  py     Ryd( 2p)     0.00039       2.60457
   144    H    8  pz     Ryd( 2p)     0.00018       1.61871

   145    C    9  S      Cor( 1S)     1.99941     -10.15355
   146    C    9  S      Val( 2S)     0.95232      -0.23515
   147    C    9  S      Ryd( 3S)     0.00799       0.75804
   148    C    9  S      Ryd( 4S)     0.00017       1.08290
   149    C    9  S      Ryd( 5S)     0.00003      22.55787
   150    C    9  px     Val( 2p)     0.93224      -0.05238
   151    C    9  px     Ryd( 4p)     0.00699       0.93523
   152    C    9  px     Ryd( 3p)     0.00077       0.49982
   153    C    9  px     Ryd( 5p)     0.00013       2.37794
   154    C    9  py     Val( 2p)     0.94350      -0.05434
   155    C    9  py     Ryd( 4p)     0.00847       1.14592
   156    C    9  py     Ryd( 3p)     0.00034       0.63298
   157    C    9  py     Ryd( 5p)     0.00012       2.40405
   158    C    9  pz     Val( 2p)     0.72352      -0.13321
   159    C    9  pz     Ryd( 4p)     0.00115       0.64596
   160    C    9  pz     Ryd( 3p)     0.00053       0.36853
   161    C    9  pz     Ryd( 5p)     0.00004       2.34654
   162    C    9  dxy    Ryd( 3d)     0.00198       2.42305
   163    C    9  dxz    Ryd( 3d)     0.00136       1.57230
   164    C    9  dyz    Ryd( 3d)     0.00171       1.57610
   165    C    9  dx2y2  Ryd( 3d)     0.00340       2.34220
   166    C    9  dz2    Ryd( 3d)     0.00054       1.92048

   167    O   10  S      Cor( 1S)     1.99981     -18.88654
   168    O   10  S      Val( 2S)     1.73289      -0.90424
   169    O   10  S      Ryd( 3S)     0.00304       0.88021
   170    O   10  S      Ryd( 4S)     0.00016       1.43342
   171    O   10  S      Ryd( 5S)     0.00000      49.66953
   172    O   10  px     Val( 2p)     1.78375      -0.27858
   173    O   10  px     Ryd( 3p)     0.00302       0.67127
   174    O   10  px     Ryd( 4p)     0.00004       0.93484
   175    O   10  px     Ryd( 5p)     0.00004       5.09242
   176    O   10  py     Val( 2p)     1.65134      -0.28657
   177    O   10  py     Ryd( 3p)     0.00157       0.61869
   178    O   10  py     Ryd( 4p)     0.00012       0.85089
   179    O   10  py     Ryd( 5p)     0.00006       5.21084
   180    O   10  pz     Val( 2p)     1.37037      -0.25434
   181    O   10  pz     Ryd( 3p)     0.00059       0.51260
   182    O   10  pz     Ryd( 4p)     0.00002       0.90428
   183    O   10  pz     Ryd( 5p)     0.00002       4.93771
   184    O   10  dxy    Ryd( 3d)     0.00121       3.47719
   185    O   10  dxz    Ryd( 3d)     0.00046       2.91051
   186    O   10  dyz    Ryd( 3d)     0.00094       2.99043
   187    O   10  dx2y2  Ryd( 3d)     0.00113       3.19927
   188    O   10  dz2    Ryd( 3d)     0.00035       3.06036

   189    H   11  S      Val( 1S)     0.86632      -0.01124
   190    H   11  S      Ryd( 2S)     0.00226       0.47470
   191    H   11  S      Ryd( 3S)     0.00017       2.14576
   192    H   11  px     Ryd( 2p)     0.00028       2.07289
   193    H   11  py     Ryd( 2p)     0.00050       2.54473
   194    H   11  pz     Ryd( 2p)     0.00007       1.58605

   195    H   12  S      Val( 1S)     0.79289       0.03859
   196    H   12  S      Ryd( 2S)     0.00089       1.08373
   197    H   12  S      Ryd( 3S)     0.00021       1.59815
   198    H   12  px     Ryd( 2p)     0.00016       2.11870
   199    H   12  py     Ryd( 2p)     0.00038       2.59563
   200    H   12  pz     Ryd( 2p)     0.00019       1.60590

   201    H   13  S      Val( 1S)     0.79232       0.04218
   202    H   13  S      Ryd( 2S)     0.00089       0.92698
   203    H   13  S      Ryd( 3S)     0.00017       1.78077
   204    H   13  px     Ryd( 2p)     0.00021       2.22990
   205    H   13  py     Ryd( 2p)     0.00035       2.50286
   206    H   13  pz     Ryd( 2p)     0.00019       1.60959

   207    C   14  S      Cor( 1S)     1.99924     -10.03862
   208    C   14  S      Val( 2S)     1.01907      -0.22707
   209    C   14  S      Ryd( 3S)     0.00137       0.72675
   210    C   14  S      Ryd( 4S)     0.00027       1.02717
   211    C   14  S      Ryd( 5S)     0.00000      23.24392
   212    C   14  px     Val( 2p)     1.04370      -0.08768
   213    C   14  px     Ryd( 4p)     0.00162       0.51182
   214    C   14  px     Ryd( 3p)     0.00052       0.26142
   215    C   14  px     Ryd( 5p)     0.00010       3.12379
   216    C   14  py     Val( 2p)     1.20895      -0.09205
   217    C   14  py     Ryd( 4p)     0.00553       0.67559
   218    C   14  py     Ryd( 3p)     0.00024       0.23475
   219    C   14  py     Ryd( 5p)     0.00004       3.19323
   220    C   14  pz     Val( 2p)     1.10460      -0.09811
   221    C   14  pz     Ryd( 4p)     0.00072       0.50964
   222    C   14  pz     Ryd( 3p)     0.00023       0.28555
   223    C   14  pz     Ryd( 5p)     0.00014       3.08665
   224    C   14  dxy    Ryd( 3d)     0.00038       2.00270
   225    C   14  dxz    Ryd( 3d)     0.00058       1.99212
   226    C   14  dyz    Ryd( 3d)     0.00098       2.18648
   227    C   14  dx2y2  Ryd( 3d)     0.00096       2.24891
   228    C   14  dz2    Ryd( 3d)     0.00051       2.04174

   229    H   15  S      Val( 1S)     0.79856       0.03573
   230    H   15  S      Ryd( 2S)     0.00124       0.70271
   231    H   15  S      Ryd( 3S)     0.00010       2.13643
   232    H   15  px     Ryd( 2p)     0.00018       1.88903
   233    H   15  py     Ryd( 2p)     0.00023       2.41308
   234    H   15  pz     Ryd( 2p)     0.00017       2.01619

   235    H   16  S      Val( 1S)     0.79762       0.03629
   236    H   16  S      Ryd( 2S)     0.00124       0.70544
   237    H   16  S      Ryd( 3S)     0.00010       2.13495
   238    H   16  px     Ryd( 2p)     0.00016       1.81204
   239    H   16  py     Ryd( 2p)     0.00023       2.40921
   240    H   16  pz     Ryd( 2p)     0.00019       2.09904

   241    C   17  S      Cor( 1S)     1.99934     -10.02010
   242    C   17  S      Val( 2S)     1.07915      -0.24353
   243    C   17  S      Ryd( 3S)     0.00080       0.61358
   244    C   17  S      Ryd( 4S)     0.00035       0.87843
   245    C   17  S      Ryd( 5S)     0.00000      23.31989
   246    C   17  px     Val( 2p)     1.17799      -0.09185
   247    C   17  px     Ryd( 4p)     0.00175       0.58197
   248    C   17  px     Ryd( 3p)     0.00022       0.19168
   249    C   17  px     Ryd( 5p)     0.00003       3.16368
   250    C   17  py     Val( 2p)     1.20844      -0.09297
   251    C   17  py     Ryd( 4p)     0.00066       0.51471
   252    C   17  py     Ryd( 3p)     0.00012       0.19682
   253    C   17  py     Ryd( 5p)     0.00001       3.15907
   254    C   17  pz     Val( 2p)     1.08344      -0.08956
   255    C   17  pz     Ryd( 4p)     0.00077       0.49043
   256    C   17  pz     Ryd( 3p)     0.00029       0.18511
   257    C   17  pz     Ryd( 5p)     0.00011       3.10975
   258    C   17  dxy    Ryd( 3d)     0.00030       1.94176
   259    C   17  dxz    Ryd( 3d)     0.00037       2.01859
   260    C   17  dyz    Ryd( 3d)     0.00090       2.20011
   261    C   17  dx2y2  Ryd( 3d)     0.00096       2.25982
   262    C   17  dz2    Ryd( 3d)     0.00050       2.07964

   263    H   18  S      Val( 1S)     0.80124       0.03959
   264    H   18  S      Ryd( 2S)     0.00074       0.65122
   265    H   18  S      Ryd( 3S)     0.00010       2.06466
   266    H   18  px     Ryd( 2p)     0.00030       2.70940
   267    H   18  py     Ryd( 2p)     0.00008       1.81725
   268    H   18  pz     Ryd( 2p)     0.00016       1.72217

   269    H   19  S      Val( 1S)     0.80258       0.03948
   270    H   19  S      Ryd( 2S)     0.00092       0.73593
   271    H   19  S      Ryd( 3S)     0.00011       2.03079
   272    H   19  px     Ryd( 2p)     0.00012       1.82077
   273    H   19  py     Ryd( 2p)     0.00023       2.38541
   274    H   19  pz     Ryd( 2p)     0.00018       2.03655

   275    H   20  S      Val( 1S)     0.80208       0.03992
   276    H   20  S      Ryd( 2S)     0.00091       0.73604
   277    H   20  S      Ryd( 3S)     0.00011       2.02944
   278    H   20  px     Ryd( 2p)     0.00014       1.87409
   279    H   20  py     Ryd( 2p)     0.00023       2.44088
   280    H   20  pz     Ryd( 2p)     0.00016       1.93344

 WARNING:  1 low occupancy (<1.9990e) core orbital  found on  C    2

 WARNING:  Population inversion found on atom  C    1
           Population inversion found on atom  C    2
           Population inversion found on atom  C    3
           Population inversion found on atom  C    4
           Population inversion found on atom  C    5
           Population inversion found on atom  C    6
           Population inversion found on atom  C    9
           Population inversion found on atom  O   10
           Population inversion found on atom  C   14
           Population inversion found on atom  C   17


 Summary of Natural Population Analysis:                  
                                                          
                                       Natural Population 
                Natural  -----------------------------------------------
    Atom  No    Charge         Core      Valence    Rydberg      Total
 -----------------------------------------------------------------------
      C    1   -0.16180      1.99910     4.14612    0.01658     6.16180
      C    2   -0.16465      1.99897     4.14847    0.01721     6.16465
      C    3   -0.14559      1.99909     4.12852    0.01798     6.14559
      C    4   -0.20728      1.99905     4.19147    0.01676     6.20728
      C    5    0.01061      1.99905     3.97151    0.01883     5.98939
      C    6   -0.21357      1.99906     4.19721    0.01730     6.21357
      H    7    0.22822      0.00000     0.76982    0.00196     0.77178
      H    8    0.20682      0.00000     0.79143    0.00174     0.79318
      C    9    0.41330      1.99941     3.55158    0.03571     5.58670
      O   10   -0.55095      1.99981     6.53835    0.01280     8.55095
      H   11    0.13040      0.00000     0.86632    0.00328     0.86960
      H   12    0.20528      0.00000     0.79289    0.00184     0.79472
      H   13    0.20586      0.00000     0.79232    0.00182     0.79414
      C   14   -0.38975      1.99924     4.37632    0.01419     6.38975
      H   15    0.19952      0.00000     0.79856    0.00192     0.80048
      H   16    0.20046      0.00000     0.79762    0.00192     0.79954
      C   17   -0.55649      1.99934     4.54903    0.00813     6.55649
      H   18    0.19738      0.00000     0.80124    0.00138     0.80262
      H   19    0.19586      0.00000     0.80258    0.00156     0.80414
      H   20    0.19637      0.00000     0.80208    0.00155     0.80363
 =======================================================================
   * Total *    0.00000     19.99212    51.81345    0.19443    72.00000

                                 Natural Population      
 --------------------------------------------------------
   Core                      19.99212 ( 99.9606% of  20)
   Valence                   51.81345 ( 99.6412% of  52)
   Natural Minimal Basis     71.80557 ( 99.7300% of  72)
   Natural Rydberg Basis      0.19443 (  0.2700% of  72)
 --------------------------------------------------------

    Atom  No          Natural Electron Configuration
 ----------------------------------------------------------------------------
      C    1      [core]2S( 0.94)2p( 3.20)4p( 0.01)
      C    2      [core]2S( 0.93)2p( 3.22)4p( 0.01)
      C    3      [core]2S( 0.95)2p( 3.18)4p( 0.01)
      C    4      [core]2S( 0.94)2p( 3.25)4p( 0.01)
      C    5      [core]2S( 0.90)2p( 3.07)3p( 0.01)4p( 0.01)
      C    6      [core]2S( 0.94)2p( 3.25)4p( 0.01)
      H    7            1S( 0.77)
      H    8            1S( 0.79)
      C    9      [core]2S( 0.95)2p( 2.60)3S( 0.01)3d( 0.01)4p( 0.02)
      O   10      [core]2S( 1.73)2p( 4.81)3p( 0.01)
      H   11            1S( 0.87)
      H   12            1S( 0.79)
      H   13            1S( 0.79)
      C   14      [core]2S( 1.02)2p( 3.36)4p( 0.01)
      H   15            1S( 0.80)
      H   16            1S( 0.80)
      C   17      [core]2S( 1.08)2p( 3.47)
      H   18            1S( 0.80)
      H   19            1S( 0.80)
      H   20            1S( 0.80)


 NBO analysis skipped by request.
 Calling FoFJK, ICntrl=      2127 FMM=F ISym2X=0 I1Cent= 0 IOpClX= 0 NMat=1 NMatS=1 NMatT=0.
 ***** Axes restored to original set *****
 -------------------------------------------------------------------
 Center     Atomic                   Forces (Hartrees/Bohr)
 Number     Number              X              Y              Z
 -------------------------------------------------------------------
      1        6           0.003955488    0.016360982   -0.000291956
      2        6           0.007943454   -0.029178881    0.001871285
      3        6          -0.013349193    0.009196336    0.000169530
      4        6          -0.003470167   -0.023822703    0.002160406
      5        6          -0.010127960    0.013184722   -0.007891634
      6        6           0.019237947   -0.005810662    0.000854845
      7        1           0.009355332   -0.002587914   -0.000026425
      8        1           0.005215646    0.008684625   -0.001136472
      9        6           0.065932142    0.055482469   -0.004012125
     10        8          -0.060391058   -0.007046290    0.000661137
     11        1          -0.014190322   -0.015789608    0.001095215
     12        1          -0.005289100   -0.009537415    0.000495098
     13        1          -0.010228584    0.000102983   -0.000534420
     14        6           0.013842981   -0.022551612    0.022506921
     15        1          -0.012558847   -0.001385104   -0.009071950
     16        1           0.006722952    0.009713244   -0.010158927
     17        6           0.001456243   -0.004125211   -0.019301685
     18        1          -0.008118905    0.013980816    0.002402101
     19        1          -0.007658629   -0.008172618    0.010687922
     20        1           0.011720578    0.003301841    0.009521135
 -------------------------------------------------------------------
 Cartesian Forces:  Max     0.065932142 RMS     0.017143207

 GradGradGradGradGradGradGradGradGradGradGradGradGradGradGradGradGradGrad
 Berny optimization.
 FormGI is forming the generalized inverse of G from B-inverse, IUseBI=4.
 Internal  Forces:  Max     0.060397267 RMS     0.008940637
 Search for a local minimum.
 Step number   1 out of a maximum of  106
 All quantities printed in internal units (Hartrees-Bohrs-Radians)
 Mixed Optimization -- RFO/linear search
 Second derivative matrix not updated -- first step.
 ITU=  0
     Eigenvalues ---    0.00237   0.00237   0.00237   0.00237   0.01324
     Eigenvalues ---    0.01523   0.02070   0.02070   0.02070   0.02070
     Eigenvalues ---    0.02070   0.02070   0.02070   0.04356   0.05410
     Eigenvalues ---    0.05720   0.05720   0.08669   0.12376   0.16000
     Eigenvalues ---    0.16000   0.16000   0.16000   0.16000   0.16000
     Eigenvalues ---    0.16000   0.16000   0.21983   0.22000   0.22000
     Eigenvalues ---    0.22981   0.24000   0.25000   0.25000   0.28519
     Eigenvalues ---    0.28519   0.28519   0.37230   0.37230   0.37230
     Eigenvalues ---    0.37230   0.37230   0.37230   0.37230   0.37230
     Eigenvalues ---    0.37230   0.37230   0.41268   0.41640   0.45389
     Eigenvalues ---    0.45389   0.45389   0.45389   0.80209
 RFO step:  Lambda=-1.69942949D-02 EMin= 2.36824113D-03
 Linear search not attempted -- first point.
 Iteration  1 RMS(Cart)=  0.03139205 RMS(Int)=  0.00067116
 Iteration  2 RMS(Cart)=  0.00076578 RMS(Int)=  0.00008317
 Iteration  3 RMS(Cart)=  0.00000079 RMS(Int)=  0.00008317
 Variable       Old X    -DE/DX   Delta X   Delta X   Delta X     New X
                                 (Linear)    (Quad)   (Total)
    R1        2.64826  -0.00314   0.00000  -0.00673  -0.00675   2.64151
    R2        2.64826  -0.00781   0.00000  -0.01650  -0.01650   2.63177
    R3        2.02201   0.01091   0.00000   0.02803   0.02803   2.05004
    R4        2.64826  -0.00456   0.00000  -0.00982  -0.00984   2.63842
    R5        2.91018  -0.03266   0.00000  -0.10807  -0.10807   2.80211
    R6        2.64826  -0.00982   0.00000  -0.02093  -0.02093   2.62734
    R7        2.02201   0.00935   0.00000   0.02403   0.02403   2.04603
    R8        2.64826   0.00019   0.00000   0.00046   0.00048   2.64874
    R9        2.02201   0.01018   0.00000   0.02615   0.02615   2.04815
   R10        2.64826  -0.00288   0.00000  -0.00598  -0.00597   2.64230
   R11        2.91018  -0.01106   0.00000  -0.03659  -0.03659   2.87358
   R12        2.02201   0.01023   0.00000   0.02627   0.02627   2.04828
   R13        2.37803  -0.06040   0.00000  -0.07374  -0.07374   2.30429
   R14        2.02201   0.02080   0.00000   0.05342   0.05342   2.07543
   R15        2.02201   0.01535   0.00000   0.03942   0.03942   2.06143
   R16        2.02201   0.01536   0.00000   0.03946   0.03946   2.06147
   R17        2.91018   0.00523   0.00000   0.01731   0.01731   2.92749
   R18        2.02201   0.01601   0.00000   0.04112   0.04112   2.06313
   R19        2.02201   0.01513   0.00000   0.03887   0.03887   2.06087
   R20        2.02201   0.01510   0.00000   0.03879   0.03879   2.06080
    A1        2.09440   0.00045   0.00000   0.00159   0.00158   2.09597
    A2        2.09440  -0.00041   0.00000  -0.00185  -0.00184   2.09255
    A3        2.09440  -0.00004   0.00000   0.00026   0.00026   2.09465
    A4        2.09440   0.00006   0.00000  -0.00046  -0.00049   2.09390
    A5        2.09440   0.00015   0.00000   0.00092   0.00093   2.09533
    A6        2.09440  -0.00021   0.00000  -0.00046  -0.00044   2.09395
    A7        2.09440  -0.00123   0.00000  -0.00600  -0.00601   2.08838
    A8        2.09440  -0.00200   0.00000  -0.01179  -0.01179   2.08261
    A9        2.09440   0.00323   0.00000   0.01779   0.01779   2.11219
   A10        2.09440   0.00378   0.00000   0.01553   0.01557   2.10996
   A11        2.09440  -0.00205   0.00000  -0.00867  -0.00869   2.08571
   A12        2.09440  -0.00173   0.00000  -0.00686  -0.00688   2.08751
   A13        2.09440  -0.00465   0.00000  -0.01741  -0.01741   2.07699
   A14        2.09440   0.00236   0.00000   0.00882   0.00874   2.10313
   A15        2.09440   0.00229   0.00000   0.00859   0.00850   2.10290
   A16        2.09440   0.00158   0.00000   0.00674   0.00677   2.10116
   A17        2.09440  -0.00064   0.00000  -0.00252  -0.00253   2.09186
[...]
 -0.00165948,0.00003278,0.00473681,-0.00050403,0.00089397,0.00803473,-0
 .00000928,0.00011847,-0.00105706,0.00184897,-0.00192032,0.02690760,-0.
 00084792,0.00090417,-0.00006158,-0.00093636,0.00318913,-0.00022405,0.0
 1155371,0.01592092,-0.00099059,-0.12435116,-0.11635886,0.00728925,-0.0
 1118652,-0.02827201,0.00178409,-0.00572037,0.00106895,-0.00011913,0.00
 081388,-0.00048619,0.00004906,0.12940974,0.00067431,0.00028808,-0.0000
 6987,0.00427072,-0.00274846,0.00079395,-0.01516315,-0.01964871,0.00130
 199,-0.11634365,-0.26375057,0.01485014,0.00108786,0.00164350,0.0002377
 9,0.00060414,0.00159038,0.00035166,0.00015242,0.00100101,-0.00038504,0
 .12497458,0.28105982,-0.00009921,-0.00000666,-0.00083374,-0.00030123,0
 .00076409,0.00801722,0.00106263,0.00147435,0.00337808,0.00782147,0.014
 90922,-0.03836262,-0.00076725,0.00059776,0.00341659,-0.00024130,0.0001
 1183,0.00633993,0.00002666,-0.00035120,-0.00444343,-0.00789883,-0.0166
 3133,0.02657833,-0.03075950,0.03289643,-0.00237660,-0.10401083,0.00628
 422,-0.00061574,0.02096711,0.00519201,-0.00029297,0.00423942,-0.010198
 69,0.00073720,-0.00555504,0.00026600,0.00028774,-0.00563944,-0.0036345
 9,0.00002824,-0.00234792,-0.00246437,0.00017413,0.00073149,-0.00184271
 ,0.00015356,0.93590805,0.01534305,0.00384358,0.00002728,0.03472409,-0.
 19964843,0.00821545,0.01235709,-0.03871901,0.00268184,-0.00735495,-0.0
 0109862,0.00044596,-0.00097276,-0.00288589,-0.00045142,-0.00414071,0.0
 0720907,-0.00002657,0.00148901,0.00071786,-0.00030906,0.00066137,-0.00
 030032,0.00003075,0.01043120,0.54970242,-0.00141391,0.00003162,-0.0008
 5041,-0.00240084,0.00789976,-0.07349849,-0.00051388,0.00268787,0.00195
 000,0.00048451,0.00036646,0.00692346,-0.00007142,0.00026363,-0.0010589
 8,0.00011511,-0.00002190,0.00837981,-0.00008465,-0.00030252,-0.0036899
 3,-0.00004303,0.00005260,0.00029394,0.00778875,-0.02224599,0.18792728,
 0.01039648,0.00303450,-0.00005690,-0.05296750,0.04443973,-0.00357052,-
 0.00498226,-0.01231481,0.00079897,-0.00298185,0.00304609,-0.00025578,0
 .00110518,-0.00187618,-0.00017811,-0.00056713,0.00387817,-0.00023010,0
 .00164922,0.00188517,-0.00011571,-0.00008426,0.00065205,-0.00006186,-0
 .71354331,0.03311650,-0.00951138,0.81076001,-0.00183835,-0.00641029,0.
 00055051,0.04785425,0.00537640,0.00133602,-0.00034573,0.00074946,-0.00
 004702,0.00090053,0.00219981,-0.00020622,0.00157689,0.00091635,0.00009
 058,0.00266575,-0.00175677,0.00003395,0.00117033,0.00061828,-0.0000080
 6,-0.00016924,0.00002022,0.00000952,0.03924496,-0.10717121,0.00317048,
 -0.06292450,0.08966320,0.00022722,0.00065435,0.00343954,-0.00377476,0.
 00128085,0.01811735,-0.00003724,-0.00021793,-0.00048172,-0.00009925,-0
 .00014535,-0.00067580,-0.00006764,-0.00011502,-0.00002923,-0.00015399,
 0.00003341,-0.00204430,-0.00006222,-0.00002464,-0.00008980,0.00001129,
 0.00001372,0.00012559,-0.00985061,0.00312772,-0.06247416,0.01286165,-0
 .00476211,0.02412414,0.00136730,0.00114807,-0.00005267,0.00706687,0.01
 029214,-0.00075663,-0.00141797,0.00237221,-0.00018167,0.00078879,0.000
 55144,-0.00001343,0.00006091,0.00014969,0.00002528,0.00024397,-0.00051
 615,0.00004158,-0.00001964,0.00035704,-0.00002626,-0.00008969,0.000142
 47,-0.00000316,-0.10098454,-0.08983387,0.00510757,-0.04851868,-0.02986
 868,0.00108345,0.14113468,-0.00215851,-0.00000182,-0.00011937,-0.01723
 919,-0.02127147,0.00219056,0.00480673,-0.00320385,0.00037309,-0.001552
 18,-0.00077438,-0.00001815,0.00012318,0.00037787,0.00003911,0.00088916
 ,-0.00005351,-0.00000053,-0.00018659,0.00032940,-0.00000488,0.00028482
 ,-0.00048963,0.00001204,-0.07897511,-0.21395351,0.00872211,-0.01368164
 ,0.01646739,0.00001760,0.10584928,0.22218397,0.00019321,-0.00007018,-0
 .00115918,0.00097082,0.00248536,0.01687372,-0.00033302,0.00035083,0.00
 244587,0.00010364,0.00001114,-0.00085461,0.00001568,-0.00002890,0.0003
 5137,-0.00005377,-0.00000913,-0.00044333,0.00000739,0.00000476,0.00025
 851,-0.00001489,-0.00000930,-0.00041120,0.00443364,0.00853317,-0.05905
 157,0.00007102,-0.00016312,0.01923997,-0.00523349,-0.01117961,0.022685
 22,-0.12499867,-0.11595102,0.00566239,-0.00996678,-0.02772838,0.001508
 23,-0.00587183,0.00135687,-0.00022475,-0.00065893,0.00078575,-0.000058
 73,-0.00104032,0.00334070,-0.00025179,0.01177867,0.01543400,-0.0007901
 1,-0.00054135,-0.00151072,0.00009813,0.00007682,-0.00006298,0.00001587
 ,0.00024823,-0.00392020,0.00030690,0.00082220,0.00100967,-0.00006769,0
 .00027305,0.00157932,-0.00010969,0.12868058,-0.11461521,-0.26412225,0.
 01209270,-0.00146200,0.00259626,-0.00002828,0.00026956,0.00136764,0.00
 029281,0.00074906,0.00018334,-0.00005479,0.00401259,-0.00254260,0.0005
 2742,-0.01556144,-0.01833482,0.00111140,0.00029781,-0.00008266,0.00003
 574,-0.00005849,-0.00010124,-0.00004859,0.00324561,-0.00040143,-0.0002
 0704,-0.00122960,0.00032583,0.00001407,-0.00051512,0.00050946,0.000025
 12,0.12543756,0.28054732,0.00547266,0.01203758,-0.03777186,0.00005592,
 -0.00025132,0.00312380,-0.00018205,0.00023644,0.00622085,-0.00012743,0
 .00000782,-0.00098220,-0.00028072,0.00096059,0.00738471,0.00092716,0.0
 0140674,0.00401795,-0.00003089,0.00000427,0.00049227,0.00000099,-0.000
 05807,-0.00098850,-0.00012816,-0.00033719,-0.00435843,0.00006811,0.000
 05082,0.00083051,0.00003884,-0.00000200,0.00009309,-0.00609128,-0.0135
 9009,0.02624464,-0.01223446,-0.00256988,0.00003857,0.00099404,0.003485
 15,-0.00037106,0.00061779,-0.00022917,0.00003890,0.00065204,-0.0028378
 5,0.00003674,-0.01279239,0.00195620,-0.00051261,-0.33109209,-0.0059854
 0,-0.00455023,-0.00008291,0.00003792,0.00001695,-0.00064864,0.00008658
 ,0.00003061,-0.00012718,-0.00109345,0.00002291,-0.00061374,0.00046091,
 -0.00001847,0.00004206,0.00011067,-0.00000402,0.00081383,0.00022037,0.
 00009006,0.35281517,0.02871495,0.00425949,0.00025511,0.00197842,-0.004
 51852,0.00075509,0.00002934,-0.00118537,0.00001287,-0.00232444,-0.0047
 4245,0.00064835,-0.02733531,0.00308469,-0.00035257,-0.00589724,-0.0583
 3261,0.00137747,0.00004482,0.00008490,-0.00005616,-0.00148068,0.000127
 13,-0.00002937,0.00096199,0.00103241,0.00000924,0.00059883,-0.00062193
 ,0.00001517,-0.00002652,-0.00011479,0.00000606,-0.00045471,0.00098440,
 -0.00031469,0.00570295,0.05895601,-0.00185475,-0.00021310,0.00277310,-
 0.00024905,0.00076646,0.00741094,-0.00000353,0.00007447,-0.00091819,0.
 00028625,0.00066538,0.00658782,0.00111887,0.00077781,0.00353650,-0.004
 90737,0.00095190,-0.03659578,0.00000011,-0.00006524,-0.00099873,0.0000
 7424,-0.00004281,0.00015729,-0.00005884,-0.00005933,0.00061725,-0.0000
 5801,0.00002872,-0.00036581,0.00000148,0.00001137,0.00003051,0.0000889
 0,-0.00029956,-0.00408144,0.00511076,-0.00191404,0.02544662,-0.0008016
 7,-0.00488222,-0.00078599,-0.00133424,-0.00039950,0.00003715,-0.004613
 03,-0.00098421,0.00067803,-0.01731409,0.03070100,-0.00117855,-0.119725
 38,0.04805206,-0.00358343,0.01190815,-0.00823428,-0.00119498,-0.000401
 77,0.00103999,-0.00011417,0.00104745,0.00100912,-0.00022247,-0.0001005
 3,0.00009346,0.00016355,0.00017737,0.00004887,-0.00005595,0.00000198,0
 .00006801,-0.00002301,0.00052077,-0.00103958,0.00026956,0.00035659,-0.
 00146881,0.00100480,0.57146641,-0.00288301,-0.00089495,0.00003335,-0.0
 0021211,-0.00189117,0.00009602,-0.00331702,0.00305579,0.00082960,0.008
 52848,-0.00012332,0.00189637,0.04646457,-0.16944141,0.00699622,0.01434
 671,-0.02968486,0.00213505,-0.00040375,0.00047486,-0.00025005,-0.00160
 826,0.00039048,-0.00108968,-0.00054083,0.00019202,-0.00026688,0.000460
 65,0.00011365,0.00003156,-0.00000428,0.00010386,0.00005682,0.00050872,
 -0.00048593,-0.00005107,0.00150731,0.00122277,-0.00039216,0.05281165,0
 .50133127,-0.00075325,0.00220478,0.00701040,0.00100764,-0.00215235,-0.
 00061975,-0.00098291,0.00160939,0.00610327,0.00045675,0.00054902,0.004
 61877,-0.00735240,0.01335743,-0.07240314,-0.00125967,0.00088819,0.0052
 6575,-0.00004809,0.00004899,-0.00024761,0.00063777,-0.00038792,-0.0029
 0145,-0.00121585,0.00146566,-0.00116550,0.00103644,-0.00033377,0.00030
 732,-0.00010533,-0.00009705,-0.00006919,-0.00007073,0.00012308,-0.0001
 5000,-0.00013860,-0.00085688,-0.00342482,0.01913301,-0.04795253,0.4676
 8102,-0.00016338,0.00060921,0.00054759,0.00034578,0.00022431,-0.000087
 32,-0.00070616,-0.00057270,0.00039636,-0.00066997,0.00360254,-0.000830
 29,-0.01681263,-0.00185807,-0.00585984,0.00078848,-0.00245586,0.000968
 96,-0.00011075,0.00023078,0.00000537,0.00039581,0.00001010,-0.00018267
 ,0.00020872,-0.00019149,-0.00015221,-0.00009570,0.00008978,0.00004229,
 0.00001465,0.00005947,0.00000533,-0.00001283,0.00003880,-0.00004142,0.
 00077827,0.00055959,-0.00060893,-0.24854016,-0.03646217,-0.09851789,0.
 27053162,-0.00015774,0.00038616,-0.00000920,0.00021691,-0.00029820,0.0
 0006357,0.00117851,0.00038956,-0.00073819,0.00116551,-0.00459479,0.000
 32833,0.02746363,0.00332930,0.01250046,0.00144337,0.00089482,-0.000261
 42,0.00015247,-0.00029013,0.00001194,0.00021097,0.00007685,0.00023317,
 -0.00024305,0.00031472,-0.00005890,0.00015850,-0.00010902,0.00002099,-
 0.00002558,-0.00004144,0.00002748,-0.00003625,0.00003823,0.00002511,-0
 .00068239,-0.00027651,0.00000342,-0.03919612,-0.05587833,-0.01509091,0
 .03740712,0.06185312,0.00004706,0.00010077,-0.00002689,0.00019616,0.00
 040266,-0.00002742,0.00014062,-0.00077576,0.00011044,0.00004244,0.0003
 3181,0.00061939,0.00014557,-0.00115195,-0.00068322,-0.00012107,-0.0004
 6684,0.00042785,0.00001636,0.00000357,-0.00010067,-0.00019087,-0.00009
 270,0.00000958,0.00016856,-0.00015503,0.00003172,-0.00009714,0.0000146
 8,0.00000139,0.00001484,0.00000654,-0.00000547,-0.00001571,0.00000566,
 -0.00003055,0.00021832,0.00043066,0.00002013,-0.09863763,-0.01347069,-
 0.09384948,0.10727107,0.02135374,0.10395698,0.00034099,0.00047987,0.00
 049128,0.00012368,0.00062851,-0.00002876,0.00046708,-0.00070476,-0.000
 24902,0.00027670,0.00155361,-0.00023487,0.00849728,0.01212252,-0.01043
 398,-0.00156090,0.00147980,0.00018023,0.00001266,-0.00004975,-0.000016
 44,-0.00005821,-0.00023905,0.00030308,0.00025608,-0.00022705,0.0001168
 2,-0.00019149,0.00001615,-0.00000487,0.00000282,-0.00001110,-0.0000533
 1,-0.00008211,0.00013910,0.00000713,0.00026554,0.00030322,-0.00011618,
 -0.11555704,-0.08553129,0.07024066,-0.01423175,-0.01882378,0.01634800,
 0.12202065,-0.00095706,-0.00070234,-0.00086855,0.00026432,-0.00009577,
 0.00012437,0.00018919,-0.00030287,-0.00053552,-0.00220448,0.00121356,-
 0.00105385,-0.01419958,-0.02236160,0.01487241,0.00395183,-0.00335019,0
 .00074604,0.00001260,0.00000625,0.00006082,0.00087578,0.00056145,0.000
 50651,-0.00020007,0.00041585,0.00011891,0.00031330,-0.00013946,-0.0000
 2437,-0.00002458,0.00000172,-0.00000357,0.00018968,-0.00035767,-0.0000
 0392,0.00011979,0.00021915,0.00037069,-0.08374991,-0.15638039,0.095627
 35,-0.00249106,-0.00342342,0.00197187,0.08982657,0.17443067,0.00064485
 ,-0.00055261,0.00000492,-0.00039998,0.00000135,-0.00003539,-0.00017823
 ,0.00010169,0.00006112,0.00060430,-0.00020057,0.00063186,0.00082340,-0
 .00076594,-0.00039116,-0.00038092,0.00020520,0.00029935,-0.00000548,0.
 00002474,-0.00003359,-0.00053605,-0.00001129,-0.00009183,0.00010155,-0
 .00019975,0.00003204,-0.00012733,0.00004435,-0.00000903,0.00001505,-0.
 00000324,0.00000074,-0.00001709,-0.00001042,-0.00006134,0.00014233,0.0
 0007686,0.00006266,0.06879099,0.09642935,-0.12472949,-0.00637173,-0.00
 995645,0.00851040,-0.07994513,-0.10126941,0.13871305,-0.00060518,0.000
 33502,-0.00040610,0.00046400,0.00097570,-0.00004506,0.00009321,-0.0011
 4912,-0.00087156,-0.00073568,0.00191496,-0.00053545,-0.00375059,0.0090
 9162,0.01607869,-0.00044880,-0.00127623,0.00054232,-0.00004671,0.00004
 716,0.00011502,-0.00027772,-0.00005276,0.00054935,0.00042076,-0.000414
 38,0.00007345,-0.00033102,0.00008980,-0.00002640,0.00002408,0.00001515
 ,0.00001969,-0.00002814,0.00005357,-0.00001507,0.00017256,0.00003823,-
 0.00007837,-0.07740126,0.00406633,0.01325877,0.00600232,-0.01165065,-0
 .02727152,-0.00217110,0.00765373,0.01692110,0.56104370,-0.00045176,0.0
 0024746,0.00145029,0.00048623,-0.00034334,0.00002838,-0.00001785,-0.00
 027365,0.00087947,-0.00151275,-0.00032774,-0.00033946,0.00772519,-0.01
 774791,-0.02683463,0.00177563,-0.00051787,0.00020772,0.00003862,-0.000
 04581,-0.00008842,0.00022129,0.00019389,-0.00016292,-0.00029456,0.0005
 3134,-0.00017127,0.00029276,-0.00016924,0.00006267,-0.00003560,-0.0000
 5558,-0.00003812,0.00002545,-0.00011527,-0.00009366,-0.00030274,-0.000
 21882,-0.00061705,0.00348218,-0.08666375,-0.03549435,0.00103273,-0.002
 62017,-0.00699978,-0.00261436,0.00943164,0.01882727,0.00583838,0.54614
 824,0.00087189,-0.00079133,-0.00026571,-0.00083667,0.00184506,-0.00007
 186,0.00018925,-0.00106322,-0.00012233,-0.00252256,0.00196293,-0.00033
 454,0.00663732,-0.01076838,0.00313123,-0.00053478,0.00345523,-0.000621
 59,-0.00006600,0.00009493,0.00000979,-0.00007127,-0.00004561,0.0001899
 9,0.00102932,-0.00120094,0.00009870,-0.00089910,0.00030338,-0.00005351
 ,0.00007525,0.00007662,0.00001684,-0.00004239,0.00013413,0.00003401,0.
 00006041,0.00006777,0.00024333,0.00913484,-0.02852139,-0.15781654,0.00
 288263,-0.00652357,-0.01635410,0.00267765,-0.00888024,-0.02053602,0.01
 700213,-0.04351803,0.46754424,-0.00027766,0.00025616,-0.00014865,0.000
 19179,0.00040624,-0.00002294,0.00015875,-0.00044125,0.00007917,-0.0000
 4956,0.00023942,0.00009378,0.00095735,0.00039198,0.00107658,-0.0001484
 2,-0.00029213,0.00011329,-0.00000243,-0.00000185,0.00002204,0.00004289
 ,0.00000655,-0.00016462,0.00021975,-0.00023834,0.00001943,-0.00017647,
 0.00007402,-0.00000863,0.00001539,0.00002292,0.00000123,-0.00001091,0.
 00002315,-0.00003621,0.00003922,0.00002342,0.00011998,-0.00260029,0.00
 275607,-0.00076837,0.00048747,-0.00025755,0.00025067,-0.00021855,0.000
 01098,0.00001251,-0.11542817,0.11338460,-0.01083419,0.12093665,-0.0002
 0979,0.00026994,0.00010207,0.00033633,-0.00041054,0.00001765,0.0000034
 0,-0.00008284,0.00018819,-0.00026959,-0.00022487,-0.00011085,0.0000714
 7,0.00040037,-0.00283598,0.00036807,-0.00011391,-0.00014313,0.00001698
 ,-0.00002535,0.00002078,0.00005207,0.00002904,-0.00010814,-0.00035733,
 0.00050996,-0.00004969,0.00034247,-0.00017021,0.00001740,-0.00003223,-
 0.00004713,0.00000122,0.00000369,-0.00003892,-0.00000600,-0.00001540,-
 0.00000393,0.00003294,0.00543247,-0.00994624,0.00146374,-0.00046084,-0
 .00003397,0.00009942,0.00011206,0.00071820,-0.00011521,0.11335202,-0.2
 3818436,0.01857717,-0.12579729,0.25764395,-0.00021549,0.00007528,0.000
 41571,0.00020262,-0.00059074,-0.00000048,0.00003955,0.00031576,0.00033
 603,0.00046660,-0.00069782,0.00026555,-0.00042117,-0.00046774,-0.00560
 257,0.00045362,-0.00078447,0.00026825,0.00003760,-0.00005176,-0.000038
 82,0.00010161,0.00007989,-0.00020833,-0.00034244,0.00042261,-0.0000920
 6,0.00030641,-0.00011833,0.00003559,-0.00002752,-0.00003176,-0.0000078
 2,0.00002734,-0.00007822,-0.00002183,-0.00011571,-0.00005298,-0.000232
 27,0.01661078,-0.02784210,0.00092450,-0.00052058,0.00036431,0.00141084
 ,0.00012274,0.00070658,0.00142080,-0.01141478,0.01952724,-0.04796004,0
 .01141100,-0.01849924,0.05251451,-0.00017990,0.00021093,-0.00007426,0.
 00010869,0.00013051,0.00000103,0.00006124,-0.00014888,0.00004571,-0.00
 051589,0.00007097,-0.00008076,0.00030007,-0.00094178,0.00004512,0.0001
 5983,0.00019889,-0.00023405,-0.00000285,-0.00000251,0.00001706,0.00014
 746,0.00002070,-0.00005310,-0.00000226,0.00002965,0.00000668,0.0000213
 0,-0.00001161,-0.00001138,0.00000088,0.00000562,0.00000538,-0.00000033
 ,0.00000863,0.00001036,0.00002011,-0.00001778,0.00009728,-0.00276161,-
 0.00185417,0.00253454,0.00057718,0.00059105,-0.00015312,0.00111887,0.0
 0053419,0.00063325,-0.11879049,-0.08599268,0.07712044,0.00957334,0.010
 50161,-0.01062403,0.12465370,0.00018916,-0.00016996,0.00003106,-0.0002
 2164,0.00014821,-0.00002562,0.00003681,0.00009640,-0.00000210,0.000061
 63,-0.00001634,0.00016622,0.00042456,0.00137312,-0.00032119,-0.0002514
 7,0.00045339,0.00010304,-0.00000727,0.00000257,0.00000077,-0.00002081,
 -0.00001382,-0.00002036,0.00012042,-0.00019323,0.00000700,-0.00012904,
 0.00006681,-0.00000645,0.00001325,0.00001795,0.00000114,-0.00000525,0.
 00002643,-0.00001056,-0.00006350,-0.00006130,-0.00011471,0.00816188,0.
 00831028,-0.00866402,-0.00002495,0.00053273,0.00101227,0.00098911,-0.0
 0032629,-0.00324905,-0.08683473,-0.15277880,0.09531241,-0.01526339,-0.
 01677112,0.01493599,0.09495724,0.16340945,0.00026910,-0.00046602,0.000
 03713,-0.00035872,-0.00030882,-0.00002697,-0.00010652,0.00058531,-0.00
 009162,0.00065172,-0.00051841,0.00028643,-0.00121427,0.00168930,0.0008
 5539,0.00021850,0.00014609,0.00030494,0.00000811,-0.00001092,-0.000006
 41,-0.00009299,-0.00001024,-0.00002125,-0.00006551,0.00000394,-0.00000
 404,0.00000339,0.00001487,0.00000181,-0.00000329,-0.00000380,0.0000017
 8,0.00002832,-0.00003281,0.00001319,-0.00015379,-0.00015557,-0.0002190
 1,0.01653914,0.01814920,-0.01914720,-0.00059117,0.00039566,0.00117942,
 0.00065421,-0.00323960,-0.00504009,0.07689880,0.09417694,-0.13020554,0
 .00056449,0.00135707,-0.00170717,-0.08611351,-0.10183674,0.14479854,-0
 .00003325,0.00011320,-0.00002232,0.00011372,-0.00021405,0.00000301,0.0
 0004112,0.00001333,0.00003969,0.00029967,-0.00029810,0.00013538,0.0007
 4559,0.00037787,0.00013163,-0.00002646,-0.00026445,-0.00005342,0.00001
 639,-0.00001993,0.00001304,-0.00001839,0.00001270,0.00003249,-0.000129
 04,0.00014180,-0.00001437,0.00012166,-0.00004381,0.00001322,-0.0000069
 3,-0.00001000,-0.00000181,-0.00000195,-0.00001437,-0.00000756,0.000024
 18,0.00004973,0.00003239,0.00567237,0.00136640,0.00290750,0.00121301,0
 .00108508,0.00162738,0.00068880,-0.00011521,-0.00072741,-0.24820579,-0
 .04308075,-0.10187418,-0.01371015,-0.00345020,-0.00609814,-0.01448932,
 -0.00213202,-0.00713599,0.26768476,-0.00022569,0.00019898,-0.00005033,
 0.00022180,0.00021943,-0.00003718,0.00015376,-0.00042210,0.00010759,0.
 00005640,0.00018968,0.00021145,-0.00140270,0.00094967,0.00008867,-0.00
 009319,-0.00055053,0.00017859,0.00000456,-0.00000241,-0.00001452,0.000
 09049,0.00007089,-0.00020097,0.00010845,-0.00009758,-0.00000549,-0.000
 06294,0.00003073,0.00000636,0.00000702,0.00001547,-0.00000118,-0.00000
 191,0.00000390,-0.00001082,0.00009193,0.00010528,0.00003485,-0.0109460
 6,-0.00380461,-0.00630784,0.00065272,-0.00024949,-0.00262092,0.0005506
 2,0.00044152,0.00062311,-0.04209380,-0.05649026,-0.02051693,0.02469631
 ,0.00648195,0.01278750,-0.01829057,-0.00410648,-0.00993544,0.04648278,
 0.05701596,-0.00044521,0.00040159,-0.00004698,0.00039445,0.00020755,-0
 .00006150,0.00030967,-0.00044210,0.00005968,-0.00038249,-0.00013674,0.
 00026880,-0.00073367,0.00182869,0.00082635,0.00015376,-0.00077762,0.00
 028901,0.00001577,-0.00004176,0.00001990,0.00029496,0.00006244,-0.0002
 4419,0.00004405,0.00003091,-0.00001064,0.00001597,-0.00000925,0.000000
 13,0.00000011,0.00001134,0.00000475,0.00000389,-0.00001231,-0.00000888
 ,0.00005792,0.00007760,-0.00005012,-0.02656565,-0.00681700,-0.01538684
 ,0.00164445,-0.00268952,-0.00520035,-0.00005924,0.00077350,0.00119100,
 -0.10079500,-0.02080228,-0.09692636,-0.00178057,-0.00000943,-0.0017203
 9,0.01682735,0.00268090,0.00899065,0.11099948,0.02566349,0.10800597\\0
 .00000227,-0.00000243,-0.00000198,-0.00000032,0.00000770,0.00000062,-0
 .00000134,-0.00000346,0.00000385,0.00000118,0.00000117,0.00000159,0.00
 000053,-0.00000282,0.00000566,0.00000098,0.00000252,-0.00000542,0.0000
 0118,0.00000144,0.00000703,-0.00000026,0.00000171,0.00000471,0.0000003
 6,-0.00000520,0.00000318,0.00000026,0.00000004,0.00000541,0.00000214,0
 .00000237,0.00000020,0.00000033,-0.00000056,-0.00000422,0.00000029,-0.
 00000028,-0.00000596,0.00000221,0.00000460,0.00000821,0.00000068,-0.00
 000134,-0.00000779,0.00000302,0.00000190,-0.00000228,-0.00000157,-0.00
 000632,-0.00001439,-0.00000364,0.00000053,-0.00000186,-0.00000619,-0.0
 0000196,-0.00000116,-0.00000212,0.00000037,0.00000461\\\@


 BLACK HOLES SUCK.
 Job cpu time:       0 days  0 hours 46 minutes 34.8 seconds.
 File lengths (MBytes):  RWF=    149 Int=      0 D2E=      0 Chk=      7 Scr=      1
 Normal termination of Gaussian 09 at Tue Apr 23 15:06:00 2024.
