 Entering Gaussian System, Link 0=g09
 Initial command:
 /cm/shared/apps/gaussian/g09revD.01/g09/l1.exe "//home/sweav003/CHB/validation/G09-aryltrifluorborates4_Carreira.com.o9822866.tmp/Gau-80657.inp" -scrdir="//home/sweav003/CHB/validation/G09-aryltrifluorborates4_Carreira.com.o9822866.tmp/"
 Entering Link 1 = /cm/shared/apps/gaussian/g09revD.01/g09/l1.exe PID=     80658.
  
 Copyright (c) 1988,1990,1992,1993,1995,1998,2003,2009,2013,
            Gaussian, Inc.  All Rights Reserved.
  
 This is part of the Gaussian(R) 09 program.  It is based on
 the Gaussian(R) 03 system (copyright 2003, Gaussian, Inc.),
 the Gaussian(R) 98 system (copyright 1998, Gaussian, Inc.),
 the Gaussian(R) 94 system (copyright 1995, Gaussian, Inc.),
 the Gaussian 92(TM) system (copyright 1992, Gaussian, Inc.),
 the Gaussian 90(TM) system (copyright 1990, Gaussian, Inc.),
 the Gaussian 88(TM) system (copyright 1988, Gaussian, Inc.),
 the Gaussian 86(TM) system (copyright 1986, Carnegie Mellon
 University), and the Gaussian 82(TM) system (copyright 1983,
 Carnegie Mellon University). Gaussian is a federally registered
 trademark of Gaussian, Inc.
  
 This software contains proprietary and confidential information,
 including trade secrets, belonging to Gaussian, Inc.
  
 This software is provided under written license and may be
 used, copied, transmitted, or stored only in accord with that
 written license.
  
 The following legend is applicable only to US Government
 contracts under FAR:
  
                    RESTRICTED RIGHTS LEGEND
  
 Use, reproduction and disclosure by the US Government is
 subject to restrictions as set forth in subparagraphs (a)
 and (c) of the Commercial Computer Software - Restricted
 Rights clause in FAR 52.227-19.
  
 Gaussian, Inc.
 340 Quinnipiac St., Bldg. 40, Wallingford CT 06492
  
  
 ---------------------------------------------------------------
 Warning -- This program may not be used in any manner that
 competes with the business of Gaussian, Inc. or will provide
 assistance to any competitor of Gaussian, Inc.  The licensee
 of this program is prohibited from giving any competitor of
 Gaussian, Inc. access to this program.  By using this program,
 the user acknowledges that Gaussian, Inc. is engaged in the
 business of creating and licensing software in the field of
 computational chemistry and represents and warrants to the
 licensee that it is not a competitor of Gaussian, Inc. and that
 it will not use this program in any manner prohibited above.
 ---------------------------------------------------------------
  

 Cite this work as:
 Gaussian 09, Revision D.01,
 M. J. Frisch, G. W. Trucks, H. B. Schlegel, G. E. Scuseria, 
 M. A. Robb, J. R. Cheeseman, G. Scalmani, V. Barone, B. Mennucci, 
 G. A. Petersson, H. Nakatsuji, M. Caricato, X. Li, H. P. Hratchian, 
 A. F. Izmaylov, J. Bloino, G. Zheng, J. L. Sonnenberg, M. Hada, 
 M. Ehara, K. Toyota, R. Fukuda, J. Hasegawa, M. Ishida, T. Nakajima, 
 Y. Honda, O. Kitao, H. Nakai, T. Vreven, J. A. Montgomery, Jr., 
 J. E. Peralta, F. Ogliaro, M. Bearpark, J. J. Heyd, E. Brothers, 
 K. N. Kudin, V. N. Staroverov, T. Keith, R. Kobayashi, J. Normand, 
 K. Raghavachari, A. Rendell, J. C. Burant, S. S. Iyengar, J. Tomasi, 
 M. Cossi, N. Rega, J. M. Millam, M. Klene, J. E. Knox, J. B. Cross, 
 V. Bakken, C. Adamo, J. Jaramillo, R. Gomperts, R. E. Stratmann, 
 O. Yazyev, A. J. Austin, R. Cammi, C. Pomelli, J. W. Ochterski, 
 R. L. Martin, K. Morokuma, V. G. Zakrzewski, G. A. Voth, 
 P. Salvador, J. J. Dannenberg, S. Dapprich, A. D. Daniels, 
 O. Farkas, J. B. Foresman, J. V. Ortiz, J. Cioslowski, 
 and D. J. Fox, Gaussian, Inc., Wallingford CT, 2013.
 
 ******************************************
 Gaussian 09:  ES64L-G09RevD.01 24-Apr-2013
                 9-Jan-2023 
 ******************************************
 %nprocshared=20
 Will use up to   20 processors via shared memory.
 %mem=4GB
 %chk=aryltrifluorborates4_Carreira.chk
 ----------------------------------------------------------------------
 # opt freq b3lyp/6-311+g(d,p) geom=connectivity pop=(hirshfeld,chelpg,
 mbs,npa)
 ----------------------------------------------------------------------
 1/14=-1,18=20,19=15,26=3,38=1,57=2/1,3;
 2/9=110,12=2,17=6,18=5,40=1/2;
 3/5=4,6=6,7=111,11=2,16=1,25=1,30=1,71=1,74=-5/1,2,3;
 4//1;
 5/5=2,38=5/2;
 6/7=2,8=2,9=2,10=2,15=8,20=3,27=100,28=1,40=-1,79=1/1,2,7;
 7//1,2,3,16;
 1/14=-1,18=20,19=15,26=3/3(2);
 2/9=110/2;
 99//99;
 2/9=110/2;
 3/5=4,6=6,7=111,11=2,16=1,25=1,30=1,71=1,74=-5/1,2,3;
 4/5=5,16=3,69=1/1;
 5/5=2,38=5/2;
 7//1,2,3,16;
 1/14=-1,18=20,19=15,26=3/3(-5);
 2/9=110/2;
 6/7=2,8=2,9=2,10=2,15=8,19=2,20=3,27=100,28=1,40=-1,79=1/1,2,7;
 99/9=1/99;
 -------------------
 Title Card Required
 -------------------
 Symbolic Z-matrix:
 Charge =  0 Multiplicity = 1
 C                    -1.12912  -0.12831  -0.00697 
 C                     0.08828  -0.80979  -0.00231 
 C                     1.28687  -0.09674  -0.01543 
 C                     1.2684    1.29843  -0.03442 
 C                     0.05126   1.97967  -0.03955 
 C                    -1.1476    1.26627  -0.02543 
 H                    -2.07399  -0.69067   0.00383 
 H                     2.24647  -0.63381  -0.01113 
 H                     2.21358   1.86043  -0.04482 
 H                     0.03638   3.07922  -0.05452 
 S                     0.11132  -2.58946   0.02251 
 F                    -1.01659  -2.61969  -1.09776 
 F                    -1.00917  -2.58824   1.1506 
 F                     0.13191  -4.17918   0.04467 
 F                     1.23923  -2.55924   1.14278 
 F                     1.23181  -2.59068  -1.10559 
 N                    -2.43018   1.98451  -0.03057 
 C                    -2.52328   2.81244  -1.24167 
 H                    -3.53689   3.12464  -1.38324 
 H                    -1.89666   3.6731   -1.13439 
 H                    -2.20407   2.24222  -2.08894 
 C                    -2.51497   2.84449   1.1586 
 H                    -1.81629   3.6497    1.067 
 H                    -3.50569   3.23978   1.24299 
 H                    -2.28465   2.26997   2.0314 
 

 GradGradGradGradGradGradGradGradGradGradGradGradGradGradGradGradGradGrad
 Berny optimization.
 Initialization pass.
                           ----------------------------
                           !    Initial Parameters    !
                           ! (Angstroms and Degrees)  !
 --------------------------                            --------------------------
 ! Name  Definition              Value          Derivative Info.                !
 --------------------------------------------------------------------------------
 ! R1    R(1,2)                  1.3952         estimate D2E/DX2                !
 ! R2    R(1,6)                  1.3948         estimate D2E/DX2                !
 ! R3    R(1,7)                  1.0996         estimate D2E/DX2                !
 ! R4    R(2,3)                  1.3947         estimate D2E/DX2                !
 ! R5    R(2,11)                 1.78           estimate D2E/DX2                !
 ! R6    R(3,4)                  1.3954         estimate D2E/DX2                !
 ! R7    R(3,8)                  1.0997         estimate D2E/DX2                !
 ! R8    R(4,5)                  1.3948         estimate D2E/DX2                !
 ! R9    R(4,9)                  1.0997         estimate D2E/DX2                !
 ! R10   R(5,6)                  1.3951         estimate D2E/DX2                !
 ! R11   R(5,10)                 1.0998         estimate D2E/DX2                !
 ! R12   R(6,17)                 1.47           estimate D2E/DX2                !
 ! R13   R(11,12)                1.59           estimate D2E/DX2                !
 ! R14   R(11,13)                1.59           estimate D2E/DX2                !
 ! R15   R(11,14)                1.59           estimate D2E/DX2                !
 ! R16   R(11,15)                1.59           estimate D2E/DX2                !
 ! R17   R(11,16)                1.59           estimate D2E/DX2                !
 ! R18   R(17,18)                1.47           estimate D2E/DX2                !
 ! R19   R(17,22)                1.47           estimate D2E/DX2                !
 ! R20   R(18,19)                1.07           estimate D2E/DX2                !
 ! R21   R(18,20)                1.07           estimate D2E/DX2                !
 ! R22   R(18,21)                1.07           estimate D2E/DX2                !
 ! R23   R(22,23)                1.07           estimate D2E/DX2                !
 ! R24   R(22,24)                1.07           estimate D2E/DX2                !
 ! R25   R(22,25)                1.07           estimate D2E/DX2                !
 ! A1    A(2,1,6)              119.9985         estimate D2E/DX2                !
 ! A2    A(2,1,7)              119.9972         estimate D2E/DX2                !
 ! A3    A(6,1,7)              120.0043         estimate D2E/DX2                !
 ! A4    A(1,2,3)              120.0086         estimate D2E/DX2                !
 ! A5    A(1,2,11)             119.9808         estimate D2E/DX2                !
 ! A6    A(3,2,11)             120.0106         estimate D2E/DX2                !
 ! A7    A(2,3,4)              119.9942         estimate D2E/DX2                !
 ! A8    A(2,3,8)              120.0128         estimate D2E/DX2                !
 ! A9    A(4,3,8)              119.993          estimate D2E/DX2                !
 ! A10   A(3,4,5)              119.994          estimate D2E/DX2                !
 ! A11   A(3,4,9)              119.9811         estimate D2E/DX2                !
 ! A12   A(5,4,9)              120.0249         estimate D2E/DX2                !
 ! A13   A(4,5,6)              120.0047         estimate D2E/DX2                !
 ! A14   A(4,5,10)             120.0113         estimate D2E/DX2                !
 ! A15   A(6,5,10)             119.984          estimate D2E/DX2                !
 ! A16   A(1,6,5)              120.0            estimate D2E/DX2                !
 ! A17   A(1,6,17)             120.008          estimate D2E/DX2                !
 ! A18   A(5,6,17)             119.992          estimate D2E/DX2                !
 ! A19   A(2,11,12)             90.0            estimate D2E/DX2                !
 ! A20   A(2,11,13)             90.0            estimate D2E/DX2                !
 ! A21   A(2,11,15)             90.0            estimate D2E/DX2                !
 ! A22   A(2,11,16)             90.0            estimate D2E/DX2                !
 ! A23   A(12,11,13)            90.0            estimate D2E/DX2                !
 ! A24   A(12,11,14)            90.0            estimate D2E/DX2                !
 ! A25   A(12,11,16)            90.0            estimate D2E/DX2                !
 ! A26   A(13,11,14)            90.0            estimate D2E/DX2                !
 ! A27   A(13,11,15)            90.0            estimate D2E/DX2                !
 ! A28   A(14,11,15)            90.0            estimate D2E/DX2                !
 ! A29   A(14,11,16)            90.0            estimate D2E/DX2                !
 ! A30   A(15,11,16)            90.0            estimate D2E/DX2                !
 ! A31   A(6,17,18)            109.4712         estimate D2E/DX2                !
 ! A32   A(6,17,22)            109.4712         estimate D2E/DX2                !
 ! A33   A(18,17,22)           109.4713         estimate D2E/DX2                !
 ! A34   A(17,18,19)           109.4712         estimate D2E/DX2                !
 ! A35   A(17,18,20)           109.4712         estimate D2E/DX2                !
 ! A36   A(17,18,21)           109.4712         estimate D2E/DX2                !
 ! A37   A(19,18,20)           109.4713         estimate D2E/DX2                !
 ! A38   A(19,18,21)           109.4712         estimate D2E/DX2                !
 ! A39   A(20,18,21)           109.4712         estimate D2E/DX2                !
 ! A40   A(17,22,23)           109.4712         estimate D2E/DX2                !
 ! A41   A(17,22,24)           109.4712         estimate D2E/DX2                !
 ! A42   A(17,22,25)           109.4712         estimate D2E/DX2                !
 ! A43   A(23,22,24)           109.4713         estimate D2E/DX2                !
 ! A44   A(23,22,25)           109.4712         estimate D2E/DX2                !
 ! A45   A(24,22,25)           109.4712         estimate D2E/DX2                !
 ! A46   L(2,11,14,12,-1)      180.0            estimate D2E/DX2                !
 ! A47   L(12,11,15,2,-1)      180.0            estimate D2E/DX2                !
 ! A48   L(13,11,16,2,-1)      180.0            estimate D2E/DX2                !
 ! A49   L(2,11,14,12,-2)      180.0            estimate D2E/DX2                !
 ! A50   L(12,11,15,2,-2)      180.0            estimate D2E/DX2                !
 ! A51   L(13,11,16,2,-2)      180.0            estimate D2E/DX2                !
 ! D1    D(6,1,2,3)              0.0323         estimate D2E/DX2                !
 ! D2    D(6,1,2,11)           179.9532         estimate D2E/DX2                !
 ! D3    D(7,1,2,3)           -179.9729         estimate D2E/DX2                !
 ! D4    D(7,1,2,11)            -0.052          estimate D2E/DX2                !
 ! D5    D(2,1,6,5)              0.0149         estimate D2E/DX2                !
 ! D6    D(2,1,6,17)           179.9892         estimate D2E/DX2                !
 ! D7    D(7,1,6,5)           -179.9798         estimate D2E/DX2                !
 ! D8    D(7,1,6,17)            -0.0056         estimate D2E/DX2                !
 ! D9    D(1,2,3,4)             -0.0568         estimate D2E/DX2                !
 ! D10   D(1,2,3,8)            179.9619         estimate D2E/DX2                !
 ! D11   D(11,2,3,4)          -179.9777         estimate D2E/DX2                !
 ! D12   D(11,2,3,8)             0.041          estimate D2E/DX2                !
 ! D13   D(1,2,11,12)           45.0407         estimate D2E/DX2                !
 ! D14   D(1,2,11,13)          -44.9593         estimate D2E/DX2                !
 ! D15   D(1,2,11,15)         -134.9593         estimate D2E/DX2                !
 ! D16   D(1,2,11,16)          135.0407         estimate D2E/DX2                !
 ! D17   D(3,2,11,12)         -135.0384         estimate D2E/DX2                !
 ! D18   D(3,2,11,13)          134.9616         estimate D2E/DX2                !
 ! D19   D(3,2,11,15)           44.9616         estimate D2E/DX2                !
 ! D20   D(3,2,11,16)          -45.0384         estimate D2E/DX2                !
 ! D21   D(2,3,4,5)              0.0341         estimate D2E/DX2                !
 ! D22   D(2,3,4,9)           -179.9964         estimate D2E/DX2                !
 ! D23   D(8,3,4,5)           -179.9846         estimate D2E/DX2                !
 ! D24   D(8,3,4,9)             -0.0151         estimate D2E/DX2                !
 ! D25   D(3,4,5,6)              0.0131         estimate D2E/DX2                !
 ! D26   D(3,4,5,10)          -179.9995         estimate D2E/DX2                !
 ! D27   D(9,4,5,6)           -179.9563         estimate D2E/DX2                !
 ! D28   D(9,4,5,10)             0.0311         estimate D2E/DX2                !
 ! D29   D(4,5,6,1)             -0.0376         estimate D2E/DX2                !
 ! D30   D(4,5,6,17)           179.9881         estimate D2E/DX2                !
 ! D31   D(10,5,6,1)           179.975          estimate D2E/DX2                !
 ! D32   D(10,5,6,17)            0.0007         estimate D2E/DX2                !
 ! D33   D(1,6,17,18)         -119.9953         estimate D2E/DX2                !
 ! D34   D(1,6,17,22)          120.0047         estimate D2E/DX2                !
 ! D35   D(5,6,17,18)           59.979          estimate D2E/DX2                !
 ! D36   D(5,6,17,22)          -60.021          estimate D2E/DX2                !
 ! D37   D(6,17,18,19)         164.9572         estimate D2E/DX2                !
 ! D38   D(6,17,18,20)         -75.0428         estimate D2E/DX2                !
 ! D39   D(6,17,18,21)          44.9572         estimate D2E/DX2                !
 ! D40   D(22,17,18,19)        -75.0428         estimate D2E/DX2                !
 ! D41   D(22,17,18,20)         44.9572         estimate D2E/DX2                !
 ! D42   D(22,17,18,21)        164.9572         estimate D2E/DX2                !
 ! D43   D(6,17,22,23)          69.3932         estimate D2E/DX2                !
 ! D44   D(6,17,22,24)        -170.6068         estimate D2E/DX2                !
 ! D45   D(6,17,22,25)         -50.6068         estimate D2E/DX2                !
 ! D46   D(18,17,22,23)        -50.6068         estimate D2E/DX2                !
 ! D47   D(18,17,22,24)         69.3932         estimate D2E/DX2                !
 ! D48   D(18,17,22,25)       -170.6068         estimate D2E/DX2                !
 --------------------------------------------------------------------------------
 Trust Radius=3.00D-01 FncErr=1.00D-07 GrdErr=1.00D-06
 Number of steps in this run=    134 maximum allowed number of steps=    150.
 GradGradGradGradGradGradGradGradGradGradGradGradGradGradGradGradGradGrad

                          Input orientation:                          
 ---------------------------------------------------------------------
 Center     Atomic      Atomic             Coordinates (Angstroms)
 Number     Number       Type             X           Y           Z
 ---------------------------------------------------------------------
      1          6           0       -1.129117   -0.128314   -0.006967
      2          6           0        0.088277   -0.809786   -0.002312
      3          6           0        1.286868   -0.096743   -0.015432
      4          6           0        1.268403    1.298433   -0.034416
      5          6           0        0.051262    1.979666   -0.039548
      6          6           0       -1.147602    1.266270   -0.025426
      7          1           0       -2.073988   -0.690670    0.003830
      8          1           0        2.246471   -0.633808   -0.011130
      9          1           0        2.213576    1.860426   -0.044818
     10          1           0        0.036377    3.079225   -0.054517
     11         16           0        0.111323   -2.589463    0.022505
     12          9           0       -1.016587   -2.619691   -1.097765
     13          9           0       -1.009166   -2.588242    1.150603
     14          9           0        0.131909   -4.179176    0.044673
     15          9           0        1.239233   -2.559236    1.142775
     16          9           0        1.231811   -2.590685   -1.105592
     17          7           0       -2.430181    1.984507   -0.030575
     18          6           0       -2.523284    2.812441   -1.241672
     19          1           0       -3.536886    3.124643   -1.383236
     20          1           0       -1.896660    3.673100   -1.134391
     21          1           0       -2.204073    2.242224   -2.088937
     22          6           0       -2.514969    2.844494    1.158600
     23          1           0       -1.816290    3.649699    1.067001
     24          1           0       -3.505688    3.239785    1.242989
     25          1           0       -2.284647    2.269972    2.031398
 ---------------------------------------------------------------------
                    Distance matrix (angstroms):
                    1          2          3          4          5
     1  C    0.000000
     2  C    1.395160   0.000000
     3  C    2.416205   1.394712   0.000000
     4  C    2.790065   2.416260   1.395427   0.000000
     5  C    2.416183   2.789946   2.416356   1.394825   0.000000
     6  C    1.394829   2.416183   2.790080   2.416236   1.395138
     7  H    1.099610   2.165553   3.412986   3.889675   3.413102
     8  H    3.413229   2.165375   1.099680   2.165806   3.413209
     9  H    3.889745   3.413024   2.165678   1.099680   2.165606
    10  H    3.413055   3.889707   3.413506   2.165528   1.099761
    11  S    2.756232   1.780000   2.756266   4.056823   4.569946
    12  F    2.722032   2.386734   3.583660   4.658711   4.838823
    13  F    2.721323   2.386734   3.583152   4.658093   4.838053
    14  F    4.242915   3.370000   4.243089   5.594825   6.159946
    15  F    3.583345   2.386734   2.721688   4.033391   4.838470
    16  F    3.583884   2.386734   2.722357   4.034104   4.839241
    17  N    2.481399   3.761848   4.260080   3.761680   2.481464
    18  C    3.480839   4.634306   4.948158   4.257532   2.960896
    19  H    4.274717   5.525259   5.959598   5.314618   3.998909
    20  H    4.038683   5.031684   5.059509   4.106898   2.803712
    21  H    3.333105   4.350131   4.685815   4.143657   3.058672
    22  C    3.480908   4.634475   4.948049   4.257640   2.961255
    23  H    3.987355   4.965663   4.983681   4.031985   2.738834
    24  H    4.307502   5.555752   5.973661   5.309666   3.985561
    25  H    3.352903   4.387670   4.748323   4.223226   3.135214
                    6          7          8          9         10
     6  C    0.000000
     7  H    2.165331   0.000000
     8  H    3.889760   4.320860   0.000000
     9  H    3.413344   4.989355   2.494678   0.000000
    10  H    2.165516   4.320781   4.321228   2.495147   0.000000
    11  S    4.056337   2.895056   2.895614   4.921942   5.669707
    12  F    4.033332   2.460230   3.971405   5.622642   5.888526
    13  F    4.032304   2.459617   3.970971   5.621899   5.887755
    14  F    5.594188   4.127629   4.128453   6.388907   7.259707
    15  F    4.657915   3.970664   2.460346   4.679010   5.888345
    16  F    4.658805   3.971044   2.461046   4.679903   5.889117
    17  N    1.470000   2.699005   5.359760   4.645436   2.698683
    18  C    2.400500   3.744987   6.011774   4.977613   2.834144
    19  H    3.317510   4.315163   7.032485   6.037998   3.812580
    20  H    2.753856   4.513255   6.080848   4.622445   2.292477
    21  H    2.515293   3.605338   5.691765   4.882604   3.139913
    22  C    2.400500   3.745041   6.011503   4.977524   2.834805
    23  H    2.705786   4.476108   6.001402   4.547248   2.239558
    24  H    3.326290   4.362769   7.047330   6.022546   3.775649
    25  H    2.555546   3.594553   5.756291   4.971158   3.223830
                   11         12         13         14         15
    11  S    0.000000
    12  F    1.590000   0.000000
    13  F    1.590000   2.248600   0.000000
    14  F    1.590000   2.248600   2.248600   0.000000
    15  F    1.590000   3.180000   2.248600   2.248600   0.000000
    16  F    1.590000   2.248600   3.180000   2.248600   2.248600
    17  N    5.232902   4.933131   4.931988   6.675399   5.957093
    18  C    6.141650   5.639051   6.097779   7.588638   6.978326
    19  H    6.923623   6.279393   6.741422   8.297274   7.842100
    20  H    6.677582   6.354139   6.724080   8.195335   7.339027
    21  H    5.758859   5.102036   5.937662   7.158455   6.734563
    22  C    6.141336   6.098659   5.637564   7.588064   6.579861
    23  H    6.613155   6.680643   6.290497   8.132153   6.920465
    24  H    6.967961   6.782935   6.340903   8.349194   7.493528
    25  H    5.778446   5.942090   5.099500   7.167867   6.043892
                   16         17         18         19         20
    16  F    0.000000
    17  N    5.958039   0.000000
    18  C    6.581263   1.470000   0.000000
    19  H    7.448660   2.086720   1.070000   0.000000
    20  H    7.001654   2.086720   1.070000   1.747303   0.000000
    21  H    6.010764   2.086720   1.070000   1.747303   1.747303
    22  C    6.978975   1.470000   2.400500   2.753857   2.515293
    23  H    7.276914   2.086720   2.555546   3.039704   2.202983
    24  H    7.871093   2.086720   2.705787   2.628933   2.903216
    25  H    6.769946   2.086720   3.326291   3.736080   3.484468
                   21         22         23         24         25
    21  H    0.000000
    22  C    3.317511   0.000000
    23  H    3.477256   1.070000   0.000000
    24  H    3.713631   1.070000   1.747303   0.000000
    25  H    4.121216   1.070000   1.747303   1.747303   0.000000
 Stoichiometry    C8H10F5NS
 Framework group  C1[X(C8H10F5NS)]
 Deg. of freedom    69
 Full point group                 C1      NOp   1
 Largest Abelian subgroup         C1      NOp   1
 Largest concise Abelian subgroup C1      NOp   1
                         Standard orientation:                         
 ---------------------------------------------------------------------
 Center     Atomic      Atomic             Coordinates (Angstroms)
 Number     Number       Type             X           Y           Z
 ---------------------------------------------------------------------
      1          6           0       -0.747950   -0.489380   -0.000490
      2          6           0        0.329299    0.397190   -0.000725
      3          6           0        0.100413    1.772992    0.000153
      4          6           0       -1.206229    2.262791    0.000068
      5          6           0       -2.283170    1.376374   -0.000176
      6          6           0       -2.054043    0.000180   -0.000059
      7          1           0       -0.567277   -1.574045   -0.000733
      8          1           0        0.949462    2.471857    0.000602
      9          1           0       -1.386451    3.347602    0.000701
     10          1           0       -3.313075    1.762081   -0.000252
     11         16           0        1.995867   -0.228072   -0.000017
     12          9           0        1.601465   -1.280580   -1.124639
     13          9           0        1.600402   -1.280869    1.123960
     14          9           0        3.484542   -0.786592    0.000615
     15          9           0        2.390268    0.824436    1.124605
     16          9           0        2.391332    0.824726   -1.123995
     17          7           0       -3.189235   -0.933758   -0.000052
     18          6           0       -4.008106   -0.709688   -1.200111
     19          1           0       -4.668857   -1.539412   -1.341059
     20          1           0       -4.580970    0.185874   -1.078891
     21          1           0       -3.370539   -0.612429   -2.053896
     22          6           0       -4.007682   -0.710185    1.200389
     23          1           0       -4.504964    0.234011    1.122254
     24          1           0       -4.734956   -1.490277    1.286584
     25          1           0       -3.378867   -0.711552    2.066120
 ---------------------------------------------------------------------
 Rotational constants (GHZ):      1.1858688      0.3156229      0.2909231
 Standard basis: 6-311+G(d,p) (5D, 7F)
 There are   413 symmetry adapted cartesian basis functions of A   symmetry.
 There are   398 symmetry adapted basis functions of A   symmetry.
   398 basis functions,   634 primitive gaussians,   413 cartesian basis functions
    63 alpha electrons       63 beta electrons
       nuclear repulsion energy      1337.4031923207 Hartrees.
 NAtoms=   25 NActive=   25 NUniq=   25 SFac= 1.00D+00 NAtFMM=   60 NAOKFM=F Big=F
 Integral buffers will be    131072 words long.
 Raffenetti 2 integral format.
 Two-electron integral symmetry is turned on.
 One-electron integrals computed using PRISM.
 NBasis=   398 RedAO= T EigKep=  1.41D-06  NBF=   398
 NBsUse=   397 1.00D-06 EigRej=  7.42D-07 NBFU=   397
 ExpMin= 4.05D-02 ExpMax= 9.34D+04 ExpMxC= 3.17D+03 IAcc=2 IRadAn=         4 AccDes= 0.00D+00
 Harris functional with IExCor=  402 and IRadAn=       4 diagonalized for initial guess.
 HarFok:  IExCor=  402 AccDes= 0.00D+00 IRadAn=         4 IDoV= 1 UseB2=F ITyADJ=14
 ICtDFT=  3500011 ScaDFX=  1.000000  1.000000  1.000000  1.000000
 FoFCou: FMM=F IPFlag=           0 FMFlag=      100000 FMFlg1=           0
         NFxFlg=           0 DoJE=T BraDBF=F KetDBF=T FulRan=T
         wScrn=  0.000000 ICntrl=     500 IOpCl=  0 I1Cent=   200000004 NGrid=           0
         NMat0=    1 NMatS0=      1 NMatT0=    0 NMatD0=    1 NMtDS0=    0 NMtDT0=    0
 Petite list used in FoFCou.
 Requested convergence on RMS density matrix=1.00D-08 within 128 cycles.
 Requested convergence on MAX density matrix=1.00D-06.
 Requested convergence on             energy=1.00D-06.
 No special actions if energy rises.
 EnCoef did     2 forward-backward iterations
 EnCoef did     2 forward-backward iterations
 SCF Done:  E(RB3LYP) =  -1263.13845518     A.U. after   18 cycles
            NFock= 18  Conv=0.32D-08     -V/T= 2.0022

 **********************************************************************

            Population analysis using the SCF density.

 **********************************************************************

 Orbital symmetries:
       Occupied  (A) (A) (A) (A) (A) (A) (A) (A) (A) (A) (A) (A)
                 (A) (A) (A) (A) (A) (A) (A) (A) (A) (A) (A) (A)
                 (A) (A) (A) (A) (A) (A) (A) (A) (A) (A) (A) (A)
                 (A) (A) (A) (A) (A) (A) (A) (A) (A) (A) (A) (A)
                 (A) (A) (A) (A) (A) (A) (A) (A) (A) (A) (A) (A)
                 (A) (A) (A)
       Virtual   (A) (A) (A) (A) (A) (A) (A) (A) (A) (A) (A) (A)
                 (A) (A) (A) (A) (A) (A) (A) (A) (A) (A) (A) (A)
                 (A) (A) (A) (A) (A) (A) (A) (A) (A) (A) (A) (A)
                 (A) (A) (A) (A) (A) (A) (A) (A) (A) (A) (A) (A)
                 (A) (A) (A) (A) (A) (A) (A) (A) (A) (A) (A) (A)
                 (A) (A) (A) (A) (A) (A) (A) (A) (A) (A) (A) (A)
                 (A) (A) (A) (A) (A) (A) (A) (A) (A) (A) (A) (A)
                 (A) (A) (A) (A) (A) (A) (A) (A) (A) (A) (A) (A)
                 (A) (A) (A) (A) (A) (A) (A) (A) (A) (A) (A) (A)
                 (A) (A) (A) (A) (A) (A) (A) (A) (A) (A) (A) (A)
                 (A) (A) (A) (A) (A) (A) (A) (A) (A) (A) (A) (A)
                 (A) (A) (A) (A) (A) (A) (A) (A) (A) (A) (A) (A)
                 (A) (A) (A) (A) (A) (A) (A) (A) (A) (A) (A) (A)
                 (A) (A) (A) (A) (A) (A) (A) (A) (A) (A) (A) (A)
                 (A) (A) (A) (A) (A) (A) (A) (A) (A) (A) (A) (A)
                 (A) (A) (A) (A) (A) (A) (A) (A) (A) (A) (A) (A)
                 (A) (A) (A) (A) (A) (A) (A) (A) (A) (A) (A) (A)
                 (A) (A) (A) (A) (A) (A) (A) (A) (A) (A) (A) (A)
                 (A) (A) (A) (A) (A) (A) (A) (A) (A) (A) (A) (A)
                 (A) (A) (A) (A) (A) (A) (A) (A) (A) (A) (A) (A)
                 (A) (A) (A) (A) (A) (A) (A) (A) (A) (A) (A) (A)
                 (A) (A) (A) (A) (A) (A) (A) (A) (A) (A) (A) (A)
                 (A) (A) (A) (A) (A) (A) (A) (A) (A) (A) (A) (A)
                 (A) (A) (A) (A) (A) (A) (A) (A) (A) (A) (A) (A)
                 (A) (A) (A) (A) (A) (A) (A) (A) (A) (A) (A) (A)
                 (A) (A) (A) (A) (A) (A) (A) (A) (A) (A) (A) (A)
                 (A) (A) (A) (A) (A) (A) (A) (A) (A) (A) (A) (A)
                 (A) (A) (A) (A) (A) (A) (A) (A) (A) (A)
 The electronic state is 1-A.
 Alpha  occ. eigenvalues --  -89.22419 -24.73635 -24.72368 -24.72367 -24.72322
 Alpha  occ. eigenvalues --  -24.72321 -14.32565 -10.22882 -10.22810 -10.20744
 Alpha  occ. eigenvalues --  -10.20462 -10.20427 -10.20117 -10.19276 -10.19252
 Alpha  occ. eigenvalues --   -8.27031  -6.23560  -6.23548  -6.22964  -1.37933
 Alpha  occ. eigenvalues --   -1.27343  -1.27272  -1.25200  -1.22498  -0.94758
 Alpha  occ. eigenvalues --   -0.88960  -0.83749  -0.77536  -0.76893  -0.72464
 Alpha  occ. eigenvalues --   -0.67729  -0.66699  -0.65250  -0.65189  -0.62442
 Alpha  occ. eigenvalues --   -0.58354  -0.55338  -0.53510  -0.53432  -0.53366
 Alpha  occ. eigenvalues --   -0.51750  -0.49516  -0.49223  -0.48642  -0.46789
 Alpha  occ. eigenvalues --   -0.46752  -0.46277  -0.46261  -0.45950  -0.45273
 Alpha  occ. eigenvalues --   -0.44576  -0.43447  -0.42263  -0.41726  -0.41659
 Alpha  occ. eigenvalues --   -0.40717  -0.38832  -0.38176  -0.37931  -0.36906
 Alpha  occ. eigenvalues --   -0.28507  -0.27591  -0.24402
 Alpha virt. eigenvalues --   -0.05934  -0.05005  -0.03360  -0.00606   0.01048
 Alpha virt. eigenvalues --    0.02169   0.02224   0.03239   0.03758   0.04296
 Alpha virt. eigenvalues --    0.04479   0.05326   0.05912   0.06029   0.06387
 Alpha virt. eigenvalues --    0.06892   0.08332   0.08933   0.09372   0.09436
 Alpha virt. eigenvalues --    0.09849   0.10304   0.10359   0.11389   0.11572
 Alpha virt. eigenvalues --    0.12806   0.12860   0.13624   0.14612   0.14793
 Alpha virt. eigenvalues --    0.14956   0.15228   0.15971   0.16892   0.16948
 Alpha virt. eigenvalues --    0.18104   0.18582   0.18980   0.19423   0.19937
 Alpha virt. eigenvalues --    0.20596   0.20977   0.21238   0.21627   0.22239
 Alpha virt. eigenvalues --    0.23138   0.24033   0.24375   0.24415   0.24858
 Alpha virt. eigenvalues --    0.25218   0.25528   0.25909   0.26242   0.27246
 Alpha virt. eigenvalues --    0.27464   0.27595   0.28706   0.28986   0.30133
 Alpha virt. eigenvalues --    0.30384   0.30734   0.31755   0.32790   0.33211
 Alpha virt. eigenvalues --    0.33444   0.34216   0.34858   0.36023   0.36510
 Alpha virt. eigenvalues --    0.37602   0.38063   0.38300   0.38520   0.40119
 Alpha virt. eigenvalues --    0.40824   0.42176   0.43464   0.43747   0.44996
 Alpha virt. eigenvalues --    0.45616   0.46364   0.46637   0.47423   0.48332
 Alpha virt. eigenvalues --    0.48807   0.48949   0.50644   0.51520   0.52201
 Alpha virt. eigenvalues --    0.54098   0.54184   0.55239   0.55680   0.55948
 Alpha virt. eigenvalues --    0.56931   0.57230   0.57748   0.59166   0.60902
 Alpha virt. eigenvalues --    0.62907   0.63538   0.64415   0.64616   0.65570
 Alpha virt. eigenvalues --    0.65973   0.67171   0.68069   0.68551   0.68796
 Alpha virt. eigenvalues --    0.69936   0.71113   0.71284   0.71893   0.73438
 Alpha virt. eigenvalues --    0.74970   0.75313   0.77273   0.78692   0.81482
 Alpha virt. eigenvalues --    0.82486   0.83593   0.84881   0.87222   0.87610
 Alpha virt. eigenvalues --    0.90051   0.91379   0.91752   0.93612   0.95328
 Alpha virt. eigenvalues --    0.96227   0.97293   0.98874   1.00754   1.01162
 Alpha virt. eigenvalues --    1.03770   1.05982   1.06128   1.08211   1.10184
 Alpha virt. eigenvalues --    1.11859   1.12162   1.17136   1.21680   1.21956
 Alpha virt. eigenvalues --    1.27507   1.28533   1.28952   1.29134   1.31082
 Alpha virt. eigenvalues --    1.31622   1.31887   1.32818   1.35951   1.37209
 Alpha virt. eigenvalues --    1.40580   1.42149   1.44436   1.44667   1.44790
 Alpha virt. eigenvalues --    1.46212   1.46828   1.47577   1.48340   1.49330
 Alpha virt. eigenvalues --    1.51707   1.53025   1.53333   1.54312   1.55039
 Alpha virt. eigenvalues --    1.55941   1.56688   1.58185   1.59249   1.59523
 Alpha virt. eigenvalues --    1.60731   1.61035   1.62769   1.64757   1.66469
 Alpha virt. eigenvalues --    1.67901   1.70010   1.72376   1.72599   1.74004
 Alpha virt. eigenvalues --    1.75895   1.79352   1.79996   1.84979   1.85602
 Alpha virt. eigenvalues --    1.86359   1.87002   1.88667   1.89298   1.91778
 Alpha virt. eigenvalues --    1.92280   1.93617   1.95160   1.97067   1.98748
 Alpha virt. eigenvalues --    1.99893   2.01873   2.02748   2.03008   2.03588
 Alpha virt. eigenvalues --    2.05818   2.10310   2.10753   2.12967   2.14157
 Alpha virt. eigenvalues --    2.18404   2.20225   2.21333   2.23358   2.26715
 Alpha virt. eigenvalues --    2.28795   2.32301   2.35295   2.37427   2.43191
 Alpha virt. eigenvalues --    2.44435   2.47921   2.49800   2.50430   2.55508
 Alpha virt. eigenvalues --    2.55773   2.55928   2.59049   2.59347   2.59801
 Alpha virt. eigenvalues --    2.62334   2.65536   2.65852   2.66580   2.69795
 Alpha virt. eigenvalues --    2.70217   2.72207   2.73453   2.74429   2.74955
 Alpha virt. eigenvalues --    2.77287   2.79514   2.80487   2.82570   2.85501
 Alpha virt. eigenvalues --    2.86777   2.89724   2.90558   2.97125   2.99690
 Alpha virt. eigenvalues --    3.03571   3.05149   3.11428   3.20100   3.21637
 Alpha virt. eigenvalues --    3.35647   3.36333   3.46284   3.46579   3.48896
 Alpha virt. eigenvalues --    3.56995   3.65384   3.69139   3.69330   3.70011
 Alpha virt. eigenvalues --    3.70146   3.72069   3.72564   3.72604   3.72779
 Alpha virt. eigenvalues --    3.73883   3.74330   3.75363   3.77131   3.78707
 Alpha virt. eigenvalues --    3.80022   3.81432   3.82247   3.82888   3.83156
 Alpha virt. eigenvalues --    3.83610   3.83722   3.83813   3.85688   3.86905
 Alpha virt. eigenvalues --    3.88881   3.92601   4.00726   4.02571   4.13085
 Alpha virt. eigenvalues --    4.14133   4.23299   4.24599   4.26566   4.27374
 Alpha virt. eigenvalues --    4.29015   4.30876   4.83154   4.83611   4.90784
 Alpha virt. eigenvalues --    6.20532   6.23001   6.25585   6.26457   6.26942
 Alpha virt. eigenvalues --    6.30143   6.31761   6.37733   6.37914   6.40257
 Alpha virt. eigenvalues --    6.41537   6.48509   6.50207   6.51951   6.55599
 Alpha virt. eigenvalues --    8.10782  17.33969  17.37486  17.44434  23.56975
 Alpha virt. eigenvalues --   23.91745  23.94314  23.98889  23.99504  24.04326
 Alpha virt. eigenvalues --   24.05752  24.15699  35.55393  66.75992  66.76283
 Alpha virt. eigenvalues --   66.83773  66.85432  66.94463 189.17944
          Condensed to atoms (all electrons):
               1          2          3          4          5          6
     1  C   25.562879  -2.758517   2.870300  -4.909054  -1.771486 -15.908023
     2  C   -2.758517  28.874964  -8.755120   0.965638  -6.832040  -2.550425
     3  C    2.870300  -8.755120  21.780103  -0.668219   0.940600 -12.885018
     4  C   -4.909054   0.965638  -0.668219  10.844784  -2.337501   2.418550
     5  C   -1.771486  -6.832040   0.940600  -2.337501  15.241438  -0.528448
     6  C  -15.908023  -2.550425 -12.885018   2.418550  -0.528448  43.638403
     7  H    0.347135  -0.132584  -0.077104  -0.016763   0.050442   0.179626
     8  H   -0.042276  -0.009107   0.367454   0.012221   0.000473  -0.028659
     9  H    0.010430   0.028122  -0.009129   0.316803   0.021177  -0.028433
    10  H   -0.044667   0.024654  -0.024527   0.061411   0.435796  -0.084759
    11  S   -0.049080  -1.993373   1.176248   0.006676   0.177025  -0.903774
    12  F   -0.120733   0.006962   0.334658   0.019329  -0.026740  -0.257019
    13  F   -0.133104   0.020512   0.337909   0.022420  -0.032184  -0.257382
    14  F    0.017500   0.048255   0.052917  -0.017498   0.004024  -0.029725
    15  F    0.178867   0.109542  -0.207918  -0.045154   0.014875   0.091018
    16  F    0.190324   0.106680  -0.215544  -0.050802   0.018373   0.091696
    17  N    1.049061   0.021226   0.324564  -0.129085   0.023463  -2.565905
    18  C    0.517636  -0.062000   0.085476  -0.032714   0.121291  -1.382294
    19  H    0.040913   0.008018   0.002471  -0.003892  -0.030956   0.019228
    20  H   -0.185194  -0.029722  -0.018816   0.047080   0.174439   0.034174
    21  H    0.075994  -0.006147   0.009823  -0.011485  -0.015211  -0.057835
    22  C    0.597004  -0.076336   0.112885  -0.038206   0.176451  -1.565425
    23  H   -0.190588  -0.033339  -0.019627   0.051714   0.191271   0.017446
    24  H    0.033909   0.007265   0.001960  -0.004446  -0.037962   0.042994
    25  H    0.075530   0.001833   0.008001  -0.009802  -0.017637  -0.062403
               7          8          9         10         11         12
     1  C    0.347135  -0.042276   0.010430  -0.044667  -0.049080  -0.120733
     2  C   -0.132584  -0.009107   0.028122   0.024654  -1.993373   0.006962
     3  C   -0.077104   0.367454  -0.009129  -0.024527   1.176248   0.334658
     4  C   -0.016763   0.012221   0.316803   0.061411   0.006676   0.019329
     5  C    0.050442   0.000473   0.021177   0.435796   0.177025  -0.026740
     6  C    0.179626  -0.028659  -0.028433  -0.084759  -0.903774  -0.257019
     7  H    0.491535  -0.000094   0.000055  -0.000064   0.002695   0.001482
     8  H   -0.000094   0.517013  -0.007501  -0.000298   0.033187   0.000416
     9  H    0.000055  -0.007501   0.535575  -0.006308  -0.000847   0.000022
    10  H   -0.000064  -0.000298  -0.006308   0.536511   0.000345  -0.000020
    11  S    0.002695   0.033187  -0.000847   0.000345  17.045357   0.085051
    12  F    0.001482   0.000416   0.000022  -0.000020   0.085051   8.974006
    13  F    0.001689   0.000412   0.000022  -0.000020   0.083145  -0.030439
    14  F   -0.001128  -0.001250   0.000001   0.000001  -0.076890  -0.014327
    15  F   -0.000144   0.001954   0.000049   0.000004  -0.057287  -0.035406
    16  F   -0.000177   0.001998   0.000049   0.000004  -0.057613   0.012020
    17  N   -0.000805   0.000823  -0.000426  -0.025251   0.017037  -0.000257
    18  C    0.001495  -0.000050   0.001622  -0.005272  -0.007538  -0.001627
    19  H   -0.000083   0.000000  -0.000003  -0.000325   0.000102   0.000000
    20  H    0.000096  -0.000003   0.000144   0.005463  -0.000920  -0.000008
    21  H    0.000349  -0.000005   0.000032   0.000450  -0.000235  -0.000003
    22  C    0.000846  -0.000071   0.001575  -0.007609  -0.006548  -0.000419
    23  H    0.000108  -0.000004   0.000174   0.006169  -0.001036  -0.000006
    24  H   -0.000071   0.000000  -0.000003  -0.000320   0.000050   0.000000
    25  H    0.000367  -0.000004   0.000021   0.000362   0.000103  -0.000009
              13         14         15         16         17         18
     1  C   -0.133104   0.017500   0.178867   0.190324   1.049061   0.517636
     2  C    0.020512   0.048255   0.109542   0.106680   0.021226  -0.062000
     3  C    0.337909   0.052917  -0.207918  -0.215544   0.324564   0.085476
     4  C    0.022420  -0.017498  -0.045154  -0.050802  -0.129085  -0.032714
     5  C   -0.032184   0.004024   0.014875   0.018373   0.023463   0.121291
     6  C   -0.257382  -0.029725   0.091018   0.091696  -2.565905  -1.382294
     7  H    0.001689  -0.001128  -0.000144  -0.000177  -0.000805   0.001495
     8  H    0.000412  -0.001250   0.001954   0.001998   0.000823  -0.000050
     9  H    0.000022   0.000001   0.000049   0.000049  -0.000426   0.001622
    10  H   -0.000020   0.000001   0.000004   0.000004  -0.025251  -0.005272
    11  S    0.083145  -0.076890  -0.057287  -0.057613   0.017037  -0.007538
    12  F   -0.030439  -0.014327  -0.035406   0.012020  -0.000257  -0.001627
    13  F    8.975047  -0.014242   0.012045  -0.035593  -0.000581  -0.000520
    14  F   -0.014242   9.017310  -0.022623  -0.022543  -0.000026   0.000042
    15  F    0.012045  -0.022623   8.972323  -0.038379   0.000758   0.000400
    16  F   -0.035593  -0.022543  -0.038379   8.972616   0.000847   0.000262
    17  N   -0.000581  -0.000026   0.000758   0.000847   7.479643   0.514411
    18  C   -0.000520   0.000042   0.000400   0.000262   0.514411   5.293482
    19  H    0.000000   0.000000   0.000000   0.000000  -0.065363   0.413763
    20  H   -0.000005   0.000000   0.000000   0.000000  -0.110379   0.394403
    21  H   -0.000014   0.000000  -0.000002   0.000003  -0.034446   0.410696
    22  C   -0.001649   0.000042   0.000231   0.000412   0.546382  -0.031323
    23  H   -0.000009   0.000000   0.000000   0.000000  -0.107693  -0.013753
    24  H    0.000000   0.000000   0.000000   0.000000  -0.070778  -0.000355
    25  H   -0.000005   0.000000   0.000002  -0.000001  -0.031999   0.010016
              19         20         21         22         23         24
     1  C    0.040913  -0.185194   0.075994   0.597004  -0.190588   0.033909
     2  C    0.008018  -0.029722  -0.006147  -0.076336  -0.033339   0.007265
     3  C    0.002471  -0.018816   0.009823   0.112885  -0.019627   0.001960
     4  C   -0.003892   0.047080  -0.011485  -0.038206   0.051714  -0.004446
     5  C   -0.030956   0.174439  -0.015211   0.176451   0.191271  -0.037962
     6  C    0.019228   0.034174  -0.057835  -1.565425   0.017446   0.042994
     7  H   -0.000083   0.000096   0.000349   0.000846   0.000108  -0.000071
     8  H    0.000000  -0.000003  -0.000005  -0.000071  -0.000004   0.000000
     9  H   -0.000003   0.000144   0.000032   0.001575   0.000174  -0.000003
    10  H   -0.000325   0.005463   0.000450  -0.007609   0.006169  -0.000320
    11  S    0.000102  -0.000920  -0.000235  -0.006548  -0.001036   0.000050
    12  F    0.000000  -0.000008  -0.000003  -0.000419  -0.000006   0.000000
    13  F    0.000000  -0.000005  -0.000014  -0.001649  -0.000009   0.000000
    14  F    0.000000   0.000000   0.000000   0.000042   0.000000   0.000000
    15  F    0.000000   0.000000  -0.000002   0.000231   0.000000   0.000000
    16  F    0.000000   0.000000   0.000003   0.000412   0.000000   0.000000
    17  N   -0.065363  -0.110379  -0.034446   0.546382  -0.107693  -0.070778
    18  C    0.413763   0.394403   0.410696  -0.031323  -0.013753  -0.000355
    19  H    0.537154  -0.043557  -0.019520   0.000974  -0.004053   0.004556
    20  H   -0.043557   0.634359  -0.035493  -0.013485   0.032832  -0.004353
    21  H   -0.019520  -0.035493   0.517147   0.010171   0.000014  -0.000095
    22  C    0.000974  -0.013485   0.010171   5.298379   0.394202   0.412866
    23  H   -0.004053   0.032832   0.000014   0.394202   0.637276  -0.042964
    24  H    0.004556  -0.004353  -0.000095   0.412866  -0.042964   0.539543
    25  H   -0.000136  -0.000171  -0.000616   0.411570  -0.036664  -0.019983
              25
     1  C    0.075530
     2  C    0.001833
     3  C    0.008001
     4  C   -0.009802
     5  C   -0.017637
     6  C   -0.062403
     7  H    0.000367
     8  H   -0.000004
     9  H    0.000021
    10  H    0.000362
    11  S    0.000103
    12  F   -0.000009
    13  F   -0.000005
    14  F    0.000000
    15  F    0.000002
    16  F   -0.000001
    17  N   -0.031999
    18  C    0.010016
    19  H   -0.000136
    20  H   -0.000171
    21  H   -0.000616
    22  C    0.411570
    23  H   -0.036664
    24  H   -0.019983
    25  H    0.517862
 Mulliken charges:
               1
     1  C    0.545241
     2  C   -0.984962
     3  C    0.475650
     4  C   -0.492004
     5  C    0.039026
     6  C   -1.437609
     7  H    0.151097
     8  H    0.153371
     9  H    0.136776
    10  H    0.128270
    11  S    0.528119
    12  F    0.053065
    13  F    0.052546
    14  F    0.060158
    15  F    0.024844
    16  F    0.025366
    17  N    0.164780
    18  C   -0.227546
    19  H    0.140709
    20  H    0.119114
    21  H    0.156429
    22  C   -0.222919
    23  H    0.118528
    24  H    0.138187
    25  H    0.153763
 Sum of Mulliken charges =   0.00000
 Mulliken charges with hydrogens summed into heavy atoms:
               1
     1  C    0.696337
     2  C   -0.984962
     3  C    0.629021
     4  C   -0.355228
     5  C    0.167296
     6  C   -1.437609
    11  S    0.528119
    12  F    0.053065
    13  F    0.052546
    14  F    0.060158
    15  F    0.024844
    16  F    0.025366
    17  N    0.164780
    18  C    0.188707
    22  C    0.187559
 Electronic spatial extent (au):  <R**2>=           3801.7717
 Charge=              0.0000 electrons
 Dipole moment (field-independent basis, Debye):
    X=             -3.8116    Y=              1.7990    Z=             -0.0019  Tot=              4.2148
 Quadrupole moment (field-independent basis, Debye-Ang):
   XX=            -89.1719   YY=            -91.0031   ZZ=            -96.2987
   XY=             -0.9453   XZ=             -0.0007   YZ=             -0.0186
 Traceless Quadrupole moment (field-independent basis, Debye-Ang):
   XX=              2.9860   YY=              1.1548   ZZ=             -4.1408
   XY=             -0.9453   XZ=             -0.0007   YZ=             -0.0186
 Octapole moment (field-independent basis, Debye-Ang**2):
  XXX=             20.9472  YYY=              4.5876  ZZZ=              0.0008  XYY=             21.8558
  XXY=             -3.1966  XXZ=              0.0828  XZZ=             19.0141  YZZ=            -10.7508
  YYZ=              0.0051  XYZ=              0.0204
 Hexadecapole moment (field-independent basis, Debye-Ang**3):
 XXXX=          -3389.7358 YYYY=           -714.1906 ZZZZ=           -397.8672 XXXY=             11.5309
 XXXZ=             -0.7331 YYYX=            -30.6353 YYYZ=              0.3112 ZZZX=              0.0582
 ZZZY=             -0.3534 XXYY=           -701.2354 XXZZ=           -650.3394 YYZZ=           -206.2901
 XXYZ=              0.0423 YYXZ=              0.1593 ZZXY=              7.2977
 N-N= 1.337403192321D+03 E-N=-5.659114987200D+03  KE= 1.260332800923D+03
 There are a total of      206944 grid points.
 ElSum from          density=      125.9996605345
 ElSum from atomic densities=      125.9991951731

 Hirshfeld populations at iteration   1 (CX, CA, CB, DipXYZ):
               1          2          3          4          5          6
     1  C    0.000000   3.020855   3.020855  -0.024251  -0.047892  -0.000097
     2  C    0.000000   3.026264   3.026264   0.040211  -0.017325  -0.000106
     3  C    0.000000   3.022454   3.022454   0.015487   0.055365   0.000157
     4  C    0.000000   3.019084   3.019084  -0.007367   0.065329   0.000094
     5  C    0.000000   3.020064   3.020064  -0.062280   0.018898  -0.000363
     6  C    0.000000   2.972935   2.972935  -0.075861  -0.064399  -0.000086
     7  H    0.000001   0.471648   0.471648   0.011274  -0.157016  -0.000025
     8  H    0.000002   0.472753   0.472753   0.104999   0.126371   0.000084
     9  H    0.000002   0.471953   0.471953  -0.027175   0.160928   0.000143
    10  H    0.000000   0.473445   0.473445  -0.138201   0.067043  -0.000212
    11  S    0.000000   7.732705   7.732705   0.108908  -0.041315   0.000092
    12  F    0.000014   4.558374   4.558374   0.000051   0.075864   0.083800
    13  F    0.000014   4.558362   4.558362   0.000094   0.075900  -0.083773
    14  F    0.000022   4.554637   4.554637  -0.093961   0.035176  -0.000032
    15  F    0.000012   4.558806   4.558806  -0.050166  -0.058290  -0.083882
    16  F    0.000012   4.558823   4.558823  -0.050212  -0.058338   0.083813
    17  N    0.000000   3.572763   3.572763  -0.054617   0.158789   0.000008
    18  C    0.000000   3.023757   3.023757   0.004483  -0.019319   0.009982
    19  H    0.000001   0.477895   0.477895  -0.093189  -0.117123  -0.024186
    20  H    0.000001   0.487667   0.487667  -0.073402   0.103978   0.009205
    21  H    0.000001   0.477736   0.477736   0.080195   0.006079  -0.128181
    22  C    0.000000   3.023676   3.023676   0.003662  -0.019829  -0.009636
    23  H    0.000001   0.487919   0.487919  -0.064114   0.109857  -0.003458
    24  H    0.000001   0.477633   0.477633  -0.102552  -0.110687   0.016619
    25  H    0.000001   0.477622   0.477622   0.079678  -0.006782   0.129322
       Tot   0.000082  62.999830  62.999830  -0.468304   0.341262  -0.000717

 Dip from Atomic Chgs             -1.030616   0.366307   0.000067
         Total Dipole             -1.498920   0.707570  -0.000650

 Hirshfeld charges, spin densities, dipoles, and CM5 charges using IRadAn=      4:
              Q-H        S-H        Dx         Dy         Dz        Q-CM5   
     1  C   -0.041710   0.000000  -0.024251  -0.047892  -0.000097  -0.087219
     2  C   -0.052529   0.000000   0.040211  -0.017325  -0.000106  -0.077209
     3  C   -0.044908   0.000000   0.015487   0.055365   0.000157  -0.097639
     4  C   -0.038168   0.000000  -0.007367   0.065329   0.000094  -0.091561
     5  C   -0.040129   0.000000  -0.062280   0.018898  -0.000363  -0.088231
     6  C    0.054131   0.000000  -0.075861  -0.064399  -0.000086   0.096675
     7  H    0.056704   0.000000   0.011274  -0.157016  -0.000025   0.108812
     8  H    0.054494   0.000000   0.104999   0.126371   0.000084   0.103657
     9  H    0.056095   0.000000  -0.027175   0.160928   0.000143   0.109775
    10  H    0.053111   0.000000  -0.138201   0.067043  -0.000212   0.110865
    11  S    0.534589   0.000000   0.108908  -0.041315   0.000092   0.588080
    12  F   -0.116748   0.000000   0.000051   0.075864   0.083800  -0.120308
    13  F   -0.116725   0.000000   0.000094   0.075900  -0.083773  -0.120281
    14  F   -0.109274   0.000000  -0.093961   0.035176  -0.000032  -0.116315
    15  F   -0.117613   0.000000  -0.050166  -0.058290  -0.083882  -0.121169
    16  F   -0.117645   0.000000  -0.050212  -0.058338   0.083813  -0.121205
    17  N   -0.145526   0.000000  -0.054617   0.158789   0.000008  -0.399984
    18  C   -0.047515   0.000000   0.004483  -0.019319   0.009982  -0.146920
    19  H    0.044211   0.000000  -0.093189  -0.117123  -0.024186   0.108230
    20  H    0.024667   0.000000  -0.073402   0.103978   0.009205   0.090596
    21  H    0.044528   0.000000   0.080195   0.006079  -0.128181   0.109721
    22  C   -0.047352   0.000000   0.003662  -0.019829  -0.009636  -0.146795
    23  H    0.024163   0.000000  -0.064114   0.109857  -0.003458   0.090188
    24  H    0.044733   0.000000  -0.102552  -0.110687   0.016619   0.108847
    25  H    0.044755   0.000000   0.079678  -0.006782   0.129322   0.109732
       Tot   0.000339   0.000000  -0.468304   0.341262  -0.000717   0.000339
 Hirshfeld charges with hydrogens summed into heavy atoms:
              Q-H       Q-CM5   
     1  C    0.014994   0.021592
     2  C   -0.052529  -0.077209
     3  C    0.009586   0.006018
     4  C    0.017926   0.018214
     5  C    0.012982   0.022634
     6  C    0.054131   0.096675
    11  S    0.534589   0.588080
    12  F   -0.116748  -0.120308
    13  F   -0.116725  -0.120281
    14  F   -0.109274  -0.116315
    15  F   -0.117613  -0.121169
    16  F   -0.117645  -0.121205
    17  N   -0.145526  -0.399984
    18  C    0.065891   0.161627
    22  C    0.066300   0.161972
 
 EQQ= 0.000000000000E+00 EQD= 0.000000000000E+00 EDD= 0.297643784167E-02
 EQQ+QD+DD= 0.297643784167E-02
 
          MBS Condensed to atoms (all electrons):
               1          2          3          4          5          6
     1  C    4.825148   0.499578  -0.029945  -0.010794  -0.036321   0.504796
     2  C    0.499578   4.795588   0.503691  -0.029170  -0.010892  -0.026855
     3  C   -0.029945   0.503691   4.813084   0.504490  -0.031210  -0.011853
     4  C   -0.010794  -0.029170   0.504490   4.815780   0.503376  -0.029000
     5  C   -0.036321  -0.010892  -0.031210   0.503376   4.849825   0.498646
     6  C    0.504796  -0.026855  -0.011853  -0.029000   0.498646   4.735684
     7  H    0.379793  -0.023994   0.001341   0.000060   0.001446  -0.022733
     8  H    0.001364  -0.025339   0.384209  -0.023200   0.001435   0.000067
     9  H    0.000019   0.001405  -0.025053   0.387382  -0.025008   0.001398
    10  H    0.001361   0.000077   0.001461  -0.024579   0.385701  -0.025619
    11  S   -0.023248   0.344434  -0.023360   0.000621  -0.000004   0.000595
    12  F   -0.001503  -0.015488   0.000140  -0.000001   0.000000   0.000006
    13  F   -0.001507  -0.015491   0.000140  -0.000001   0.000000   0.000006
    14  F    0.000002   0.000060   0.000002   0.000000   0.000000   0.000000
    15  F    0.000139  -0.015485  -0.001518   0.000006   0.000000  -0.000001
    16  F    0.000139  -0.015485  -0.001513   0.000006   0.000000  -0.000001
    17  N   -0.029021   0.000567   0.000011   0.000596  -0.025814   0.339767
    18  C    0.000505  -0.000016   0.000002   0.000019  -0.004378  -0.034626
    19  H    0.000000   0.000000   0.000000   0.000001   0.000050   0.002201
    20  H   -0.000076   0.000002  -0.000001  -0.000032   0.000139  -0.002249
    21  H    0.000268  -0.000011  -0.000001  -0.000015  -0.000011  -0.003471
    22  C    0.000525  -0.000017   0.000001   0.000023  -0.004519  -0.034284
    23  H   -0.000082   0.000002  -0.000001  -0.000044   0.000181  -0.003067
    24  H   -0.000004   0.000000   0.000000   0.000001   0.000053   0.002217
    25  H    0.000282  -0.000010   0.000000  -0.000011  -0.000038  -0.002890
               7          8          9         10         11         12
     1  C    0.379793   0.001364   0.000019   0.001361  -0.023248  -0.001503
     2  C   -0.023994  -0.025339   0.001405   0.000077   0.344434  -0.015488
     3  C    0.001341   0.384209  -0.025053   0.001461  -0.023360   0.000140
     4  C    0.000060  -0.023200   0.387382  -0.024579   0.000621  -0.000001
     5  C    0.001446   0.001435  -0.025008   0.385701  -0.000004   0.000000
     6  C   -0.022733   0.000067   0.001398  -0.025619   0.000595   0.000006
     7  H    0.525623  -0.000041   0.000002  -0.000037  -0.003640   0.000849
     8  H   -0.000041   0.538082  -0.003769  -0.000035  -0.003501   0.000012
     9  H    0.000002  -0.003769   0.553640  -0.003637  -0.000012   0.000000
    10  H   -0.000037  -0.000035  -0.003637   0.558658   0.000000   0.000000
    11  S   -0.003640  -0.003501  -0.000012   0.000000  13.772787   0.264844
    12  F    0.000849   0.000012   0.000000   0.000000   0.264844   8.941537
    13  F    0.000848   0.000012   0.000000   0.000000   0.264849  -0.007131
    14  F    0.000002   0.000001   0.000000   0.000000   0.262970  -0.007933
    15  F    0.000012   0.000830   0.000000   0.000000   0.264747   0.000036
    16  F    0.000012   0.000830   0.000000   0.000000   0.264739  -0.006907
    17  N   -0.000749   0.000000  -0.000012  -0.002973  -0.000001   0.000000
    18  C    0.000039   0.000000   0.000000  -0.000441   0.000000   0.000000
    19  H   -0.000013   0.000000   0.000000  -0.000028   0.000000   0.000000
    20  H    0.000005   0.000000   0.000004   0.000913   0.000000   0.000000
    21  H    0.000025   0.000000   0.000000   0.000015   0.000000   0.000000
    22  C    0.000039   0.000000   0.000000  -0.000630   0.000000   0.000000
    23  H    0.000006   0.000000   0.000006   0.001122   0.000000   0.000000
    24  H   -0.000011   0.000000   0.000000  -0.000031   0.000000   0.000000
    25  H    0.000020   0.000000   0.000000   0.000013   0.000000   0.000000
              13         14         15         16         17         18
     1  C   -0.001507   0.000002   0.000139   0.000139  -0.029021   0.000505
     2  C   -0.015491   0.000060  -0.015485  -0.015485   0.000567  -0.000016
     3  C    0.000140   0.000002  -0.001518  -0.001513   0.000011   0.000002
     4  C   -0.000001   0.000000   0.000006   0.000006   0.000596   0.000019
     5  C    0.000000   0.000000   0.000000   0.000000  -0.025814  -0.004378
     6  C    0.000006   0.000000  -0.000001  -0.000001   0.339767  -0.034626
     7  H    0.000848   0.000002   0.000012   0.000012  -0.000749   0.000039
     8  H    0.000012   0.000001   0.000830   0.000830   0.000000   0.000000
     9  H    0.000000   0.000000   0.000000   0.000000  -0.000012   0.000000
    10  H    0.000000   0.000000   0.000000   0.000000  -0.002973  -0.000441
    11  S    0.264849   0.262970   0.264747   0.264739  -0.000001   0.000000
    12  F   -0.007131  -0.007933   0.000036  -0.006907   0.000000   0.000000
    13  F    8.941531  -0.007933  -0.006907   0.000036   0.000000   0.000000
    14  F   -0.007933   8.905743  -0.007931  -0.007931   0.000000   0.000000
    15  F   -0.006907  -0.007931   8.942363  -0.007131   0.000000   0.000000
    16  F    0.000036  -0.007931  -0.007131   8.942387   0.000000   0.000000
    17  N    0.000000   0.000000   0.000000   0.000000   6.555932   0.327513
    18  C    0.000000   0.000000   0.000000   0.000000   0.327513   4.771981
    19  H    0.000000   0.000000   0.000000   0.000000  -0.023419   0.382343
    20  H    0.000000   0.000000   0.000000   0.000000  -0.025172   0.370605
    21  H    0.000000   0.000000   0.000000   0.000000  -0.020508   0.382897
    22  C    0.000000   0.000000   0.000000   0.000000   0.328097  -0.037324
    23  H    0.000000   0.000000   0.000000   0.000000  -0.025256  -0.006610
    24  H    0.000000   0.000000   0.000000   0.000000  -0.022797  -0.001191
    25  H    0.000000   0.000000   0.000000   0.000000  -0.020917   0.002225
              19         20         21         22         23         24
     1  C    0.000000  -0.000076   0.000268   0.000525  -0.000082  -0.000004
     2  C    0.000000   0.000002  -0.000011  -0.000017   0.000002   0.000000
     3  C    0.000000  -0.000001  -0.000001   0.000001  -0.000001   0.000000
     4  C    0.000001  -0.000032  -0.000015   0.000023  -0.000044   0.000001
     5  C    0.000050   0.000139  -0.000011  -0.004519   0.000181   0.000053
     6  C    0.002201  -0.002249  -0.003471  -0.034284  -0.003067   0.002217
     7  H   -0.000013   0.000005   0.000025   0.000039   0.000006  -0.000011
     8  H    0.000000   0.000000   0.000000   0.000000   0.000000   0.000000
     9  H    0.000000   0.000004   0.000000   0.000000   0.000006   0.000000
    10  H   -0.000028   0.000913   0.000015  -0.000630   0.001122  -0.000031
    11  S    0.000000   0.000000   0.000000   0.000000   0.000000   0.000000
    12  F    0.000000   0.000000   0.000000   0.000000   0.000000   0.000000
    13  F    0.000000   0.000000   0.000000   0.000000   0.000000   0.000000
    14  F    0.000000   0.000000   0.000000   0.000000   0.000000   0.000000
    15  F    0.000000   0.000000   0.000000   0.000000   0.000000   0.000000
    16  F    0.000000   0.000000   0.000000   0.000000   0.000000   0.000000
    17  N   -0.023419  -0.025172  -0.020508   0.328097  -0.025256  -0.022797
    18  C    0.382343   0.370605   0.382897  -0.037324  -0.006610  -0.001191
    19  H    0.580078  -0.027154  -0.021383  -0.000751  -0.000461   0.000825
    20  H   -0.027154   0.633323  -0.024179  -0.007193   0.005752  -0.000581
    21  H   -0.021383  -0.024179   0.573312   0.002208   0.000057   0.000002
    22  C   -0.000751  -0.007193   0.002208   4.770289   0.370594   0.382278
    23  H   -0.000461   0.005752   0.000057   0.370594   0.633813  -0.026833
    24  H    0.000825  -0.000581   0.000002   0.382278  -0.026833   0.580273
    25  H   -0.000008   0.000056  -0.000092   0.383103  -0.024766  -0.021310
              25
     1  C    0.000282
     2  C   -0.000010
     3  C    0.000000
     4  C   -0.000011
     5  C   -0.000038
     6  C   -0.002890
     7  H    0.000020
     8  H    0.000000
     9  H    0.000000
    10  H    0.000013
    11  S    0.000000
    12  F    0.000000
    13  F    0.000000
    14  F    0.000000
    15  F    0.000000
    16  F    0.000000
    17  N   -0.020917
    18  C    0.002225
    19  H   -0.000008
    20  H    0.000056
    21  H   -0.000092
    22  C    0.383103
    23  H   -0.024766
    24  H   -0.021310
    25  H    0.573400
 MBS Mulliken charges:
               1
     1  C   -0.081419
     2  C    0.032849
     3  C   -0.084117
     4  C   -0.095513
     5  C   -0.102658
     6  C    0.111267
     7  H    0.141097
     8  H    0.129041
     9  H    0.113635
    10  H    0.108688
    11  S    0.613179
    12  F   -0.168460
    13  F   -0.168451
    14  F   -0.137051
    15  F   -0.169161
    16  F   -0.169182
    17  N   -0.355845
    18  C   -0.153545
    19  H    0.107720
    20  H    0.075837
    21  H    0.110887
    22  C   -0.152441
    23  H    0.075587
    24  H    0.107109
    25  H    0.110945
 Sum of MBS Mulliken charges =   0.00000
 MBS Mulliken charges with hydrogens summed into heavy atoms:
               1
     1  C    0.059678
     2  C    0.032849
     3  C    0.044924
     4  C    0.018123
     5  C    0.006030
     6  C    0.111267
    11  S    0.613179
    12  F   -0.168460
    13  F   -0.168451
    14  F   -0.137051
    15  F   -0.169161
    16  F   -0.169182
    17  N   -0.355845
    18  C    0.140899
    22  C    0.141200
 Breneman (CHELPG) radii used.
 Generate Potential Derived Charges using the Breneman model, NDens= 1.
 Grid spacing= 0.300 Box extension= 2.800
 NStep X,Y,Z=   47     37     34   Total possible points=       59126
 Number of Points to Fit=   15218

 **********************************************************************

            Electrostatic Properties Using The SCF Density

 **********************************************************************

       Atomic Center    1 is at  -0.747950 -0.489380 -0.000490
       Atomic Center    2 is at   0.329299  0.397190 -0.000725
       Atomic Center    3 is at   0.100413  1.772992  0.000153
       Atomic Center    4 is at  -1.206229  2.262791  0.000068
       Atomic Center    5 is at  -2.283170  1.376374 -0.000176
       Atomic Center    6 is at  -2.054043  0.000180 -0.000059
       Atomic Center    7 is at  -0.567277 -1.574045 -0.000733
       Atomic Center    8 is at   0.949462  2.471857  0.000602
       Atomic Center    9 is at  -1.386451  3.347602  0.000701
       Atomic Center   10 is at  -3.313075  1.762081 -0.000252
       Atomic Center   11 is at   1.995867 -0.228072 -0.000017
       Atomic Center   12 is at   1.601465 -1.280580 -1.124639
       Atomic Center   13 is at   1.600402 -1.280869  1.123960
       Atomic Center   14 is at   3.484542 -0.786592  0.000615
       Atomic Center   15 is at   2.390268  0.824436  1.124605
       Atomic Center   16 is at   2.391332  0.824726 -1.123995
       Atomic Center   17 is at  -3.189235 -0.933758 -0.000052
       Atomic Center   18 is at  -4.008106 -0.709688 -1.200111
       Atomic Center   19 is at  -4.668857 -1.539412 -1.341059
       Atomic Center   20 is at  -4.580970  0.185874 -1.078891
       Atomic Center   21 is at  -3.370539 -0.612429 -2.053896
       Atomic Center   22 is at  -4.007682 -0.710185  1.200389
       Atomic Center   23 is at  -4.504964  0.234011  1.122254
       Atomic Center   24 is at  -4.734956 -1.490277  1.286584
       Atomic Center   25 is at  -3.378867 -0.711552  2.066120
   15218 points will be used for fitting atomic charges
 Fitting point charges to electrostatic potential
 Charges from ESP fit, RMS=   0.00328 RRMS=   0.27483:
 ESP charges:
               1
     1  C   -0.219526
     2  C   -0.010412
     3  C   -0.131870
     4  C   -0.069753
     5  C   -0.284312
     6  C    0.537749
     7  H    0.128855
     8  H    0.140736
     9  H    0.099719
    10  H    0.173840
    11  S    0.991513
    12  F   -0.226773
    13  F   -0.226163
    14  F   -0.163324
    15  F   -0.238246
    16  F   -0.238049
    17  N   -0.540842
    18  C    0.035662
    19  H    0.082197
    20  H    0.006637
    21  H    0.017381
    22  C   -0.001141
    23  H    0.011018
    24  H    0.095254
    25  H    0.029851
 Sum of ESP charges =   0.00000
 ESP charges with hydrogens summed into heavy atoms:
               1
     1  C   -0.090671
     2  C   -0.010412
     3  C    0.008866
     4  C    0.029966
     5  C   -0.110472
     6  C    0.537749
    11  S    0.991513
    12  F   -0.226773
    13  F   -0.226163
    14  F   -0.163324
    15  F   -0.238246
    16  F   -0.238049
    17  N   -0.540842
    18  C    0.141876
    22  C    0.134982
 Charge=   0.00000 Dipole=    -3.9349     1.8216    -0.0007 Tot=     4.3361
 -----------------------------------------------------------------

              Electrostatic Properties (Atomic Units)

 -----------------------------------------------------------------
    Center     Electric         -------- Electric Field --------
               Potential          X             Y             Z
 -----------------------------------------------------------------
    1 Atom    -14.747332
    2 Atom    -14.724015
    3 Atom    -14.743763
    4 Atom    -14.746613
    5 Atom    -14.750281
    6 Atom    -14.722017
    7 Atom     -1.083340
    8 Atom     -1.081643
    9 Atom     -1.083444
   10 Atom     -1.079508
   11 Atom    -58.861012
   12 Atom    -26.561688
   13 Atom    -26.561687
   14 Atom    -26.549232
   15 Atom    -26.561220
   16 Atom    -26.561223
   17 Atom    -18.386440
   18 Atom    -14.755172
   19 Atom     -1.113366
   20 Atom     -1.116001
   21 Atom     -1.110334
   22 Atom    -14.754933
   23 Atom     -1.116128
   24 Atom     -1.112234
   25 Atom     -1.111114
 -----------------------------------------------------------------
 ******************************Gaussian NBO Version 3.1******************************
             N A T U R A L   A T O M I C   O R B I T A L   A N D
          N A T U R A L   B O N D   O R B I T A L   A N A L Y S I S
 ******************************Gaussian NBO Version 3.1******************************
       /RESON  / : Allow strongly delocalized NBO set

 Analyzing the SCF density

 Job title: Title Card Required                                             

 Storage needed:    477510 in NPA ( 536867437 available)


 NATURAL POPULATIONS:  Natural atomic orbital occupancies 
                                                          
   NAO  Atom  No  lang   Type(AO)    Occupancy      Energy
 ----------------------------------------------------------
     1    C    1  S      Cor( 1S)     1.99885     -10.05091
     2    C    1  S      Val( 2S)     0.94326      -0.17678
     3    C    1  S      Ryd( 4S)     0.00224       0.98905
     4    C    1  S      Ryd( 3S)     0.00009       0.65926
     5    C    1  S      Ryd( 5S)     0.00001      23.18227
     6    C    1  px     Val( 2p)     1.07814      -0.08167
     7    C    1  px     Ryd( 4p)     0.00432       0.89107
     8    C    1  px     Ryd( 3p)     0.00046       0.65688
     9    C    1  px     Ryd( 5p)     0.00013       3.32844
    10    C    1  py     Val( 2p)     1.19761      -0.09473
    11    C    1  py     Ryd( 4p)     0.00854       1.09114
    12    C    1  py     Ryd( 3p)     0.00038       0.35456
    13    C    1  py     Ryd( 5p)     0.00007       3.26995
    14    C    1  pz     Val( 2p)     0.95787      -0.12724
    15    C    1  pz     Ryd( 4p)     0.00102       0.56205
    16    C    1  pz     Ryd( 3p)     0.00046       0.43395
    17    C    1  pz     Ryd( 5p)     0.00002       2.76002
    18    C    1  dxy    Ryd( 3d)     0.00135       1.91574
    19    C    1  dxz    Ryd( 3d)     0.00038       1.40784
    20    C    1  dyz    Ryd( 3d)     0.00064       1.35277
    21    C    1  dx2y2  Ryd( 3d)     0.00115       1.85537
    22    C    1  dz2    Ryd( 3d)     0.00125       1.75028

    23    C    2  S      Cor( 1S)     1.99873     -10.09336
    24    C    2  S      Val( 2S)     0.96204      -0.23140
    25    C    2  S      Ryd( 3S)     0.00289       0.86875
    26    C    2  S      Ryd( 4S)     0.00011       1.21012
    27    C    2  S      Ryd( 5S)     0.00001      22.78872
    28    C    2  px     Val( 2p)     1.02611      -0.16124
    29    C    2  px     Ryd( 4p)     0.00873       1.14992
    30    C    2  px     Ryd( 3p)     0.00027       0.93834
    31    C    2  px     Ryd( 5p)     0.00026       3.31857
    32    C    2  py     Val( 2p)     1.10144      -0.12119
    33    C    2  py     Ryd( 4p)     0.00666       0.96143
    34    C    2  py     Ryd( 3p)     0.00033       0.64835
    35    C    2  py     Ryd( 5p)     0.00024       3.46638
    36    C    2  pz     Val( 2p)     1.10377      -0.16834
    37    C    2  pz     Ryd( 4p)     0.00247       0.53969
    38    C    2  pz     Ryd( 3p)     0.00038       0.51429
    39    C    2  pz     Ryd( 5p)     0.00005       2.73064
    40    C    2  dxy    Ryd( 3d)     0.00093       2.61678
    41    C    2  dxz    Ryd( 3d)     0.00046       1.74389
    42    C    2  dyz    Ryd( 3d)     0.00076       1.73029
    43    C    2  dx2y2  Ryd( 3d)     0.00124       2.50337
    44    C    2  dz2    Ryd( 3d)     0.00048       2.14286

    45    C    3  S      Cor( 1S)     1.99901     -10.05753
    46    C    3  S      Val( 2S)     0.94589      -0.18560
    47    C    3  S      Ryd( 3S)     0.00175       0.88128
    48    C    3  S      Ryd( 4S)     0.00012       1.33242
    49    C    3  S      Ryd( 5S)     0.00001      22.51642
    50    C    3  px     Val( 2p)     1.14661      -0.08621
    51    C    3  px     Ryd( 4p)     0.00644       1.02357
    52    C    3  px     Ryd( 3p)     0.00062       0.47297
    53    C    3  px     Ryd( 5p)     0.00010       3.20147
    54    C    3  py     Val( 2p)     1.11274      -0.08631
    55    C    3  py     Ryd( 4p)     0.00520       0.85395
    56    C    3  py     Ryd( 3p)     0.00045       0.36814
    57    C    3  py     Ryd( 5p)     0.00011       3.18195
    58    C    3  pz     Val( 2p)     0.97256      -0.13159
    59    C    3  pz     Ryd( 4p)     0.00116       0.53689
    60    C    3  pz     Ryd( 3p)     0.00051       0.34299
    61    C    3  pz     Ryd( 5p)     0.00002       2.69019
    62    C    3  dxy    Ryd( 3d)     0.00072       2.46383
    63    C    3  dxz    Ryd( 3d)     0.00054       1.61523
    64    C    3  dyz    Ryd( 3d)     0.00058       1.63865
    65    C    3  dx2y2  Ryd( 3d)     0.00074       2.58152
    66    C    3  dz2    Ryd( 3d)     0.00042       2.03144

    67    C    4  S      Cor( 1S)     1.99914     -10.05911
    68    C    4  S      Val( 2S)     0.95173      -0.18777
    69    C    4  S      Ryd( 4S)     0.00135       0.90193
    70    C    4  S      Ryd( 3S)     0.00009       0.79604
    71    C    4  S      Ryd( 5S)     0.00001      22.81105
    72    C    4  px     Val( 2p)     1.05764      -0.06730
    73    C    4  px     Ryd( 4p)     0.00460       0.77438
    74    C    4  px     Ryd( 3p)     0.00036       0.38270
    75    C    4  px     Ryd( 5p)     0.00017       3.08813
    76    C    4  py     Val( 2p)     1.17259      -0.08157
    77    C    4  py     Ryd( 4p)     0.00716       1.05545
    78    C    4  py     Ryd( 3p)     0.00034       0.30253
    79    C    4  py     Ryd( 5p)     0.00007       3.13386
    80    C    4  pz     Val( 2p)     0.99335      -0.13040
    81    C    4  pz     Ryd( 4p)     0.00095       0.51665
    82    C    4  pz     Ryd( 3p)     0.00026       0.29196
    83    C    4  pz     Ryd( 5p)     0.00001       2.68674
    84    C    4  dxy    Ryd( 3d)     0.00068       2.55552
    85    C    4  dxz    Ryd( 3d)     0.00052       1.65810
    86    C    4  dyz    Ryd( 3d)     0.00044       1.59043
    87    C    4  dx2y2  Ryd( 3d)     0.00076       2.46380
    88    C    4  dz2    Ryd( 3d)     0.00040       2.03513

    89    C    5  S      Cor( 1S)     1.99898     -10.05187
    90    C    5  S      Val( 2S)     0.94972      -0.18234
    91    C    5  S      Ryd( 4S)     0.00127       0.89339
    92    C    5  S      Ryd( 3S)     0.00009       0.75945
    93    C    5  S      Ryd( 5S)     0.00001      23.09553
    94    C    5  px     Val( 2p)     1.16850      -0.08311
    95    C    5  px     Ryd( 4p)     0.00491       1.12367
    96    C    5  px     Ryd( 3p)     0.00041       0.35708
    97    C    5  px     Ryd( 5p)     0.00007       3.18862
    98    C    5  py     Val( 2p)     1.09603      -0.07510
    99    C    5  py     Ryd( 4p)     0.00380       0.81366
   100    C    5  py     Ryd( 3p)     0.00044       0.47507
   101    C    5  py     Ryd( 5p)     0.00013       3.10816
   102    C    5  pz     Val( 2p)     0.98380      -0.13146
   103    C    5  pz     Ryd( 4p)     0.00062       0.54949
   104    C    5  pz     Ryd( 3p)     0.00033       0.45367
   105    C    5  pz     Ryd( 5p)     0.00001       2.59056
   106    C    5  dxy    Ryd( 3d)     0.00067       2.56690
   107    C    5  dxz    Ryd( 3d)     0.00046       1.61764
   108    C    5  dyz    Ryd( 3d)     0.00056       1.66825
   109    C    5  dx2y2  Ryd( 3d)     0.00076       2.51214
   110    C    5  dz2    Ryd( 3d)     0.00039       2.06207

   111    C    6  S      Cor( 1S)     1.99889     -10.08635
   112    C    6  S      Val( 2S)     0.84659      -0.14679
   113    C    6  S      Ryd( 3S)     0.00257       0.62284
   114    C    6  S      Ryd( 4S)     0.00086       0.73674
   115    C    6  S      Ryd( 5S)     0.00002      23.15096
   116    C    6  px     Val( 2p)     0.96481      -0.05669
   117    C    6  px     Ryd( 3p)     0.00561       1.10437
   118    C    6  px     Ryd( 4p)     0.00026       2.10096
   119    C    6  px     Ryd( 5p)     0.00012       2.11695
   120    C    6  py     Val( 2p)     0.99566      -0.06091
   121    C    6  py     Ryd( 3p)     0.00691       0.99275
   122    C    6  py     Ryd( 5p)     0.00027       1.99599
   123    C    6  py     Ryd( 4p)     0.00013       1.90930
   124    C    6  pz     Val( 2p)     0.99750      -0.12935
   125    C    6  pz     Ryd( 3p)     0.00277       0.61915
   126    C    6  pz     Ryd( 5p)     0.00011       1.88184
   127    C    6  pz     Ryd( 4p)     0.00007       1.36548
   128    C    6  dxy    Ryd( 3d)     0.00128       2.59937
   129    C    6  dxz    Ryd( 3d)     0.00094       1.81188
   130    C    6  dyz    Ryd( 3d)     0.00071       1.71606
   131    C    6  dx2y2  Ryd( 3d)     0.00139       2.74762
   132    C    6  dz2    Ryd( 3d)     0.00042       2.15168

   133    H    7  S      Val( 1S)     0.74885       0.03720
   134    H    7  S      Ryd( 3S)     0.00156       1.42447
   135    H    7  S      Ryd( 2S)     0.00015       1.34417
   136    H    7  px     Ryd( 2p)     0.00028       2.12155
   137    H    7  py     Ryd( 2p)     0.00018       2.88303
   138    H    7  pz     Ryd( 2p)     0.00028       1.72706

   139    H    8  S      Val( 1S)     0.76343       0.02882
   140    H    8  S      Ryd( 2S)     0.00066       0.97408
   141    H    8  S      Ryd( 3S)     0.00016       1.75555
   142    H    8  px     Ryd( 2p)     0.00035       2.40991
   143    H    8  py     Ryd( 2p)     0.00030       2.25771
   144    H    8  pz     Ryd( 2p)     0.00021       1.59458

   145    H    9  S      Val( 1S)     0.78131       0.02010
   146    H    9  S      Ryd( 2S)     0.00062       0.65645
   147    H    9  S      Ryd( 3S)     0.00017       2.08427
   148    H    9  px     Ryd( 2p)     0.00012       1.98232
   149    H    9  py     Ryd( 2p)     0.00045       2.63909
   150    H    9  pz     Ryd( 2p)     0.00019       1.58170

   151    H   10  S      Val( 1S)     0.78267       0.01999
   152    H   10  S      Ryd( 2S)     0.00118       1.06653
   153    H   10  S      Ryd( 3S)     0.00015       1.67164
   154    H   10  px     Ryd( 2p)     0.00038       2.60052
   155    H   10  py     Ryd( 2p)     0.00020       2.08330
   156    H   10  pz     Ryd( 2p)     0.00019       1.58372

   157    S   11  S      Cor( 1S)     2.00000     -87.96658
   158    S   11  S      Cor( 2S)     1.99843      -9.36711
   159    S   11  S      Val( 3S)     1.09026      -0.67902
   160    S   11  S      Ryd( 5S)     0.00355       0.90881
   161    S   11  S      Ryd( 4S)     0.00073       0.84725
   162    S   11  S      Ryd( 6S)     0.00005      15.32556
   163    S   11  S      Ryd( 7S)     0.00000     181.24389
   164    S   11  px     Cor( 2p)     1.99982      -6.21919
   165    S   11  px     Val( 3p)     0.90127      -0.27061
   166    S   11  px     Ryd( 6p)     0.00671       1.81104
   167    S   11  px     Ryd( 5p)     0.00101       1.08168
   168    S   11  px     Ryd( 4p)     0.00017       0.64547
   169    S   11  px     Ryd( 7p)     0.00001      16.01963
   170    S   11  py     Cor( 2p)     1.99991      -6.22379
   171    S   11  py     Val( 3p)     0.73287      -0.25834
   172    S   11  py     Ryd( 6p)     0.00899       1.66812
   173    S   11  py     Ryd( 5p)     0.00112       1.04042
   174    S   11  py     Ryd( 4p)     0.00014       0.42923
   175    S   11  py     Ryd( 7p)     0.00001      16.04499
   176    S   11  pz     Cor( 2p)     1.99994      -6.22448
   177    S   11  pz     Val( 3p)     0.70686      -0.25250
   178    S   11  pz     Ryd( 6p)     0.00853       1.55956
   179    S   11  pz     Ryd( 5p)     0.00095       0.95698
   180    S   11  pz     Ryd( 4p)     0.00029       0.41013
   181    S   11  pz     Ryd( 7p)     0.00000      16.08753
   182    S   11  dxy    Ryd( 3d)     0.03123       0.77698
   183    S   11  dxz    Ryd( 3d)     0.02411       0.66716
   184    S   11  dyz    Ryd( 3d)     0.04350       0.89387
   185    S   11  dx2y2  Ryd( 3d)     0.03475       0.79610
   186    S   11  dz2    Ryd( 3d)     0.03078       0.69119

   187    F   12  S      Cor( 1S)     1.99995     -24.47509
   188    F   12  S      Val( 2S)     1.91607      -1.36785
   189    F   12  S      Ryd( 4S)     0.00103       1.70466
   190    F   12  S      Ryd( 3S)     0.00042       1.50075
   191    F   12  S      Ryd( 5S)     0.00000      66.52483
   192    F   12  px     Val( 2p)     1.93671      -0.46826
   193    F   12  px     Ryd( 3p)     0.00073       0.65174
   194    F   12  px     Ryd( 4p)     0.00014       1.34991
[...]
 3,0.00094989,-0.00097522,0.00113142,0.00028832,-0.00144918,-0.00059940
 ,-0.05789644,0.60292141,-0.01037390,0.01148021,0.00718704,0.00414034,0
 .00151206,0.00193166,-0.00192756,-0.00107317,-0.00035582,0.00253749,0.
 00424179,0.00190909,0.01461839,-0.01105900,0.00743624,0.04506288,0.006
 56855,-0.06194463,-0.00005241,-0.00099297,-0.00191891,-0.00005292,-0.0
 0017925,-0.00015561,0.00065971,-0.00045211,0.00008611,-0.00118449,-0.0
 0047011,-0.00141242,0.00014188,-0.00020241,0.00000692,0.00021355,0.000
 23570,0.00009165,-0.00005877,0.00009131,0.00003977,-0.00003659,0.00014
 521,-0.00003967,-0.00013143,0.00000393,-0.00009634,-0.00027869,0.00052
 929,0.00043127,-0.16979939,-0.11412234,0.19769728,-0.00433045,0.000803
 66,0.00215672,-0.00063159,0.00110174,0.00008258,0.00032682,0.00066168,
 -0.00031919,0.00042109,0.00010810,-0.00031567,-0.00288575,0.00388988,-
 0.00019297,0.00057148,0.03269292,-0.00851458,-0.00003457,-0.00012756,-
 0.00010412,-0.00000903,0.00003295,0.00001050,-0.00003788,-0.00000628,0
 .00005212,-0.00215958,0.00234762,-0.00003045,-0.00034790,-0.00051314,0
 .00035029,0.00021812,0.00016906,0.00004675,0.00013819,0.00005155,-0.00
 027829,0.00002754,0.00011061,-0.00005961,-0.00032348,0.00021511,-0.000
 30150,-0.00015297,0.00037888,0.00022324,-0.09532443,-0.00949795,0.0196
 1682,0.60470547,0.00069479,0.00386159,-0.00153019,-0.00094702,-0.00152
 785,0.00137008,-0.00063968,0.00299319,-0.00078435,0.00147519,-0.003846
 98,0.00076590,-0.00441650,0.00405312,0.00062942,0.01438142,-0.02980626
 ,-0.00047998,-0.00011047,-0.00035266,-0.00016076,0.00006182,-0.0001421
 4,0.00003945,-0.00029769,0.00009544,0.00007116,-0.00046689,-0.00114499
 ,0.00061668,0.00029138,-0.00191939,0.00071132,0.00017169,0.00050979,0.
 00000286,0.00004554,0.00036276,-0.00041758,-0.00002912,0.00047881,-0.0
 0016819,-0.00037917,0.00043564,-0.00040512,-0.00020459,0.00067112,0.00
 020282,-0.01228034,-0.20817660,0.03766467,-0.01922423,0.47448390,0.001
 76068,-0.00151883,0.00260729,-0.00025973,0.00086750,0.00098896,0.00065
 894,-0.00050874,-0.00000492,-0.00017142,0.00090555,0.00011884,0.000906
 01,-0.00178825,-0.00134609,-0.00904827,0.00215800,-0.00097926,-0.00012
 740,-0.00019667,-0.00047114,-0.00005208,0.00006393,-0.00009917,0.00010
 314,-0.00000118,0.00006312,0.00095934,-0.00010876,-0.00053435,0.000160
 80,0.00085706,-0.00023432,-0.00017988,-0.00021880,-0.00004101,-0.00007
 292,-0.00020883,0.00018483,-0.00002935,-0.00017179,0.00003986,0.000118
 79,-0.00018856,0.00013861,0.00002284,-0.00024027,-0.00005022,0.0235680
 9,0.02440900,-0.06414921,-0.01949082,0.01057642,0.54765607,0.00033381,
 -0.00045827,0.00010085,-0.00015899,0.00006383,0.00002535,-0.00001872,0
 .00021362,-0.00008510,0.00029541,0.00004091,-0.00005840,-0.00036320,-0
 .00027125,0.00030473,0.00043008,-0.00104980,-0.00003554,0.00004886,0.0
 0007338,-0.00003509,0.00000795,0.00003259,-0.00000985,-0.00001417,-0.0
 0000221,0.00000695,0.00016552,0.00046669,-0.00029589,-0.00009223,-0.00
 044311,0.00016043,0.00009462,0.00010062,0.00000758,0.00005836,0.000062
 10,-0.00010546,0.00000988,0.00007368,-0.00002666,-0.00004873,0.0000867
 7,-0.00006139,-0.00002382,0.00010794,0.00002130,0.00163251,-0.00122425
 ,0.00011609,-0.27847529,0.09973765,0.01989959,0.29930523,0.00171009,-0
 .00088543,-0.00028661,-0.00038275,-0.00023234,0.00017354,0.00009322,0.
 00004433,-0.00006828,0.00019607,0.00018327,-0.00010289,-0.00082495,-0.
 00026901,0.00054576,-0.00321583,-0.00446016,0.00246149,0.00000578,-0.0
 0000984,0.00001840,0.00000594,0.00003111,-0.00000910,0.00004067,-0.000
 02555,-0.00000185,0.00000835,0.00048897,-0.00022107,0.00016256,0.00021
 469,-0.00011284,-0.00010101,-0.00007522,-0.00001726,-0.00006079,-0.000
 03778,0.00010157,-0.00001681,-0.00004670,0.00001880,0.00009075,-0.0000
 6830,0.00009564,0.00003694,-0.00012435,-0.00007477,0.03319944,-0.02167
 041,-0.00299497,0.08679906,-0.08534115,-0.00752864,-0.10232654,0.10306
 670,-0.00032750,0.00039578,0.00041130,0.00017657,0.00005601,-0.0000394
 1,-0.00000395,-0.00014284,-0.00002244,-0.00011145,-0.00007896,0.000257
 21,0.00066950,0.00010388,0.00006255,0.00090072,0.00121167,-0.00036505,
 -0.00001474,-0.00000656,-0.00000017,-0.00001033,-0.00003121,-0.0000103
 9,0.00000463,0.00001173,0.00000867,-0.00025702,-0.00045456,-0.00019394
 ,-0.00003266,0.00009440,-0.00001226,-0.00001577,-0.00001861,-0.0000089
 3,0.00001193,-0.00001929,-0.00001304,0.00000058,-0.00001504,-0.0000000
 9,-0.00000839,-0.00000048,-0.00001287,0.00000782,-0.00002975,-0.000003
 13,-0.00657690,0.00452869,-0.00140629,0.02234557,-0.01059908,-0.049194
 87,-0.02443192,0.00646523,0.04818161,-0.00031568,0.00002208,-0.0001475
 5,0.00086307,0.00009840,-0.00049728,-0.00017525,-0.00109200,0.00042210
 ,-0.00085741,0.00097731,-0.00047872,0.00115921,-0.00138015,-0.00022254
 ,-0.00002394,0.00102733,0.00121145,0.00002401,0.00008794,0.00003688,0.
 00001167,0.00003207,0.00008558,0.00003273,0.00001852,0.00000066,-0.000
 03480,0.00071903,0.00071023,0.00001356,0.00041854,-0.00023205,-0.00003
 018,-0.00009595,0.00000834,-0.00002814,-0.00005784,0.00011783,-0.00000
 034,-0.00009451,0.00004219,0.00007544,-0.00010966,0.00010027,0.0000354
 0,-0.00014000,-0.00002108,0.00223009,-0.00465152,0.00318489,-0.1418693
 7,-0.06455346,-0.09665303,-0.01675282,-0.01300991,-0.01990493,0.149044
 63,0.00097550,-0.00216034,0.00111875,-0.00109427,0.00073752,0.00041055
 ,0.00087818,0.00012468,-0.00043437,0.00026434,-0.00016051,0.00035332,0
 .00092190,0.00075069,-0.00024139,-0.00729386,0.00475068,-0.00033648,-0
 .00008832,0.00002562,-0.00020602,-0.00002384,0.00004385,-0.00005173,0.
 00004690,-0.00002402,-0.00002009,0.00044307,-0.00037221,-0.00098394,-0
 .00013571,0.00033542,-0.00022816,-0.00001621,-0.00011447,0.00001875,-0
 .00001121,-0.00009465,0.00011912,0.00000912,-0.00009327,0.00004114,0.0
 0007249,-0.00005496,0.00008534,0.00002331,-0.00010418,-0.00001420,-0.0
 1654304,-0.03318057,-0.01293997,-0.06420296,-0.09297373,-0.06937122,0.
 00663689,0.00692784,0.00851192,0.07747194,0.11502693,0.00016267,-0.000
 43724,-0.00027295,-0.00010377,0.00013538,-0.00010637,0.00005985,-0.000
 07244,-0.00001671,0.00003149,0.00029619,-0.00021491,-0.00034430,-0.000
 61961,0.00014543,-0.00072417,0.00039138,0.00075999,0.00002070,0.000071
 91,0.00003055,0.00000787,0.00004762,0.00001347,0.00001877,-0.00001966,
 -0.00000690,0.00020269,0.00023586,-0.00043059,-0.00009301,-0.00002221,
 -0.00002318,0.00005170,0.00000446,0.00002021,0.00001982,-0.00000316,-0
 .00000494,0.00001207,-0.00001198,0.00000870,0.00001903,-0.00000247,0.0
 0001649,0.00000364,0.00000274,0.00000730,0.00886951,0.00288445,0.01186
 490,-0.09658885,-0.06889642,-0.15219663,0.00261732,0.00265953,0.002512
 06,0.10589616,0.07580146,0.15856734,-0.00028799,0.00032810,0.00014294,
 0.00072173,0.00002208,-0.00012776,-0.00023183,-0.00066979,0.00030861,-
 0.00026093,0.00084213,0.00042194,-0.00036414,-0.00029006,-0.00044667,0
 .00031298,-0.00009053,-0.00041787,-0.00001016,0.00002945,-0.00001487,-
 0.00004333,-0.00004419,-0.00011424,0.00001408,0.00000912,-0.00001673,-
 0.00179821,0.00125645,-0.00109988,0.00001438,0.00038297,-0.00010621,-0
 .00006250,-0.00008266,-0.00002122,-0.00000859,-0.00005838,0.00005985,-
 0.00000195,-0.00007298,0.00002101,0.00006308,-0.00008151,0.00005977,0.
 00003628,-0.00012632,-0.00003558,-0.00108144,-0.00197292,0.00152942,-0
 .07378649,-0.00960590,0.07598951,-0.00775691,-0.00393587,0.02799739,0.
 00648279,0.00221777,-0.01985581,0.07803174,0.00038333,-0.00148596,-0.0
 0012486,-0.00091158,0.00030452,-0.00013053,0.00058233,0.00031815,-0.00
 019238,0.00010822,-0.00055713,-0.00036779,0.00089777,0.00065788,-0.000
 59669,-0.00341469,0.00287194,0.00096426,0.00002075,0.00016026,0.000167
 50,0.00001922,0.00004571,0.00005502,0.00001800,-0.00000542,0.00000102,
 0.00140411,-0.00024715,0.00077489,-0.00009030,0.00004315,0.00011009,0.
 00000753,-0.00003168,-0.00001246,0.00002406,-0.00002841,-0.00000329,0.
 00000639,-0.00003019,-0.00000053,0.00001919,-0.00000792,0.00001244,0.0
 0001292,-0.00000999,-0.00004095,-0.01491578,-0.01668126,0.03220059,-0.
 00728600,-0.05063438,0.02449513,0.00248397,0.00200712,-0.01194763,0.00
 532698,0.00306151,-0.01269745,0.01391918,0.06376032,-0.00040116,0.0005
 4110,-0.00024820,0.00001299,-0.00028398,0.00010551,-0.00005769,0.00033
 026,-0.00012863,0.00000090,-0.00103418,0.00008460,0.00037988,0.0010658
 3,-0.00047197,0.00270627,-0.00115788,0.00014096,-0.00001063,-0.0001250
 5,-0.00001826,0.00002334,-0.00005612,0.00008073,-0.00002783,0.00002341
 ,0.00000732,-0.00052521,-0.00077027,0.00074996,0.00008867,-0.00006265,
 -0.00009422,-0.00002695,0.00001724,0.00000920,-0.00004742,0.00003189,0
 .00005225,-0.00001169,0.00003598,0.00000164,-0.00001303,0.00001915,-0.
 00000311,-0.00001211,0.00003618,0.00002593,0.00192202,0.01015429,0.001
 35407,0.07595036,0.02830724,-0.27344544,0.00040877,-0.00099496,-0.0007
 5915,0.00707134,0.00063229,-0.02031623,-0.08546179,-0.03625173,0.29406
 359,0.00083046,-0.00237366,-0.00058236,-0.00240783,0.00000212,0.001008
 94,0.00208233,-0.00069280,-0.00033578,-0.00178879,-0.00045164,0.000980
 73,0.00303227,0.00411545,-0.00059333,-0.03911076,0.00148232,0.01578652
 ,-0.00149632,-0.00019633,0.00054936,-0.00019752,-0.00000249,-0.0001090
 7,-0.00010700,0.00012186,-0.00014025,-0.00009234,-0.00009334,0.0000463
 6,0.00196240,0.00173923,-0.00100031,-0.00097941,-0.00058992,-0.0001180
 2,-0.00060278,-0.00025728,0.00075169,-0.00021762,-0.00024958,0.0001212
 2,-0.00003964,-0.00041939,0.00032198,-0.00010500,-0.00055571,-0.000020
 93,-0.15795388,-0.03391517,0.05928003,-0.00197534,-0.00991402,0.002495
 62,-0.00004599,0.00354201,-0.00095198,0.00015890,0.00093114,-0.0000959
 0,-0.00045662,0.00292180,-0.00196706,0.52032171,0.00497020,-0.00229901
 ,-0.00194249,-0.00074526,0.00049322,0.00049191,0.00118593,-0.00002309,
 -0.00025356,0.00082599,0.00029379,0.00021025,0.00361747,-0.00323245,0.
 00086768,0.01274222,0.01361285,-0.01141074,0.00253012,-0.00128281,-0.0
 0037070,-0.00010108,-0.00003542,-0.00015260,0.00035503,-0.00026030,-0.
 00011958,-0.00004702,0.00005729,-0.00011247,0.00160930,0.00154557,-0.0
 0065778,-0.00092774,-0.00045025,-0.00016815,-0.00050168,-0.00016911,0.
 00054186,-0.00017716,-0.00018791,0.00007238,-0.00001392,-0.00032238,0.
 00021598,-0.00007293,-0.00042288,-0.00003952,-0.02489584,-0.11688288,0
 .03112974,-0.02358167,-0.01305705,0.01657731,-0.00269887,0.00006772,0.
 00123261,-0.00036935,-0.00158990,0.00021640,-0.00084967,-0.00287619,-0
 .00062977,-0.04831292,0.58996949,-0.00366182,0.00173813,-0.00006855,0.
 00172040,-0.00028971,0.00010388,-0.00145376,-0.00036455,0.00074699,0.0
 0004271,0.00147898,0.00110308,-0.00059001,0.00112804,0.00210978,0.0022
 0367,-0.00483260,-0.00436440,-0.00036277,0.00020565,0.00025641,-0.0000
 7225,-0.00012500,-0.00029725,-0.00024070,0.00003157,-0.00014263,0.0000
 5332,-0.00006804,-0.00042176,-0.00081707,-0.00077253,0.00179309,0.0002
 4671,0.00023435,-0.00018162,0.00054742,0.00002808,-0.00103441,0.000089
 89,0.00007659,-0.00021442,-0.00010690,0.00024926,-0.00037004,0.0000583
 2,0.00023576,-0.00013699,0.06856299,0.03589947,-0.09223394,0.00172192,
 0.00432028,-0.00699106,0.00117184,-0.00090420,0.00048573,-0.00086872,-
 0.00362451,-0.00009586,0.00070198,0.00257728,-0.00079446,0.03416237,0.
 00960520,0.51888985,0.00105328,0.00059670,-0.00087216,-0.00116786,-0.0
 0002108,-0.00021719,0.00048605,0.00098416,-0.00045910,0.00063965,-0.00
 129438,-0.00014856,-0.00197447,-0.00028215,-0.00018619,0.00544805,-0.0
 0274881,0.00121910,-0.00036401,0.00068210,0.00097537,0.00004919,0.0000
 5056,0.00012057,0.00002360,-0.00000463,0.00006371,0.00006254,0.0000373
 3,0.00016565,-0.00007736,-0.00007386,0.00007756,0.00003612,0.00005467,
 0.00001623,0.00002071,-0.00001656,-0.00002947,0.00000811,0.00000567,-0
 .00000727,-0.00001271,0.00003351,-0.00002871,-0.00001298,0.00005249,0.
 00001917,-0.00309538,-0.00768234,0.03288568,-0.00029370,0.00173963,0.0
 0198867,-0.00004379,-0.00042382,-0.00004946,-0.00015507,0.00002532,-0.
 00025366,0.00000456,-0.00113758,0.00022708,-0.06276732,0.01036721,-0.0
 5683585,0.06813823,-0.00099570,0.00105436,-0.00013896,0.00073632,-0.00
 038299,0.00013153,-0.00067888,-0.00016277,0.00026341,-0.00003805,0.000
 48114,-0.00008954,-0.00011898,-0.00026453,-0.00011562,0.00130830,-0.00
 058217,-0.00063231,0.00015141,-0.00045026,-0.00069100,-0.00001539,-0.0
 0003825,-0.00003083,-0.00001963,0.00000798,0.00002300,0.00002592,-0.00
 000685,0.00000370,0.00003354,-0.00050298,-0.00008952,0.00013470,0.0001
 3179,0.00007605,-0.00002276,0.00010850,-0.00001237,0.00000967,0.000095
 16,-0.00000121,-0.00007776,0.00007945,-0.00005772,-0.00002205,0.000128
 24,0.00004972,-0.00207770,-0.00287201,0.01434900,-0.00021683,0.0008882
 5,0.00117380,-0.00000648,0.00012704,0.00005779,-0.00015790,-0.00009170
 ,-0.00007924,-0.00049103,-0.00062772,0.00019663,0.00982566,-0.05586644
 ,0.03506698,-0.00566454,0.05664922,0.00040530,-0.00055219,-0.00010725,
 -0.00019074,-0.00003731,0.00009143,0.00035101,-0.00059562,0.00002174,-
 0.00062379,0.00044959,0.00009346,0.00171219,0.00004610,-0.00042300,-0.
 00479352,0.00362681,0.00079122,-0.00010259,-0.00072784,-0.00026106,-0.
 00004964,0.00000429,0.00003424,0.00002589,-0.00000909,-0.00003305,-0.0
 0010545,-0.00003980,-0.00000328,0.00059099,0.00026992,-0.00084468,-0.0
 0014060,-0.00010621,0.00009751,-0.00029527,0.00002707,0.00044604,-0.00
 005939,-0.00002764,0.00009790,-0.00002627,-0.00010595,0.00014022,-0.00
 005421,-0.00010009,0.00008957,0.01408438,0.00700292,-0.01296153,-0.000
 01922,-0.00190233,-0.00217688,-0.00001572,0.00015199,-0.00003840,0.000
 12300,0.00033768,-0.00003263,0.00024314,0.00089720,-0.00035001,-0.0566
 5325,0.03455616,-0.27071963,0.05245946,-0.04466539,0.29992565,0.000301
 94,-0.00068192,0.00013644,0.00012935,0.00013293,0.00001355,-0.00002608
 ,0.00004441,-0.00000673,-0.00023531,-0.00041277,0.00021617,-0.00079872
 ,0.00131106,0.00006365,-0.00196861,-0.00427689,0.00203889,0.00014398,0
 .00001688,-0.00023693,0.00001035,0.00000258,-0.00001987,-0.00012061,0.
 00007589,-0.00001690,-0.00004758,-0.00008759,0.00003530,-0.00011944,-0
 .00032452,0.00009885,0.00010358,0.00008064,0.00001673,0.00004529,0.000
 05884,-0.00007783,0.00001092,0.00005605,-0.00001624,-0.00004581,0.0000
 6996,-0.00005359,-0.00002139,0.00009880,0.00002656,-0.02631898,0.01878
 079,0.00124534,-0.00021752,0.00345038,-0.00088180,0.00089530,-0.001503
 12,0.00048402,0.00015503,-0.00028296,-0.00003445,0.00050244,-0.0002155
 0,-0.00012978,-0.18548151,0.12906818,-0.01177698,-0.00429656,0.0049733
 2,-0.00142744,0.20793513,0.00022272,-0.00092988,0.00029665,-0.00015066
 ,0.00050588,-0.00002266,0.00028193,0.00010465,-0.00013601,0.00007067,-
 0.00034564,0.00010978,-0.00086103,0.00062764,0.00029132,-0.00166507,-0
 .00142654,0.00135158,0.00036252,0.00044941,-0.00044488,0.00003185,0.00
 002412,-0.00004073,-0.00003552,0.00001465,-0.00001977,0.00004072,0.000
 05864,-0.00003805,-0.00028105,0.00042717,-0.00005396,0.00002602,-0.000
 10435,-0.00000314,0.00003060,-0.00007799,0.00004984,0.00002378,-0.0001
 0254,0.00002585,0.00010344,-0.00005970,0.00005709,0.00006777,-0.000099
 61,-0.00006240,-0.01170529,0.00706156,0.00003581,-0.00286931,0.0001194
 6,0.00098748,-0.00124561,-0.00015808,0.00067766,0.00002577,-0.00006837
 ,-0.00000250,-0.00041303,0.00014884,0.00000856,0.14054300,-0.17865603,
 0.01200903,0.00198946,-0.00263649,-0.00017746,-0.14368937,0.19214052,0
 .00014797,0.00049630,0.00011027,0.00011616,-0.00007459,0.00016794,-0.0
 0005368,-0.00010170,0.00000994,0.00007261,0.00027514,-0.00012619,0.000
 84891,-0.00065991,0.00025020,0.00177016,0.00218776,-0.00112398,-0.0003
 3605,-0.00020543,-0.00024258,-0.00001826,-0.00001615,-0.00001081,0.000
 05215,-0.00005645,-0.00003990,-0.00000313,0.00000696,0.00001133,0.0001
 4634,-0.00002251,-0.00018526,-0.00001401,-0.00001182,0.00002762,-0.000
 07891,0.00002809,0.00010522,-0.00001270,0.00001887,0.00001442,-0.00001
 293,-0.00001327,0.00002425,-0.00001328,-0.00000970,0.00001883,0.015450
 93,-0.01264769,-0.00191679,0.00103244,-0.00097766,0.00067531,0.0003285
 7,0.00067296,0.00029421,-0.00022207,0.00025667,-0.00001479,0.00007730,
 -0.00023347,-0.00000853,-0.01702558,0.01695817,-0.04946275,-0.02202719
 ,0.02206525,-0.00018746,0.00892390,-0.01797675,0.05052421,-0.00008532,
 0.00046645,-0.00050568,-0.00043453,0.00047437,0.00062078,0.00032841,0.
 00078378,-0.00036745,0.00075796,-0.00084633,0.00033183,-0.00142291,0.0
 0024098,0.00079142,0.00368007,-0.00307606,-0.00078856,-0.00202130,0.00
 111862,-0.00111298,-0.00000129,-0.00001535,-0.00013667,-0.00001628,-0.
 00002409,-0.00004082,0.00004702,-0.00001423,-0.00018286,-0.00055137,0.
 00008572,-0.00011664,0.00021094,-0.00003218,0.00006993,0.00006677,0.00
 000581,0.00001587,0.00005224,-0.00004992,0.00003358,0.00009282,0.00000
 237,0.00002739,0.00008556,-0.00000407,-0.00004085,-0.01596805,-0.02594
 446,-0.00133640,-0.00355337,0.00101959,-0.00166529,0.00051714,-0.00008
 948,0.00009826,-0.00004351,-0.00122552,0.00010063,-0.00003297,-0.00018
 430,-0.00009924,-0.07256240,-0.06397654,-0.03449669,-0.00170888,-0.006
 59516,-0.00543826,0.00946480,0.01909571,0.01085034,0.08309844,-0.00006
 893,-0.00027635,0.00067239,0.00069711,-0.00009005,-0.00074714,-0.00056
 180,-0.00017258,0.00016548,0.00006463,0.00030997,-0.00015995,-0.000393
 43,-0.00009267,0.00001626,0.00187370,-0.00112724,0.00032400,0.00187373
 ,0.00024908,0.00016056,0.00008751,0.00004253,0.00011287,-0.00003300,0.
 00001275,0.00000477,0.00007300,0.00000986,-0.00008092,-0.00030280,-0.0
 0030597,0.00012968,0.00015919,0.00011390,0.00002950,0.00008080,0.00003
 378,-0.00009569,0.00003593,0.00005628,-0.00002159,0.00002990,0.0000750
 3,-0.00003270,0.00000843,0.00008731,0.00001798,-0.00816549,-0.00906013
 ,0.00429844,-0.00183691,-0.00002988,-0.00102065,-0.00045425,0.00024552
 ,-0.00000337,-0.00051367,-0.00070184,0.00011702,-0.00022243,-0.0001560
 0,-0.00003347,-0.06720036,-0.22842583,-0.09390348,0.00273092,0.0047340
 3,0.00167720,-0.00674607,-0.01701732,-0.00995909,0.07878430,0.25148583
 ,-0.00051977,-0.00129463,0.00017671,0.00039811,0.00025391,-0.00042042,
 -0.00004582,-0.00025537,0.00009853,-0.00013970,0.00013642,-0.00015680,
 0.00015530,0.00005874,-0.00044898,-0.00063238,0.00037084,0.00097394,0.
 00003344,0.00046832,0.00020935,0.00005396,0.00002989,0.00003468,0.0000
 1041,0.00002064,0.00001988,0.00001500,0.00004281,0.00006070,-0.0004567
 6,0.00018547,0.00005280,0.00011968,-0.00003180,-0.00001911,0.00011059,
 -0.00004742,0.00000933,0.00003822,-0.00004415,0.00000634,0.00011550,-0
 .00002693,0.00004504,0.00007689,-0.00006037,-0.00006093,0.00789387,0.0
 2035017,0.00855518,0.00262596,0.00104336,-0.00055832,-0.00000836,-0.00
 004748,-0.00013291,0.00023704,0.00076509,-0.00021374,0.00016578,0.0003
 4431,-0.00003754,-0.03591101,-0.09681827,-0.09795904,-0.00910345,-0.02
 685315,-0.01369012,0.00137913,0.00307768,0.00108529,0.03338835,0.09833
 191,0.10237014\\-0.00001263,-0.00000485,0.00001589,0.00000534,-0.00000
 003,-0.00000044,-0.00000693,0.00000273,-0.00000417,0.00000389,0.000000
 60,-0.00000155,-0.00001668,0.00000219,0.00000172,0.00002472,0.00000501
 ,-0.00002557,-0.00000319,0.00000411,-0.00000181,0.00000112,0.00000116,
 0.00000061,0.00000026,-0.00000560,0.00000109,-0.00000123,0.00000195,0.
 00000421,-0.00000983,-0.00000416,0.00000576,-0.00001344,-0.00000374,-0
 .00000918,-0.00000462,0.00000353,0.00001284,0.00000888,0.00001276,-0.0
 0000729,0.00000966,-0.00000241,0.00000494,0.00000362,-0.00000684,0.000
 00190,0.00000045,0.00000115,0.00000021,0.00000812,-0.00000798,0.000000
 57,-0.00000147,0.00000449,-0.00000410,0.00000400,0.00000607,-0.0000001
 2,0.00000064,0.00000149,-0.00000363,-0.00001493,-0.00000499,0.00001332
 ,0.00000173,0.00000188,0.00000103,0.00000498,0.00000183,-0.00000051,0.
 00000752,-0.00001033,-0.00000573\\\@


 EVERYTHING'S GOT A MORAL, IF ONLY YOU CAN FIND IT.

                                    -- LEWIS CARROL, ALICE IN WONDERLAND
 Job cpu time:       0 days  2 hours 17 minutes 17.6 seconds.
 File lengths (MBytes):  RWF=    465 Int=      0 D2E=      0 Chk=     13 Scr=      1
 Normal termination of Gaussian 09 at Mon Jan  9 17:41:57 2023.
