 Entering Gaussian System, Link 0=g09
 Initial command:
 /cm/shared/apps/gaussian/g09revD.01/g09/l1.exe "//home/sweav003/CHB/CHActivation_Mkhalid/OtherCharges/G09-Chart5_5.com.o9447084.tmp/Gau-69417.inp" -scrdir="//home/sweav003/CHB/CHActivation_Mkhalid/OtherCharges/G09-Chart5_5.com.o9447084.tmp/"
 Entering Link 1 = /cm/shared/apps/gaussian/g09revD.01/g09/l1.exe PID=     69418.
  
 Copyright (c) 1988,1990,1992,1993,1995,1998,2003,2009,2013,
            Gaussian, Inc.  All Rights Reserved.
  
 This is part of the Gaussian(R) 09 program.  It is based on
 the Gaussian(R) 03 system (copyright 2003, Gaussian, Inc.),
 the Gaussian(R) 98 system (copyright 1998, Gaussian, Inc.),
 the Gaussian(R) 94 system (copyright 1995, Gaussian, Inc.),
 the Gaussian 92(TM) system (copyright 1992, Gaussian, Inc.),
 the Gaussian 90(TM) system (copyright 1990, Gaussian, Inc.),
 the Gaussian 88(TM) system (copyright 1988, Gaussian, Inc.),
 the Gaussian 86(TM) system (copyright 1986, Carnegie Mellon
 University), and the Gaussian 82(TM) system (copyright 1983,
 Carnegie Mellon University). Gaussian is a federally registered
 trademark of Gaussian, Inc.
  
 This software contains proprietary and confidential information,
 including trade secrets, belonging to Gaussian, Inc.
  
 This software is provided under written license and may be
 used, copied, transmitted, or stored only in accord with that
 written license.
  
 The following legend is applicable only to US Government
 contracts under FAR:
  
                    RESTRICTED RIGHTS LEGEND
  
 Use, reproduction and disclosure by the US Government is
 subject to restrictions as set forth in subparagraphs (a)
 and (c) of the Commercial Computer Software - Restricted
 Rights clause in FAR 52.227-19.
  
 Gaussian, Inc.
 340 Quinnipiac St., Bldg. 40, Wallingford CT 06492
  
  
 ---------------------------------------------------------------
 Warning -- This program may not be used in any manner that
 competes with the business of Gaussian, Inc. or will provide
 assistance to any competitor of Gaussian, Inc.  The licensee
 of this program is prohibited from giving any competitor of
 Gaussian, Inc. access to this program.  By using this program,
 the user acknowledges that Gaussian, Inc. is engaged in the
 business of creating and licensing software in the field of
 computational chemistry and represents and warrants to the
 licensee that it is not a competitor of Gaussian, Inc. and that
 it will not use this program in any manner prohibited above.
 ---------------------------------------------------------------
  

 Cite this work as:
 Gaussian 09, Revision D.01,
 M. J. Frisch, G. W. Trucks, H. B. Schlegel, G. E. Scuseria, 
 M. A. Robb, J. R. Cheeseman, G. Scalmani, V. Barone, B. Mennucci, 
 G. A. Petersson, H. Nakatsuji, M. Caricato, X. Li, H. P. Hratchian, 
 A. F. Izmaylov, J. Bloino, G. Zheng, J. L. Sonnenberg, M. Hada, 
 M. Ehara, K. Toyota, R. Fukuda, J. Hasegawa, M. Ishida, T. Nakajima, 
 Y. Honda, O. Kitao, H. Nakai, T. Vreven, J. A. Montgomery, Jr., 
 J. E. Peralta, F. Ogliaro, M. Bearpark, J. J. Heyd, E. Brothers, 
 K. N. Kudin, V. N. Staroverov, T. Keith, R. Kobayashi, J. Normand, 
 K. Raghavachari, A. Rendell, J. C. Burant, S. S. Iyengar, J. Tomasi, 
 M. Cossi, N. Rega, J. M. Millam, M. Klene, J. E. Knox, J. B. Cross, 
 V. Bakken, C. Adamo, J. Jaramillo, R. Gomperts, R. E. Stratmann, 
 O. Yazyev, A. J. Austin, R. Cammi, C. Pomelli, J. W. Ochterski, 
 R. L. Martin, K. Morokuma, V. G. Zakrzewski, G. A. Voth, 
 P. Salvador, J. J. Dannenberg, S. Dapprich, A. D. Daniels, 
 O. Farkas, J. B. Foresman, J. V. Ortiz, J. Cioslowski, 
 and D. J. Fox, Gaussian, Inc., Wallingford CT, 2013.
 
 ******************************************
 Gaussian 09:  ES64L-G09RevD.01 24-Apr-2013
                23-Jul-2021 
 ******************************************
 %mem=100MW
 %nprocshared=20
 Will use up to   20 processors via shared memory.
 ---------------------------------------------------------------------
 # b3lyp/6-311+g(d,p) geom=connectivity pop=(hirshfeld,chelpg,mbs,npa)
 ---------------------------------------------------------------------
 1/38=1,57=2/1;
 2/12=2,17=6,18=5,40=1/2;
 3/5=4,6=6,7=111,11=2,16=1,25=1,30=1,74=-5/1,2,3;
 4//1;
 5/5=2,38=5/2;
 6/7=2,8=2,9=2,10=2,15=8,20=3,27=100,28=1,40=-1,79=1/1,2,7;
 99/5=1,9=1/99;
 --------
 Chart5_5
 --------
 Symbolic Z-matrix:
 Charge =  0 Multiplicity = 1
 6                    -1.08705  -0.86153   0.00726 
 6                     0.20553  -1.39265  -0.01254 
 6                     1.28941  -0.51054  -0.02752 
 6                     1.10316   0.87456  -0.01249 
 6                    -0.20249   1.37206   0.00734 
 6                    -1.30886   0.5182    0.01422 
 1                    -1.93853  -1.53644   0.01287 
 1                     2.29941  -0.91038  -0.0505 
 1                    -0.36124   2.44692   0.0127 
 6                    -2.71324   1.07467  -0.00723 
 1                    -2.76348   2.0493    0.48412 
 1                    -3.06674   1.2079   -1.03577 
 1                    -3.41559   0.40502   0.49499 
 6                     0.42604  -2.88692   0.01075 
 1                     0.48091  -3.259     1.0399 
 1                    -0.38951  -3.41866  -0.48539 
 1                     1.36049  -3.16032  -0.48516 
 6                     2.28731   1.81229   0.01074 
 1                     2.59658   2.02814   1.03951 
 1                     3.14847   1.38015  -0.50466 
 1                     2.05033   2.76653  -0.46584 
 
                          Input orientation:                          
 ---------------------------------------------------------------------
 Center     Atomic      Atomic             Coordinates (Angstroms)
 Number     Number       Type             X           Y           Z
 ---------------------------------------------------------------------
      1          6           0       -1.087046   -0.861529    0.007264
      2          6           0        0.205530   -1.392646   -0.012538
      3          6           0        1.289405   -0.510538   -0.027522
      4          6           0        1.103162    0.874559   -0.012485
      5          6           0       -0.202485    1.372056    0.007337
      6          6           0       -1.308864    0.518203    0.014224
      7          1           0       -1.938531   -1.536443    0.012873
      8          1           0        2.299409   -0.910377   -0.050501
      9          1           0       -0.361241    2.446918    0.012704
     10          6           0       -2.713236    1.074668   -0.007228
     11          1           0       -2.763481    2.049298    0.484116
     12          1           0       -3.066736    1.207903   -1.035767
     13          1           0       -3.415593    0.405024    0.494985
     14          6           0        0.426041   -2.886920    0.010748
     15          1           0        0.480912   -3.258995    1.039898
     16          1           0       -0.389506   -3.418662   -0.485387
     17          1           0        1.360490   -3.160323   -0.485164
     18          6           0        2.287308    1.812286    0.010738
     19          1           0        2.596583    2.028141    1.039514
     20          1           0        3.148475    1.380145   -0.504655
     21          1           0        2.050333    2.766532   -0.465844
 ---------------------------------------------------------------------
                    Distance matrix (angstroms):
                    1          2          3          4          5
     1  C    0.000000
     2  C    1.397580   0.000000
     3  C    2.402483   1.397542   0.000000
     4  C    2.794889   2.438434   1.397643   0.000000
     5  C    2.402363   2.794718   2.402314   1.397358   0.000000
     6  C    1.397466   2.438329   2.794826   2.438354   1.397565
     7  H    1.086539   2.149028   3.387283   3.881426   3.387219
     8  H    3.387300   2.149036   1.086512   2.149058   3.387081
     9  H    3.387129   3.881252   3.387152   2.148819   1.086536
    10  C    2.528550   3.821892   4.305163   3.821644   2.528344
    11  H    3.392748   4.572600   4.820832   4.071554   2.691593
    12  H    3.047890   4.303205   4.790153   4.306538   3.052695
    13  H    2.695210   4.074522   4.821646   4.571338   3.390725
    14  C    2.528172   1.510636   2.528647   3.822010   4.305105
    15  H    3.045106   2.160258   3.057297   4.310565   4.793730
    16  H    2.695959   2.163884   3.389036   4.569840   4.819620
    17  H    3.393725   2.163791   2.689953   4.070616   4.819534
    18  C    4.305295   3.821771   2.528396   1.510653   2.528415
    19  H    4.794252   4.304153   3.048306   2.160500   3.054606
    20  H    4.819419   4.073263   2.694157   2.163597   3.389858
    21  H    4.819731   4.572477   3.392687   2.163846   2.691403
                    6          7          8          9         10
     6  C    0.000000
     7  H    2.148965   0.000000
     8  H    3.881322   4.284403   0.000000
     9  H    2.148938   4.284275   4.284213   0.000000
    10  C    1.510753   2.723687   5.391557   2.723114   0.000000
    11  H    2.163553   3.709468   5.888832   2.480139   1.092633
    12  H    2.160621   3.147051   5.852638   3.155020   1.095722
    13  H    2.163850   2.486652   5.889744   3.705535   1.092679
    14  C    3.821619   2.723049   2.723964   5.391627   5.054658
    15  H    4.303781   3.142558   3.164160   5.858480   5.484495
    16  H    4.073541   2.488070   3.702821   5.886758   5.081178
    17  H    4.572351   3.710602   2.476441   5.886712   5.895661
    18  C    3.821926   5.391818   2.723379   2.723522   5.054685
    19  H    4.310876   5.858968   3.148227   3.158866   5.495358
    20  H    4.569469   5.886591   2.484685   3.704561   5.890705
    21  H    4.070584   5.886918   3.708667   2.479284   5.075857
                   11         12         13         14         15
    11  H    0.000000
    12  H    1.763506   0.000000
    13  H    1.768899   1.763382   0.000000
    14  C    5.896047   5.482906   5.082276   0.000000
    15  H    6.246035   6.070203   5.376311   1.095719   0.000000
    16  H    6.039394   5.373600   4.973822   1.092711   1.763410
    17  H    6.714670   6.243788   6.040146   1.092645   1.763295
    18  C    5.078458   5.488737   5.893892   5.054389   5.480888
    19  H    5.388803   6.087098   6.251182   5.470597   5.694723
    20  H    6.031306   6.240240   6.710971   5.087743   5.569843
    21  H    4.958796   5.379455   6.031273   5.901439   6.406038
                   16         17         18         19         20
    16  H    0.000000
    17  H    1.768962   0.000000
    18  C    5.896973   5.082495   0.000000
    19  H    6.396070   5.547317   1.095730   0.000000
    20  H    5.962066   4.879869   1.092696   1.763219   0.000000
    21  H    6.649047   5.966898   1.092645   1.763438   1.769037
                   21
    21  H    0.000000
 Stoichiometry    C9H12
 Framework group  C1[X(C9H12)]
 Deg. of freedom    57
 Full point group                 C1      NOp   1
 Largest Abelian subgroup         C1      NOp   1
 Largest concise Abelian subgroup C1      NOp   1
                         Standard orientation:                         
 ---------------------------------------------------------------------
 Center     Atomic      Atomic             Coordinates (Angstroms)
 Number     Number       Type             X           Y           Z
 ---------------------------------------------------------------------
      1          6           0        1.086820    0.861814    0.007264
      2          6           0       -0.205895    1.392592   -0.012538
      3          6           0       -1.289539    0.510200   -0.027522
      4          6           0       -1.102933   -0.874848   -0.012485
      5          6           0        0.202845   -1.372003    0.007337
      6          6           0        1.309000   -0.517860    0.014224
      7          1           0        1.938128    1.536951    0.012873
      8          1           0       -2.299648    0.909774   -0.050501
      9          1           0        0.361882   -2.446823    0.012704
     10          6           0        2.713518   -1.073957   -0.007228
     11          1           0        2.764018   -2.048574    0.484116
     12          1           0        3.067053   -1.207099   -1.035767
     13          1           0        3.415699   -0.404129    0.494985
     14          6           0       -0.426798    2.886808    0.010748
     15          1           0       -0.481766    3.258869    1.039898
     16          1           0        0.388610    3.418764   -0.485387
     17          1           0       -1.361318    3.159966   -0.485164
     18          6           0       -2.286833   -1.812886    0.010738
     19          1           0       -2.596051   -2.028822    1.039514
     20          1           0       -3.148113   -1.380970   -0.504655
     21          1           0       -2.049608   -2.767069   -0.465844
 ---------------------------------------------------------------------
 Rotational constants (GHZ):      1.7442334      1.7441299      0.8865197
 Standard basis: 6-311+G(d,p) (5D, 7F)
 There are   279 symmetry adapted cartesian basis functions of A   symmetry.
 There are   270 symmetry adapted basis functions of A   symmetry.
   270 basis functions,   420 primitive gaussians,   279 cartesian basis functions
    33 alpha electrons       33 beta electrons
       nuclear repulsion energy       418.8675668968 Hartrees.
 NAtoms=   21 NActive=   21 NUniq=   21 SFac= 1.00D+00 NAtFMM=   60 NAOKFM=F Big=F
 Integral buffers will be    131072 words long.
 Raffenetti 2 integral format.
 Two-electron integral symmetry is turned on.
 One-electron integrals computed using PRISM.
 NBasis=   270 RedAO= T EigKep=  2.17D-06  NBF=   270
 NBsUse=   270 1.00D-06 EigRej= -1.00D+00 NBFU=   270
 ExpMin= 4.38D-02 ExpMax= 4.56D+03 ExpMxC= 6.82D+02 IAcc=2 IRadAn=         4 AccDes= 0.00D+00
 Harris functional with IExCor=  402 and IRadAn=       4 diagonalized for initial guess.
 HarFok:  IExCor=  402 AccDes= 0.00D+00 IRadAn=         4 IDoV= 1 UseB2=F ITyADJ=14
 ICtDFT=  3500011 ScaDFX=  1.000000  1.000000  1.000000  1.000000
 FoFCou: FMM=F IPFlag=           0 FMFlag=      100000 FMFlg1=           0
         NFxFlg=           0 DoJE=T BraDBF=F KetDBF=T FulRan=T
         wScrn=  0.000000 ICntrl=     500 IOpCl=  0 I1Cent=   200000004 NGrid=           0
         NMat0=    1 NMatS0=      1 NMatT0=    0 NMatD0=    1 NMtDS0=    0 NMtDT0=    0
 Petite list used in FoFCou.
 Requested convergence on RMS density matrix=1.00D-08 within 128 cycles.
 Requested convergence on MAX density matrix=1.00D-06.
 Requested convergence on             energy=1.00D-06.
 No special actions if energy rises.
 SCF Done:  E(RB3LYP) =  -350.293600368     A.U. after   12 cycles
            NFock= 12  Conv=0.78D-08     -V/T= 2.0049

 **********************************************************************

            Population analysis using the SCF density.

 **********************************************************************

 Orbital symmetries:
       Occupied  (A) (A) (A) (A) (A) (A) (A) (A) (A) (A) (A) (A)
                 (A) (A) (A) (A) (A) (A) (A) (A) (A) (A) (A) (A)
                 (A) (A) (A) (A) (A) (A) (A) (A) (A)
       Virtual   (A) (A) (A) (A) (A) (A) (A) (A) (A) (A) (A) (A)
                 (A) (A) (A) (A) (A) (A) (A) (A) (A) (A) (A) (A)
                 (A) (A) (A) (A) (A) (A) (A) (A) (A) (A) (A) (A)
                 (A) (A) (A) (A) (A) (A) (A) (A) (A) (A) (A) (A)
                 (A) (A) (A) (A) (A) (A) (A) (A) (A) (A) (A) (A)
                 (A) (A) (A) (A) (A) (A) (A) (A) (A) (A) (A) (A)
                 (A) (A) (A) (A) (A) (A) (A) (A) (A) (A) (A) (A)
                 (A) (A) (A) (A) (A) (A) (A) (A) (A) (A) (A) (A)
                 (A) (A) (A) (A) (A) (A) (A) (A) (A) (A) (A) (A)
                 (A) (A) (A) (A) (A) (A) (A) (A) (A) (A) (A) (A)
                 (A) (A) (A) (A) (A) (A) (A) (A) (A) (A) (A) (A)
                 (A) (A) (A) (A) (A) (A) (A) (A) (A) (A) (A) (A)
                 (A) (A) (A) (A) (A) (A) (A) (A) (A) (A) (A) (A)
                 (A) (A) (A) (A) (A) (A) (A) (A) (A) (A) (A) (A)
                 (A) (A) (A) (A) (A) (A) (A) (A) (A) (A) (A) (A)
                 (A) (A) (A) (A) (A) (A) (A) (A) (A) (A) (A) (A)
                 (A) (A) (A) (A) (A) (A) (A) (A) (A) (A) (A) (A)
                 (A) (A) (A) (A) (A) (A) (A) (A) (A) (A) (A) (A)
                 (A) (A) (A) (A) (A) (A) (A) (A) (A) (A) (A) (A)
                 (A) (A) (A) (A) (A) (A) (A) (A) (A)
 The electronic state is 1-A.
 Alpha  occ. eigenvalues --  -10.17942 -10.17940 -10.17939 -10.16590 -10.16590
 Alpha  occ. eigenvalues --  -10.16589 -10.16263 -10.16259 -10.16257  -0.86031
 Alpha  occ. eigenvalues --   -0.78044  -0.78042  -0.70163  -0.67963  -0.67963
 Alpha  occ. eigenvalues --   -0.57317  -0.57314  -0.49718  -0.47862  -0.43192
 Alpha  occ. eigenvalues --   -0.42829  -0.41431  -0.41385  -0.40466  -0.40460
 Alpha  occ. eigenvalues --   -0.39576  -0.39567  -0.36635  -0.33566  -0.33537
 Alpha  occ. eigenvalues --   -0.33522  -0.23821  -0.23814
 Alpha virt. eigenvalues --   -0.00982  -0.00956   0.00316   0.01843   0.01856
 Alpha virt. eigenvalues --    0.03630   0.03652   0.03758   0.04819   0.05656
 Alpha virt. eigenvalues --    0.06402   0.06511   0.06982   0.07939   0.08017
 Alpha virt. eigenvalues --    0.09662   0.09867   0.10594   0.10965   0.11812
 Alpha virt. eigenvalues --    0.12699   0.12729   0.14166   0.14321   0.15046
 Alpha virt. eigenvalues --    0.16350   0.16728   0.16751   0.17325   0.17566
 Alpha virt. eigenvalues --    0.17806   0.19519   0.19986   0.20104   0.20258
 Alpha virt. eigenvalues --    0.21271   0.21579   0.21873   0.22133   0.23613
 Alpha virt. eigenvalues --    0.24108   0.24412   0.24444   0.24992   0.25850
 Alpha virt. eigenvalues --    0.26400   0.26543   0.28050   0.28097   0.29093
 Alpha virt. eigenvalues --    0.29451   0.31762   0.31878   0.32620   0.34277
 Alpha virt. eigenvalues --    0.35043   0.38248   0.38995   0.41511   0.43305
 Alpha virt. eigenvalues --    0.43397   0.44973   0.48698   0.49317   0.49539
 Alpha virt. eigenvalues --    0.52870   0.52897   0.55608   0.55673   0.56088
 Alpha virt. eigenvalues --    0.56282   0.59342   0.59731   0.60306   0.61438
 Alpha virt. eigenvalues --    0.61657   0.62671   0.64117   0.64980   0.65247
 Alpha virt. eigenvalues --    0.65670   0.66869   0.67133   0.67849   0.69577
 Alpha virt. eigenvalues --    0.70371   0.70800   0.71066   0.71499   0.71764
 Alpha virt. eigenvalues --    0.72264   0.76501   0.76907   0.77153   0.87626
 Alpha virt. eigenvalues --    0.88711   0.91363   0.92223   0.92240   0.94089
 Alpha virt. eigenvalues --    0.94174   0.95093   0.95602   0.97296   0.99774
 Alpha virt. eigenvalues --    1.02059   1.02243   1.03750   1.04516   1.10661
 Alpha virt. eigenvalues --    1.11389   1.13410   1.13528   1.28789   1.32148
 Alpha virt. eigenvalues --    1.32806   1.36947   1.38335   1.40746   1.41169
 Alpha virt. eigenvalues --    1.45764   1.46696   1.48871   1.48883   1.49794
 Alpha virt. eigenvalues --    1.52435   1.54054   1.54541   1.55335   1.56104
 Alpha virt. eigenvalues --    1.57855   1.59867   1.59943   1.60193   1.60586
 Alpha virt. eigenvalues --    1.61642   1.62560   1.63611   1.66439   1.71124
 Alpha virt. eigenvalues --    1.71375   1.73091   1.73582   1.76638   1.77222
 Alpha virt. eigenvalues --    1.83240   1.85263   1.85720   1.86186   1.86534
 Alpha virt. eigenvalues --    1.92407   1.92921   1.99953   2.00713   2.02182
 Alpha virt. eigenvalues --    2.02310   2.04188   2.04515   2.04971   2.08774
 Alpha virt. eigenvalues --    2.11518   2.16169   2.16859   2.18976   2.21280
 Alpha virt. eigenvalues --    2.22567   2.23410   2.30232   2.31615   2.32753
 Alpha virt. eigenvalues --    2.38484   2.41830   2.43304   2.43800   2.44689
 Alpha virt. eigenvalues --    2.45123   2.52758   2.53608   2.54974   2.55568
 Alpha virt. eigenvalues --    2.56360   2.56939   2.58178   2.59924   2.60612
 Alpha virt. eigenvalues --    2.61616   2.65085   2.66253   2.67600   2.72143
 Alpha virt. eigenvalues --    2.74834   2.75337   2.77353   2.78050   2.82056
 Alpha virt. eigenvalues --    2.83265   2.83292   2.85804   2.86562   2.90278
 Alpha virt. eigenvalues --    2.90600   2.91435   2.95551   2.97336   2.97887
 Alpha virt. eigenvalues --    3.12148   3.19259   3.19780   3.22967   3.23478
 Alpha virt. eigenvalues --    3.39630   3.39671   3.55682   3.67119   3.67145
 Alpha virt. eigenvalues --    3.70092   3.80648   3.80807   3.80877   3.82072
 Alpha virt. eigenvalues --    3.82261   3.84178   4.12805   4.12873   4.32598
 Alpha virt. eigenvalues --    4.35151   4.35230   4.85111  23.58995  23.92295
 Alpha virt. eigenvalues --   23.92342  23.96263  23.99125  23.99234  24.09471
 Alpha virt. eigenvalues --   24.09476  24.18561
          Condensed to atoms (all electrons):
               1          2          3          4          5          6
     1  C   11.891336  -2.023258  -0.466046  -1.164913  -0.443763  -2.049132
     2  C   -2.023258   8.986715  -1.984746   1.505505  -1.156289   1.652929
     3  C   -0.466046  -1.984746  11.843706  -1.982556  -0.494950  -1.235797
     4  C   -1.164913   1.505505  -1.982556   8.980850  -2.005116   1.647144
     5  C   -0.443763  -1.156289  -0.494950  -2.005116  11.867491  -2.020176
     6  C   -2.049132   1.652929  -1.235797   1.647144  -2.020176   8.994663
     7  H    0.146030   0.038557   0.032880  -0.020476   0.032952   0.039082
     8  H    0.030249   0.038879   0.148543   0.040307   0.030735  -0.017959
     9  H    0.032664  -0.020709   0.033276   0.039307   0.144837   0.039488
    10  C    0.357921  -0.363594   0.257793  -0.362756   0.366666  -1.030985
    11  H   -0.106705  -0.001503   0.004869   0.021221   0.144266  -0.147020
    12  H   -0.049443   0.013937   0.000096   0.014611  -0.051959   0.100731
    13  H    0.142849   0.021406   0.005100  -0.002023  -0.105664  -0.146389
    14  C    0.355299  -1.097151   0.451059  -0.418611   0.331934  -0.431708
    15  H   -0.053711   0.108935  -0.054397   0.008029  -0.007620   0.019747
    16  H    0.149679  -0.143447  -0.107133   0.001355   0.005521   0.017481
    17  H   -0.107781  -0.156529   0.143020   0.028535   0.010904  -0.003144
    18  C    0.333284  -0.417825   0.434415  -1.092866   0.359383  -0.425645
    19  H   -0.007490   0.007065  -0.053228   0.108104  -0.053842   0.019947
    20  H    0.011050   0.028672   0.142065  -0.155121  -0.107709  -0.003533
    21  H    0.005085   0.001694  -0.107783  -0.144411   0.150777   0.017603
               7          8          9         10         11         12
     1  C    0.146030   0.030249   0.032664   0.357921  -0.106705  -0.049443
     2  C    0.038557   0.038879  -0.020709  -0.363594  -0.001503   0.013937
     3  C    0.032880   0.148543   0.033276   0.257793   0.004869   0.000096
     4  C   -0.020476   0.040307   0.039307  -0.362756   0.021221   0.014611
     5  C    0.032952   0.030735   0.144837   0.366666   0.144266  -0.051959
     6  C    0.039082  -0.017959   0.039488  -1.030985  -0.147020   0.100731
     7  H    0.561493  -0.000328  -0.000328   0.030308   0.000276   0.000418
     8  H   -0.000328   0.561759  -0.000328  -0.002681  -0.000002  -0.000002
     9  H   -0.000328  -0.000328   0.561789   0.030633   0.000948   0.000422
    10  C    0.030308  -0.002681   0.030633   5.988206   0.450387   0.323037
    11  H    0.000276  -0.000002   0.000948   0.450387   0.552466  -0.028246
    12  H    0.000418  -0.000002   0.000422   0.323037  -0.028246   0.538236
    13  H    0.000913  -0.000002   0.000274   0.450076  -0.029137  -0.028398
    14  C    0.031088   0.029605  -0.003027   0.010712  -0.000957   0.000166
    15  H    0.000506   0.000249   0.000000  -0.000355   0.000000   0.000003
    16  H    0.000827   0.000287  -0.000002   0.000407   0.000001  -0.000021
    17  H    0.000268   0.001213  -0.000002  -0.000733  -0.000001   0.000000
    18  C   -0.002985   0.030208   0.030826   0.011165   0.000427   0.000193
    19  H    0.000000   0.000241   0.000502  -0.000361  -0.000020   0.000003
    20  H   -0.000002   0.001147   0.000266  -0.000742   0.000001   0.000000
    21  H   -0.000002   0.000288   0.000906   0.000441   0.000032  -0.000020
              13         14         15         16         17         18
     1  C    0.142849   0.355299  -0.053711   0.149679  -0.107781   0.333284
     2  C    0.021406  -1.097151   0.108935  -0.143447  -0.156529  -0.417825
     3  C    0.005100   0.451059  -0.054397  -0.107133   0.143020   0.434415
     4  C   -0.002023  -0.418611   0.008029   0.001355   0.028535  -1.092866
     5  C   -0.105664   0.331934  -0.007620   0.005521   0.010904   0.359383
     6  C   -0.146389  -0.431708   0.019747   0.017481  -0.003144  -0.425645
     7  H    0.000913   0.031088   0.000506   0.000827   0.000268  -0.002985
     8  H   -0.000002   0.029605   0.000249   0.000287   0.001213   0.030208
     9  H    0.000274  -0.003027   0.000000  -0.000002  -0.000002   0.030826
    10  C    0.450076   0.010712  -0.000355   0.000407  -0.000733   0.011165
    11  H   -0.029137  -0.000957   0.000000   0.000001  -0.000001   0.000427
    12  H   -0.028398   0.000166   0.000003  -0.000021   0.000000   0.000193
    13  H    0.552661   0.000431  -0.000020   0.000033   0.000001  -0.000973
    14  C    0.000431   6.026579   0.330751   0.441277   0.451347   0.004916
    15  H   -0.000020   0.330751   0.538486  -0.028738  -0.028207   0.000257
    16  H    0.000033   0.441277  -0.028738   0.553250  -0.029085  -0.000712
    17  H    0.000001   0.451347  -0.028207  -0.029085   0.551656  -0.000295
    18  C   -0.000973   0.004916   0.000257  -0.000712  -0.000295   6.025546
    19  H    0.000000   0.000230  -0.000010  -0.000001   0.000010   0.331140
    20  H   -0.000001  -0.000312   0.000010   0.000001  -0.000041   0.450577
    21  H    0.000001  -0.000698  -0.000001   0.000000   0.000001   0.442118
              19         20         21
     1  C   -0.007490   0.011050   0.005085
     2  C    0.007065   0.028672   0.001694
     3  C   -0.053228   0.142065  -0.107783
     4  C    0.108104  -0.155121  -0.144411
     5  C   -0.053842  -0.107709   0.150777
     6  C    0.019947  -0.003533   0.017603
     7  H    0.000000  -0.000002  -0.000002
     8  H    0.000241   0.001147   0.000288
     9  H    0.000502   0.000266   0.000906
    10  C   -0.000361  -0.000742   0.000441
    11  H   -0.000020   0.000001   0.000032
    12  H    0.000003   0.000000  -0.000020
    13  H    0.000000  -0.000001   0.000001
    14  C    0.000230  -0.000312  -0.000698
    15  H   -0.000010   0.000010  -0.000001
    16  H   -0.000001   0.000001   0.000000
    17  H    0.000010  -0.000041   0.000001
    18  C    0.331140   0.450577   0.442118
    19  H    0.538604  -0.028493  -0.028489
    20  H   -0.028493   0.552111  -0.029067
    21  H   -0.028489  -0.029067   0.552776
 Mulliken charges:
               1
     1  C   -0.983205
     2  C    0.960756
     3  C   -1.010188
     4  C    0.953881
     5  C   -0.998379
     6  C    0.962674
     7  H    0.108523
     8  H    0.107592
     9  H    0.108259
    10  C   -0.515547
    11  H    0.138696
    12  H    0.166237
    13  H    0.138863
    14  C   -0.512931
    15  H    0.166087
    16  H    0.139019
    17  H    0.138862
    18  C   -0.513154
    19  H    0.166086
    20  H    0.139122
    21  H    0.138749
 Sum of Mulliken charges =   0.00000
 Mulliken charges with hydrogens summed into heavy atoms:
               1
     1  C   -0.874683
     2  C    0.960756
     3  C   -0.902596
     4  C    0.953881
     5  C   -0.890121
     6  C    0.962674
    10  C   -0.071750
    14  C   -0.068963
    18  C   -0.069198
 Electronic spatial extent (au):  <R**2>=           1371.8923
 Charge=              0.0000 electrons
 Dipole moment (field-independent basis, Debye):
    X=             -0.0006    Y=              0.0028    Z=              0.0394  Tot=              0.0395
 Quadrupole moment (field-independent basis, Debye-Ang):
   XX=            -52.0147   YY=            -52.0262   ZZ=            -59.1196
   XY=              0.0011   XZ=             -0.1140   YZ=              0.0449
 Traceless Quadrupole moment (field-independent basis, Debye-Ang):
   XX=              2.3722   YY=              2.3606   ZZ=             -4.7328
   XY=              0.0011   XZ=             -0.1140   YZ=              0.0449
 Octapole moment (field-independent basis, Debye-Ang**2):
  XXX=             -0.2672  YYY=             -0.5748  ZZZ=              0.7423  XYY=              0.2837
  XXY=              0.5605  XXZ=             -0.7802  XZZ=             -0.0216  YZZ=              0.0455
  YYZ=              0.3099  XYZ=              0.5116
 Hexadecapole moment (field-independent basis, Debye-Ang**3):
 XXXX=           -909.1249 YYYY=           -908.8275 ZZZZ=            -89.7228 XXXY=              0.0845
 XXXZ=              3.5852 YYYX=             -0.0728 YYYZ=              0.2282 ZZZX=             -4.3314
 ZZZY=              1.7184 XXYY=           -303.0626 XXZZ=           -169.6671 YYZZ=           -169.9927
 XXYZ=             -1.7868 YYXZ=              0.3087 ZZXY=             -0.0083
 N-N= 4.188675668968D+02 E-N=-1.649284889299D+03  KE= 3.485774960389D+02
 There are a total of      172620 grid points.
 ElSum from          density=       65.9999085413
 ElSum from atomic densities=       66.0001435418

 Hirshfeld populations at iteration   1 (CX, CA, CB, DipXYZ):
               1          2          3          4          5          6
     1  C    0.000000   3.031998   3.031998   0.039406   0.031467  -0.000075
     2  C    0.000000   2.999506   2.999506  -0.011357   0.077464   0.002710
     3  C    0.000000   3.031994   3.031994  -0.046932   0.018376   0.004086
     4  C    0.000000   2.999531   2.999531  -0.061395  -0.048431   0.002724
     5  C    0.000000   3.032022   3.032022   0.007454  -0.049707   0.000032
     6  C    0.000000   2.999542   2.999542   0.072778  -0.028827  -0.002450
     7  H    0.000001   0.480414   0.480414   0.118276   0.093832   0.000711
     8  H    0.000001   0.480445   0.480445  -0.140359   0.055438  -0.002790
     9  H    0.000001   0.480452   0.480452   0.022096  -0.149307   0.000675
    10  C    0.000000   3.048299   3.048299  -0.015069   0.005972   0.000128
    11  H    0.000001   0.480167   0.480167   0.009852  -0.131306   0.066902
    12  H    0.000001   0.479388   0.479388   0.050449  -0.019046  -0.139375
    13  H    0.000001   0.480158   0.480158   0.096836   0.088166   0.068365
    14  C    0.000000   3.048292   3.048292   0.002422  -0.016091  -0.000285
    15  H    0.000001   0.479407   0.479407  -0.007943   0.053102   0.139449
    16  H    0.000001   0.480159   0.480159   0.108356   0.074256  -0.067601
    17  H    0.000001   0.480151   0.480151  -0.125170   0.039825  -0.067488
    18  C    0.000000   3.048300   3.048300   0.012711   0.010070  -0.000249
    19  H    0.000001   0.479413   0.479413  -0.044102  -0.030957   0.139363
    20  H    0.000001   0.480133   0.480133  -0.117563   0.055537  -0.070124
    21  H    0.000001   0.480184   0.480184   0.029046  -0.129431  -0.064896
       Tot   0.000008  32.999954  32.999954  -0.000211   0.000403   0.009811

 Dip from Atomic Chgs              0.000030   0.000990   0.006060
         Total Dipole             -0.000181   0.001393   0.015871

 Hirshfeld charges, spin densities, dipoles, and CM5 charges using IRadAn=      4:
              Q-H        S-H        Dx         Dy         Dz        Q-CM5   
     1  C   -0.063996   0.000000   0.039406   0.031467  -0.000075  -0.115398
     2  C    0.000989   0.000000  -0.011357   0.077464   0.002710  -0.016215
     3  C   -0.063988   0.000000  -0.046932   0.018376   0.004086  -0.115399
     4  C    0.000939   0.000000  -0.061395  -0.048431   0.002724  -0.016266
     5  C   -0.064043   0.000000   0.007454  -0.049707   0.000032  -0.115453
     6  C    0.000915   0.000000   0.072778  -0.028827  -0.002450  -0.016289
     7  H    0.039171   0.000000   0.118276   0.093832   0.000711   0.096370
     8  H    0.039111   0.000000  -0.140359   0.055438  -0.002790   0.096310
     9  H    0.039096   0.000000   0.022096  -0.149307   0.000675   0.096297
    10  C   -0.096599   0.000000  -0.015069   0.005972   0.000128  -0.240319
    11  H    0.039666   0.000000   0.009852  -0.131306   0.066902   0.091603
    12  H    0.041224   0.000000   0.050449  -0.019046  -0.139375   0.092497
    13  H    0.039684   0.000000   0.096836   0.088166   0.068365   0.091605
    14  C   -0.096584   0.000000   0.002422  -0.016091  -0.000285  -0.240299
    15  H    0.041186   0.000000  -0.007943   0.053102   0.139449   0.092461
    16  H    0.039682   0.000000   0.108356   0.074256  -0.067601   0.091598
    17  H    0.039699   0.000000  -0.125170   0.039825  -0.067488   0.091636
    18  C   -0.096600   0.000000   0.012711   0.010070  -0.000249  -0.240316
    19  H    0.041174   0.000000  -0.044102  -0.030957   0.139363   0.092445
    20  H    0.039733   0.000000  -0.117563   0.055537  -0.070124   0.091658
    21  H    0.039633   0.000000   0.029046  -0.129431  -0.064896   0.091566
       Tot   0.000091   0.000000  -0.000211   0.000403   0.009811   0.000091
 Hirshfeld charges with hydrogens summed into heavy atoms:
              Q-H       Q-CM5   
     1  C   -0.024825  -0.019028
     2  C    0.000989  -0.016215
     3  C   -0.024877  -0.019088
     4  C    0.000939  -0.016266
     5  C   -0.024947  -0.019156
     6  C    0.000915  -0.016289
    10  C    0.023975   0.035386
    14  C    0.023983   0.035396
    18  C    0.023940   0.035352
 
 EQQ= 0.000000000000E+00 EQD= 0.000000000000E+00 EDD= 0.248993052838E-02
 EQQ+QD+DD= 0.248993052838E-02
 
          MBS Condensed to atoms (all electrons):
               1          2          3          4          5          6
     1  C    4.869790   0.504628  -0.033191  -0.011477  -0.033201   0.504805
     2  C    0.504628   4.777739   0.504811  -0.027644  -0.011486  -0.027639
     3  C   -0.033191   0.504811   4.869815   0.504585  -0.033201  -0.011487
     4  C   -0.011477  -0.027644   0.504585   4.777783   0.504844  -0.027648
     5  C   -0.033201  -0.011486  -0.033201   0.504844   4.869683   0.504646
     6  C    0.504805  -0.027639  -0.011487  -0.027648   0.504646   4.777796
     7  H    0.386891  -0.027156   0.001571   0.000059   0.001572  -0.027155
     8  H    0.001571  -0.027148   0.386878  -0.027156   0.001572   0.000060
     9  H    0.001572   0.000060   0.001572  -0.027158   0.386896  -0.027159
    10  C   -0.028433   0.000862   0.000022   0.000863  -0.028460   0.387384
    11  H    0.001285  -0.000027   0.000001   0.000034  -0.003892  -0.021533
    12  H   -0.000617  -0.000019   0.000005  -0.000019  -0.000578  -0.021245
    13  H   -0.003851   0.000033   0.000001  -0.000027   0.001278  -0.021509
    14  C   -0.028461   0.387438  -0.028449   0.000863   0.000022   0.000861
    15  H   -0.000633  -0.021274  -0.000555  -0.000019   0.000005  -0.000018
    16  H   -0.003850  -0.021518   0.001272  -0.000027   0.000002   0.000033
    17  H    0.001290  -0.021505  -0.003898   0.000034   0.000001  -0.000027
    18  C    0.000022   0.000862  -0.028458   0.387439  -0.028448   0.000863
    19  H    0.000005  -0.000018  -0.000622  -0.021262  -0.000565  -0.000019
    20  H    0.000002   0.000033  -0.003849  -0.021508   0.001277  -0.000027
    21  H    0.000002  -0.000027   0.001286  -0.021529  -0.003902   0.000034
               7          8          9         10         11         12
     1  C    0.386891   0.001571   0.001572  -0.028433   0.001285  -0.000617
     2  C   -0.027156  -0.027148   0.000060   0.000862  -0.000027  -0.000019
     3  C    0.001571   0.386878   0.001572   0.000022   0.000001   0.000005
     4  C    0.000059  -0.027156  -0.027158   0.000863   0.000034  -0.000019
     5  C    0.001572   0.001572   0.386896  -0.028460  -0.003892  -0.000578
     6  C   -0.027155   0.000060  -0.027159   0.387384  -0.021533  -0.021245
     7  H    0.578554  -0.000045  -0.000045  -0.003799   0.000036   0.000154
     8  H   -0.000045   0.578514  -0.000045   0.000001   0.000000   0.000000
     9  H   -0.000045  -0.000045   0.578541  -0.003817   0.001175   0.000151
    10  C   -0.003799   0.000001  -0.003817   4.809202   0.376865   0.371658
    11  H    0.000036   0.000000   0.001175   0.376865   0.596836  -0.022189
    12  H    0.000154   0.000000   0.000151   0.371658  -0.022189   0.594324
    13  H    0.001155   0.000000   0.000037   0.376797  -0.022041  -0.022200
    14  C   -0.003800  -0.003818   0.000001  -0.000006   0.000000   0.000000
    15  H    0.000159   0.000144   0.000000   0.000000   0.000000   0.000000
    16  H    0.001145   0.000038   0.000000  -0.000001   0.000000   0.000000
    17  H    0.000036   0.001192   0.000000   0.000000   0.000000   0.000000
    18  C    0.000001  -0.003799  -0.003822  -0.000006  -0.000001   0.000000
    19  H    0.000000   0.000151   0.000152   0.000000   0.000000   0.000000
    20  H    0.000000   0.001163   0.000037   0.000000   0.000000   0.000000
    21  H    0.000000   0.000037   0.001177  -0.000001   0.000000   0.000000
              13         14         15         16         17         18
     1  C   -0.003851  -0.028461  -0.000633  -0.003850   0.001290   0.000022
     2  C    0.000033   0.387438  -0.021274  -0.021518  -0.021505   0.000862
     3  C    0.000001  -0.028449  -0.000555   0.001272  -0.003898  -0.028458
     4  C   -0.000027   0.000863  -0.000019  -0.000027   0.000034   0.387439
     5  C    0.001278   0.000022   0.000005   0.000002   0.000001  -0.028448
     6  C   -0.021509   0.000861  -0.000018   0.000033  -0.000027   0.000863
     7  H    0.001155  -0.003800   0.000159   0.001145   0.000036   0.000001
     8  H    0.000000  -0.003818   0.000144   0.000038   0.001192  -0.003799
     9  H    0.000037   0.000001   0.000000   0.000000   0.000000  -0.003822
    10  C    0.376797  -0.000006   0.000000  -0.000001   0.000000  -0.000006
    11  H   -0.022041   0.000000   0.000000   0.000000   0.000000  -0.000001
    12  H   -0.022200   0.000000   0.000000   0.000000   0.000000   0.000000
    13  H    0.596779  -0.000001   0.000000   0.000000   0.000000   0.000000
    14  C   -0.000001   4.809160   0.371677   0.376775   0.376850  -0.000005
    15  H    0.000000   0.371677   0.594387  -0.022223  -0.022184   0.000000
    16  H    0.000000   0.376775  -0.022223   0.596773  -0.022030   0.000000
    17  H    0.000000   0.376850  -0.022184  -0.022030   0.596839  -0.000001
    18  C    0.000000  -0.000005   0.000000   0.000000  -0.000001   4.809151
    19  H    0.000000   0.000000   0.000000   0.000000   0.000000   0.371677
    20  H    0.000000  -0.000001   0.000000   0.000000  -0.000001   0.376745
    21  H    0.000000   0.000000   0.000000   0.000000   0.000000   0.376880
              19         20         21
     1  C    0.000005   0.000002   0.000002
     2  C   -0.000018   0.000033  -0.000027
     3  C   -0.000622  -0.003849   0.001286
     4  C   -0.021262  -0.021508  -0.021529
     5  C   -0.000565   0.001277  -0.003902
     6  C   -0.000019  -0.000027   0.000034
     7  H    0.000000   0.000000   0.000000
     8  H    0.000151   0.001163   0.000037
     9  H    0.000152   0.000037   0.001177
    10  C    0.000000   0.000000  -0.000001
    11  H    0.000000   0.000000   0.000000
    12  H    0.000000   0.000000   0.000000
    13  H    0.000000   0.000000   0.000000
    14  C    0.000000  -0.000001   0.000000
    15  H    0.000000   0.000000   0.000000
    16  H    0.000000   0.000000   0.000000
    17  H    0.000000  -0.000001   0.000000
    18  C    0.371677   0.376745   0.376880
    19  H    0.594384  -0.022195  -0.022220
    20  H   -0.022195   0.596747  -0.022021
    21  H   -0.022220  -0.022021   0.596862
 MBS Mulliken charges:
               1
     1  C   -0.128148
     2  C    0.008996
     3  C   -0.128113
     4  C    0.008970
     5  C   -0.128066
     6  C    0.008983
     7  H    0.090667
     8  H    0.090691
     9  H    0.090681
    10  C   -0.259131
    11  H    0.093450
    12  H    0.100576
    13  H    0.093549
    14  C   -0.259106
    15  H    0.100535
    16  H    0.093611
    17  H    0.093403
    18  C   -0.259101
    19  H    0.100531
    20  H    0.093600
    21  H    0.093422
 Sum of MBS Mulliken charges =   0.00000
 MBS Mulliken charges with hydrogens summed into heavy atoms:
               1
     1  C   -0.037481
     2  C    0.008996
     3  C   -0.037423
     4  C    0.008970
     5  C   -0.037385
     6  C    0.008983
    10  C    0.028445
    14  C    0.028443
    18  C    0.028452
 Breneman (CHELPG) radii used.
 Generate Potential Derived Charges using the Breneman model, NDens= 1.
 Grid spacing= 0.300 Box extension= 2.800
 NStep X,Y,Z=   42     41     27   Total possible points=       46494
 Number of Points to Fit=   14079

 **********************************************************************

            Electrostatic Properties Using The SCF Density

 **********************************************************************

       Atomic Center    1 is at   1.086820  0.861814  0.007264
       Atomic Center    2 is at  -0.205895  1.392592 -0.012538
       Atomic Center    3 is at  -1.289539  0.510200 -0.027522
       Atomic Center    4 is at  -1.102933 -0.874848 -0.012485
       Atomic Center    5 is at   0.202845 -1.372003  0.007337
       Atomic Center    6 is at   1.309000 -0.517860  0.014224
       Atomic Center    7 is at   1.938128  1.536951  0.012873
       Atomic Center    8 is at  -2.299648  0.909774 -0.050501
       Atomic Center    9 is at   0.361882 -2.446823  0.012704
       Atomic Center   10 is at   2.713518 -1.073957 -0.007228
       Atomic Center   11 is at   2.764018 -2.048574  0.484116
       Atomic Center   12 is at   3.067053 -1.207099 -1.035767
       Atomic Center   13 is at   3.415699 -0.404129  0.494985
       Atomic Center   14 is at  -0.426798  2.886808  0.010748
       Atomic Center   15 is at  -0.481766  3.258869  1.039898
       Atomic Center   16 is at   0.388610  3.418764 -0.485387
       Atomic Center   17 is at  -1.361318  3.159966 -0.485164
       Atomic Center   18 is at  -2.286833 -1.812886  0.010738
       Atomic Center   19 is at  -2.596051 -2.028822  1.039514
       Atomic Center   20 is at  -3.148113 -1.380970 -0.504655
       Atomic Center   21 is at  -2.049608 -2.767069 -0.465844
   14079 points will be used for fitting atomic charges
 Fitting point charges to electrostatic potential
 Charges from ESP fit, RMS=   0.00360 RRMS=   0.46483:
 ESP charges:
               1
     1  C   -0.359166
     2  C    0.246911
     3  C   -0.369455
     4  C    0.256908
     5  C   -0.364158
     6  C    0.242078
     7  H    0.141226
     8  H    0.144041
     9  H    0.142208
    10  C   -0.164919
    11  H    0.046932
    12  H    0.047459
    13  H    0.046307
    14  C   -0.163841
    15  H    0.047768
    16  H    0.045352
    17  H    0.045296
    18  C   -0.183868
    19  H    0.053196
    20  H    0.050223
    21  H    0.049502
 Sum of ESP charges =   0.00000
 ESP charges with hydrogens summed into heavy atoms:
               1
     1  C   -0.217939
     2  C    0.246911
     3  C   -0.225415
     4  C    0.256908
     5  C   -0.221951
     6  C    0.242078
    10  C   -0.024221
    14  C   -0.025424
    18  C   -0.030948
 Charge=   0.00000 Dipole=     0.0022     0.0019     0.0235 Tot=     0.0237
 -----------------------------------------------------------------

              Electrostatic Properties (Atomic Units)

 -----------------------------------------------------------------
    Center     Electric         -------- Electric Field --------
               Potential          X             Y             Z
 -----------------------------------------------------------------
    1 Atom    -14.788768
    2 Atom    -14.771265
    3 Atom    -14.788728
    4 Atom    -14.771296
    5 Atom    -14.788779
    6 Atom    -14.771286
    7 Atom     -1.116970
    8 Atom     -1.116973
    9 Atom     -1.117009
   10 Atom    -14.779880
   11 Atom     -1.120707
   12 Atom     -1.118729
   13 Atom     -1.120669
   14 Atom    -14.779872
   15 Atom     -1.118719
   16 Atom     -1.120684
   17 Atom     -1.120663
   18 Atom    -14.779877
   19 Atom     -1.118725
   20 Atom     -1.120615
   21 Atom     -1.120750
 -----------------------------------------------------------------
 ******************************Gaussian NBO Version 3.1******************************
             N A T U R A L   A T O M I C   O R B I T A L   A N D
          N A T U R A L   B O N D   O R B I T A L   A N A L Y S I S
 ******************************Gaussian NBO Version 3.1******************************
       /RESON  / : Allow strongly delocalized NBO set

 Analyzing the SCF density

 Job title: Chart5_5                                                        

 Storage needed:    220314 in NPA ( 104855185 available)


 NATURAL POPULATIONS:  Natural atomic orbital occupancies 
                                                          
   NAO  Atom  No  lang   Type(AO)    Occupancy      Energy
 ----------------------------------------------------------
     1    C    1  S      Cor( 1S)     1.99894     -10.00976
     2    C    1  S      Val( 2S)     0.92837      -0.12794
     3    C    1  S      Ryd( 4S)     0.00098       1.00529
     4    C    1  S      Ryd( 3S)     0.00014       0.84275
     5    C    1  S      Ryd( 5S)     0.00001      22.85515
     6    C    1  px     Val( 2p)     1.13132      -0.04247
     7    C    1  px     Ryd( 4p)     0.00488       0.98658
     8    C    1  px     Ryd( 3p)     0.00032       0.40444
     9    C    1  px     Ryd( 5p)     0.00008       3.23436
    10    C    1  py     Val( 2p)     1.10869      -0.03985
    11    C    1  py     Ryd( 4p)     0.00441       0.91614
    12    C    1  py     Ryd( 3p)     0.00033       0.43135
    13    C    1  py     Ryd( 5p)     0.00010       3.24008
    14    C    1  pz     Val( 2p)     1.03531      -0.09912
    15    C    1  pz     Ryd( 4p)     0.00119       0.51899
    16    C    1  pz     Ryd( 3p)     0.00040       0.29350
    17    C    1  pz     Ryd( 5p)     0.00001       2.76371
    18    C    1  dxy    Ryd( 3d)     0.00081       2.52549
    19    C    1  dxz    Ryd( 3d)     0.00041       1.65810
    20    C    1  dyz    Ryd( 3d)     0.00045       1.67194
    21    C    1  dx2y2  Ryd( 3d)     0.00072       2.59362
    22    C    1  dz2    Ryd( 3d)     0.00040       2.07963

    23    C    2  S      Cor( 1S)     1.99905     -10.03207
    24    C    2  S      Val( 2S)     0.88725      -0.12793
    25    C    2  S      Ryd( 3S)     0.00062       0.77819
    26    C    2  S      Ryd( 4S)     0.00018       1.56550
    27    C    2  S      Ryd( 5S)     0.00001      22.22141
    28    C    2  px     Val( 2p)     1.08336      -0.03634
    29    C    2  px     Ryd( 3p)     0.00344       0.91889
    30    C    2  px     Ryd( 4p)     0.00036       0.94988
    31    C    2  px     Ryd( 5p)     0.00007       2.74502
    32    C    2  py     Val( 2p)     1.05722      -0.04526
    33    C    2  py     Ryd( 4p)     0.00564       1.27417
    34    C    2  py     Ryd( 3p)     0.00038       0.98692
    35    C    2  py     Ryd( 5p)     0.00006       2.80855
    36    C    2  pz     Val( 2p)     0.97445      -0.09048
    37    C    2  pz     Ryd( 3p)     0.00124       0.60055
    38    C    2  pz     Ryd( 4p)     0.00036       0.91723
    39    C    2  pz     Ryd( 5p)     0.00003       2.18049
    40    C    2  dxy    Ryd( 3d)     0.00084       2.60825
    41    C    2  dxz    Ryd( 3d)     0.00057       1.68688
    42    C    2  dyz    Ryd( 3d)     0.00059       1.68305
    43    C    2  dx2y2  Ryd( 3d)     0.00068       2.50277
    44    C    2  dz2    Ryd( 3d)     0.00033       2.09235

    45    C    3  S      Cor( 1S)     1.99894     -10.00981
    46    C    3  S      Val( 2S)     0.92849      -0.12801
    47    C    3  S      Ryd( 4S)     0.00097       1.01104
    48    C    3  S      Ryd( 3S)     0.00014       0.92124
    49    C    3  S      Ryd( 5S)     0.00001      22.77264
    50    C    3  px     Val( 2p)     1.15606      -0.04530
    51    C    3  px     Ryd( 4p)     0.00541       1.06376
    52    C    3  px     Ryd( 3p)     0.00032       0.36821
    53    C    3  px     Ryd( 5p)     0.00006       3.23543
    54    C    3  py     Val( 2p)     1.08358      -0.03695
    55    C    3  py     Ryd( 4p)     0.00387       0.83924
    56    C    3  py     Ryd( 3p)     0.00035       0.45974
    57    C    3  py     Ryd( 5p)     0.00013       3.24505
    58    C    3  pz     Val( 2p)     1.03553      -0.09915
    59    C    3  pz     Ryd( 4p)     0.00117       0.51920
    60    C    3  pz     Ryd( 3p)     0.00039       0.29364
    61    C    3  pz     Ryd( 5p)     0.00001       2.76245
    62    C    3  dxy    Ryd( 3d)     0.00076       2.56203
    63    C    3  dxz    Ryd( 3d)     0.00038       1.64254
    64    C    3  dyz    Ryd( 3d)     0.00049       1.68769
    65    C    3  dx2y2  Ryd( 3d)     0.00077       2.55713
    66    C    3  dz2    Ryd( 3d)     0.00040       2.07905

    67    C    4  S      Cor( 1S)     1.99905     -10.03203
    68    C    4  S      Val( 2S)     0.88721      -0.12787
    69    C    4  S      Ryd( 3S)     0.00062       0.77780
    70    C    4  S      Ryd( 4S)     0.00018       1.56484
    71    C    4  S      Ryd( 5S)     0.00001      22.22178
    72    C    4  px     Val( 2p)     1.06723      -0.04184
    73    C    4  px     Ryd( 4p)     0.00480       1.13835
    74    C    4  px     Ryd( 3p)     0.00038       0.96831
    75    C    4  px     Ryd( 5p)     0.00006       2.78956
    76    C    4  py     Val( 2p)     1.07340      -0.03976
    77    C    4  py     Ryd( 4p)     0.00428       1.05449
    78    C    4  py     Ryd( 3p)     0.00036       0.95754
    79    C    4  py     Ryd( 5p)     0.00006       2.77448
    80    C    4  pz     Val( 2p)     0.97446      -0.09046
    81    C    4  pz     Ryd( 3p)     0.00125       0.60040
    82    C    4  pz     Ryd( 4p)     0.00036       0.91163
    83    C    4  pz     Ryd( 5p)     0.00003       2.18559
    84    C    4  dxy    Ryd( 3d)     0.00068       2.49845
    85    C    4  dxz    Ryd( 3d)     0.00058       1.68469
    86    C    4  dyz    Ryd( 3d)     0.00057       1.68530
    87    C    4  dx2y2  Ryd( 3d)     0.00084       2.61280
    88    C    4  dz2    Ryd( 3d)     0.00033       2.09226

    89    C    5  S      Cor( 1S)     1.99894     -10.00974
    90    C    5  S      Val( 2S)     0.92839      -0.12791
    91    C    5  S      Ryd( 4S)     0.00098       1.00606
    92    C    5  S      Ryd( 3S)     0.00014       0.84569
    93    C    5  S      Ryd( 5S)     0.00001      22.85045
    94    C    5  px     Val( 2p)     1.07237      -0.03566
    95    C    5  px     Ryd( 4p)     0.00364       0.80307
    96    C    5  px     Ryd( 3p)     0.00034       0.47555
    97    C    5  px     Ryd( 5p)     0.00014       3.24674
    98    C    5  py     Val( 2p)     1.16757      -0.04662
    99    C    5  py     Ryd( 4p)     0.00564       1.09873
   100    C    5  py     Ryd( 3p)     0.00030       0.35954
   101    C    5  py     Ryd( 5p)     0.00005       3.22764
   102    C    5  pz     Val( 2p)     1.03541      -0.09912
   103    C    5  pz     Ryd( 4p)     0.00119       0.51868
   104    C    5  pz     Ryd( 3p)     0.00040       0.29362
   105    C    5  pz     Ryd( 5p)     0.00001       2.76363
   106    C    5  dxy    Ryd( 3d)     0.00072       2.59116
   107    C    5  dxz    Ryd( 3d)     0.00051       1.69493
   108    C    5  dyz    Ryd( 3d)     0.00036       1.63514
   109    C    5  dx2y2  Ryd( 3d)     0.00081       2.52838
   110    C    5  dz2    Ryd( 3d)     0.00040       2.07949

   111    C    6  S      Cor( 1S)     1.99905     -10.03205
   112    C    6  S      Val( 2S)     0.88725      -0.12791
   113    C    6  S      Ryd( 3S)     0.00062       0.77765
   114    C    6  S      Ryd( 4S)     0.00018       1.58428
   115    C    6  S      Ryd( 5S)     0.00001      22.20128
   116    C    6  px     Val( 2p)     1.06029      -0.04417
   117    C    6  px     Ryd( 4p)     0.00538       1.23215
   118    C    6  px     Ryd( 3p)     0.00038       0.98090
   119    C    6  px     Ryd( 5p)     0.00006       2.80071
   120    C    6  py     Val( 2p)     1.08022      -0.03734
   121    C    6  py     Ryd( 4p)     0.00370       0.96157
   122    C    6  py     Ryd( 3p)     0.00036       0.95439
   123    C    6  py     Ryd( 5p)     0.00006       2.75240
   124    C    6  pz     Val( 2p)     0.97441      -0.09048
   125    C    6  pz     Ryd( 3p)     0.00124       0.60072
   126    C    6  pz     Ryd( 4p)     0.00036       0.91683
   127    C    6  pz     Ryd( 5p)     0.00003       2.18050
   128    C    6  dxy    Ryd( 3d)     0.00076       2.55961
   129    C    6  dxz    Ryd( 3d)     0.00059       1.68348
   130    C    6  dyz    Ryd( 3d)     0.00057       1.68636
   131    C    6  dx2y2  Ryd( 3d)     0.00075       2.55174
   132    C    6  dz2    Ryd( 3d)     0.00033       2.09228

   133    H    7  S      Val( 1S)     0.80005       0.04992
   134    H    7  S      Ryd( 2S)     0.00084       1.03335
   135    H    7  S      Ryd( 3S)     0.00014       1.69265
   136    H    7  px     Ryd( 2p)     0.00032       2.46993
   137    H    7  py     Ryd( 2p)     0.00025       2.31020
   138    H    7  pz     Ryd( 2p)     0.00021       1.61933

   139    H    8  S      Val( 1S)     0.80006       0.04997
   140    H    8  S      Ryd( 2S)     0.00085       1.02686
   141    H    8  S      Ryd( 3S)     0.00014       1.69947
   142    H    8  px     Ryd( 2p)     0.00039       2.64655
   143    H    8  py     Ryd( 2p)     0.00018       2.13448
   144    H    8  pz     Ryd( 2p)     0.00021       1.61932

   145    H    9  S      Val( 1S)     0.80006       0.04999
   146    H    9  S      Ryd( 2S)     0.00084       1.03350
   147    H    9  S      Ryd( 3S)     0.00014       1.69259
   148    H    9  px     Ryd( 2p)     0.00014       2.05386
   149    H    9  py     Ryd( 2p)     0.00042       2.72651
   150    H    9  pz     Ryd( 2p)     0.00021       1.61920

   151    C   10  S      Cor( 1S)     1.99931     -10.02191
   152    C   10  S      Val( 2S)     1.07777      -0.23955
   153    C   10  S      Ryd( 4S)     0.00044       0.88831
   154    C   10  S      Ryd( 3S)     0.00009       0.83349
   155    C   10  S      Ryd( 5S)     0.00000      23.07841
   156    C   10  px     Val( 2p)     1.09683      -0.08314
   157    C   10  px     Ryd( 4p)     0.00156       0.49041
   158    C   10  px     Ryd( 3p)     0.00027       0.30015
   159    C   10  px     Ryd( 5p)     0.00006       3.01915
   160    C   10  py     Val( 2p)     1.19630      -0.09067
   161    C   10  py     Ryd( 4p)     0.00345       0.51836
   162    C   10  py     Ryd( 3p)     0.00011       0.33495
   163    C   10  py     Ryd( 5p)     0.00003       3.05450
   164    C   10  pz     Val( 2p)     1.20790      -0.09313
   165    C   10  pz     Ryd( 4p)     0.00052       0.50908
   166    C   10  pz     Ryd( 3p)     0.00005       0.30482
   167    C   10  pz     Ryd( 5p)     0.00006       3.01428
   168    C   10  dxy    Ryd( 3d)     0.00061       2.15853
   169    C   10  dxz    Ryd( 3d)     0.00062       1.95373
   170    C   10  dyz    Ryd( 3d)     0.00057       2.02988
   171    C   10  dx2y2  Ryd( 3d)     0.00064       2.17128
   172    C   10  dz2    Ryd( 3d)     0.00070       2.11178

   173    H   11  S      Val( 1S)     0.79240       0.03487
   174    H   11  S      Ryd( 2S)     0.00070       0.68909
   175    H   11  S      Ryd( 3S)     0.00009       2.08160
   176    H   11  px     Ryd( 2p)     0.00013       1.72510
   177    H   11  py     Ryd( 2p)     0.00024       2.50387
   178    H   11  pz     Ryd( 2p)     0.00014       1.95500

   179    H   12  S      Val( 1S)     0.78664       0.03366
   180    H   12  S      Ryd( 2S)     0.00069       0.62102
   181    H   12  S      Ryd( 3S)     0.00009       2.18291
   182    H   12  px     Ryd( 2p)     0.00019       1.85313
   183    H   12  py     Ryd( 2p)     0.00014       1.81389
   184    H   12  pz     Ryd( 2p)     0.00028       2.56355

   185    H   13  S      Val( 1S)     0.79229       0.03487
   186    H   13  S      Ryd( 2S)     0.00070       0.68704
   187    H   13  S      Ryd( 3S)     0.00009       2.08450
   188    H   13  px     Ryd( 2p)     0.00020       2.13507
   189    H   13  py     Ryd( 2p)     0.00017       2.08441
   190    H   13  pz     Ryd( 2p)     0.00015       1.96413

   191    C   14  S      Cor( 1S)     1.99931     -10.02191
   192    C   14  S      Val( 2S)     1.07773      -0.23953
   193    C   14  S      Ryd( 4S)     0.00044       0.88832
   194    C   14  S      Ryd( 3S)     0.00009       0.82878
   195    C   14  S      Ryd( 5S)     0.00000      23.08495
   196    C   14  px     Val( 2p)     1.21193      -0.09186
   197    C   14  px     Ryd( 4p)     0.00374       0.52286
   198    C   14  px     Ryd( 3p)     0.00009       0.33943
   199    C   14  px     Ryd( 5p)     0.00002       3.06097
   200    C   14  py     Val( 2p)     1.08126      -0.08196
   201    C   14  py     Ryd( 4p)     0.00126       0.48653
   202    C   14  py     Ryd( 3p)     0.00029       0.29382
   203    C   14  py     Ryd( 5p)     0.00007       3.01486
   204    C   14  pz     Val( 2p)     1.20784      -0.09315
   205    C   14  pz     Ryd( 4p)     0.00052       0.50930
   206    C   14  pz     Ryd( 3p)     0.00005       0.30367
   207    C   14  pz     Ryd( 5p)     0.00006       3.01523
   208    C   14  dxy    Ryd( 3d)     0.00053       2.10782
   209    C   14  dxz    Ryd( 3d)     0.00057       2.04459
   210    C   14  dyz    Ryd( 3d)     0.00061       1.93722
   211    C   14  dx2y2  Ryd( 3d)     0.00072       2.22323
   212    C   14  dz2    Ryd( 3d)     0.00070       2.11235

   213    H   15  S      Val( 1S)     0.78666       0.03363
   214    H   15  S      Ryd( 2S)     0.00068       0.61920
   215    H   15  S      Ryd( 3S)     0.00009       2.18571
   216    H   15  px     Ryd( 2p)     0.00013       1.81018
   217    H   15  py     Ryd( 2p)     0.00020       1.85695
   218    H   15  pz     Ryd( 2p)     0.00028       2.56496

   219    H   16  S      Val( 1S)     0.79228       0.03485
   220    H   16  S      Ryd( 2S)     0.00071       0.68590
   221    H   16  S      Ryd( 3S)     0.00009       2.08618
   222    H   16  px     Ryd( 2p)     0.00020       2.26260
   223    H   16  py     Ryd( 2p)     0.00018       1.96016
   224    H   16  pz     Ryd( 2p)     0.00014       1.96088

   225    H   17  S      Val( 1S)     0.79238       0.03485
   226    H   17  S      Ryd( 2S)     0.00071       0.68344
   227    H   17  S      Ryd( 3S)     0.00009       2.08656
   228    H   17  px     Ryd( 2p)     0.00023       2.43751
   229    H   17  py     Ryd( 2p)     0.00015       1.78738
   230    H   17  pz     Ryd( 2p)     0.00015       1.95823

   231    C   18  S      Cor( 1S)     1.99931     -10.02191
   232    C   18  S      Val( 2S)     1.07774      -0.23952
   233    C   18  S      Ryd( 4S)     0.00044       0.88815
   234    C   18  S      Ryd( 3S)     0.00009       0.82967
   235    C   18  S      Ryd( 5S)     0.00000      23.08419
   236    C   18  px     Val( 2p)     1.13100      -0.08573
   237    C   18  px     Ryd( 4p)     0.00221       0.49970
   238    C   18  px     Ryd( 3p)     0.00022       0.31072
   239    C   18  px     Ryd( 5p)     0.00005       3.03195
   240    C   18  py     Val( 2p)     1.16218      -0.08807
   241    C   18  py     Ryd( 4p)     0.00280       0.50960
   242    C   18  py     Ryd( 3p)     0.00017       0.32277
   243    C   18  py     Ryd( 5p)     0.00004       3.04382
   244    C   18  pz     Val( 2p)     1.20785      -0.09315
   245    C   18  pz     Ryd( 4p)     0.00052       0.50928
   246    C   18  pz     Ryd( 3p)     0.00005       0.30381
   247    C   18  pz     Ryd( 5p)     0.00006       3.01506
   248    C   18  dxy    Ryd( 3d)     0.00072       2.22464
   249    C   18  dxz    Ryd( 3d)     0.00062       1.99275
   250    C   18  dyz    Ryd( 3d)     0.00055       1.98942
   251    C   18  dx2y2  Ryd( 3d)     0.00053       2.10626
   252    C   18  dz2    Ryd( 3d)     0.00070       2.11212

   253    H   19  S      Val( 1S)     0.78667       0.03364
   254    H   19  S      Ryd( 2S)     0.00068       0.61875
   255    H   19  S      Ryd( 3S)     0.00009       2.18613
   256    H   19  px     Ryd( 2p)     0.00018       1.84601
   257    H   19  py     Ryd( 2p)     0.00015       1.82163
   258    H   19  pz     Ryd( 2p)     0.00028       2.56433

   259    H   20  S      Val( 1S)     0.79223       0.03483
   260    H   20  S      Ryd( 2S)     0.00071       0.68052
   261    H   20  S      Ryd( 3S)     0.00009       2.09093
   262    H   20  px     Ryd( 2p)     0.00023       2.33864
   263    H   20  py     Ryd( 2p)     0.00014       1.86921
   264    H   20  pz     Ryd( 2p)     0.00015       1.97486

   265    H   21  S      Val( 1S)     0.79244       0.03489
   266    H   21  S      Ryd( 2S)     0.00071       0.68867
   267    H   21  S      Ryd( 3S)     0.00009       2.08202
   268    H   21  px     Ryd( 2p)     0.00013       1.76498
   269    H   21  py     Ryd( 2p)     0.00025       2.47437
   270    H   21  pz     Ryd( 2p)     0.00014       1.94475

 WARNING:  1 low occupancy (<1.9990e) core orbital  found on  C    1
           1 low occupancy (<1.9990e) core orbital  found on  C    3
           1 low occupancy (<1.9990e) core orbital  found on  C    5

 WARNING:  Population inversion found on atom  C    1
           Population inversion found on atom  C    2
           Population inversion found on atom  C    3
           Population inversion found on atom  C    4
           Population inversion found on atom  C    5
           Population inversion found on atom  C    6
           Population inversion found on atom  C   10
           Population inversion found on atom  C   14
           Population inversion found on atom  C   18


 Summary of Natural Population Analysis:                  
                                                          
                                       Natural Population 
                Natural  -----------------------------------------------
    Atom  No    Charge         Core      Valence    Rydberg      Total
 -----------------------------------------------------------------------
      C    1   -0.21828      1.99894     4.20369    0.01565     6.21828
      C    2   -0.01673      1.99905     4.00228    0.01540     6.01673
      C    3   -0.21822      1.99894     4.20366    0.01562     6.21822
      C    4   -0.01677      1.99905     4.00231    0.01541     6.01677
      C    5   -0.21834      1.99894     4.20375    0.01564     6.21834
      C    6   -0.01662      1.99905     4.00217    0.01540     6.01662
      H    7    0.19819      0.00000     0.80005    0.00176     0.80181
      H    8    0.19816      0.00000     0.80006    0.00177     0.80184
      H    9    0.19817      0.00000     0.80006    0.00176     0.80183
      C   10   -0.58788      1.99931     4.57880    0.00977     6.58788
      H   11    0.20629      0.00000     0.79240    0.00131     0.79371
      H   12    0.21198      0.00000     0.78664    0.00139     0.78802
      H   13    0.20640      0.00000     0.79229    0.00131     0.79360
      C   14   -0.58783      1.99931     4.57876    0.00976     6.58783
      H   15    0.21196      0.00000     0.78666    0.00138     0.78804
      H   16    0.20640      0.00000     0.79228    0.00132     0.79360
      H   17    0.20630      0.00000     0.79238    0.00132     0.79370
      C   18   -0.58783      1.99931     4.57876    0.00976     6.58783
      H   19    0.21195      0.00000     0.78667    0.00138     0.78805
      H   20    0.20645      0.00000     0.79223    0.00132     0.79355
      H   21    0.20624      0.00000     0.79244    0.00132     0.79376
 =======================================================================
   * Total *    0.00000     17.99190    47.86836    0.13974    66.00000

                                 Natural Population      
 --------------------------------------------------------
   Core                      17.99190 ( 99.9550% of  18)
   Valence                   47.86836 ( 99.7258% of  48)
   Natural Minimal Basis     65.86026 ( 99.7883% of  66)
   Natural Rydberg Basis      0.13974 (  0.2117% of  66)
 --------------------------------------------------------

    Atom  No          Natural Electron Configuration
 ----------------------------------------------------------------------------
      C    1      [core]2S( 0.93)2p( 3.28)4p( 0.01)
      C    2      [core]2S( 0.89)2p( 3.12)3p( 0.01)4p( 0.01)
      C    3      [core]2S( 0.93)2p( 3.28)4p( 0.01)
      C    4      [core]2S( 0.89)2p( 3.12)4p( 0.01)
      C    5      [core]2S( 0.93)2p( 3.28)4p( 0.01)
      C    6      [core]2S( 0.89)2p( 3.11)4p( 0.01)
      H    7            1S( 0.80)
      H    8            1S( 0.80)
      H    9            1S( 0.80)
      C   10      [core]2S( 1.08)2p( 3.50)4p( 0.01)
      H   11            1S( 0.79)
      H   12            1S( 0.79)
      H   13            1S( 0.79)
      C   14      [core]2S( 1.08)2p( 3.50)4p( 0.01)
      H   15            1S( 0.79)
      H   16            1S( 0.79)
      H   17            1S( 0.79)
      C   18      [core]2S( 1.08)2p( 3.50)4p( 0.01)
      H   19            1S( 0.79)
      H   20            1S( 0.79)
      H   21            1S( 0.79)


 NBO analysis skipped by request.
 1\1\GINC-COREV2-25-045\SP\RB3LYP\6-311+G(d,p)\C9H12\ROOT\23-Jul-2021\0
 \\# b3lyp/6-311+g(d,p) geom=connectivity pop=(hirshfeld,chelpg,mbs,npa
 )\\Chart5_5\\0,1\C,0,-1.087046,-0.861529,0.007264\C,0,0.20553,-1.39264
 6,-0.012538\C,0,1.289405,-0.510538,-0.027522\C,0,1.103162,0.874559,-0.
 012485\C,0,-0.202485,1.372056,0.007337\C,0,-1.308864,0.518203,0.014224
 \H,0,-1.938531,-1.536443,0.012873\H,0,2.299409,-0.910377,-0.050501\H,0
 ,-0.361241,2.446918,0.012704\C,0,-2.713236,1.074668,-0.007228\H,0,-2.7
 63481,2.049298,0.484116\H,0,-3.066736,1.207903,-1.035767\H,0,-3.415593
 ,0.405024,0.494985\C,0,0.426041,-2.88692,0.010748\H,0,0.480912,-3.2589
 95,1.039898\H,0,-0.389506,-3.418662,-0.485387\H,0,1.36049,-3.160323,-0
 .485164\C,0,2.287308,1.812286,0.010738\H,0,2.596583,2.028141,1.039514\
 H,0,3.148475,1.380145,-0.504655\H,0,2.050333,2.766532,-0.465844\\Versi
 on=ES64L-G09RevD.01\State=1-A\HF=-350.2936004\RMSD=7.757e-09\Dipole=0.
 0002365,-0.0011137,0.0155049\Quadrupole=1.7636473,1.7550773,-3.5187246
 ,0.0007798,0.0847143,-0.0333689\PG=C01 [X(C9H12)]\\@


 MAN IS THE MEASURE OF ALL THINGS.
  -- PROTAGORAS (5TH CENTURY B.C.)
 Job cpu time:       0 days  0 hours  5 minutes 52.8 seconds.
 File lengths (MBytes):  RWF=     75 Int=      0 D2E=      0 Chk=      4 Scr=      1
 Normal termination of Gaussian 09 at Fri Jul 23 17:26:06 2021.
