 Entering Gaussian System, Link 0=g09
 Initial command:
 /cm/shared/apps/gaussian/g09revD.01/g09/l1.exe "//home/sweav003/CHB/validation/G09-aryltrifluorborates5_Carreira.com.o9822867.tmp/Gau-208371.inp" -scrdir="//home/sweav003/CHB/validation/G09-aryltrifluorborates5_Carreira.com.o9822867.tmp/"
 Entering Link 1 = /cm/shared/apps/gaussian/g09revD.01/g09/l1.exe PID=    208372.
  
 Copyright (c) 1988,1990,1992,1993,1995,1998,2003,2009,2013,
            Gaussian, Inc.  All Rights Reserved.
  
 This is part of the Gaussian(R) 09 program.  It is based on
 the Gaussian(R) 03 system (copyright 2003, Gaussian, Inc.),
 the Gaussian(R) 98 system (copyright 1998, Gaussian, Inc.),
 the Gaussian(R) 94 system (copyright 1995, Gaussian, Inc.),
 the Gaussian 92(TM) system (copyright 1992, Gaussian, Inc.),
 the Gaussian 90(TM) system (copyright 1990, Gaussian, Inc.),
 the Gaussian 88(TM) system (copyright 1988, Gaussian, Inc.),
 the Gaussian 86(TM) system (copyright 1986, Carnegie Mellon
 University), and the Gaussian 82(TM) system (copyright 1983,
 Carnegie Mellon University). Gaussian is a federally registered
 trademark of Gaussian, Inc.
  
 This software contains proprietary and confidential information,
 including trade secrets, belonging to Gaussian, Inc.
  
 This software is provided under written license and may be
 used, copied, transmitted, or stored only in accord with that
 written license.
  
 The following legend is applicable only to US Government
 contracts under FAR:
  
                    RESTRICTED RIGHTS LEGEND
  
 Use, reproduction and disclosure by the US Government is
 subject to restrictions as set forth in subparagraphs (a)
 and (c) of the Commercial Computer Software - Restricted
 Rights clause in FAR 52.227-19.
  
 Gaussian, Inc.
 340 Quinnipiac St., Bldg. 40, Wallingford CT 06492
  
  
 ---------------------------------------------------------------
 Warning -- This program may not be used in any manner that
 competes with the business of Gaussian, Inc. or will provide
 assistance to any competitor of Gaussian, Inc.  The licensee
 of this program is prohibited from giving any competitor of
 Gaussian, Inc. access to this program.  By using this program,
 the user acknowledges that Gaussian, Inc. is engaged in the
 business of creating and licensing software in the field of
 computational chemistry and represents and warrants to the
 licensee that it is not a competitor of Gaussian, Inc. and that
 it will not use this program in any manner prohibited above.
 ---------------------------------------------------------------
  

 Cite this work as:
 Gaussian 09, Revision D.01,
 M. J. Frisch, G. W. Trucks, H. B. Schlegel, G. E. Scuseria, 
 M. A. Robb, J. R. Cheeseman, G. Scalmani, V. Barone, B. Mennucci, 
 G. A. Petersson, H. Nakatsuji, M. Caricato, X. Li, H. P. Hratchian, 
 A. F. Izmaylov, J. Bloino, G. Zheng, J. L. Sonnenberg, M. Hada, 
 M. Ehara, K. Toyota, R. Fukuda, J. Hasegawa, M. Ishida, T. Nakajima, 
 Y. Honda, O. Kitao, H. Nakai, T. Vreven, J. A. Montgomery, Jr., 
 J. E. Peralta, F. Ogliaro, M. Bearpark, J. J. Heyd, E. Brothers, 
 K. N. Kudin, V. N. Staroverov, T. Keith, R. Kobayashi, J. Normand, 
 K. Raghavachari, A. Rendell, J. C. Burant, S. S. Iyengar, J. Tomasi, 
 M. Cossi, N. Rega, J. M. Millam, M. Klene, J. E. Knox, J. B. Cross, 
 V. Bakken, C. Adamo, J. Jaramillo, R. Gomperts, R. E. Stratmann, 
 O. Yazyev, A. J. Austin, R. Cammi, C. Pomelli, J. W. Ochterski, 
 R. L. Martin, K. Morokuma, V. G. Zakrzewski, G. A. Voth, 
 P. Salvador, J. J. Dannenberg, S. Dapprich, A. D. Daniels, 
 O. Farkas, J. B. Foresman, J. V. Ortiz, J. Cioslowski, 
 and D. J. Fox, Gaussian, Inc., Wallingford CT, 2013.
 
 ******************************************
 Gaussian 09:  ES64L-G09RevD.01 24-Apr-2013
                 9-Jan-2023 
 ******************************************
 %nprocshared=20
 Will use up to   20 processors via shared memory.
 %mem=4GB
 %chk=aryltrifluorborates5_Carreira.chk
 ----------------------------------------------------------------------
 # opt freq b3lyp/6-311+g(d,p) geom=connectivity pop=(hirshfeld,chelpg,
 mbs,npa)
 ----------------------------------------------------------------------
 1/14=-1,18=20,19=15,26=3,38=1,57=2/1,3;
 2/9=110,12=2,17=6,18=5,40=1/2;
 3/5=4,6=6,7=111,11=2,16=1,25=1,30=1,71=1,74=-5/1,2,3;
 4//1;
 5/5=2,38=5/2;
 6/7=2,8=2,9=2,10=2,15=8,20=3,27=100,28=1,40=-1,79=1/1,2,7;
 7//1,2,3,16;
 1/14=-1,18=20,19=15,26=3/3(2);
 2/9=110/2;
 99//99;
 2/9=110/2;
 3/5=4,6=6,7=111,11=2,16=1,25=1,30=1,71=1,74=-5/1,2,3;
 4/5=5,16=3,69=1/1;
 5/5=2,38=5/2;
 7//1,2,3,16;
 1/14=-1,18=20,19=15,26=3/3(-5);
 2/9=110/2;
 6/7=2,8=2,9=2,10=2,15=8,19=2,20=3,27=100,28=1,40=-1,79=1/1,2,7;
 99/9=1/99;
 -------------------
 Title Card Required
 -------------------
 Symbolic Z-matrix:
 Charge =  0 Multiplicity = 1
 C                    -1.12912  -0.12831  -0.00697 
 C                     0.08828  -0.80979  -0.00231 
 C                     1.28687  -0.09674  -0.01543 
 C                     1.2684    1.29843  -0.03442 
 C                     0.05126   1.97967  -0.03955 
 C                    -1.1476    1.26627  -0.02543 
 H                    -2.07399  -0.69067   0.00383 
 H                     2.24647  -0.63381  -0.01113 
 H                     2.21358   1.86043  -0.04482 
 H                     0.03638   3.07922  -0.05452 
 S                     0.11132  -2.58946   0.02251 
 F                    -1.01659  -2.61969  -1.09776 
 F                    -1.00917  -2.58824   1.1506 
 F                     0.13191  -4.17918   0.04467 
 F                     1.23923  -2.55924   1.14278 
 F                     1.23181  -2.59068  -1.10559 
 Cl                   -2.68321   2.1262   -0.03159 
 

 GradGradGradGradGradGradGradGradGradGradGradGradGradGradGradGradGradGrad
 Berny optimization.
 Initialization pass.
                           ----------------------------
                           !    Initial Parameters    !
                           ! (Angstroms and Degrees)  !
 --------------------------                            --------------------------
 ! Name  Definition              Value          Derivative Info.                !
 --------------------------------------------------------------------------------
 ! R1    R(1,2)                  1.3952         estimate D2E/DX2                !
 ! R2    R(1,6)                  1.3948         estimate D2E/DX2                !
 ! R3    R(1,7)                  1.0996         estimate D2E/DX2                !
 ! R4    R(2,3)                  1.3947         estimate D2E/DX2                !
 ! R5    R(2,11)                 1.78           estimate D2E/DX2                !
 ! R6    R(3,4)                  1.3954         estimate D2E/DX2                !
 ! R7    R(3,8)                  1.0997         estimate D2E/DX2                !
 ! R8    R(4,5)                  1.3948         estimate D2E/DX2                !
 ! R9    R(4,9)                  1.0997         estimate D2E/DX2                !
 ! R10   R(5,6)                  1.3951         estimate D2E/DX2                !
 ! R11   R(5,10)                 1.0998         estimate D2E/DX2                !
 ! R12   R(6,17)                 1.76           estimate D2E/DX2                !
 ! R13   R(11,12)                1.59           estimate D2E/DX2                !
 ! R14   R(11,13)                1.59           estimate D2E/DX2                !
 ! R15   R(11,14)                1.59           estimate D2E/DX2                !
 ! R16   R(11,15)                1.59           estimate D2E/DX2                !
 ! R17   R(11,16)                1.59           estimate D2E/DX2                !
 ! A1    A(2,1,6)              119.9985         estimate D2E/DX2                !
 ! A2    A(2,1,7)              119.9972         estimate D2E/DX2                !
 ! A3    A(6,1,7)              120.0043         estimate D2E/DX2                !
 ! A4    A(1,2,3)              120.0086         estimate D2E/DX2                !
 ! A5    A(1,2,11)             119.9808         estimate D2E/DX2                !
 ! A6    A(3,2,11)             120.0106         estimate D2E/DX2                !
 ! A7    A(2,3,4)              119.9942         estimate D2E/DX2                !
 ! A8    A(2,3,8)              120.0128         estimate D2E/DX2                !
 ! A9    A(4,3,8)              119.993          estimate D2E/DX2                !
 ! A10   A(3,4,5)              119.994          estimate D2E/DX2                !
 ! A11   A(3,4,9)              119.9811         estimate D2E/DX2                !
 ! A12   A(5,4,9)              120.0249         estimate D2E/DX2                !
 ! A13   A(4,5,6)              120.0047         estimate D2E/DX2                !
 ! A14   A(4,5,10)             120.0113         estimate D2E/DX2                !
 ! A15   A(6,5,10)             119.984          estimate D2E/DX2                !
 ! A16   A(1,6,5)              120.0            estimate D2E/DX2                !
 ! A17   A(1,6,17)             120.008          estimate D2E/DX2                !
 ! A18   A(5,6,17)             119.992          estimate D2E/DX2                !
 ! A19   A(2,11,12)             90.0            estimate D2E/DX2                !
 ! A20   A(2,11,13)             90.0            estimate D2E/DX2                !
 ! A21   A(2,11,15)             90.0            estimate D2E/DX2                !
 ! A22   A(2,11,16)             90.0            estimate D2E/DX2                !
 ! A23   A(12,11,13)            90.0            estimate D2E/DX2                !
 ! A24   A(12,11,14)            90.0            estimate D2E/DX2                !
 ! A25   A(12,11,16)            90.0            estimate D2E/DX2                !
 ! A26   A(13,11,14)            90.0            estimate D2E/DX2                !
 ! A27   A(13,11,15)            90.0            estimate D2E/DX2                !
 ! A28   A(14,11,15)            90.0            estimate D2E/DX2                !
 ! A29   A(14,11,16)            90.0            estimate D2E/DX2                !
 ! A30   A(15,11,16)            90.0            estimate D2E/DX2                !
 ! A31   L(2,11,14,12,-1)      180.0            estimate D2E/DX2                !
 ! A32   L(12,11,15,2,-1)      180.0            estimate D2E/DX2                !
 ! A33   L(13,11,16,2,-1)      180.0            estimate D2E/DX2                !
 ! A34   L(2,11,14,12,-2)      180.0            estimate D2E/DX2                !
 ! A35   L(12,11,15,2,-2)      180.0            estimate D2E/DX2                !
 ! A36   L(13,11,16,2,-2)      180.0            estimate D2E/DX2                !
 ! D1    D(6,1,2,3)              0.0323         estimate D2E/DX2                !
 ! D2    D(6,1,2,11)           179.9532         estimate D2E/DX2                !
 ! D3    D(7,1,2,3)           -179.9729         estimate D2E/DX2                !
 ! D4    D(7,1,2,11)            -0.052          estimate D2E/DX2                !
 ! D5    D(2,1,6,5)              0.0149         estimate D2E/DX2                !
 ! D6    D(2,1,6,17)           179.9892         estimate D2E/DX2                !
 ! D7    D(7,1,6,5)           -179.9798         estimate D2E/DX2                !
 ! D8    D(7,1,6,17)            -0.0056         estimate D2E/DX2                !
 ! D9    D(1,2,3,4)             -0.0568         estimate D2E/DX2                !
 ! D10   D(1,2,3,8)            179.9619         estimate D2E/DX2                !
 ! D11   D(11,2,3,4)          -179.9777         estimate D2E/DX2                !
 ! D12   D(11,2,3,8)             0.041          estimate D2E/DX2                !
 ! D13   D(1,2,11,12)           45.0407         estimate D2E/DX2                !
 ! D14   D(1,2,11,13)          -44.9593         estimate D2E/DX2                !
 ! D15   D(1,2,11,15)         -134.9593         estimate D2E/DX2                !
 ! D16   D(1,2,11,16)          135.0407         estimate D2E/DX2                !
 ! D17   D(3,2,11,12)         -135.0384         estimate D2E/DX2                !
 ! D18   D(3,2,11,13)          134.9616         estimate D2E/DX2                !
 ! D19   D(3,2,11,15)           44.9616         estimate D2E/DX2                !
 ! D20   D(3,2,11,16)          -45.0384         estimate D2E/DX2                !
 ! D21   D(2,3,4,5)              0.0341         estimate D2E/DX2                !
 ! D22   D(2,3,4,9)           -179.9964         estimate D2E/DX2                !
 ! D23   D(8,3,4,5)           -179.9846         estimate D2E/DX2                !
 ! D24   D(8,3,4,9)             -0.0151         estimate D2E/DX2                !
 ! D25   D(3,4,5,6)              0.0131         estimate D2E/DX2                !
 ! D26   D(3,4,5,10)          -179.9995         estimate D2E/DX2                !
 ! D27   D(9,4,5,6)           -179.9563         estimate D2E/DX2                !
 ! D28   D(9,4,5,10)             0.0311         estimate D2E/DX2                !
 ! D29   D(4,5,6,1)             -0.0376         estimate D2E/DX2                !
 ! D30   D(4,5,6,17)           179.9881         estimate D2E/DX2                !
 ! D31   D(10,5,6,1)           179.975          estimate D2E/DX2                !
 ! D32   D(10,5,6,17)            0.0007         estimate D2E/DX2                !
 --------------------------------------------------------------------------------
 Trust Radius=3.00D-01 FncErr=1.00D-07 GrdErr=1.00D-06
 Number of steps in this run=     95 maximum allowed number of steps=    102.
 GradGradGradGradGradGradGradGradGradGradGradGradGradGradGradGradGradGrad

                          Input orientation:                          
 ---------------------------------------------------------------------
 Center     Atomic      Atomic             Coordinates (Angstroms)
 Number     Number       Type             X           Y           Z
 ---------------------------------------------------------------------
      1          6           0       -1.129117   -0.128314   -0.006967
      2          6           0        0.088277   -0.809786   -0.002312
      3          6           0        1.286868   -0.096743   -0.015432
      4          6           0        1.268403    1.298433   -0.034416
      5          6           0        0.051262    1.979666   -0.039548
      6          6           0       -1.147602    1.266270   -0.025426
      7          1           0       -2.073988   -0.690670    0.003830
      8          1           0        2.246471   -0.633808   -0.011130
      9          1           0        2.213576    1.860426   -0.044818
     10          1           0        0.036377    3.079225   -0.054517
     11         16           0        0.111323   -2.589463    0.022505
     12          9           0       -1.016587   -2.619691   -1.097765
     13          9           0       -1.009166   -2.588242    1.150603
     14          9           0        0.131909   -4.179176    0.044673
     15          9           0        1.239233   -2.559236    1.142775
     16          9           0        1.231811   -2.590685   -1.105592
     17         17           0       -2.683207    2.126201   -0.031590
 ---------------------------------------------------------------------
                    Distance matrix (angstroms):
                    1          2          3          4          5
     1  C    0.000000
     2  C    1.395160   0.000000
     3  C    2.416205   1.394712   0.000000
     4  C    2.790065   2.416260   1.395427   0.000000
     5  C    2.416183   2.789946   2.416356   1.394825   0.000000
     6  C    1.394829   2.416183   2.790080   2.416236   1.395138
     7  H    1.099610   2.165553   3.412986   3.889675   3.413102
     8  H    3.413229   2.165375   1.099680   2.165806   3.413209
     9  H    3.889745   3.413024   2.165678   1.099680   2.165606
    10  H    3.413055   3.889707   3.413506   2.165528   1.099761
    11  S    2.756232   1.780000   2.756266   4.056823   4.569946
    12  F    2.722032   2.386734   3.583660   4.658711   4.838823
    13  F    2.721323   2.386734   3.583152   4.658093   4.838053
    14  F    4.242915   3.370000   4.243089   5.594825   6.159946
    15  F    3.583345   2.386734   2.721688   4.033391   4.838470
    16  F    3.583884   2.386734   2.722357   4.034104   4.839241
    17  Cl   2.738365   4.037573   4.550080   4.037379   2.738404
                    6          7          8          9         10
     6  C    0.000000
     7  H    2.165331   0.000000
     8  H    3.889760   4.320860   0.000000
     9  H    3.413344   4.989355   2.494678   0.000000
    10  H    2.165516   4.320781   4.321228   2.495147   0.000000
    11  S    4.056337   2.895056   2.895614   4.921942   5.669707
    12  F    4.033332   2.460230   3.971405   5.622642   5.888526
    13  F    4.032304   2.459617   3.970971   5.621899   5.887755
    14  F    5.594188   4.127629   4.128453   6.388907   7.259707
    15  F    4.657915   3.970664   2.460346   4.679010   5.888345
    16  F    4.658805   3.971044   2.461046   4.679903   5.889117
    17  Cl   1.760000   2.882214   5.649760   4.904008   2.881825
                   11         12         13         14         15
    11  S    0.000000
    12  F    1.590000   0.000000
    13  F    1.590000   2.248600   0.000000
    14  F    1.590000   2.248600   2.248600   0.000000
    15  F    1.590000   3.180000   2.248600   2.248600   0.000000
    16  F    1.590000   2.248600   3.180000   2.248600   2.248600
    17  Cl   5.481771   5.141773   5.140619   6.905683   6.222378
                   16         17
    16  F    0.000000
    17  Cl   6.223331   0.000000
 Stoichiometry    C6H4ClF5S
 Framework group  C1[X(C6H4ClF5S)]
 Deg. of freedom    45
 Full point group                 C1      NOp   1
 Largest Abelian subgroup         C1      NOp   1
 Largest concise Abelian subgroup C1      NOp   1
                         Standard orientation:                         
 ---------------------------------------------------------------------
 Center     Atomic      Atomic             Coordinates (Angstroms)
 Number     Number       Type             X           Y           Z
 ---------------------------------------------------------------------
      1          6           0        1.058988   -0.506105    0.000406
      2          6           0       -0.004058    0.397446    0.000729
      3          6           0        0.246630    1.769444   -0.000046
      4          6           0        1.560879    2.238448    0.000055
      5          6           0        2.623620    1.335054    0.000212
      6          6           0        2.372685   -0.037331   -0.000010
      7          1           0        0.861127   -1.587767    0.000566
      8          1           0       -0.591223    2.481693   -0.000425
      9          1           0        1.758291    3.320263   -0.000496
     10          1           0        3.659515    1.704371    0.000299
     11         16           0       -1.680337   -0.201293    0.000001
     12          9           0       -1.302667   -1.260015    1.124533
     13          9           0       -1.301644   -1.260144   -1.124066
     14          9           0       -3.177687   -0.736121   -0.000650
     15          9           0       -2.058006    0.857429   -1.124532
     16          9           0       -2.059029    0.857559    1.124067
     17         17           0        3.713912   -1.176941   -0.000129
 ---------------------------------------------------------------------
 Rotational constants (GHZ):      1.2933285      0.3897140      0.3379481
 Standard basis: 6-311+G(d,p) (5D, 7F)
 There are   339 symmetry adapted cartesian basis functions of A   symmetry.
 There are   326 symmetry adapted basis functions of A   symmetry.
   326 basis functions,   531 primitive gaussians,   339 cartesian basis functions
    59 alpha electrons       59 beta electrons
       nuclear repulsion energy      1186.4776805129 Hartrees.
 NAtoms=   17 NActive=   17 NUniq=   17 SFac= 1.00D+00 NAtFMM=   60 NAOKFM=F Big=F
 Integral buffers will be    131072 words long.
 Raffenetti 2 integral format.
 Two-electron integral symmetry is turned on.
 One-electron integrals computed using PRISM.
 NBasis=   326 RedAO= T EigKep=  2.11D-06  NBF=   326
 NBsUse=   325 1.00D-06 EigRej=  9.80D-07 NBFU=   325
 ExpMin= 4.05D-02 ExpMax= 1.06D+05 ExpMxC= 3.62D+03 IAcc=2 IRadAn=         4 AccDes= 0.00D+00
 Harris functional with IExCor=  402 and IRadAn=       4 diagonalized for initial guess.
 HarFok:  IExCor=  402 AccDes= 0.00D+00 IRadAn=         4 IDoV= 1 UseB2=F ITyADJ=14
 ICtDFT=  3500011 ScaDFX=  1.000000  1.000000  1.000000  1.000000
 FoFCou: FMM=F IPFlag=           0 FMFlag=      100000 FMFlg1=           0
         NFxFlg=           0 DoJE=T BraDBF=F KetDBF=T FulRan=T
         wScrn=  0.000000 ICntrl=     500 IOpCl=  0 I1Cent=   200000004 NGrid=           0
         NMat0=    1 NMatS0=      1 NMatT0=    0 NMatD0=    1 NMtDS0=    0 NMtDT0=    0
 Petite list used in FoFCou.
 Requested convergence on RMS density matrix=1.00D-08 within 128 cycles.
 Requested convergence on MAX density matrix=1.00D-06.
 Requested convergence on             energy=1.00D-06.
 No special actions if energy rises.
 SCF Done:  E(RB3LYP) =  -1588.76873175     A.U. after   14 cycles
            NFock= 14  Conv=0.86D-08     -V/T= 2.0022

 **********************************************************************

            Population analysis using the SCF density.

 **********************************************************************

 Orbital symmetries:
       Occupied  (A) (A) (A) (A) (A) (A) (A) (A) (A) (A) (A) (A)
                 (A) (A) (A) (A) (A) (A) (A) (A) (A) (A) (A) (A)
                 (A) (A) (A) (A) (A) (A) (A) (A) (A) (A) (A) (A)
                 (A) (A) (A) (A) (A) (A) (A) (A) (A) (A) (A) (A)
                 (A) (A) (A) (A) (A) (A) (A) (A) (A) (A) (A)
       Virtual   (A) (A) (A) (A) (A) (A) (A) (A) (A) (A) (A) (A)
                 (A) (A) (A) (A) (A) (A) (A) (A) (A) (A) (A) (A)
                 (A) (A) (A) (A) (A) (A) (A) (A) (A) (A) (A) (A)
                 (A) (A) (A) (A) (A) (A) (A) (A) (A) (A) (A) (A)
                 (A) (A) (A) (A) (A) (A) (A) (A) (A) (A) (A) (A)
                 (A) (A) (A) (A) (A) (A) (A) (A) (A) (A) (A) (A)
                 (A) (A) (A) (A) (A) (A) (A) (A) (A) (A) (A) (A)
                 (A) (A) (A) (A) (A) (A) (A) (A) (A) (A) (A) (A)
                 (A) (A) (A) (A) (A) (A) (A) (A) (A) (A) (A) (A)
                 (A) (A) (A) (A) (A) (A) (A) (A) (A) (A) (A) (A)
                 (A) (A) (A) (A) (A) (A) (A) (A) (A) (A) (A) (A)
                 (A) (A) (A) (A) (A) (A) (A) (A) (A) (A) (A) (A)
                 (A) (A) (A) (A) (A) (A) (A) (A) (A) (A) (A) (A)
                 (A) (A) (A) (A) (A) (A) (A) (A) (A) (A) (A) (A)
                 (A) (A) (A) (A) (A) (A) (A) (A) (A) (A) (A) (A)
                 (A) (A) (A) (A) (A) (A) (A) (A) (A) (A) (A) (A)
                 (A) (A) (A) (A) (A) (A) (A) (A) (A) (A) (A) (A)
                 (A) (A) (A) (A) (A) (A) (A) (A) (A) (A) (A) (A)
                 (A) (A) (A) (A) (A) (A) (A) (A) (A) (A) (A) (A)
                 (A) (A) (A) (A) (A) (A) (A) (A) (A) (A) (A) (A)
                 (A) (A) (A) (A) (A) (A) (A) (A) (A) (A) (A) (A)
                 (A) (A) (A) (A) (A) (A) (A) (A) (A) (A) (A) (A)
                 (A) (A)
 The electronic state is 1-A.
 Alpha  occ. eigenvalues -- -101.57456 -89.23395 -24.74334 -24.73240 -24.73239
 Alpha  occ. eigenvalues --  -24.73204 -24.73203 -10.26874 -10.24336 -10.22488
 Alpha  occ. eigenvalues --  -10.21998 -10.21937 -10.21782  -9.48886  -8.27993
 Alpha  occ. eigenvalues --   -7.25366  -7.24361  -7.24328  -6.24521  -6.24510
 Alpha  occ. eigenvalues --   -6.23938  -1.38773  -1.28215  -1.28140  -1.25944
 Alpha  occ. eigenvalues --   -1.23361  -0.92466  -0.88028  -0.84305  -0.78826
 Alpha  occ. eigenvalues --   -0.76928  -0.68727  -0.66450  -0.66098  -0.64354
 Alpha  occ. eigenvalues --   -0.60949  -0.56241  -0.54429  -0.54244  -0.54243
 Alpha  occ. eigenvalues --   -0.52589  -0.50006  -0.49652  -0.48351  -0.47624
 Alpha  occ. eigenvalues --   -0.47130  -0.47117  -0.45923  -0.45470  -0.44178
 Alpha  occ. eigenvalues --   -0.43110  -0.42878  -0.42223  -0.39677  -0.39195
 Alpha  occ. eigenvalues --   -0.36086  -0.33713  -0.29878  -0.27847
 Alpha virt. eigenvalues --   -0.06917  -0.06257  -0.04972  -0.00989  -0.00005
 Alpha virt. eigenvalues --    0.01591   0.02442   0.03626   0.03977   0.04239
 Alpha virt. eigenvalues --    0.04458   0.05718   0.07094   0.07176   0.07215
 Alpha virt. eigenvalues --    0.08763   0.08992   0.09478   0.10357   0.10696
 Alpha virt. eigenvalues --    0.11019   0.11107   0.11994   0.12015   0.12910
 Alpha virt. eigenvalues --    0.13610   0.13932   0.14944   0.16180   0.16921
 Alpha virt. eigenvalues --    0.17652   0.17941   0.18500   0.18666   0.19417
 Alpha virt. eigenvalues --    0.20348   0.21229   0.21503   0.22090   0.23454
 Alpha virt. eigenvalues --    0.23922   0.24914   0.25162   0.25695   0.26032
 Alpha virt. eigenvalues --    0.27274   0.28071   0.28928   0.29191   0.29834
 Alpha virt. eigenvalues --    0.30249   0.30371   0.31504   0.32918   0.33799
 Alpha virt. eigenvalues --    0.34450   0.35697   0.36702   0.36966   0.39770
 Alpha virt. eigenvalues --    0.39986   0.41214   0.42099   0.43622   0.43761
 Alpha virt. eigenvalues --    0.44951   0.45366   0.45655   0.46319   0.47417
 Alpha virt. eigenvalues --    0.47620   0.49722   0.50270   0.51240   0.52044
 Alpha virt. eigenvalues --    0.52445   0.53029   0.54054   0.55411   0.56352
 Alpha virt. eigenvalues --    0.57286   0.58114   0.59028   0.61845   0.62429
 Alpha virt. eigenvalues --    0.63957   0.64831   0.65293   0.66149   0.67595
 Alpha virt. eigenvalues --    0.69074   0.69427   0.71308   0.77896   0.80357
 Alpha virt. eigenvalues --    0.80904   0.81957   0.84000   0.84456   0.84582
 Alpha virt. eigenvalues --    0.86232   0.86435   0.88168   0.90045   0.93007
 Alpha virt. eigenvalues --    0.93764   0.94235   0.98410   0.99378   1.00517
 Alpha virt. eigenvalues --    1.01298   1.03646   1.07350   1.07601   1.09792
 Alpha virt. eigenvalues --    1.10956   1.17249   1.18069   1.20171   1.25111
 Alpha virt. eigenvalues --    1.27184   1.27839   1.28335   1.29477   1.31521
 Alpha virt. eigenvalues --    1.34132   1.35296   1.36297   1.39931   1.43246
 Alpha virt. eigenvalues --    1.43772   1.44737   1.45249   1.47468   1.47638
 Alpha virt. eigenvalues --    1.50824   1.51969   1.53093   1.54594   1.55802
 Alpha virt. eigenvalues --    1.58009   1.59075   1.59785   1.60173   1.65829
 Alpha virt. eigenvalues --    1.70215   1.71985   1.76117   1.76420   1.84371
 Alpha virt. eigenvalues --    1.85606   1.86447   1.87247   1.89408   1.90656
 Alpha virt. eigenvalues --    1.91020   1.94673   1.95307   1.96847   2.00271
 Alpha virt. eigenvalues --    2.00365   2.01100   2.02203   2.06174   2.10835
 Alpha virt. eigenvalues --    2.16947   2.22259   2.24035   2.26995   2.27870
 Alpha virt. eigenvalues --    2.31114   2.33153   2.35418   2.38119   2.48732
 Alpha virt. eigenvalues --    2.50472   2.53805   2.57160   2.60428   2.63873
 Alpha virt. eigenvalues --    2.67281   2.68749   2.73444   2.74403   2.76135
 Alpha virt. eigenvalues --    2.76296   2.79403   2.80184   2.80292   2.87505
 Alpha virt. eigenvalues --    2.89593   3.04310   3.12964   3.15071   3.21751
 Alpha virt. eigenvalues --    3.31421   3.33338   3.45496   3.54162   3.67880
 Alpha virt. eigenvalues --    3.68340   3.68383   3.69210   3.69289   3.71753
 Alpha virt. eigenvalues --    3.71824   3.71981   3.72853   3.73427   3.74396
 Alpha virt. eigenvalues --    3.75491   3.77881   3.78225   3.79074   3.80364
 Alpha virt. eigenvalues --    3.82336   3.82795   3.82844   3.84595   3.91098
 Alpha virt. eigenvalues --    3.97807   4.01292   4.09477   4.11661   4.21642
 Alpha virt. eigenvalues --    4.23659   4.25310   4.26408   4.28275   4.80460
 Alpha virt. eigenvalues --    6.18837   6.21200   6.23456   6.24636   6.25853
 Alpha virt. eigenvalues --    6.29029   6.30435   6.36403   6.36663   6.38887
 Alpha virt. eigenvalues --    6.39690   6.47433   6.48567   6.50706   6.54574
 Alpha virt. eigenvalues --    8.09044   9.75929  17.32932  17.36123  17.43066
 Alpha virt. eigenvalues --   23.49474  23.86978  23.91843  24.01320  24.03206
 Alpha virt. eigenvalues --   24.12731  25.81304  26.11121  26.59697  66.74911
 Alpha virt. eigenvalues --   66.75097  66.82869  66.84463  66.93568 189.16144
 Alpha virt. eigenvalues --  215.74897
          Condensed to atoms (all electrons):
               1          2          3          4          5          6
     1  C   18.473561  -0.495144   2.325611  -3.016126  -6.736836  -4.897406
     2  C   -0.495144  22.182989  -7.473102   0.612530  -4.626163  -1.790824
     3  C    2.325611  -7.473102  17.328427  -2.221258   0.861886  -5.933616
     4  C   -3.016126   0.612530  -2.221258  11.246182  -0.002318  -0.617169
     5  C   -6.736836  -4.626163   0.861886  -0.002318  17.312382  -0.856333
     6  C   -4.897406  -1.790824  -5.933616  -0.617169  -0.856333  20.891985
     7  H    0.312143  -0.039357  -0.073786  -0.003523   0.053781   0.070998
     8  H   -0.009470   0.003546   0.345600  -0.005828  -0.002269  -0.004249
     9  H   -0.018925   0.062113  -0.075597   0.387261  -0.001689  -0.009747
    10  H    0.035654   0.030737  -0.031601  -0.039264   0.310096   0.043366
    11  S   -0.145046  -0.856961  -0.022273  -0.085649   0.338614  -0.268446
    12  F    0.036325  -0.139209   0.197225  -0.006629   0.008076  -0.092520
    13  F    0.036159  -0.138594   0.196937  -0.006446   0.007943  -0.093014
    14  F    0.014066   0.003892   0.091579  -0.013031   0.003405  -0.022822
    15  F    0.046315   0.067515  -0.107344   0.012458   0.015663   0.028830
    16  F    0.046663   0.067195  -0.106966   0.012166   0.015641   0.028928
    17  Cl   0.313101  -0.064641   0.139889   0.217855  -0.126090  -1.094109
               7          8          9         10         11         12
     1  C    0.312143  -0.009470  -0.018925   0.035654  -0.145046   0.036325
     2  C   -0.039357   0.003546   0.062113   0.030737  -0.856961  -0.139209
     3  C   -0.073786   0.345600  -0.075597  -0.031601  -0.022273   0.197225
     4  C   -0.003523  -0.005828   0.387261  -0.039264  -0.085649  -0.006629
     5  C    0.053781  -0.002269  -0.001689   0.310096   0.338614   0.008076
     6  C    0.070998  -0.004249  -0.009747   0.043366  -0.268446  -0.092520
     7  H    0.489841  -0.000053   0.000058  -0.000234   0.024542   0.002430
     8  H   -0.000053   0.506657  -0.006704  -0.000171   0.012585  -0.000104
     9  H    0.000058  -0.006704   0.521934  -0.007664   0.002019   0.000037
    10  H   -0.000234  -0.000171  -0.007664   0.507307   0.001069  -0.000003
    11  S    0.024542   0.012585   0.002019   0.001069  16.520665   0.053604
    12  F    0.002430  -0.000104   0.000037  -0.000003   0.053604   8.971684
    13  F    0.002371  -0.000109   0.000037  -0.000003   0.053735  -0.041746
    14  F   -0.001016  -0.001044   0.000000   0.000000  -0.057851  -0.016443
    15  F    0.000141   0.002872   0.000069   0.000002   0.024563  -0.032600
    16  F    0.000147   0.002935   0.000067   0.000002   0.024472   0.022474
    17  Cl  -0.007956   0.000335   0.000836  -0.005909  -0.046867  -0.000341
              13         14         15         16         17
     1  C    0.036159   0.014066   0.046315   0.046663   0.313101
     2  C   -0.138594   0.003892   0.067515   0.067195  -0.064641
     3  C    0.196937   0.091579  -0.107344  -0.106966   0.139889
     4  C   -0.006446  -0.013031   0.012458   0.012166   0.217855
     5  C    0.007943   0.003405   0.015663   0.015641  -0.126090
     6  C   -0.093014  -0.022822   0.028830   0.028928  -1.094109
     7  H    0.002371  -0.001016   0.000141   0.000147  -0.007956
     8  H   -0.000109  -0.001044   0.002872   0.002935   0.000335
     9  H    0.000037   0.000000   0.000069   0.000067   0.000836
    10  H   -0.000003   0.000000   0.000002   0.000002  -0.005909
    11  S    0.053735  -0.057851   0.024563   0.024472  -0.046867
    12  F   -0.041746  -0.016443  -0.032600   0.022474  -0.000341
    13  F    8.971931  -0.016433   0.022476  -0.032599  -0.000347
    14  F   -0.016433   9.009504  -0.026989  -0.026980   0.000231
    15  F    0.022476  -0.026989   8.973883  -0.041597  -0.000815
    16  F   -0.032599  -0.026980  -0.041597   8.973674  -0.000813
    17  Cl  -0.000347   0.000231  -0.000815  -0.000813  17.295214
 Mulliken charges:
               1
     1  C   -0.320644
     2  C   -1.406522
     3  C    0.558390
     4  C   -0.471213
     5  C   -0.575791
     6  C    0.616147
     7  H    0.169472
     8  H    0.155472
     9  H    0.145897
    10  H    0.156617
    11  S    0.427225
    12  F    0.037739
    13  F    0.037704
    14  F    0.059932
    15  F    0.014557
    16  F    0.014591
    17  Cl   0.380429
 Sum of Mulliken charges =   0.00000
 Mulliken charges with hydrogens summed into heavy atoms:
               1
     1  C   -0.151172
     2  C   -1.406522
     3  C    0.713862
     4  C   -0.325317
     5  C   -0.419174
     6  C    0.616147
    11  S    0.427225
    12  F    0.037739
    13  F    0.037704
    14  F    0.059932
    15  F    0.014557
    16  F    0.014591
    17  Cl   0.380429
 Electronic spatial extent (au):  <R**2>=           3024.7603
 Charge=              0.0000 electrons
 Dipole moment (field-independent basis, Debye):
    X=              1.8009    Y=              2.1551    Z=             -0.0002  Tot=              2.8085
 Quadrupole moment (field-independent basis, Debye-Ang):
   XX=            -89.5882   YY=            -80.2863   ZZ=            -90.8383
   XY=              3.5789   XZ=              0.0009   YZ=             -0.0025
 Traceless Quadrupole moment (field-independent basis, Debye-Ang):
   XX=             -2.6839   YY=              6.6180   ZZ=             -3.9340
   XY=              3.5789   XZ=              0.0009   YZ=             -0.0025
 Octapole moment (field-independent basis, Debye-Ang**2):
  XXX=            -47.4304  YYY=              1.9075  ZZZ=             -0.0089  XYY=             -8.0520
  XXY=              8.0957  XXZ=             -0.0019  XZZ=            -21.4339  YZZ=             -8.4498
  YYZ=             -0.0094  XYZ=             -0.0010
 Hexadecapole moment (field-independent basis, Debye-Ang**3):
 XXXX=          -2612.9245 YYYY=           -693.2222 ZZZZ=           -242.6357 XXXY=             31.5523
 XXXZ=              0.0098 YYYX=             13.6719 YYYZ=             -0.0316 ZZZX=             -0.0014
 ZZZY=             -0.0018 XXYY=           -531.9260 XXZZ=           -493.4829 YYZZ=           -179.8594
 XXYZ=             -0.0009 YYXZ=             -0.0039 ZZXY=             -4.0338
 N-N= 1.186477680513D+03 E-N=-6.137903432548D+03  KE= 1.585259689949D+03
 There are a total of      140140 grid points.
 ElSum from          density=      117.9997483541
 ElSum from atomic densities=      117.9996093566

 Hirshfeld populations at iteration   1 (CX, CA, CB, DipXYZ):
               1          2          3          4          5          6
     1  C    0.000000   3.020496   3.020496   0.015021  -0.046137   0.000001
     2  C    0.000000   3.023924   3.023924  -0.040610  -0.017283   0.000142
     3  C    0.000000   3.019908   3.019908  -0.016318   0.058828  -0.000087
     4  C    0.000000   3.015134   3.015134   0.011567   0.071338   0.000017
     5  C    0.000000   3.017045   3.017045   0.054554   0.030684   0.000050
     6  C    0.000001   2.980110   2.980110   0.071500  -0.065559  -0.000075
     7  H    0.000002   0.469578   0.469578  -0.013615  -0.162252   0.000036
     8  H    0.000001   0.470988   0.470988  -0.103810   0.130204  -0.000062
     9  H    0.000002   0.468403   0.468403   0.029641   0.165301  -0.000098
    10  H    0.000003   0.469114   0.469114   0.149229   0.070948   0.000022
    11  S    0.000000   7.731494   7.731494  -0.107459  -0.038155  -0.000072
    12  F    0.000014   4.557355   4.557355   0.000667   0.074787  -0.082067
    13  F    0.000014   4.557346   4.557346   0.000630   0.074799   0.082063
    14  F    0.000021   4.553530   4.553530   0.092909   0.032983   0.000041
    15  F    0.000013   4.557453   4.557453   0.047896  -0.058269   0.082341
    16  F    0.000013   4.557463   4.557463   0.047938  -0.058303  -0.082287
    17  Cl   0.000010   8.530533   8.530533   0.008825  -0.009050   0.000017
       Tot   0.000094  58.999874  58.999874   0.248564   0.254863  -0.000017

 Dip from Atomic Chgs              0.458842   0.592600  -0.000053
         Total Dipole              0.707406   0.847462  -0.000070

 Hirshfeld charges, spin densities, dipoles, and CM5 charges using IRadAn=      4:
              Q-H        S-H        Dx         Dy         Dz        Q-CM5   
     1  C   -0.040993   0.000000   0.015021  -0.046137   0.000001  -0.090461
     2  C   -0.047847   0.000000  -0.040610  -0.017283   0.000142  -0.072678
     3  C   -0.039815   0.000000  -0.016318   0.058828  -0.000087  -0.092582
     4  C   -0.030269   0.000000   0.011567   0.071338   0.000017  -0.083739
     5  C   -0.034090   0.000000   0.054554   0.030684   0.000050  -0.084378
     6  C    0.039781   0.000000   0.071500  -0.065559  -0.000075   0.032995
     7  H    0.060844   0.000000  -0.013615  -0.162252   0.000036   0.108957
     8  H    0.058024   0.000000  -0.103810   0.130204  -0.000062   0.107181
     9  H    0.063194   0.000000   0.029641   0.165301  -0.000098   0.116838
    10  H    0.061773   0.000000   0.149229   0.070948   0.000022   0.114387
    11  S    0.537011   0.000000  -0.107459  -0.038155  -0.000072   0.590498
    12  F   -0.114709   0.000000   0.000667   0.074787  -0.082067  -0.118269
    13  F   -0.114692   0.000000   0.000630   0.074799   0.082063  -0.118247
    14  F   -0.107061   0.000000   0.092909   0.032983   0.000041  -0.114101
    15  F   -0.114906   0.000000   0.047896  -0.058269   0.082341  -0.118462
    16  F   -0.114927   0.000000   0.047938  -0.058303  -0.082287  -0.118487
    17  Cl  -0.061066   0.000000   0.008825  -0.009050   0.000017  -0.059201
       Tot   0.000252   0.000000   0.248564   0.254863  -0.000017   0.000252
 Hirshfeld charges with hydrogens summed into heavy atoms:
              Q-H       Q-CM5   
     1  C    0.019851   0.018497
     2  C   -0.047847  -0.072678
     3  C    0.018209   0.014599
     4  C    0.032925   0.033099
     5  C    0.027683   0.030009
     6  C    0.039781   0.032995
    11  S    0.537011   0.590498
    12  F   -0.114709  -0.118269
    13  F   -0.114692  -0.118247
    14  F   -0.107061  -0.114101
    15  F   -0.114906  -0.118462
    16  F   -0.114927  -0.118487
    17  Cl  -0.061066  -0.059201
 
 EQQ= 0.000000000000E+00 EQD= 0.000000000000E+00 EDD= 0.450545852757E-02
 EQQ+QD+DD= 0.450545852757E-02
 
          MBS Condensed to atoms (all electrons):
               1          2          3          4          5          6
     1  C    4.810785   0.502033  -0.030214  -0.010936  -0.032371   0.503672
     2  C    0.502033   4.785819   0.503206  -0.029111  -0.011308  -0.026220
     3  C   -0.030214   0.503206   4.808393   0.503526  -0.030920  -0.011661
     4  C   -0.010936  -0.029111   0.503526   4.808669   0.502974  -0.028670
     5  C   -0.032371  -0.011308  -0.030920   0.502974   4.812540   0.502806
     6  C    0.503672  -0.026220  -0.011661  -0.028670   0.502806   4.712335
     7  H    0.381637  -0.023522   0.001339   0.000068   0.001329  -0.022861
     8  H    0.001372  -0.025189   0.384314  -0.023034   0.001429   0.000073
     9  H    0.000030   0.001392  -0.024611   0.388254  -0.024460   0.001367
    10  H    0.001388   0.000071   0.001455  -0.023382   0.385058  -0.024924
    11  S   -0.023052   0.344858  -0.023169   0.000622  -0.000001   0.000573
    12  F   -0.001516  -0.015512   0.000139  -0.000001   0.000000   0.000006
    13  F   -0.001520  -0.015514   0.000138  -0.000001   0.000000   0.000006
    14  F    0.000001   0.000064   0.000002   0.000000   0.000000   0.000000
    15  F    0.000136  -0.015438  -0.001518   0.000006   0.000000  -0.000001
    16  F    0.000136  -0.015436  -0.001514   0.000006   0.000000  -0.000001
    17  Cl  -0.028419   0.000614   0.000008   0.000647  -0.028612   0.266002
               7          8          9         10         11         12
     1  C    0.381637   0.001372   0.000030   0.001388  -0.023052  -0.001516
     2  C   -0.023522  -0.025189   0.001392   0.000071   0.344858  -0.015512
     3  C    0.001339   0.384314  -0.024611   0.001455  -0.023169   0.000139
     4  C    0.000068  -0.023034   0.388254  -0.023382   0.000622  -0.000001
     5  C    0.001329   0.001429  -0.024460   0.385058  -0.000001   0.000000
     6  C   -0.022861   0.000073   0.001367  -0.024924   0.000573   0.000006
     7  H    0.520436  -0.000040   0.000002  -0.000038  -0.003638   0.000873
     8  H   -0.000040   0.532674  -0.003752  -0.000034  -0.003459   0.000012
     9  H    0.000002  -0.003752   0.542761  -0.003783  -0.000012   0.000000
    10  H   -0.000038  -0.000034  -0.003783   0.538217   0.000000   0.000000
    11  S   -0.003638  -0.003459  -0.000012   0.000000  13.768116   0.265267
    12  F    0.000873   0.000012   0.000000   0.000000   0.265267   8.939361
    13  F    0.000872   0.000012   0.000000   0.000000   0.265269  -0.007148
    14  F    0.000001   0.000001   0.000000   0.000000   0.263318  -0.007934
    15  F    0.000013   0.000832   0.000000   0.000000   0.265436   0.000035
    16  F    0.000013   0.000831   0.000000   0.000000   0.265435  -0.006932
    17  Cl  -0.002031   0.000000  -0.000012  -0.001842  -0.000002   0.000000
              13         14         15         16         17
     1  C   -0.001520   0.000001   0.000136   0.000136  -0.028419
     2  C   -0.015514   0.000064  -0.015438  -0.015436   0.000614
     3  C    0.000138   0.000002  -0.001518  -0.001514   0.000008
     4  C   -0.000001   0.000000   0.000006   0.000006   0.000647
     5  C    0.000000   0.000000   0.000000   0.000000  -0.028612
     6  C    0.000006   0.000000  -0.000001  -0.000001   0.266002
     7  H    0.000872   0.000001   0.000013   0.000013  -0.002031
     8  H    0.000012   0.000001   0.000832   0.000831   0.000000
     9  H    0.000000   0.000000   0.000000   0.000000  -0.000012
    10  H    0.000000   0.000000   0.000000   0.000000  -0.001842
    11  S    0.265269   0.263318   0.265436   0.265435  -0.000002
    12  F   -0.007148  -0.007934   0.000035  -0.006932   0.000000
    13  F    8.939360  -0.007934  -0.006932   0.000035   0.000000
    14  F   -0.007934   8.902930  -0.007932  -0.007932   0.000000
    15  F   -0.006932  -0.007932   8.938996  -0.007160   0.000000
    16  F    0.000035  -0.007932  -0.007160   8.938997   0.000000
    17  Cl   0.000000   0.000000   0.000000   0.000000  16.983914
 MBS Mulliken charges:
               1
     1  C   -0.073159
     2  C    0.039192
     3  C   -0.078912
     4  C   -0.089636
     5  C   -0.078464
     6  C    0.127499
     7  H    0.145548
     8  H    0.133959
     9  H    0.122825
    10  H    0.127814
    11  S    0.614439
    12  F   -0.166650
    13  F   -0.166644
    14  F   -0.134587
    15  F   -0.166474
    16  F   -0.166479
    17  Cl  -0.190269
 Sum of MBS Mulliken charges =   0.00000
 MBS Mulliken charges with hydrogens summed into heavy atoms:
               1
     1  C    0.072389
     2  C    0.039192
     3  C    0.055046
     4  C    0.033189
     5  C    0.049350
     6  C    0.127499
    11  S    0.614439
    12  F   -0.166650
    13  F   -0.166644
    14  F   -0.134587
    15  F   -0.166474
    16  F   -0.166479
    17  Cl  -0.190269
 Breneman (CHELPG) radii used.
 Generate Potential Derived Charges using the Breneman model, NDens= 1.
 Grid spacing= 0.300 Box extension= 2.800
 NStep X,Y,Z=   42     37     28   Total possible points=       43512
 Number of Points to Fit=   11437

 **********************************************************************

            Electrostatic Properties Using The SCF Density

 **********************************************************************

       Atomic Center    1 is at   1.058988 -0.506105  0.000406
       Atomic Center    2 is at  -0.004058  0.397446  0.000729
       Atomic Center    3 is at   0.246630  1.769444 -0.000046
       Atomic Center    4 is at   1.560879  2.238448  0.000055
       Atomic Center    5 is at   2.623620  1.335054  0.000212
       Atomic Center    6 is at   2.372685 -0.037331 -0.000010
       Atomic Center    7 is at   0.861127 -1.587767  0.000566
       Atomic Center    8 is at  -0.591223  2.481693 -0.000425
       Atomic Center    9 is at   1.758291  3.320263 -0.000496
       Atomic Center   10 is at   3.659515  1.704371  0.000299
       Atomic Center   11 is at  -1.680337 -0.201293  0.000001
       Atomic Center   12 is at  -1.302667 -1.260015  1.124533
       Atomic Center   13 is at  -1.301644 -1.260144 -1.124066
       Atomic Center   14 is at  -3.177687 -0.736121 -0.000650
       Atomic Center   15 is at  -2.058006  0.857429 -1.124532
       Atomic Center   16 is at  -2.059029  0.857559  1.124067
       Atomic Center   17 is at   3.713912 -1.176941 -0.000129
   11437 points will be used for fitting atomic charges
 Fitting point charges to electrostatic potential
 Charges from ESP fit, RMS=   0.00388 RRMS=   0.33337:
 ESP charges:
               1
     1  C   -0.059119
     2  C   -0.022991
     3  C   -0.070788
     4  C   -0.131591
     5  C   -0.024266
     6  C    0.065604
     7  H    0.127148
     8  H    0.130540
     9  H    0.119251
    10  H    0.092383
    11  S    0.934097
    12  F   -0.224387
    13  F   -0.224387
    14  F   -0.142769
    15  F   -0.227724
    16  F   -0.227770
    17  Cl  -0.113232
 Sum of ESP charges =   0.00000
 ESP charges with hydrogens summed into heavy atoms:
               1
     1  C    0.068029
     2  C   -0.022991
     3  C    0.059752
     4  C   -0.012340
     5  C    0.068118
     6  C    0.065604
    11  S    0.934097
    12  F   -0.224387
    13  F   -0.224387
    14  F   -0.142769
    15  F   -0.227724
    16  F   -0.227770
    17  Cl  -0.113232
 Charge=   0.00000 Dipole=     1.7880     2.2424     0.0000 Tot=     2.8679
 -----------------------------------------------------------------

              Electrostatic Properties (Atomic Units)

 -----------------------------------------------------------------
    Center     Electric         -------- Electric Field --------
               Potential          X             Y             Z
 -----------------------------------------------------------------
    1 Atom    -14.726467
    2 Atom    -14.709353
    3 Atom    -14.731307
    4 Atom    -14.732983
    5 Atom    -14.732145
    6 Atom    -14.681038
    7 Atom     -1.064275
    8 Atom     -1.070098
    9 Atom     -1.070086
   10 Atom     -1.069188
   11 Atom    -58.851130
   12 Atom    -26.552919
   13 Atom    -26.552919
   14 Atom    -26.542323
   15 Atom    -26.552562
   16 Atom    -26.552565
   17 Atom    -64.376293
 -----------------------------------------------------------------
 ******************************Gaussian NBO Version 3.1******************************
             N A T U R A L   A T O M I C   O R B I T A L   A N D
          N A T U R A L   B O N D   O R B I T A L   A N A L Y S I S
 ******************************Gaussian NBO Version 3.1******************************
       /RESON  / : Allow strongly delocalized NBO set

 Analyzing the SCF density

 Job title: Title Card Required                                             

 Storage needed:    320342 in NPA ( 536869229 available)


 NATURAL POPULATIONS:  Natural atomic orbital occupancies 
                                                          
   NAO  Atom  No  lang   Type(AO)    Occupancy      Energy
 ----------------------------------------------------------
     1    C    1  S      Cor( 1S)     1.99882     -10.07131
     2    C    1  S      Val( 2S)     0.94222      -0.19670
     3    C    1  S      Ryd( 3S)     0.00243       0.85326
     4    C    1  S      Ryd( 4S)     0.00024       0.96410
     5    C    1  S      Ryd( 5S)     0.00001      22.97537
     6    C    1  px     Val( 2p)     1.07875      -0.10893
     7    C    1  px     Ryd( 4p)     0.00471       0.77599
     8    C    1  px     Ryd( 3p)     0.00046       0.54995
     9    C    1  px     Ryd( 5p)     0.00015       3.34657
    10    C    1  py     Val( 2p)     1.20119      -0.11888
    11    C    1  py     Ryd( 4p)     0.00773       0.97472
    12    C    1  py     Ryd( 3p)     0.00044       0.35321
    13    C    1  py     Ryd( 5p)     0.00008       3.26397
    14    C    1  pz     Val( 2p)     0.96684      -0.14656
    15    C    1  pz     Ryd( 4p)     0.00101       0.51619
    16    C    1  pz     Ryd( 3p)     0.00063       0.30871
    17    C    1  pz     Ryd( 5p)     0.00001       2.72507
    18    C    1  dxy    Ryd( 3d)     0.00148       1.86354
    19    C    1  dxz    Ryd( 3d)     0.00037       1.36344
    20    C    1  dyz    Ryd( 3d)     0.00070       1.31534
    21    C    1  dx2y2  Ryd( 3d)     0.00116       1.82699
    22    C    1  dz2    Ryd( 3d)     0.00131       1.71403

    23    C    2  S      Cor( 1S)     1.99872     -10.10815
    24    C    2  S      Val( 2S)     0.96208      -0.24525
    25    C    2  S      Ryd( 3S)     0.00311       0.82902
    26    C    2  S      Ryd( 4S)     0.00020       1.18829
    27    C    2  S      Ryd( 5S)     0.00001      22.84982
    28    C    2  px     Val( 2p)     1.02678      -0.17586
    29    C    2  px     Ryd( 4p)     0.00877       1.13482
    30    C    2  px     Ryd( 3p)     0.00028       0.76898
    31    C    2  px     Ryd( 5p)     0.00024       3.25308
    32    C    2  py     Val( 2p)     1.10174      -0.13520
    33    C    2  py     Ryd( 4p)     0.00696       0.91091
    34    C    2  py     Ryd( 3p)     0.00032       0.68139
    35    C    2  py     Ryd( 5p)     0.00025       3.42001
    36    C    2  pz     Val( 2p)     1.09924      -0.18126
    37    C    2  pz     Ryd( 4p)     0.00242       0.52714
    38    C    2  pz     Ryd( 3p)     0.00044       0.51666
    39    C    2  pz     Ryd( 5p)     0.00005       2.65065
    40    C    2  dxy    Ryd( 3d)     0.00091       2.59951
    41    C    2  dxz    Ryd( 3d)     0.00046       1.72697
    42    C    2  dyz    Ryd( 3d)     0.00078       1.71884
    43    C    2  dx2y2  Ryd( 3d)     0.00124       2.46749
    44    C    2  dz2    Ryd( 3d)     0.00048       2.11757

    45    C    3  S      Cor( 1S)     1.99901     -10.07026
    46    C    3  S      Val( 2S)     0.94698      -0.19903
    47    C    3  S      Ryd( 3S)     0.00185       0.79206
    48    C    3  S      Ryd( 4S)     0.00014       0.96910
    49    C    3  S      Ryd( 5S)     0.00001      22.90634
    50    C    3  px     Val( 2p)     1.14568      -0.09829
    51    C    3  px     Ryd( 4p)     0.00642       0.99770
    52    C    3  px     Ryd( 3p)     0.00065       0.43044
    53    C    3  px     Ryd( 5p)     0.00009       3.19024
    54    C    3  py     Val( 2p)     1.11431      -0.09884
    55    C    3  py     Ryd( 4p)     0.00543       0.82342
    56    C    3  py     Ryd( 3p)     0.00035       0.37209
    57    C    3  py     Ryd( 5p)     0.00012       3.17313
    58    C    3  pz     Val( 2p)     0.96530      -0.14300
    59    C    3  pz     Ryd( 4p)     0.00105       0.51994
    60    C    3  pz     Ryd( 3p)     0.00047       0.32399
    61    C    3  pz     Ryd( 5p)     0.00002       2.68950
    62    C    3  dxy    Ryd( 3d)     0.00073       2.44722
    63    C    3  dxz    Ryd( 3d)     0.00055       1.60328
    64    C    3  dyz    Ryd( 3d)     0.00060       1.62410
    65    C    3  dx2y2  Ryd( 3d)     0.00074       2.56878
    66    C    3  dz2    Ryd( 3d)     0.00043       2.01239

    67    C    4  S      Cor( 1S)     1.99913     -10.07322
    68    C    4  S      Val( 2S)     0.95447      -0.20168
    69    C    4  S      Ryd( 3S)     0.00144       0.80862
    70    C    4  S      Ryd( 4S)     0.00014       1.02197
    71    C    4  S      Ryd( 5S)     0.00001      22.69465
    72    C    4  px     Val( 2p)     1.05393      -0.07954
    73    C    4  px     Ryd( 4p)     0.00456       0.77299
    74    C    4  px     Ryd( 3p)     0.00041       0.40839
    75    C    4  px     Ryd( 5p)     0.00017       3.00323
    76    C    4  py     Val( 2p)     1.17225      -0.09519
    77    C    4  py     Ryd( 4p)     0.00693       1.04910
    78    C    4  py     Ryd( 3p)     0.00029       0.26519
    79    C    4  py     Ryd( 5p)     0.00007       3.14048
    80    C    4  pz     Val( 2p)     0.98949      -0.14291
    81    C    4  pz     Ryd( 4p)     0.00066       0.51642
    82    C    4  pz     Ryd( 3p)     0.00024       0.33238
    83    C    4  pz     Ryd( 5p)     0.00001       2.59928
    84    C    4  dxy    Ryd( 3d)     0.00068       2.53399
    85    C    4  dxz    Ryd( 3d)     0.00052       1.64173
    86    C    4  dyz    Ryd( 3d)     0.00046       1.57321
    87    C    4  dx2y2  Ryd( 3d)     0.00074       2.45015
    88    C    4  dz2    Ryd( 3d)     0.00041       2.00844

    89    C    5  S      Cor( 1S)     1.99896     -10.06996
    90    C    5  S      Val( 2S)     0.95414      -0.19994
    91    C    5  S      Ryd( 3S)     0.00193       0.75000
    92    C    5  S      Ryd( 4S)     0.00031       1.00228
    93    C    5  S      Ryd( 5S)     0.00001      22.81337
    94    C    5  px     Val( 2p)     1.17777      -0.10173
    95    C    5  px     Ryd( 4p)     0.00686       0.97746
    96    C    5  px     Ryd( 3p)     0.00038       0.32192
    97    C    5  px     Ryd( 5p)     0.00007       3.17145
    98    C    5  py     Val( 2p)     1.07853      -0.09613
    99    C    5  py     Ryd( 4p)     0.00473       0.74634
   100    C    5  py     Ryd( 3p)     0.00033       0.38450
   101    C    5  py     Ryd( 5p)     0.00015       3.08107
   102    C    5  pz     Val( 2p)     0.97617      -0.14370
   103    C    5  pz     Ryd( 4p)     0.00088       0.49351
   104    C    5  pz     Ryd( 3p)     0.00040       0.31751
   105    C    5  pz     Ryd( 5p)     0.00001       2.62936
   106    C    5  dxy    Ryd( 3d)     0.00071       2.50725
   107    C    5  dxz    Ryd( 3d)     0.00049       1.57691
   108    C    5  dyz    Ryd( 3d)     0.00051       1.63420
   109    C    5  dx2y2  Ryd( 3d)     0.00081       2.46806
   110    C    5  dz2    Ryd( 3d)     0.00041       1.99970

   111    C    6  S      Cor( 1S)     1.99854     -10.13941
   112    C    6  S      Val( 2S)     0.93227      -0.24508
   113    C    6  S      Ryd( 4S)     0.00074       0.84550
   114    C    6  S      Ryd( 3S)     0.00026       0.58446
   115    C    6  S      Ryd( 5S)     0.00001      23.24214
   116    C    6  px     Val( 2p)     0.99455      -0.15110
   117    C    6  px     Ryd( 3p)     0.00703       0.85658
   118    C    6  px     Ryd( 5p)     0.00043       2.00747
   119    C    6  px     Ryd( 4p)     0.00027       1.55418
   120    C    6  py     Val( 2p)     1.02511      -0.14209
   121    C    6  py     Ryd( 3p)     0.00686       0.84467
   122    C    6  py     Ryd( 5p)     0.00032       2.04854
   123    C    6  py     Ryd( 4p)     0.00020       1.52383
   124    C    6  pz     Val( 2p)     1.06529      -0.17206
   125    C    6  pz     Ryd( 3p)     0.00109       0.57669
   126    C    6  pz     Ryd( 5p)     0.00013       1.87438
   127    C    6  pz     Ryd( 4p)     0.00019       1.09742
   128    C    6  dxy    Ryd( 3d)     0.00190       2.32700
   129    C    6  dxz    Ryd( 3d)     0.00107       1.67483
   130    C    6  dyz    Ryd( 3d)     0.00101       1.57890
   131    C    6  dx2y2  Ryd( 3d)     0.00116       2.57029
   132    C    6  dz2    Ryd( 3d)     0.00073       2.03544

   133    H    7  S      Val( 1S)     0.74688       0.01763
   134    H    7  S      Ryd( 2S)     0.00098       1.05455
   135    H    7  S      Ryd( 3S)     0.00014       1.67454
   136    H    7  px     Ryd( 2p)     0.00028       2.06704
   137    H    7  py     Ryd( 2p)     0.00019       2.84522
   138    H    7  pz     Ryd( 2p)     0.00028       1.70392

   139    H    8  S      Val( 1S)     0.76020       0.01914
   140    H    8  S      Ryd( 2S)     0.00065       0.94241
   141    H    8  S      Ryd( 3S)     0.00015       1.76831
   142    H    8  px     Ryd( 2p)     0.00035       2.38364
   143    H    8  py     Ryd( 2p)     0.00031       2.25539
   144    H    8  pz     Ryd( 2p)     0.00020       1.58292

   145    H    9  S      Val( 1S)     0.77430       0.01156
   146    H    9  S      Ryd( 2S)     0.00050       0.56499
   147    H    9  S      Ryd( 3S)     0.00017       2.14668
   148    H    9  px     Ryd( 2p)     0.00012       1.96299
   149    H    9  py     Ryd( 2p)     0.00043       2.61873
   150    H    9  pz     Ryd( 2p)     0.00018       1.56302

   151    H   10  S      Val( 1S)     0.76822       0.01229
   152    H   10  S      Ryd( 2S)     0.00069       0.85426
   153    H   10  S      Ryd( 3S)     0.00017       1.83137
   154    H   10  px     Ryd( 2p)     0.00042       2.57052
   155    H   10  py     Ryd( 2p)     0.00017       2.01027
   156    H   10  pz     Ryd( 2p)     0.00016       1.56331

   157    S   11  S      Cor( 1S)     2.00000     -87.97563
   158    S   11  S      Cor( 2S)     1.99845      -9.37803
   159    S   11  S      Val( 3S)     1.08849      -0.68859
   160    S   11  S      Ryd( 4S)     0.00360       0.89210
   161    S   11  S      Ryd( 5S)     0.00075       0.90766
   162    S   11  S      Ryd( 6S)     0.00005      15.51523
   163    S   11  S      Ryd( 7S)     0.00000     181.04069
   164    S   11  px     Cor( 2p)     1.99982      -6.22883
   165    S   11  px     Val( 3p)     0.90236      -0.28023
   166    S   11  px     Ryd( 6p)     0.00671       1.83153
   167    S   11  px     Ryd( 5p)     0.00111       1.00606
   168    S   11  px     Ryd( 4p)     0.00021       0.60094
   169    S   11  px     Ryd( 7p)     0.00001      16.05396
   170    S   11  py     Cor( 2p)     1.99991      -6.23348
   171    S   11  py     Val( 3p)     0.73121      -0.26748
   172    S   11  py     Ryd( 6p)     0.00902       1.65845
   173    S   11  py     Ryd( 5p)     0.00113       1.01439
   174    S   11  py     Ryd( 4p)     0.00015       0.43330
   175    S   11  py     Ryd( 7p)     0.00001      16.04438
   176    S   11  pz     Cor( 2p)     1.99994      -6.23409
   177    S   11  pz     Val( 3p)     0.70769      -0.26165
   178    S   11  pz     Ryd( 6p)     0.00857       1.55228
   179    S   11  pz     Ryd( 5p)     0.00094       0.91749
   180    S   11  pz     Ryd( 4p)     0.00031       0.41381
   181    S   11  pz     Ryd( 7p)     0.00000      16.08593
   182    S   11  dxy    Ryd( 3d)     0.03050       0.76312
   183    S   11  dxz    Ryd( 3d)     0.02390       0.65451
   184    S   11  dyz    Ryd( 3d)     0.04385       0.88767
   185    S   11  dx2y2  Ryd( 3d)     0.03563       0.78839
   186    S   11  dz2    Ryd( 3d)     0.03086       0.68182

   187    F   12  S      Cor( 1S)     1.99995     -24.48374
   188    F   12  S      Val( 2S)     1.91616      -1.37672
   189    F   12  S      Ryd( 4S)     0.00105       1.66462
   190    F   12  S      Ryd( 3S)     0.00044       1.48779
   191    F   12  S      Ryd( 5S)     0.00000      66.52191
   192    F   12  px     Val( 2p)     1.93904      -0.47697
   193    F   12  px     Ryd( 3p)     0.00077       0.61971
   194    F   12  px     Ryd( 4p)     0.00014       1.34016
   195    F   12  px     Ryd( 5p)     0.00001       6.24160
   196    F   12  py     Val( 2p)     1.81757      -0.48118
   197    F   12  py     Ryd( 3p)     0.00093       0.55264
   198    F   12  py     Ryd( 4p)     0.00027       1.36455
   199    F   12  py     Ryd( 5p)     0.00002       6.18273
   200    F   12  pz     Val( 2p)     1.78577      -0.48178
   201    F   12  pz     Ryd( 3p)     0.00091       0.55566
   202    F   12  pz     Ryd( 4p)     0.00027       1.35974
   203    F   12  pz     Ryd( 5p)     0.00002       6.16659
   204    F   12  dxy    Ryd( 3d)     0.00033       3.79205
   205    F   12  dxz    Ryd( 3d)     0.00037       3.79407
   206    F   12  dyz    Ryd( 3d)     0.00079       3.95545
   207    F   12  dx2y2  Ryd( 3d)     0.00032       3.79755
   208    F   12  dz2    Ryd( 3d)     0.00050       3.81319

   209    F   13  S      Cor( 1S)     1.99995     -24.48374
   210    F   13  S      Val( 2S)     1.91617      -1.37673
   211    F   13  S      Ryd( 4S)     0.00105       1.66419
   212    F   13  S      Ryd( 3S)     0.00044       1.48813
   213    F   13  S      Ryd( 5S)     0.00000      66.52192
   214    F   13  px     Val( 2p)     1.93891      -0.47698
   215    F   13  px     Ryd( 3p)     0.00076       0.61973
   216    F   13  px     Ryd( 4p)     0.00014       1.34030
   217    F   13  px     Ryd( 5p)     0.00001       6.24160
   218    F   13  py     Val( 2p)     1.81752      -0.48119
   219    F   13  py     Ryd( 3p)     0.00093       0.55258
   220    F   13  py     Ryd( 4p)     0.00027       1.36463
   221    F   13  py     Ryd( 5p)     0.00002       6.18267
   222    F   13  pz     Val( 2p)     1.78594      -0.48178
   223    F   13  pz     Ryd( 3p)     0.00091       0.55563
   224    F   13  pz     Ryd( 4p)     0.00027       1.35965
   225    F   13  pz     Ryd( 5p)     0.00002       6.16653
   226    F   13  dxy    Ryd( 3d)     0.00033       3.79210
   227    F   13  dxz    Ryd( 3d)     0.00037       3.79418
   228    F   13  dyz    Ryd( 3d)     0.00079       3.95536
   229    F   13  dx2y2  Ryd( 3d)     0.00032       3.79756
   230    F   13  dz2    Ryd( 3d)     0.00050       3.81307

   231    F   14  S      Cor( 1S)     1.99995     -24.49716
   232    F   14  S      Val( 2S)     1.91573      -1.38108
   233    F   14  S      Ryd( 3S)     0.00197       1.06400
   234    F   14  S      Ryd( 4S)     0.00047       1.72951
   235    F   14  S      Ryd( 5S)     0.00000      66.60532
   236    F   14  px     Val( 2p)     1.61709      -0.48816
   237    F   14  px     Ryd( 3p)     0.00054       0.76292
   238    F   14  px     Ryd( 4p)     0.00034       1.64353
   239    F   14  px     Ryd( 5p)     0.00005       6.15757
   240    F   14  py     Val( 2p)     1.92293      -0.48364
   241    F   14  py     Ryd( 3p)     0.00055       0.46720
   242    F   14  py     Ryd( 4p)     0.00010       1.51337
   243    F   14  py     Ryd( 5p)     0.00001       6.11998
   244    F   14  pz     Val( 2p)     1.96795      -0.48305
   245    F   14  pz     Ryd( 3p)     0.00052       0.41852
   246    F   14  pz     Ryd( 4p)     0.00006       1.47586
   247    F   14  pz     Ryd( 5p)     0.00001       6.10435
   248    F   14  dxy    Ryd( 3d)     0.00088       3.84222
   249    F   14  dxz    Ryd( 3d)     0.00058       3.78070
   250    F   14  dyz    Ryd( 3d)     0.00009       3.73897
   251    F   14  dx2y2  Ryd( 3d)     0.00099       3.86837
   252    F   14  dz2    Ryd( 3d)     0.00041       3.78499

   253    F   15  S      Cor( 1S)     1.99995     -24.48419
   254    F   15  S      Val( 2S)     1.91610      -1.37693
   255    F   15  S      Ryd( 4S)     0.00107       1.62780
   256    F   15  S      Ryd( 3S)     0.00041       1.52174
   257    F   15  S      Ryd( 5S)     0.00000      66.51404
   258    F   15  px     Val( 2p)     1.95681      -0.47693
   259    F   15  px     Ryd( 3p)     0.00083       0.58639
   260    F   15  px     Ryd( 4p)     0.00014       1.32150
   261    F   15  px     Ryd( 5p)     0.00001       6.21743
   262    F   15  py     Val( 2p)     1.79985      -0.48190
   263    F   15  py     Ryd( 3p)     0.00081       0.60146
   264    F   15  py     Ryd( 4p)     0.00027       1.36795
   265    F   15  py     Ryd( 5p)     0.00002       6.19777
   266    F   15  pz     Val( 2p)     1.78564      -0.48213
   267    F   15  pz     Ryd( 3p)     0.00088       0.56174
   268    F   15  pz     Ryd( 4p)     0.00027       1.35300
   269    F   15  pz     Ryd( 5p)     0.00002       6.16414
   270    F   15  dxy    Ryd( 3d)     0.00031       3.78455
   271    F   15  dxz    Ryd( 3d)     0.00036       3.79790
   272    F   15  dyz    Ryd( 3d)     0.00080       3.95065
   273    F   15  dx2y2  Ryd( 3d)     0.00034       3.80324
   274    F   15  dz2    Ryd( 3d)     0.00050       3.81270

   275    F   16  S      Cor( 1S)     1.99995     -24.48419
   276    F   16  S      Val( 2S)     1.91610      -1.37692
   277    F   16  S      Ryd( 4S)     0.00107       1.62804
   278    F   16  S      Ryd( 3S)     0.00041       1.52156
   279    F   16  S      Ryd( 5S)     0.00000      66.51404
   280    F   16  px     Val( 2p)     1.95673      -0.47692
   281    F   16  px     Ryd( 3p)     0.00083       0.58637
   282    F   16  px     Ryd( 4p)     0.00014       1.32158
   283    F   16  px     Ryd( 5p)     0.00001       6.21754
   284    F   16  py     Val( 2p)     1.79981      -0.48189
   285    F   16  py     Ryd( 3p)     0.00081       0.60136
   286    F   16  py     Ryd( 4p)     0.00027       1.36790
   287    F   16  py     Ryd( 5p)     0.00002       6.19771
   288    F   16  pz     Val( 2p)     1.78577      -0.48212
   289    F   16  pz     Ryd( 3p)     0.00088       0.56186
   290    F   16  pz     Ryd( 4p)     0.00027       1.35295
   291    F   16  pz     Ryd( 5p)     0.00002       6.16413
   292    F   16  dxy    Ryd( 3d)     0.00031       3.78466
   293    F   16  dxz    Ryd( 3d)     0.00036       3.79795
   294    F   16  dyz    Ryd( 3d)     0.00080       3.95053
   295    F   16  dx2y2  Ryd( 3d)     0.00034       3.80332
   296    F   16  dz2    Ryd( 3d)     0.00050       3.81263

   297   Cl   17  S      Cor( 1S)     2.00000    -100.24617
   298   Cl   17  S      Cor( 2S)     1.99972     -10.49384
   299   Cl   17  S      Val( 3S)     1.83869      -1.02201
   300   Cl   17  S      Ryd( 4S)     0.00207       0.74571
   301   Cl   17  S      Ryd( 5S)     0.00008       1.10433
   302   Cl   17  S      Ryd( 6S)     0.00000      17.24871
   303   Cl   17  S      Ryd( 7S)     0.00000     207.77501
   304   Cl   17  px     Cor( 2p)     1.99995      -7.24338
   305   Cl   17  px     Val( 3p)     1.53458      -0.31015
   306   Cl   17  px     Ryd( 4p)     0.00293       0.36165
   307   Cl   17  px     Ryd( 5p)     0.00015       0.42866
   308   Cl   17  px     Ryd( 6p)     0.00002       5.70575
   309   Cl   17  px     Ryd( 7p)     0.00000      22.70310
   310   Cl   17  py     Cor( 2p)     1.99996      -7.24194
   311   Cl   17  py     Val( 3p)     1.65938      -0.31826
   312   Cl   17  py     Ryd( 4p)     0.00267       0.36581
   313   Cl   17  py     Ryd( 5p)     0.00015       0.44869
   314   Cl   17  py     Ryd( 6p)     0.00001       5.55384
   315   Cl   17  py     Ryd( 7p)     0.00000      22.73663
   316   Cl   17  pz     Cor( 2p)     1.99999      -7.23879
   317   Cl   17  pz     Val( 3p)     1.92596      -0.33779
   318   Cl   17  pz     Ryd( 4p)     0.00185       0.37667
   319   Cl   17  pz     Ryd( 5p)     0.00014       0.43583
   320   Cl   17  pz     Ryd( 6p)     0.00000       4.91324
   321   Cl   17  pz     Ryd( 7p)     0.00000      22.87208
   322   Cl   17  dxy    Ryd( 3d)     0.00429       1.19629
   323   Cl   17  dxz    Ryd( 3d)     0.00139       0.89066
   324   Cl   17  dyz    Ryd( 3d)     0.00101       0.88098
   325   Cl   17  dx2y2  Ryd( 3d)     0.00120       1.12203
   326   Cl   17  dz2    Ryd( 3d)     0.00142       0.96568

 WARNING:  1 low occupancy (<1.9990e) core orbital  found on  C    1
           1 low occupancy (<1.9990e) core orbital  found on  C    2
           1 low occupancy (<1.9990e) core orbital  found on  C    5
           1 low occupancy (<1.9990e) core orbital  found on  C    6
           1 low occupancy (<1.9990e) core orbital  found on  S   11

 WARNING:  Population inversion found on atom  C    1
           Population inversion found on atom  C    2
           Population inversion found on atom  C    3
           Population inversion found on atom  C    4
           Population inversion found on atom  C    5
           Population inversion found on atom  C    6
           Population inversion found on atom  S   11
           Population inversion found on atom  F   12
           Population inversion found on atom  F   13
           Population inversion found on atom  F   15
           Population inversion found on atom  F   16


 Summary of Natural Population Analysis:                  
                                                          
                                       Natural Population 
                Natural  -----------------------------------------------
    Atom  No    Charge         Core      Valence    Rydberg      Total
 -----------------------------------------------------------------------
      C    1   -0.21075      1.99882     4.18901    0.02293     6.21075
      C    2   -0.21548      1.99872     4.18984    0.02692     6.21548
      C    3   -0.19092      1.99901     4.17227    0.01964     6.19092
      C    4   -0.18698      1.99913     4.17014    0.01772     6.18698
      C    5   -0.20458      1.99896     4.18662    0.01900     6.20458
      C    6   -0.03915      1.99854     4.01721    0.02340     6.03915
      H    7    0.25125      0.00000     0.74688    0.00187     0.74875
      H    8    0.23814      0.00000     0.76020    0.00166     0.76186
      H    9    0.22431      0.00000     0.77430    0.00139     0.77569
      H   10    0.23018      0.00000     0.76822    0.00160     0.76982
      S   11    2.37484      9.99812     3.42974    0.19731    13.62516
      F   12   -0.46562      1.99995     7.45854    0.00714     9.46562
      F   13   -0.46562      1.99995     7.45854    0.00714     9.46562
      F   14   -0.43124      1.99995     7.42370    0.00759     9.43124
      F   15   -0.46537      1.99995     7.45840    0.00702     9.46537
      F   16   -0.46537      1.99995     7.45840    0.00702     9.46537
     Cl   17    0.02238      9.99962     6.95862    0.01938    16.97762
 =======================================================================
   * Total *    0.00000     41.99066    75.62062    0.38873   118.00000

                                 Natural Population      
 --------------------------------------------------------
   Core                      41.99066 ( 99.9778% of  42)
   Valence                   75.62062 ( 99.5008% of  76)
   Natural Minimal Basis    117.61127 ( 99.6706% of 118)
   Natural Rydberg Basis      0.38873 (  0.3294% of 118)
 --------------------------------------------------------

    Atom  No          Natural Electron Configuration
 ----------------------------------------------------------------------------
      C    1      [core]2S( 0.94)2p( 3.25)3d( 0.01)4p( 0.01)
      C    2      [core]2S( 0.96)2p( 3.23)4p( 0.02)
      C    3      [core]2S( 0.95)2p( 3.23)4p( 0.01)
      C    4      [core]2S( 0.95)2p( 3.22)4p( 0.01)
      C    5      [core]2S( 0.95)2p( 3.23)4p( 0.01)
      C    6      [core]2S( 0.93)2p( 3.08)3p( 0.01)3d( 0.01)
      H    7            1S( 0.75)
      H    8            1S( 0.76)
      H    9            1S( 0.77)
      H   10            1S( 0.77)
      S   11      [core]3S( 1.09)3p( 2.34)3d( 0.16)6p( 0.02)
      F   12      [core]2S( 1.92)2p( 5.54)
      F   13      [core]2S( 1.92)2p( 5.54)
      F   14      [core]2S( 1.92)2p( 5.51)
      F   15      [core]2S( 1.92)2p( 5.54)
      F   16      [core]2S( 1.92)2p( 5.54)
     Cl   17      [core]3S( 1.84)3p( 5.12)3d( 0.01)4p( 0.01)


 NBO analysis skipped by request.
 Calling FoFJK, ICntrl=      2127 FMM=F ISym2X=0 I1Cent= 0 IOpClX= 0 NMat=1 NMatS=1 NMatT=0.
 ***** Axes restored to original set *****
 -------------------------------------------------------------------
 Center     Atomic                   Forces (Hartrees/Bohr)
 Number     Number              X              Y              Z
 -------------------------------------------------------------------
      1        6          -0.015610455   -0.007009076    0.000123229
      2        6           0.000827872    0.036539459   -0.000398425
      3        6           0.013374070   -0.005068874   -0.000035124
      4        6           0.001756488    0.000342696    0.000024920
      5        6          -0.000138746    0.014230054   -0.000169568
      6        6           0.007228160   -0.003650885   -0.000036657
      7        1           0.009941935    0.008075141   -0.000140037
      8        1          -0.010338375    0.007176745   -0.000067996
      9        1          -0.009529630   -0.005679025    0.000087873
     10        1          -0.000681052   -0.010898483    0.000158141
     11       16          -0.001279461    0.042805523   -0.000613898
     12        9          -0.021915403   -0.015032466   -0.022413641
     13        9          -0.021757865   -0.014411909    0.022970696
     14        9           0.000238366   -0.016499334    0.000230263
     15        9           0.022093284   -0.013723361    0.022649515
     16        9           0.021950204   -0.014342456   -0.022399442
     17       17           0.003840607   -0.002853750    0.000030150
 -------------------------------------------------------------------
 Cartesian Forces:  Max     0.042805523 RMS     0.013716411

 GradGradGradGradGradGradGradGradGradGradGradGradGradGradGradGradGradGrad
 Berny optimization.
 FormGI is forming the generalized inverse of G from B-inverse, IUseBI=4.
 Internal  Forces:  Max     0.031622956 RMS     0.009617598
 Search for a local minimum.
 Step number   1 out of a maximum of   95
 All quantities printed in internal units (Hartrees-Bohrs-Radians)
 Mixed Optimization -- RFO/linear search
 Second derivative matrix not updated -- first step.
 ITU=  0
     Eigenvalues ---    0.00635   0.01440   0.02152   0.02153   0.02154
     Eigenvalues ---    0.02155   0.02155   0.02155   0.02156   0.02157
     Eigenvalues ---    0.09374   0.09374   0.13743   0.13743   0.13743
     Eigenvalues ---    0.13743   0.16000   0.16000   0.16000   0.16000
     Eigenvalues ---    0.16878   0.22000   0.23479   0.23493   0.25000
     Eigenvalues ---    0.25000   0.25000   0.25000   0.27758   0.29539
     Eigenvalues ---    0.33709   0.33718   0.33718   0.33725   0.42204
     Eigenvalues ---    0.42409   0.46412   0.46453   0.46466   0.46497
     Eigenvalues ---    0.53201   0.53201   0.53201   0.53201   0.53201
 RFO step:  Lambda=-2.46303302D-02 EMin= 6.34863063D-03
 Linear search not attempted -- first point.
 Maximum step size (   0.300) exceeded in Quadratic search.
    -- Step size scaled by   0.938
 Iteration  1 RMS(Cart)=  0.05398667 RMS(Int)=  0.00157244
 Iteration  2 RMS(Cart)=  0.00143179 RMS(Int)=  0.00084532
 Iteration  3 RMS(Cart)=  0.00000273 RMS(Int)=  0.00084532
 Iteration  4 RMS(Cart)=  0.00000001 RMS(Int)=  0.00084532
 Variable       Old X    -DE/DX   Delta X   Delta X   Delta X     New X
                                 (Linear)    (Quad)   (Total)
    R1        2.63647  -0.00116   0.00000  -0.00192  -0.00192   2.63455
    R2        2.63584  -0.00500   0.00000  -0.00956  -0.00955   2.62629
    R3        2.07796  -0.01267   0.00000  -0.03285  -0.03285   2.04511
    R4        2.63562  -0.00016   0.00000  -0.00004  -0.00005   2.63557
    R5        3.36371   0.03120   0.00000   0.09684   0.09684   3.46055
    R6        2.63697  -0.00354   0.00000  -0.00682  -0.00683   2.63014
    R7        2.07809  -0.01253   0.00000  -0.03248  -0.03248   2.04561
    R8        2.63584  -0.00387   0.00000  -0.00771  -0.00770   2.62813
    R9        2.07809  -0.01109   0.00000  -0.02877  -0.02877   2.04933
   R10        2.63643  -0.00456   0.00000  -0.00903  -0.00902   2.62741
   R11        2.07825  -0.01089   0.00000  -0.02824  -0.02824   2.05001
   R12        3.32592  -0.00474   0.00000  -0.01391  -0.01391   3.31201
   R13        3.00466   0.03162   0.00000   0.05329   0.05329   3.05796
   R14        3.00466   0.03162   0.00000   0.05329   0.05329   3.05795
   R15        3.00466   0.01650   0.00000   0.02781   0.02781   3.03248
   R16        3.00466   0.03137   0.00000   0.05287   0.05287   3.05753
   R17        3.00466   0.03137   0.00000   0.05287   0.05287   3.05754
    A1        2.09437  -0.00351   0.00000  -0.01231  -0.01230   2.08206
    A2        2.09435   0.00368   0.00000   0.01594   0.01593   2.11028
    A3        2.09447  -0.00017   0.00000  -0.00363  -0.00363   2.09084
    A4        2.09455   0.00089   0.00000   0.00452   0.00450   2.09905
    A5        2.09406  -0.00193   0.00000  -0.00732  -0.00731   2.08675
    A6        2.09458   0.00103   0.00000   0.00280   0.00281   2.09739
    A7        2.09429  -0.00206   0.00000  -0.00693  -0.00695   2.08734
    A8        2.09462   0.00229   0.00000   0.00988   0.00989   2.10451
    A9        2.09427  -0.00023   0.00000  -0.00295  -0.00294   2.09133
   A10        2.09429   0.00300   0.00000   0.01132   0.01132   2.10561
   A11        2.09407  -0.00151   0.00000  -0.00571  -0.00570   2.08836
   A12        2.09483  -0.00149   0.00000  -0.00562  -0.00561   2.08921
   A13        2.09448  -0.00378   0.00000  -0.01520  -0.01519   2.07929
   A14        2.09459   0.00276   0.00000   0.01199   0.01198   2.10658
   A15        2.09411   0.00103   0.00000   0.00321   0.00320   2.09732
   A16        2.09440   0.00545   0.00000   0.01860   0.01862   2.11302
   A17        2.09453  -0.00375   0.00000  -0.01280  -0.01281   2.08172
   A18        2.09426  -0.00170   0.00000  -0.00580  -0.00581   2.08844
   A19        1.57080   0.01094   0.00000   0.06314   0.06301   1.63381
   A20        1.57080   0.01097   0.00000   0.06326   0.06314   1.63393
   A21        1.57080   0.01066   0.00000   0.06190   0.06178   1.63258
   A22        1.57080   0.01063   0.00000   0.06179   0.06167   1.63247
   A23        1.57080   0.00047   0.00000   0.00229  -0.00166   1.56913
   A24        1.57080  -0.01083   0.00000  -0.06248  -0.06235   1.50844
   A25        1.57080  -0.00048   0.00000  -0.00231  -0.00619   1.56461
   A26        1.57080  -0.01084   0.00000  -0.06249  -0.06237   1.50842
   A27        1.57080  -0.00048   0.00000  -0.00236  -0.00625   1.56455
   A28        1.57080  -0.01077   0.00000  -0.06256  -0.06244   1.50836
   A29        1.57080  -0.01076   0.00000  -0.06256  -0.06243   1.50836
   A30        1.57080   0.00049   0.00000   0.00238  -0.00146   1.56934
   A31        3.14159   0.00011   0.00000   0.00066   0.00066   3.14225
   A32        3.14159   0.02160   0.00000   0.12504   0.12479   3.26639
   A33        3.14159   0.02160   0.00000   0.12505   0.12481   3.26640
   A34        3.14159  -0.00013   0.00000  -0.00077  -0.00077   3.14083
   A35        3.14159  -0.00001   0.00000  -0.00007  -0.00004   3.14155
   A36        3.14159   0.00000   0.00000   0.00002   0.00000   3.14159
    D1        0.00056  -0.00001   0.00000  -0.00024  -0.00024   0.00032
    D2        3.14078   0.00002   0.00000   0.00036   0.00035   3.14113
    D3       -3.14112  -0.00001   0.00000  -0.00026  -0.00026  -3.14138
    D4       -0.00091   0.00001   0.00000   0.00033   0.00033  -0.00058
    D5        0.00026  -0.00001   0.00000  -0.00018  -0.00019   0.00007
    D6        3.14140   0.00001   0.00000   0.00013   0.00013   3.14154
    D7       -3.14124  -0.00001   0.00000  -0.00016  -0.00016  -3.14141
    D8       -0.00010   0.00001   0.00000   0.00015   0.00015   0.00006
    D9       -0.00099   0.00002   0.00000   0.00048   0.00048  -0.00052
   D10        3.14093   0.00001   0.00000   0.00033   0.00033   3.14126
   D11       -3.14120   0.00000   0.00000  -0.00011  -0.00012  -3.14132
   D12        0.00072  -0.00001   0.00000  -0.00026  -0.00026   0.00046
   D13        0.78611   0.00022   0.00000   0.00083   0.00085   0.78696
   D14       -0.78469  -0.00025   0.00000  -0.00146  -0.00147  -0.78616
   D15       -2.35548   0.00023   0.00000   0.00090   0.00089  -2.35460
   D16        2.35690  -0.00025   0.00000  -0.00148  -0.00147   2.35544
   D17       -2.35686   0.00025   0.00000   0.00143   0.00145  -2.35542
   D18        2.35552  -0.00023   0.00000  -0.00086  -0.00087   2.35465
   D19        0.78473   0.00026   0.00000   0.00150   0.00148   0.78621
[...]
 ! D29   D(4,5,6,1)              0.0            -DE/DX =    0.0                 !
 ! D30   D(4,5,6,17)           179.9997         -DE/DX =    0.0                 !
 ! D31   D(10,5,6,1)          -179.9996         -DE/DX =    0.0                 !
 ! D32   D(10,5,6,17)            0.0002         -DE/DX =    0.0                 !
 --------------------------------------------------------------------------------
 GradGradGradGradGradGradGradGradGradGradGradGradGradGradGradGradGradGrad

 1\1\GINC-COREV2-25-015\Freq\RB3LYP\6-311+G(d,p)\C6H4Cl1F5S1\ROOT\09-Ja
 n-2023\0\\#N Geom=AllCheck Guess=TCheck SCRF=Check GenChk RB3LYP/6-311
 +G(d,p) Freq\\Title Card Required\\0,1\C,-1.138097957,-0.1048628875,-0
 .0070630274\C,0.0916152086,-0.7507035136,-0.0024083856\C,1.3002253061,
 -0.0668635004,-0.0158157634\C,1.2650208114,1.3255690561,-0.0346776399\
 C,0.053161907,2.0099657987,-0.0399163525\C,-1.1357938767,1.2865880659,
 -0.0260399903\H,-2.0685080065,-0.6523848307,0.0035474974\H,2.242679180
 9,-0.5943377315,-0.011805317\H,2.195157397,1.8808181493,-0.0453852305\
 H,0.0274471711,3.0918102069,-0.0545711515\S,0.1098392248,-2.5878985814
 ,0.0225828514\F,-1.0545889022,-2.6865959786,-1.1329525597\F,-1.0468054
 701,-2.6549473426,1.1881543487\F,0.1282250656,-4.2201835766,0.04477626
 75\F,1.2755985193,-2.6287091104,1.1800589501\F,1.2678131062,-2.6603635
 74,-1.1411476676\Cl,-2.6671460054,2.1375077903,-0.0324628396\\Version=
 ES64L-G09RevD.01\State=1-A\HF=-1588.781736\RMSD=4.181e-09\RMSF=5.477e-
 05\ZeroPoint=0.0967653\Thermal=0.1083315\Dipole=0.5163401,1.5465085,-0
 .022809\DipoleDeriv=-0.1945297,-0.0141908,0.0001719,0.2871317,-0.27460
 37,0.0016572,-0.0046415,0.0041931,-0.043162,0.0056921,-0.0223007,-0.00
 02501,-0.005152,0.2654345,-0.0057999,-0.0000278,-0.0062725,-0.1687542,
 -0.0878401,0.1200996,-0.0016851,-0.1303169,-0.1784483,0.002234,0.00329
 06,0.0000738,-0.0625668,0.0692499,-0.0102565,-0.0003714,0.0980361,0.04
 02862,-0.0023488,-0.0042486,0.0000078,-0.095118,-0.2267615,0.1097951,-
 0.0007549,0.076995,0.013387,-0.0017434,0.0001093,-0.0023466,-0.0881166
 ,0.9262341,-0.5428987,0.0046167,-0.6378566,0.3681997,-0.0024625,0.0062
 327,-0.0035882,0.0018069,0.0798825,-0.0150556,0.0006697,-0.0174903,0.1
 205668,0.0003556,0.0004568,0.000165,0.1306491,0.0639642,0.0313111,-0.0
 001886,0.0313269,0.0965421,0.0003819,-0.0001367,0.0003277,0.1311443,-0
 .0213131,-0.0391262,0.0010605,-0.0437231,0.0174307,0.0018079,0.0010671
 ,0.0018616,0.139784,0.0931728,0.0153275,-0.0000794,0.0090429,-0.007472
 ,0.0018696,-0.0001,0.0020459,0.138366,2.716978,-0.00646,0.0009753,-0.1
 243411,3.5489911,-0.00734,0.0034889,-0.0084022,2.9701823,-0.5936975,-0
 .2144959,-0.2942619,-0.0574096,-0.6841202,-0.0784246,-0.2546849,-0.203
 8673,-0.6493966,-0.5897468,-0.2051983,0.2994266,-0.0499972,-0.6763214,
 0.0794881,0.2556606,0.2059187,-0.6607826,-0.3608366,0.0083456,-0.00017
 49,0.0296035,-1.0129416,0.0083966,-0.0007269,0.0087271,-0.3830976,-0.6
 345313,0.2110042,-0.3038995,0.1033929,-0.6724635,0.0727493,-0.2974952,
 0.1967367,-0.659203,-0.630105,0.2175678,0.2978751,0.1107148,-0.679616,
 -0.0730001,0.293826,-0.1972977,-0.6558815,-0.6158119,0.3565319,-0.0031
 301,0.320043,-0.2848512,0.002179,-0.0020706,0.001717,-0.0458537\Polar=
 120.3907109,-12.2748235,131.3658788,-0.020498,-0.8321055,67.4171228\PG
 =C01 [X(C6H4Cl1F5S1)]\NImag=0\\0.73324752,0.05194742,0.67067217,-0.002
 78295,-0.00759956,0.12624226,-0.29061931,0.04865543,0.00012882,0.70341
 395,0.11014630,-0.14640213,0.00090610,0.00356306,0.46359014,-0.0006861
 6,0.00111560,-0.05271639,-0.00193901,-0.00439388,0.14235711,-0.0579164
 1,0.02373029,-0.00010585,-0.28437155,-0.11318283,0.00232166,0.72766692
 ,-0.02529052,0.06093411,-0.00064660,-0.05239082,-0.15001922,0.00147946
 ,-0.05196220,0.67120694,0.00058876,-0.00081461,0.00733120,0.00150363,0
 .00168560,-0.05448860,-0.00130873,-0.00720592,0.12973567,-0.01785346,0
 .02714263,-0.00032445,0.03238408,-0.02381147,0.00023646,-0.12576524,-0
 .02821615,0.00060722,0.71711628,0.03152402,-0.05000537,0.00054834,-0.0
 8016224,-0.03465109,0.00081676,0.04198199,-0.33004167,0.00350378,0.033
 71536,0.67663299,-0.00041825,0.00055832,-0.00273697,0.00098210,0.00062
 960,0.00564920,-0.00036009,0.00374950,-0.06175872,-0.00243998,-0.00749
 668,0.13364115,0.03559419,-0.07046691,0.00086136,-0.06803719,-0.002150
 88,0.00024691,0.03284795,0.07625453,-0.00112361,-0.28539240,0.05573764
 ,-0.00001315,0.65458522,-0.02629903,-0.02682303,0.00057098,-0.00168822
 ,-0.00210349,-0.00002339,0.03047567,-0.02434428,0.00029549,0.12231041,
 -0.18036852,0.00123940,-0.00919319,0.75266248,0.00027830,0.00070186,0.
 00706068,0.00024680,-0.00001437,-0.00364934,-0.00050202,0.00016332,0.0
 0654726,-0.00090982,0.00142100,-0.06193051,-0.00163359,-0.00841948,0.1
 3359639,-0.11252667,0.01752310,-0.00002933,0.03000405,0.02474646,-0.00
 044124,-0.01686368,-0.03141587,0.00042984,-0.06114688,0.02698576,-0.00
 006900,-0.25178629,-0.13043629,0.00238654,0.53978868,-0.04851848,-0.32
 045768,0.00367201,0.08658961,-0.03093116,0.00019662,-0.03480080,-0.055
 18186,0.00083395,-0.02787963,0.06747511,-0.00076325,-0.06676914,-0.183
 18253,0.00185298,0.05973447,0.61093026,0.00083844,0.00346276,-0.061727
 14,-0.00126141,0.00039973,0.00445270,0.00051630,0.00080129,-0.00440335
 ,0.00061466,-0.00091550,0.00748004,0.00154688,0.00204760,-0.06457715,-
 0.00223507,-0.00683804,0.12326761,-0.27494846,-0.12895482,0.00257307,-
 0.01683622,-0.01355678,0.00024626,-0.00244885,0.00387805,-0.00002692,0
 .00046035,0.00048296,-0.00000897,0.00084063,0.00126452,-0.00000342,0.0
 0441188,0.00280978,-0.00003869,0.28824719,-0.12898919,-0.13061455,0.00
 174319,0.01284960,0.01175648,-0.00017601,0.00350911,-0.00156788,0.0000
 8860,0.00080643,-0.00084030,-0.00000781,0.00128629,-0.00514384,0.00014
 436,-0.02645772,-0.01138320,0.00029766,0.13595852,0.13887186,0.0025702
 7,0.00174053,-0.03490695,-0.00011074,-0.00008518,0.00213931,-0.0000198
 3,0.00008885,0.00588295,-0.00001695,-0.00000924,-0.00136244,0.,0.00014
 555,0.00589367,0.00035823,0.00019887,0.00382161,-0.00274759,-0.0020297
 7,0.02374121,-0.00249122,-0.00389094,0.00008386,-0.01786022,0.01341244
 ,-0.00011799,-0.28091911,0.12248078,-0.00084387,0.00515731,-0.00226167
 ,0.00003223,0.00132653,-0.00093543,0.00003020,0.00027939,-0.00058218,0
 .00000209,-0.00062737,0.00076909,-0.00000625,0.29392605,-0.00337410,-0
 .00169425,0.00011178,-0.01436366,0.01107481,-0.00007812,0.12480261,-0.
 12497184,0.00080315,0.02758159,-0.00977609,0.00009227,-0.00092025,-0.0
 0504245,0.00016823,-0.00078906,-0.00120807,0.00000509,-0.00076091,0.00
 059580,0.00000333,-0.13138143,0.13235183,0.00007417,0.00011435,0.00578
 499,0.00026262,-0.00017241,0.00174519,-0.00087259,0.00080956,-0.035317
 98,-0.00037949,0.00019539,0.00404595,0.00003226,0.00016644,0.00700445,
 0.00000501,0.00000484,-0.00109759,0.00001497,-0.00000175,0.00064639,0.
 00088130,-0.00102800,0.02442862,0.00001527,0.00080164,-0.00001556,0.00
 153880,0.00049407,0.00000914,0.00455670,0.00292855,-0.00004204,-0.2659
 7484,-0.12404851,0.00246300,-0.01861010,-0.01537820,0.00028529,-0.0020
 6701,0.00298882,-0.00001015,-0.00001818,-0.00005289,-0.00000081,0.0006
 6354,-0.00024958,-0.00001299,0.27990626,0.00087980,-0.00078867,-0.0000
 0918,0.00089073,-0.00448650,0.00014248,-0.02750155,-0.01251599,0.00031
 551,-0.12387216,-0.13176191,0.00170945,0.01527948,0.01145656,-0.000157
 22,0.00277873,-0.00036635,0.00009112,-0.00005676,0.00003470,-0.0000066
 2,0.00017335,0.00108510,-0.00007257,0.13204089,0.13747150,-0.00001783,
 -0.00000898,-0.00123555,0.00000284,0.00014380,0.00617926,0.00037217,0.
 00021275,0.00380792,0.00246095,0.00171073,-0.03703945,-0.00013315,-0.0
 0005269,0.00369681,-0.00000475,0.00008944,0.00701111,-0.00000042,-0.00
 000645,-0.00046389,-0.00001859,-0.00007124,-0.00419461,-0.00265780,-0.
 00196917,0.02573680,-0.00456151,-0.00244870,0.00006904,-0.00156560,0.0
 0000102,0.00000356,-0.00436005,0.00247992,0.00000422,0.00417619,0.0277
 9390,-0.00037828,-0.05713464,0.00653011,-0.00002282,0.00317551,-0.0272
 6621,0.00037096,0.00035481,-0.00125182,0.00001580,0.00015124,0.0012135
 3,-0.00001726,0.00090818,-0.00042228,-0.00001127,0.05780470,-0.0025630
 4,0.00025644,0.00007898,-0.00010547,0.00097539,-0.00001656,0.00240585,
 0.00073576,0.00008485,-0.00182479,-0.00915673,0.00017518,0.00398052,-0
 .34299085,0.00415364,0.00360903,-0.01223046,0.00019874,0.00017290,-0.0
 0041851,0.00000503,-0.00021742,-0.00042739,0.00000610,0.00010906,0.000
 71406,-0.00006691,-0.00610161,0.36165208,0.00006701,0.00008365,0.00579
 932,0.00000404,-0.00001941,-0.00045314,0.00000569,0.00007926,0.0071593
 7,0.00002332,0.00008531,0.00390500,0.00001209,0.00414336,-0.03750837,-
 0.00004485,0.00029984,0.00314674,-0.00000305,0.00001013,-0.00000659,0.
 00000262,0.00000101,-0.00004100,-0.00001860,-0.00006481,-0.00414288,-0
 .00002677,-0.00456437,0.02529778,0.00829635,0.01957733,-0.00030920,-0.
 05915061,0.00037805,0.00005688,0.01027398,-0.01823773,0.00021902,-0.00
 514472,-0.00529959,0.00008398,-0.00431437,-0.00011919,0.00002163,-0.00
 310471,0.00466206,-0.00003493,-0.00412004,0.00455785,-0.00004557,-0.00
 437059,-0.00439195,0.00007763,0.00015715,-0.00124045,0.00001745,-0.000
 48978,0.00000990,-0.00000030,0.54184939,0.00980900,-0.02206378,0.00023
 665,0.00037400,-0.09667796,0.00074775,-0.00910415,-0.02249219,0.000328
 55,-0.00434520,0.00337684,-0.00000586,-0.00160664,0.00310158,-0.000029
 92,0.00908863,0.00196080,0.00000345,-0.00016353,0.00054557,0.00000307,
 0.00031895,0.00029549,0.00000602,0.00057279,0.00039092,-0.00000132,0.0
 0001157,-0.00005074,-0.00000391,-0.00103784,0.55021279,-0.00016708,0.0
 0020095,-0.00143352,0.00006018,0.00074621,-0.04206963,0.00008188,0.000
 35216,-0.00164949,0.00009290,0.00000925,0.00351827,0.00004558,-0.00005
 541,0.00005736,-0.00011289,0.00003313,0.00396584,0.00002424,-0.0000102
 7,0.00069762,0.00001168,0.00002257,0.00076289,-0.00000685,0.00000536,0
 .00048374,-0.00000032,-0.00000192,-0.00024830,-0.00006003,-0.00042011,
 0.51843809,-0.00277473,-0.00130839,0.00065440,-0.00849133,0.00585536,-
 0.00962302,0.00281751,-0.00360091,-0.00139638,-0.00101715,0.00017670,0
 .00091394,0.00037679,-0.00017229,-0.00023624,0.00025935,0.00011568,0.0
 0093422,0.00134531,-0.00037857,-0.00113339,0.00041485,0.00064431,-0.00
 026128,0.00013131,-0.00046566,0.00017164,0.00013409,-0.00000053,-0.000
 18875,-0.10480220,-0.01408048,-0.04804035,0.14804638,0.00030549,-0.004
 23343,-0.00260507,-0.01909652,-0.00465330,-0.01436956,0.00395196,-0.00
 221835,-0.00227779,-0.00069033,-0.00132773,0.00133310,-0.00083421,-0.0
 0063179,-0.00021559,-0.00148945,0.00171402,0.00019676,-0.00089722,-0.0
 0158645,-0.00029750,-0.00005996,0.00003842,-0.00037837,0.00005752,-0.0
 0047113,0.00019335,-0.00004076,-0.00003680,-0.00004158,-0.01518322,-0.
 06783003,-0.01639185,0.00283162,0.07911160,-0.00013493,-0.00278371,0.0
 0014639,-0.01324135,0.00760469,-0.00374483,0.00314632,-0.00497365,-0.0
 0102654,-0.00186223,0.00007452,0.00055715,0.00033832,-0.00030612,-0.00
 014871,-0.00056951,0.00041169,0.00036958,0.00004825,-0.00103049,-0.001
 18060,0.00015605,0.00032792,-0.00035699,0.00016515,-0.00056569,0.00012
 914,0.00003553,-0.00003334,-0.00012036,-0.04782731,-0.01508160,-0.1053
 8203,0.07935504,0.00575307,0.14660570,-0.00277497,-0.00130746,-0.00059
 453,-0.00833498,0.00606505,0.00948920,0.00280588,-0.00352788,0.0014608
 0,-0.00100962,0.00014944,-0.00089728,0.00037729,-0.00016761,0.00023497
 ,0.00025092,0.00009176,-0.00093996,0.00135267,-0.00034056,0.00112553,0
 .00041499,0.00064919,0.00023802,0.00012913,-0.00046632,-0.00015872,0.0
 0013495,0.00000558,0.00018742,-0.10415778,-0.01266549,0.04839074,0.007
 38704,0.00060488,-0.01022217,0.14698335,0.00032668,-0.00408309,0.00272
 259,-0.01863203,-0.00446702,0.01451206,0.00387974,-0.00202039,0.002274
 07,-0.00064842,-0.00136379,-0.00126869,-0.00084203,-0.00061597,0.00023
 150,-0.00147306,0.00169515,-0.00022448,-0.00089656,-0.00155026,0.00031
 362,-0.00006160,0.00003935,0.00036778,0.00005174,-0.00046051,-0.000177
 35,-0.00004141,-0.00003503,0.00003998,-0.01376736,-0.06699890,0.015431
 40,0.00086471,0.00841895,-0.00288087,0.00063409,0.07884965,0.00015114,
 0.00291306,-0.00000170,0.01378587,-0.00762827,-0.00408574,-0.00327816,
 0.00502288,-0.00121133,0.00189090,-0.00002196,0.00058494,-0.00032171,0
 .00032061,-0.00016231,0.00060663,-0.00045178,0.00039048,-0.00004389,0.
 00104148,-0.00122438,-0.00015978,-0.00034321,-0.00035846,-0.00016650,0
 .00058502,0.00012069,-0.00003593,0.00003196,-0.00012343,0.04821390,0.0
 1411493,-0.10686051,0.00991290,0.00166899,-0.03582887,-0.07940623,-0.0
 0390265,0.14793633,-0.00058992,-0.00073221,0.00001360,0.00311254,0.000
 06830,-0.00000483,-0.00074157,0.00067774,-0.00000842,0.00036873,0.0004
 4766,-0.00000386,0.00028759,-0.00001122,-0.00000285,0.00013654,-0.0003
 7443,0.00000497,0.00026523,-0.00029515,0.00000225,0.00029028,0.0002605
 0,-0.00000542,-0.00000535,0.00006862,-0.00000096,0.00004678,-0.0000032
 3,0.00000005,-0.05840918,0.00113851,-0.00001367,-0.00810793,0.02869999
 ,-0.01640125,-0.00789011,0.02894620,0.01562105,0.08505566,-0.00009826,
 -0.00000854,0.00000099,0.00004109,-0.00129516,0.00004759,0.00023917,0.
 00013720,-0.00000355,0.00015092,0.00000994,0.00000358,0.00025634,-0.00
 037042,0.00000003,-0.00113031,0.00055562,-0.00000122,-0.00026598,0.000
 17610,-0.00000513,0.00024909,0.00016358,-0.00000666,-0.00002676,-0.000
 08905,0.00000072,0.00000498,-0.00003008,0.00000031,0.00101019,-0.15194
 017,0.00127850,0.01231143,-0.02077406,0.01223744,0.01268076,-0.0218793
 4,-0.01193283,-0.00180326,0.24052268,0.00000161,0.00000504,0.00000023,
 -0.00000567,0.00004689,0.00219163,-0.00000061,-0.00000506,0.00001502,-
 0.00000386,0.00000341,0.00018298,-0.00000721,0.00000472,-0.00031228,0.
 00002092,-0.00000758,0.00028102,0.00000115,-0.00000525,-0.00025471,-0.
 00000481,-0.00000689,-0.00025181,0.00000022,0.00000040,-0.00004244,-0.
 00000003,-0.00000021,-0.00000513,-0.00001312,0.00127845,-0.05773338,-0
 .01669027,0.02853294,-0.00755957,0.01635696,-0.02833823,-0.00667303,0.
 00002356,-0.00211710,0.08480916,0.00250760,0.00356078,-0.00150906,-0.0
 0855395,-0.00628797,-0.00962510,-0.00313335,0.00161570,0.00050782,0.00
 162856,0.00020099,0.00098738,-0.00013032,0.00024918,-0.00028161,-0.000
 01709,-0.00046024,0.00095045,0.00042032,-0.00068008,-0.00025464,0.0017
 4625,0.00049234,-0.00116251,-0.00004925,0.00041895,0.00003779,0.000120
 77,-0.00000922,-0.00016946,-0.10570918,0.01218373,-0.04890743,-0.00059
 925,-0.00179735,-0.00417795,-0.03592215,0.00255490,-0.01034037,-0.0071
 0377,-0.01238042,-0.01582550,0.14774027,-0.00340320,-0.00206279,0.0021
 9808,0.01879882,-0.00448007,0.01423013,-0.00024982,-0.00405124,0.00257
 317,0.00028015,0.00127399,0.00007268,0.00149603,-0.00056620,0.00012796
 ,-0.00087486,-0.00089009,-0.00126540,0.00002173,-0.00000825,0.00039012
 ,0.00098109,-0.00134817,0.00022769,-0.00007473,-0.00008349,-0.00002051
 ,0.00005444,-0.00002878,-0.00002654,0.01331810,-0.06660763,0.01446054,
 0.00147866,0.00781052,0.00112725,-0.00342396,0.00711729,-0.00051974,-0
 .02882560,-0.02293052,-0.02857070,0.00036801,0.07922313,0.00267243,0.0
 0510443,-0.00122805,-0.01356930,-0.00774984,-0.00392077,-0.00041565,0.
 00292555,0.00005583,0.00058018,-0.00008017,0.00045245,-0.00014253,0.00
 037235,-0.00017716,-0.00061935,-0.00061692,0.00057784,0.00018621,-0.00
 031650,-0.00037367,0.00001321,0.00089508,-0.00113814,-0.00001863,0.000
 29563,-0.00004833,0.00001814,0.00003364,-0.00010228,-0.04880812,0.0130
 5057,-0.10639157,-0.00416432,-0.00145790,-0.00138715,0.01069465,-0.000
 32439,0.00889946,-0.01544358,-0.01220239,-0.00663677,0.07973305,-0.002
 19068,0.14734026,0.00250586,0.00356441,0.00138847,-0.00839567,-0.00597
 066,0.00982237,-0.00313365,0.00158298,-0.00053063,0.00161987,0.0001704
 8,-0.00099846,-0.00012586,0.00024742,0.00027404,-0.00003046,-0.0004740
 3,-0.00093438,0.00042054,-0.00067100,0.00026765,0.00175308,0.00051823,
 0.00112925,-0.00004930,0.00041580,-0.00004908,0.00012151,-0.00000340,0
 .00016822,-0.10505059,0.01342529,0.04854879,-0.03592375,0.00284161,0.0
 1056694,-0.00054444,-0.00167451,0.00421997,-0.00689099,-0.01186141,0.0
 1615440,0.00734304,-0.00087268,-0.01020324,0.14666834,-0.00349494,-0.0
 0226129,-0.00214109,0.01906391,-0.00465711,-0.01434119,-0.00025593,-0.
 00419881,-0.00246170,0.00026254,0.00127579,-0.00008659,0.00149784,-0.0
 0057549,-0.00013020,-0.00084071,-0.00084174,0.00130702,0.00001468,-0.0
 0001003,-0.00040032,0.00097934,-0.00137935,-0.00022825,-0.00007415,-0.
 00009101,0.00002249,0.00005422,-0.00003017,0.00002476,0.01454057,-0.06
 739251,-0.01563041,-0.00370534,0.00714200,0.00059175,0.00158316,0.0078
 1338,-0.00138923,-0.02819992,-0.02180341,0.02917399,-0.00058282,0.0083
 6762,0.00151871,-0.00178531,0.07939557,-0.00260607,-0.00509391,-0.0010
 2022,0.01307878,0.00780806,-0.00389848,0.00044491,-0.00282310,0.000201
 67,-0.00059798,0.00006261,0.00046633,0.00009710,-0.00035412,-0.0001671
 0,0.00065766,0.00064670,0.00052642,-0.00019397,0.00031010,-0.00037197,
 -0.00005831,-0.00089296,-0.00111515,0.00002068,-0.00029724,-0.00004060
 ,-0.00002063,-0.00003670,-0.00010289,0.04841562,-0.01421507,-0.1062620
 9,-0.01029510,0.00035488,0.00887592,0.00411832,0.00121860,-0.00144565,
 0.01621979,0.01269597,-0.00797716,0.00993279,-0.00272381,-0.03602587,-
 0.07970740,0.00406465,0.14823856,-0.01511014,0.01260641,-0.00010170,0.
 00176323,0.00023049,0.00000491,-0.00131548,0.00274385,-0.00004072,0.00
 039294,-0.00759491,0.00012469,-0.04070502,0.02332337,-0.00016542,-0.13
 076354,0.05013297,-0.00032437,0.00088019,-0.00061991,-0.00000396,0.000
 14503,0.00006863,-0.00000371,-0.00123231,0.00107886,-0.00001027,0.0009
 8286,0.00053586,-0.00001866,-0.00175313,-0.00391914,0.00005262,0.00080
 372,0.00079596,0.00062508,0.00079782,0.00077892,-0.00064978,0.00017548
 ,0.00062240,-0.00000775,-0.00028851,0.00092783,-0.00051316,-0.00028753
 ,0.00094286,0.00049381,0.18551440,0.03709205,-0.02036411,0.00021183,-0
 .00438730,-0.00257263,0.00011028,0.00208091,0.00060970,-0.00002316,-0.
 00096187,-0.00075147,0.00006579,-0.00300542,0.00553824,0.00000189,0.05
 044116,-0.06765783,0.00043343,0.00094943,0.00114274,-0.00005519,0.0000
 2651,0.00020324,-0.00001015,-0.00014026,-0.00003824,0.00000134,-0.0005
 7091,0.00110182,-0.00004695,0.00122328,0.00216993,-0.00003010,-0.00056
 630,-0.00047243,-0.00047287,-0.00056462,-0.00045947,0.00049073,-0.0000
 6251,-0.00044438,0.00000517,0.00055353,-0.00073532,0.00074283,0.000546
 78,-0.00075344,-0.00072464,-0.08265447,0.08348362,-0.00042886,0.000300
 21,0.00464140,0.00007181,0.00009269,0.00431251,-0.00002540,-0.00003023
 ,-0.00088090,0.00002816,0.00009247,0.00434464,0.00019444,-0.00009529,0
 .00477633,-0.00033885,0.00043751,-0.02348577,-0.00002722,-0.00005122,-
 0.00267755,-0.00000364,-0.00001001,-0.00054674,0.00000646,-0.00000245,
 0.00004228,-0.00000395,-0.00004811,-0.00245385,-0.00000754,-0.00001164
 ,0.00010671,0.00008695,0.00000214,0.00005178,-0.00007773,0.00000507,0.
 00004352,-0.00000043,0.00000376,-0.00003377,0.00010436,-0.00009024,0.0
 0010391,-0.00011693,0.00010560,0.00011827,0.00053836,-0.00070023,0.011
 53722\\0.00001397,-0.00013594,0.00000147,-0.00001183,0.00023022,-0.000
 00265,-0.00000276,-0.00005316,0.00000017,-0.00006956,-0.00006191,0.000
 00133,-0.00000156,0.00009649,-0.00000177,0.00011189,-0.00002946,-0.000
 00001,-0.00001277,0.00002457,-0.00000015,0.00000774,0.00001157,-0.0000
 0009,0.00004575,0.00000539,-0.00000015,0.00000480,-0.00000738,0.000000
 33,0.00000410,0.00001770,0.00000285,0.00004287,0.00000644,0.00003661,0
 .00004326,0.00000567,-0.00003861,-0.00000725,-0.00015084,0.00000174,-0
 .00005703,0.00000577,-0.00004334,-0.00005641,0.00000647,0.00004235,-0.
 00005519,0.00002840,-0.00000008\\\@


 ... THIS SEEMS PLAINLY ABSURD; BUT WHOEVER WISHES TO BECOME A 
 PHILOSOPHER MUST LEARN NOT TO BE FRIGHTENED BY ABSURDITIES.

                          -- BERTRAND RUSSELL
 Job cpu time:       0 days  0 hours 52 minutes 39.1 seconds.
 File lengths (MBytes):  RWF=    250 Int=      0 D2E=      0 Chk=      9 Scr=      1
 Normal termination of Gaussian 09 at Mon Jan  9 17:17:42 2023.
