 Entering Gaussian System, Link 0=g09
 Initial command:
 /cm/shared/apps/gaussian/g09revD.01/g09/l1.exe "//home/sweav003/CHB/CHActivation_Mkhalid/OtherCharges/G09-Table13_5.com.o9447098.tmp/Gau-52870.inp" -scrdir="//home/sweav003/CHB/CHActivation_Mkhalid/OtherCharges/G09-Table13_5.com.o9447098.tmp/"
 Entering Link 1 = /cm/shared/apps/gaussian/g09revD.01/g09/l1.exe PID=     52871.
  
 Copyright (c) 1988,1990,1992,1993,1995,1998,2003,2009,2013,
            Gaussian, Inc.  All Rights Reserved.
  
 This is part of the Gaussian(R) 09 program.  It is based on
 the Gaussian(R) 03 system (copyright 2003, Gaussian, Inc.),
 the Gaussian(R) 98 system (copyright 1998, Gaussian, Inc.),
 the Gaussian(R) 94 system (copyright 1995, Gaussian, Inc.),
 the Gaussian 92(TM) system (copyright 1992, Gaussian, Inc.),
 the Gaussian 90(TM) system (copyright 1990, Gaussian, Inc.),
 the Gaussian 88(TM) system (copyright 1988, Gaussian, Inc.),
 the Gaussian 86(TM) system (copyright 1986, Carnegie Mellon
 University), and the Gaussian 82(TM) system (copyright 1983,
 Carnegie Mellon University). Gaussian is a federally registered
 trademark of Gaussian, Inc.
  
 This software contains proprietary and confidential information,
 including trade secrets, belonging to Gaussian, Inc.
  
 This software is provided under written license and may be
 used, copied, transmitted, or stored only in accord with that
 written license.
  
 The following legend is applicable only to US Government
 contracts under FAR:
  
                    RESTRICTED RIGHTS LEGEND
  
 Use, reproduction and disclosure by the US Government is
 subject to restrictions as set forth in subparagraphs (a)
 and (c) of the Commercial Computer Software - Restricted
 Rights clause in FAR 52.227-19.
  
 Gaussian, Inc.
 340 Quinnipiac St., Bldg. 40, Wallingford CT 06492
  
  
 ---------------------------------------------------------------
 Warning -- This program may not be used in any manner that
 competes with the business of Gaussian, Inc. or will provide
 assistance to any competitor of Gaussian, Inc.  The licensee
 of this program is prohibited from giving any competitor of
 Gaussian, Inc. access to this program.  By using this program,
 the user acknowledges that Gaussian, Inc. is engaged in the
 business of creating and licensing software in the field of
 computational chemistry and represents and warrants to the
 licensee that it is not a competitor of Gaussian, Inc. and that
 it will not use this program in any manner prohibited above.
 ---------------------------------------------------------------
  

 Cite this work as:
 Gaussian 09, Revision D.01,
 M. J. Frisch, G. W. Trucks, H. B. Schlegel, G. E. Scuseria, 
 M. A. Robb, J. R. Cheeseman, G. Scalmani, V. Barone, B. Mennucci, 
 G. A. Petersson, H. Nakatsuji, M. Caricato, X. Li, H. P. Hratchian, 
 A. F. Izmaylov, J. Bloino, G. Zheng, J. L. Sonnenberg, M. Hada, 
 M. Ehara, K. Toyota, R. Fukuda, J. Hasegawa, M. Ishida, T. Nakajima, 
 Y. Honda, O. Kitao, H. Nakai, T. Vreven, J. A. Montgomery, Jr., 
 J. E. Peralta, F. Ogliaro, M. Bearpark, J. J. Heyd, E. Brothers, 
 K. N. Kudin, V. N. Staroverov, T. Keith, R. Kobayashi, J. Normand, 
 K. Raghavachari, A. Rendell, J. C. Burant, S. S. Iyengar, J. Tomasi, 
 M. Cossi, N. Rega, J. M. Millam, M. Klene, J. E. Knox, J. B. Cross, 
 V. Bakken, C. Adamo, J. Jaramillo, R. Gomperts, R. E. Stratmann, 
 O. Yazyev, A. J. Austin, R. Cammi, C. Pomelli, J. W. Ochterski, 
 R. L. Martin, K. Morokuma, V. G. Zakrzewski, G. A. Voth, 
 P. Salvador, J. J. Dannenberg, S. Dapprich, A. D. Daniels, 
 O. Farkas, J. B. Foresman, J. V. Ortiz, J. Cioslowski, 
 and D. J. Fox, Gaussian, Inc., Wallingford CT, 2013.
 
 ******************************************
 Gaussian 09:  ES64L-G09RevD.01 24-Apr-2013
                23-Jul-2021 
 ******************************************
 %mem=100MW
 %nprocshared=20
 Will use up to   20 processors via shared memory.
 ---------------------------------------------------------------------
 # b3lyp/6-311+g(d,p) geom=connectivity pop=(hirshfeld,chelpg,mbs,npa)
 ---------------------------------------------------------------------
 1/38=1,57=2/1;
 2/12=2,17=6,18=5,40=1/2;
 3/5=4,6=6,7=111,11=2,16=1,25=1,30=1,74=-5/1,2,3;
 4//1;
 5/5=2,38=5/2;
 6/7=2,8=2,9=2,10=2,15=8,20=3,27=100,28=1,40=-1,79=1/1,2,7;
 99/5=1,9=1/99;
 ---------
 Table13_5
 ---------
 Symbolic Z-matrix:
 Charge =  0 Multiplicity = 1
 6                    -1.6603    1.41132   0.01916 
 6                    -0.48908   2.16658   0.01235 
 6                     0.76513   1.57063  -0.02385 
 6                     0.89519   0.16411  -0.06503 
 6                    -0.29063  -0.60343  -0.04099 
 6                    -1.52509   0.02901  -0.00571 
 1                    -2.63672   1.8748    0.04953 
 1                    -0.55617   3.24863   0.03978 
 1                     1.64147   2.20256  -0.0213 
 1                    -0.26072  -1.68221  -0.05045 
 7                     2.13786  -0.44678  -0.13805 
 6                     3.33759   0.34798   0.07306 
 1                     3.38243   0.79186   1.07836 
 1                     4.21147  -0.28878  -0.05861 
 1                     3.4078    1.1557   -0.66062 
 6                     2.23944  -1.88666   0.04093 
 1                     1.64924  -2.41806  -0.71074 
 1                     3.27835  -2.18729  -0.08812 
 1                     1.90589  -2.21616   1.03584 
 17                   -2.97774  -0.97358   0.01725 
 
                          Input orientation:                          
 ---------------------------------------------------------------------
 Center     Atomic      Atomic             Coordinates (Angstroms)
 Number     Number       Type             X           Y           Z
 ---------------------------------------------------------------------
      1          6           0       -1.660301    1.411324    0.019156
      2          6           0       -0.489083    2.166581    0.012346
      3          6           0        0.765129    1.570628   -0.023854
      4          6           0        0.895187    0.164114   -0.065029
      5          6           0       -0.290634   -0.603427   -0.040990
      6          6           0       -1.525088    0.029008   -0.005708
      7          1           0       -2.636717    1.874799    0.049534
      8          1           0       -0.556174    3.248634    0.039783
      9          1           0        1.641468    2.202562   -0.021304
     10          1           0       -0.260716   -1.682208   -0.050449
     11          7           0        2.137862   -0.446780   -0.138047
     12          6           0        3.337594    0.347983    0.073062
     13          1           0        3.382426    0.791862    1.078360
     14          1           0        4.211466   -0.288780   -0.058606
     15          1           0        3.407802    1.155700   -0.660617
     16          6           0        2.239439   -1.886661    0.040928
     17          1           0        1.649238   -2.418055   -0.710741
     18          1           0        3.278349   -2.187291   -0.088116
     19          1           0        1.905886   -2.216164    1.035841
     20         17           0       -2.977736   -0.973583    0.017246
 ---------------------------------------------------------------------
                    Distance matrix (angstroms):
                    1          2          3          4          5
     1  C    0.000000
     2  C    1.393632   0.000000
     3  C    2.431036   1.389071   0.000000
     4  C    2.844844   2.435583   1.413114   0.000000
     5  C    2.436971   2.777620   2.416908   1.412752   0.000000
     6  C    1.389136   2.375469   2.760800   2.424769   1.387478
     7  H    1.081259   2.167683   3.416206   3.926056   3.413782
     8  H    2.143649   1.084478   2.136725   3.410528   3.862047
     9  H    3.395493   2.131120   1.080425   2.171202   3.406902
    10  H    3.396119   3.856069   3.410866   2.178355   1.079237
    11  N    4.231230   3.708519   2.442820   1.386638   2.435478
    12  C    5.110044   4.237268   2.849882   2.453208   3.752629
    13  H    5.189869   4.244387   2.944757   2.808516   4.085480
    14  H    6.113432   5.303677   3.916101   3.347067   4.513116
    15  H    5.119873   4.081724   2.749791   2.766081   4.142088
    16  C    5.107362   4.886146   3.759074   2.454367   2.838075
    17  H    5.113701   5.110201   4.142832   2.766430   2.739442
    18  H    6.111612   5.758458   4.521323   3.347999   3.904931
    19  H    5.187486   5.098222   4.094395   2.810543   2.930049
    20  Cl   2.724595   4.006750   4.525896   4.037407   2.713102
                    6          7          8          9         10
     6  C    0.000000
     7  H    2.155392   0.000000
     8  H    3.362567   2.493226   0.000000
     9  H    3.840789   4.291307   2.434672   0.000000
    10  H    2.128121   4.278747   4.940510   4.325574   0.000000
    11  N    3.696091   5.312393   4.576630   2.697971   2.699469
    12  C    4.873769   6.166369   4.855545   2.514997   4.133372
    13  H    5.083389   6.201719   4.756778   2.496051   4.546176
    14  H    5.745593   7.182644   5.937455   3.579534   4.684242
    15  H    5.102131   6.128428   4.536964   2.150483   4.678039
    16  C    4.224172   6.158373   5.846940   4.133181   2.510164
    17  H    4.069587   6.113593   6.126866   4.671775   2.150670
    18  H    5.290726   7.176875   6.653511   4.685579   3.575124
    19  H    4.230509   6.192255   6.076009   4.551111   2.481794
    20  Cl   1.765192   2.868905   4.867400   5.605928   2.808724
                   11         12         13         14         15
    11  N    0.000000
    12  C    1.454501   0.000000
    13  H    2.136076   1.099847   0.000000
    14  H    2.081132   1.089246   1.774200   0.000000
    15  H    2.110395   1.093444   1.776813   1.759209   0.000000
    16  C    1.454513   2.490103   3.091467   2.540083   3.333646
    17  H    2.110132   3.334045   4.063052   3.394717   3.983313
    18  H    2.081486   2.541083   3.201070   2.115638   3.394128
    19  H    2.136012   3.090563   3.351149   3.198175   4.062412
    20  Cl   5.144996   6.452367   6.685389   7.222142   6.765238
                   16         17         18         19         20
    16  C    0.000000
    17  H    1.093491   0.000000
    18  H    1.089204   1.759237   0.000000
    19  H    1.099855   1.776845   1.774195   0.000000
    20  Cl   5.296526   4.901566   6.373601   5.141139   0.000000
 Stoichiometry    C8H10ClN
 Framework group  C1[X(C8H10ClN)]
 Deg. of freedom    54
 Full point group                 C1      NOp   1
 Largest Abelian subgroup         C1      NOp   1
 Largest concise Abelian subgroup C1      NOp   1
                         Standard orientation:                         
 ---------------------------------------------------------------------
 Center     Atomic      Atomic             Coordinates (Angstroms)
 Number     Number       Type             X           Y           Z
 ---------------------------------------------------------------------
      1          6           0       -1.660301    1.411324    0.019156
      2          6           0       -0.489083    2.166581    0.012346
      3          6           0        0.765129    1.570628   -0.023854
      4          6           0        0.895187    0.164114   -0.065029
      5          6           0       -0.290634   -0.603427   -0.040990
      6          6           0       -1.525088    0.029008   -0.005708
      7          1           0       -2.636717    1.874799    0.049534
      8          1           0       -0.556174    3.248634    0.039783
      9          1           0        1.641468    2.202562   -0.021304
     10          1           0       -0.260716   -1.682208   -0.050449
     11          7           0        2.137862   -0.446780   -0.138047
     12          6           0        3.337594    0.347983    0.073062
     13          1           0        3.382426    0.791862    1.078360
     14          1           0        4.211466   -0.288780   -0.058606
     15          1           0        3.407802    1.155700   -0.660617
     16          6           0        2.239439   -1.886661    0.040928
     17          1           0        1.649238   -2.418055   -0.710741
     18          1           0        3.278349   -2.187291   -0.088116
     19          1           0        1.905886   -2.216164    1.035841
     20         17           0       -2.977736   -0.973583    0.017246
 ---------------------------------------------------------------------
 Rotational constants (GHZ):      2.1282936      0.7021558      0.5320397
 Standard basis: 6-311+G(d,p) (5D, 7F)
 There are   298 symmetry adapted cartesian basis functions of A   symmetry.
 There are   288 symmetry adapted basis functions of A   symmetry.
   288 basis functions,   457 primitive gaussians,   298 cartesian basis functions
    41 alpha electrons       41 beta electrons
       nuclear repulsion energy       575.8512035205 Hartrees.
 NAtoms=   20 NActive=   20 NUniq=   20 SFac= 1.00D+00 NAtFMM=   60 NAOKFM=F Big=F
 Integral buffers will be    131072 words long.
 Raffenetti 2 integral format.
 Two-electron integral symmetry is turned on.
 One-electron integrals computed using PRISM.
 NBasis=   288 RedAO= T EigKep=  1.34D-06  NBF=   288
 NBsUse=   288 1.00D-06 EigRej= -1.00D+00 NBFU=   288
 ExpMin= 4.38D-02 ExpMax= 1.06D+05 ExpMxC= 3.62D+03 IAcc=2 IRadAn=         4 AccDes= 0.00D+00
 Harris functional with IExCor=  402 and IRadAn=       4 diagonalized for initial guess.
 HarFok:  IExCor=  402 AccDes= 0.00D+00 IRadAn=         4 IDoV= 1 UseB2=F ITyADJ=14
 ICtDFT=  3500011 ScaDFX=  1.000000  1.000000  1.000000  1.000000
 FoFCou: FMM=F IPFlag=           0 FMFlag=      100000 FMFlg1=           0
         NFxFlg=           0 DoJE=T BraDBF=F KetDBF=T FulRan=T
         wScrn=  0.000000 ICntrl=     500 IOpCl=  0 I1Cent=   200000004 NGrid=           0
         NMat0=    1 NMatS0=      1 NMatT0=    0 NMatD0=    1 NMtDS0=    0 NMtDT0=    0
 Petite list used in FoFCou.
 Requested convergence on RMS density matrix=1.00D-08 within 128 cycles.
 Requested convergence on MAX density matrix=1.00D-06.
 Requested convergence on             energy=1.00D-06.
 No special actions if energy rises.
 SCF Done:  E(RB3LYP) =  -825.938165796     A.U. after   16 cycles
            NFock= 16  Conv=0.14D-08     -V/T= 2.0034

 **********************************************************************

            Population analysis using the SCF density.

 **********************************************************************

 Orbital symmetries:
       Occupied  (A) (A) (A) (A) (A) (A) (A) (A) (A) (A) (A) (A)
                 (A) (A) (A) (A) (A) (A) (A) (A) (A) (A) (A) (A)
                 (A) (A) (A) (A) (A) (A) (A) (A) (A) (A) (A) (A)
                 (A) (A) (A) (A) (A)
       Virtual   (A) (A) (A) (A) (A) (A) (A) (A) (A) (A) (A) (A)
                 (A) (A) (A) (A) (A) (A) (A) (A) (A) (A) (A) (A)
                 (A) (A) (A) (A) (A) (A) (A) (A) (A) (A) (A) (A)
                 (A) (A) (A) (A) (A) (A) (A) (A) (A) (A) (A) (A)
                 (A) (A) (A) (A) (A) (A) (A) (A) (A) (A) (A) (A)
                 (A) (A) (A) (A) (A) (A) (A) (A) (A) (A) (A) (A)
                 (A) (A) (A) (A) (A) (A) (A) (A) (A) (A) (A) (A)
                 (A) (A) (A) (A) (A) (A) (A) (A) (A) (A) (A) (A)
                 (A) (A) (A) (A) (A) (A) (A) (A) (A) (A) (A) (A)
                 (A) (A) (A) (A) (A) (A) (A) (A) (A) (A) (A) (A)
                 (A) (A) (A) (A) (A) (A) (A) (A) (A) (A) (A) (A)
                 (A) (A) (A) (A) (A) (A) (A) (A) (A) (A) (A) (A)
                 (A) (A) (A) (A) (A) (A) (A) (A) (A) (A) (A) (A)
                 (A) (A) (A) (A) (A) (A) (A) (A) (A) (A) (A) (A)
                 (A) (A) (A) (A) (A) (A) (A) (A) (A) (A) (A) (A)
                 (A) (A) (A) (A) (A) (A) (A) (A) (A) (A) (A) (A)
                 (A) (A) (A) (A) (A) (A) (A) (A) (A) (A) (A) (A)
                 (A) (A) (A) (A) (A) (A) (A) (A) (A) (A) (A) (A)
                 (A) (A) (A) (A) (A) (A) (A) (A) (A) (A) (A) (A)
                 (A) (A) (A) (A) (A) (A) (A) (A) (A) (A) (A) (A)
                 (A) (A) (A) (A) (A) (A) (A)
 The electronic state is 1-A.
 Alpha  occ. eigenvalues -- -101.54630 -14.34313 -10.23420 -10.22608 -10.21083
 Alpha  occ. eigenvalues --  -10.21036 -10.18226 -10.17799 -10.17389 -10.17280
 Alpha  occ. eigenvalues --   -9.46091  -7.22540  -7.21579  -7.21549  -0.96143
 Alpha  occ. eigenvalues --   -0.88443  -0.82960  -0.76110  -0.74682  -0.72441
 Alpha  occ. eigenvalues --   -0.67546  -0.60894  -0.58373  -0.53749  -0.49781
 Alpha  occ. eigenvalues --   -0.48924  -0.47706  -0.45641  -0.44000  -0.43311
 Alpha  occ. eigenvalues --   -0.41913  -0.41077  -0.39435  -0.39371  -0.37735
 Alpha  occ. eigenvalues --   -0.35521  -0.33855  -0.31077  -0.29343  -0.24992
 Alpha  occ. eigenvalues --   -0.20740
 Alpha virt. eigenvalues --   -0.01944  -0.00921  -0.00340   0.01085   0.01561
 Alpha virt. eigenvalues --    0.01866   0.03181   0.03527   0.03917   0.04010
 Alpha virt. eigenvalues --    0.06142   0.06243   0.06618   0.06743   0.07442
 Alpha virt. eigenvalues --    0.09256   0.09620   0.09669   0.09773   0.10572
 Alpha virt. eigenvalues --    0.12606   0.12867   0.13174   0.13843   0.13945
 Alpha virt. eigenvalues --    0.14118   0.15123   0.15188   0.16061   0.16320
 Alpha virt. eigenvalues --    0.17274   0.17419   0.18481   0.19604   0.19839
 Alpha virt. eigenvalues --    0.20149   0.20664   0.21179   0.21477   0.22172
 Alpha virt. eigenvalues --    0.22486   0.22983   0.23172   0.23741   0.24297
 Alpha virt. eigenvalues --    0.24380   0.25781   0.26707   0.27037   0.27506
 Alpha virt. eigenvalues --    0.28132   0.28518   0.28555   0.29863   0.31055
 Alpha virt. eigenvalues --    0.31760   0.32536   0.34423   0.34684   0.35725
 Alpha virt. eigenvalues --    0.36974   0.41541   0.44367   0.44850   0.46715
 Alpha virt. eigenvalues --    0.46997   0.47290   0.49395   0.51330   0.52345
 Alpha virt. eigenvalues --    0.52958   0.53926   0.54894   0.55075   0.56213
 Alpha virt. eigenvalues --    0.58546   0.59850   0.60313   0.61066   0.62028
 Alpha virt. eigenvalues --    0.62487   0.63086   0.64708   0.65791   0.66682
 Alpha virt. eigenvalues --    0.67398   0.67955   0.69659   0.70292   0.70501
 Alpha virt. eigenvalues --    0.72110   0.73134   0.75934   0.77521   0.80035
 Alpha virt. eigenvalues --    0.81516   0.82962   0.84571   0.85122   0.86218
 Alpha virt. eigenvalues --    0.87120   0.87189   0.87655   0.87882   0.89740
 Alpha virt. eigenvalues --    0.90939   0.91712   0.95227   0.96038   0.97302
 Alpha virt. eigenvalues --    0.98797   1.01786   1.02202   1.03955   1.05635
 Alpha virt. eigenvalues --    1.07523   1.08639   1.11414   1.13946   1.18214
 Alpha virt. eigenvalues --    1.21631   1.25314   1.26929   1.30241   1.35591
 Alpha virt. eigenvalues --    1.37190   1.37624   1.41584   1.44987   1.47778
 Alpha virt. eigenvalues --    1.49338   1.50534   1.52967   1.53659   1.54151
 Alpha virt. eigenvalues --    1.55216   1.56025   1.56569   1.56855   1.60019
 Alpha virt. eigenvalues --    1.61915   1.63636   1.65470   1.66791   1.69082
 Alpha virt. eigenvalues --    1.70218   1.70980   1.73117   1.73362   1.75576
 Alpha virt. eigenvalues --    1.77993   1.81546   1.82388   1.89098   1.89642
 Alpha virt. eigenvalues --    1.91067   1.93054   1.94123   1.96589   1.97230
 Alpha virt. eigenvalues --    1.99123   2.00140   2.02107   2.03669   2.04635
 Alpha virt. eigenvalues --    2.09922   2.12601   2.13838   2.17315   2.19587
 Alpha virt. eigenvalues --    2.20490   2.25070   2.28568   2.31649   2.32491
 Alpha virt. eigenvalues --    2.37857   2.38896   2.40989   2.42016   2.44303
 Alpha virt. eigenvalues --    2.46818   2.46995   2.49467   2.49761   2.50677
 Alpha virt. eigenvalues --    2.54761   2.55098   2.60566   2.62102   2.62786
 Alpha virt. eigenvalues --    2.65810   2.66726   2.67567   2.69937   2.72260
 Alpha virt. eigenvalues --    2.74514   2.76018   2.76749   2.78090   2.79337
 Alpha virt. eigenvalues --    2.80557   2.82438   2.85051   2.86194   2.90000
 Alpha virt. eigenvalues --    2.92167   2.95844   2.99731   3.04473   3.07955
 Alpha virt. eigenvalues --    3.13973   3.18864   3.22388   3.33512   3.35822
 Alpha virt. eigenvalues --    3.44664   3.50777   3.58877   3.62736   3.66800
 Alpha virt. eigenvalues --    3.75005   3.77096   3.77900   3.80055   3.83236
 Alpha virt. eigenvalues --    3.93011   4.01584   4.04128   4.14590   4.17638
 Alpha virt. eigenvalues --    4.84034   4.90186   5.05020   9.78845  23.58347
 Alpha virt. eigenvalues --   23.89331  23.91381  23.94982  23.95240  24.06135
 Alpha virt. eigenvalues --   24.08103  24.17944  25.83851  26.14796  26.59597
 Alpha virt. eigenvalues --   35.59713 215.77966
          Condensed to atoms (all electrons):
               1          2          3          4          5          6
     1  C   13.204857   1.020238   0.347765  -0.963371  -6.107402  -1.418535
     2  C    1.020238   6.841407  -0.052895  -0.361726  -0.609029  -0.650773
     3  C    0.347765  -0.052895   7.757923   0.360374  -2.125950  -0.760366
     4  C   -0.963371  -0.361726   0.360374   8.407731   1.559425  -1.984807
     5  C   -6.107402  -0.609029  -2.125950   1.559425  16.306515  -3.349635
     6  C   -1.418535  -0.650773  -0.760366  -1.984807  -3.349635  14.678099
     7  H    0.289734  -0.035643  -0.022223   0.017107   0.052845   0.050966
     8  H   -0.017049   0.354244   0.003749   0.024588  -0.017877  -0.004552
     9  H   -0.015332   0.005046   0.279885   0.085883   0.003653   0.015211
    10  H    0.049665  -0.010956   0.003564   0.099375   0.179554   0.059486
    11  N    0.017874   0.001295  -0.166109   0.129134  -0.138596  -0.079690
    12  C    0.064534  -0.140869   0.186012  -0.169952  -0.128986  -0.066016
    13  H    0.006883  -0.000738   0.089371  -0.095553  -0.010036  -0.004777
    14  H   -0.001164   0.007927   0.000332   0.014307  -0.004664   0.003949
    15  H   -0.003627  -0.002315  -0.000715   0.025300  -0.009016  -0.000416
    16  C    0.035333  -0.001414  -0.167948  -0.249187   0.327904  -0.213024
    17  H   -0.004468  -0.002273  -0.002507   0.024201  -0.008819   0.001834
    18  H    0.000408   0.000405  -0.008255   0.006593   0.004733   0.016764
    19  H    0.001181   0.000918  -0.018071  -0.089547   0.120489  -0.030112
    20  Cl  -0.080737   0.173764   0.056465  -0.096565   0.297710  -0.954495
               7          8          9         10         11         12
     1  C    0.289734  -0.017049  -0.015332   0.049665   0.017874   0.064534
     2  C   -0.035643   0.354244   0.005046  -0.010956   0.001295  -0.140869
     3  C   -0.022223   0.003749   0.279885   0.003564  -0.166109   0.186012
     4  C    0.017107   0.024588   0.085883   0.099375   0.129134  -0.169952
     5  C    0.052845  -0.017877   0.003653   0.179554  -0.138596  -0.128986
     6  C    0.050966  -0.004552   0.015211   0.059486  -0.079690  -0.066016
     7  H    0.523443  -0.008037  -0.000278  -0.000345   0.000658   0.000112
     8  H   -0.008037   0.544920  -0.008485   0.000061  -0.001624   0.001377
     9  H   -0.000278  -0.008485   0.556149  -0.000142  -0.033633  -0.002370
    10  H   -0.000345   0.000061  -0.000142   0.529246  -0.034321   0.003227
    11  N    0.000658  -0.001624  -0.033633  -0.034321   7.021276   0.299473
    12  C    0.000112   0.001377  -0.002370   0.003227   0.299473   5.127145
    13  H   -0.000001   0.000032  -0.001576   0.000040  -0.061157   0.453555
    14  H    0.000000  -0.000003   0.000862  -0.000001  -0.043377   0.391987
    15  H    0.000000   0.000040  -0.001066   0.000003  -0.056643   0.406780
    16  C    0.000156   0.000122   0.002151  -0.001217   0.310295  -0.112602
    17  H    0.000001  -0.000001  -0.000020  -0.000188  -0.054019   0.004644
    18  H    0.000000   0.000000  -0.000002   0.000898  -0.042378  -0.003964
    19  H    0.000000   0.000000   0.000030  -0.001402  -0.062085  -0.010051
    20  Cl  -0.006905   0.001123   0.000739  -0.009374  -0.004119  -0.006824
              13         14         15         16         17         18
     1  C    0.006883  -0.001164  -0.003627   0.035333  -0.004468   0.000408
     2  C   -0.000738   0.007927  -0.002315  -0.001414  -0.002273   0.000405
     3  C    0.089371   0.000332  -0.000715  -0.167948  -0.002507  -0.008255
     4  C   -0.095553   0.014307   0.025300  -0.249187   0.024201   0.006593
     5  C   -0.010036  -0.004664  -0.009016   0.327904  -0.008819   0.004733
     6  C   -0.004777   0.003949  -0.000416  -0.213024   0.001834   0.016764
     7  H   -0.000001   0.000000   0.000000   0.000156   0.000001   0.000000
     8  H    0.000032  -0.000003   0.000040   0.000122  -0.000001   0.000000
     9  H   -0.001576   0.000862  -0.001066   0.002151  -0.000020  -0.000002
    10  H    0.000040  -0.000001   0.000003  -0.001217  -0.000188   0.000898
    11  N   -0.061157  -0.043377  -0.056643   0.310295  -0.054019  -0.042378
    12  C    0.453555   0.391987   0.406780  -0.112602   0.004644  -0.003964
    13  H    0.564362  -0.031439  -0.054004  -0.010683  -0.001556  -0.000554
    14  H   -0.031439   0.542761  -0.020803  -0.003947   0.001161   0.006785
    15  H   -0.054004  -0.020803   0.570069   0.005739   0.000434   0.001185
    16  C   -0.010683  -0.003947   0.005739   5.137337   0.408617   0.390807
    17  H   -0.001556   0.001161   0.000434   0.408617   0.564394  -0.020685
    18  H   -0.000554   0.006785   0.001185   0.390807  -0.020685   0.541420
    19  H    0.006178  -0.000590  -0.001616   0.452577  -0.053325  -0.031382
    20  Cl   0.000007   0.000036  -0.000037  -0.009945  -0.000320   0.000118
              19         20
     1  C    0.001181  -0.080737
     2  C    0.000918   0.173764
     3  C   -0.018071   0.056465
     4  C   -0.089547  -0.096565
     5  C    0.120489   0.297710
     6  C   -0.030112  -0.954495
     7  H    0.000000  -0.006905
     8  H    0.000000   0.001123
     9  H    0.000030   0.000739
    10  H   -0.001402  -0.009374
    11  N   -0.062085  -0.004119
    12  C   -0.010051  -0.006824
    13  H    0.006178   0.000007
    14  H   -0.000590   0.000036
    15  H   -0.001616  -0.000037
    16  C    0.452577  -0.009945
    17  H   -0.053325  -0.000320
    18  H   -0.031382   0.000118
    19  H    0.563937  -0.000012
    20  Cl  -0.000012  17.292813
 Mulliken charges:
               1
     1  C   -0.426785
     2  C   -0.536612
     3  C    0.239598
     4  C   -0.743309
     5  C   -0.342815
     6  C    0.690891
     7  H    0.138410
     8  H    0.127374
     9  H    0.113295
    10  H    0.132827
    11  N   -0.002256
    12  C   -0.297212
    13  H    0.151646
    14  H    0.135880
    15  H    0.140707
    16  C   -0.301073
    17  H    0.142895
    18  H    0.137104
    19  H    0.152882
    20  Cl   0.346556
 Sum of Mulliken charges =   0.00000
 Mulliken charges with hydrogens summed into heavy atoms:
               1
     1  C   -0.288376
     2  C   -0.409239
     3  C    0.352893
     4  C   -0.743309
     5  C   -0.209989
     6  C    0.690891
    11  N   -0.002256
    12  C    0.131022
    16  C    0.131807
    20  Cl   0.346556
 Electronic spatial extent (au):  <R**2>=           2032.0368
 Charge=              0.0000 electrons
 Dipole moment (field-independent basis, Debye):
    X=              3.6325    Y=              0.1225    Z=              0.1903  Tot=              3.6395
 Quadrupole moment (field-independent basis, Debye-Ang):
   XX=            -63.3416   YY=            -62.0914   ZZ=            -71.8764
   XY=             -3.7710   XZ=              0.3782   YZ=              0.0782
 Traceless Quadrupole moment (field-independent basis, Debye-Ang):
   XX=              2.4282   YY=              3.6784   ZZ=             -6.1066
   XY=             -3.7710   XZ=              0.3782   YZ=              0.0782
 Octapole moment (field-independent basis, Debye-Ang**2):
  XXX=             32.8660  YYY=             -1.0371  ZZZ=              0.4769  XYY=              2.7604
  XXY=              1.0918  XXZ=              0.4535  XZZ=             -0.3884  YZZ=             -5.5894
  YYZ=             -0.7513  XYZ=             -0.5830
 Hexadecapole moment (field-independent basis, Debye-Ang**3):
 XXXX=          -1830.6251 YYYY=           -696.6179 ZZZZ=           -100.3248 XXXY=            -16.7930
 XXXZ=             -4.2998 YYYX=             -5.2776 YYYZ=              2.7646 ZZZX=              0.9015
 ZZZY=             -0.2823 XXYY=           -415.2302 XXZZ=           -350.0711 YYZZ=           -150.1570
 XXYZ=             -0.0970 YYXZ=             -2.9758 ZZXY=              5.2852
 N-N= 5.758512035205D+02 E-N=-3.094173422262D+03  KE= 8.231733883091D+02
 There are a total of      164670 grid points.
 ElSum from          density=       82.0000306209
 ElSum from atomic densities=       82.0001485154

 Hirshfeld populations at iteration   1 (CX, CA, CB, DipXYZ):
               1          2          3          4          5          6
     1  C    0.000001   3.036271   3.036271  -0.047645   0.037423   0.000973
     2  C    0.000000   3.021917   3.021917  -0.012234   0.066248   0.000502
     3  C    0.000000   3.037011   3.037011   0.047647   0.004992  -0.006343
     4  C    0.000000   2.973332   2.973332   0.071236  -0.036235  -0.004863
     5  C    0.000000   3.037741   3.037741   0.034915  -0.035584  -0.007015
     6  C    0.000001   2.984775   2.984775  -0.081106  -0.052334  -0.000060
     7  H    0.000004   0.475491   0.475491  -0.139402   0.083746   0.004542
     8  H    0.000002   0.475128   0.475128  -0.010946   0.161169   0.004013
     9  H    0.000001   0.480108   0.480108   0.116573   0.103171  -0.000659
    10  H    0.000002   0.478400   0.478400   0.005196  -0.152890  -0.002775
    11  N    0.000000   3.546408   3.546408   0.006185  -0.003793   0.054445
    12  C    0.000000   3.017871   3.017871  -0.029433  -0.022211  -0.005090
    13  H    0.000001   0.481900   0.481900   0.013897   0.053000   0.123794
    14  H    0.000000   0.476006   0.476006   0.125581  -0.080712  -0.019381
    15  H    0.000001   0.478072   0.478072   0.019988   0.106325  -0.097623
    16  C    0.000000   3.017739   3.017739  -0.000978   0.035782  -0.004166
    17  H    0.000001   0.477536   0.477536  -0.071714  -0.079091  -0.100494
    18  H    0.000000   0.475937   0.475937   0.140696  -0.050075  -0.019266
    19  H    0.000001   0.481510   0.481510  -0.035234  -0.046795   0.122981
    20  Cl   0.000009   8.546862   8.546862   0.020512   0.018540  -0.001060
       Tot   0.000024  41.000015  41.000015   0.173735   0.110675   0.042456

 Dip from Atomic Chgs              1.254529  -0.062581   0.032475
         Total Dipole              1.428264   0.048094   0.074931

 Hirshfeld charges, spin densities, dipoles, and CM5 charges using IRadAn=      4:
              Q-H        S-H        Dx         Dy         Dz        Q-CM5   
     1  C   -0.072542   0.000000  -0.047645   0.037423   0.000973  -0.125138
     2  C   -0.043833   0.000000  -0.012234   0.066248   0.000502  -0.099116
     3  C   -0.074021   0.000000   0.047647   0.004992  -0.006343  -0.123325
     4  C    0.053336   0.000000   0.071236  -0.036235  -0.004863   0.110051
     5  C   -0.075481   0.000000   0.034915  -0.035584  -0.007015  -0.121329
     6  C    0.030450   0.000000  -0.081106  -0.052334  -0.000060   0.023493
     7  H    0.049019   0.000000  -0.139402   0.083746   0.004542   0.103853
     8  H    0.049745   0.000000  -0.010946   0.161169   0.004013   0.105689
     9  H    0.039783   0.000000   0.116573   0.103171  -0.000659   0.100251
    10  H    0.043201   0.000000   0.005196  -0.152890  -0.002775   0.102528
    11  N   -0.092816   0.000000   0.006185  -0.003793   0.054445  -0.360911
    12  C   -0.035741   0.000000  -0.029433  -0.022211  -0.005090  -0.124523
    13  H    0.036199   0.000000   0.013897   0.053000   0.123794   0.095704
    14  H    0.047987   0.000000   0.125581  -0.080712  -0.019381   0.110380
    15  H    0.043856   0.000000   0.019988   0.106325  -0.097623   0.105077
    16  C   -0.035479   0.000000  -0.000978   0.035782  -0.004166  -0.124276
    17  H    0.044927   0.000000  -0.071714  -0.079091  -0.100494   0.106164
    18  H    0.048126   0.000000   0.140696  -0.050075  -0.019266   0.110509
    19  H    0.036980   0.000000  -0.035234  -0.046795   0.122981   0.096496
    20  Cl  -0.093725   0.000000   0.020512   0.018540  -0.001060  -0.091607
       Tot  -0.000031   0.000000   0.173735   0.110675   0.042456  -0.000031
 Hirshfeld charges with hydrogens summed into heavy atoms:
              Q-H       Q-CM5   
     1  C   -0.023523  -0.021286
     2  C    0.005911   0.006573
     3  C   -0.034238  -0.023074
     4  C    0.053336   0.110051
     5  C   -0.032281  -0.018801
     6  C    0.030450   0.023493
    11  N   -0.092816  -0.360911
    12  C    0.092301   0.186638
    16  C    0.094554   0.188894
    20  Cl  -0.093725  -0.091607
 
 EQQ= 0.000000000000E+00 EQD= 0.000000000000E+00 EDD= 0.317658028270E-02
 EQQ+QD+DD= 0.317658028270E-02
 
          MBS Condensed to atoms (all electrons):
               1          2          3          4          5          6
     1  C    4.857095   0.501005  -0.031350  -0.009395  -0.032095   0.505155
     2  C    0.501005   4.802829   0.514649  -0.028258  -0.010930  -0.032010
     3  C   -0.031350   0.514649   4.889243   0.489057  -0.029947  -0.012250
     4  C   -0.009395  -0.028258   0.489057   4.662997   0.487960  -0.025895
     5  C   -0.032095  -0.010930  -0.029947   0.487960   4.892784   0.513656
     6  C    0.505155  -0.032010  -0.012250  -0.025895   0.513656   4.708664
     7  H    0.391035  -0.022610   0.001409   0.000046   0.001347  -0.025088
     8  H   -0.025876   0.390346  -0.026155   0.001468   0.000033   0.001566
     9  H    0.001507  -0.025564   0.390714  -0.025034   0.001359   0.000092
    10  H    0.001388   0.000078   0.001301  -0.022564   0.388702  -0.025480
    11  N    0.000017   0.000551  -0.027898   0.406453  -0.028550   0.000528
    12  C    0.000000   0.000044  -0.006563  -0.033633   0.000998  -0.000009
    13  H   -0.000001   0.000004   0.000711  -0.002132   0.000043   0.000000
    14  H    0.000000  -0.000001   0.000137   0.001738  -0.000027   0.000000
    15  H   -0.000001   0.000023  -0.000877  -0.001710   0.000010   0.000000
    16  C    0.000000  -0.000011   0.000989  -0.033625  -0.006723   0.000049
    17  H   -0.000001   0.000000   0.000011  -0.001741  -0.000889   0.000026
    18  H    0.000000   0.000000  -0.000026   0.001738   0.000140  -0.000001
    19  H   -0.000001   0.000000   0.000039  -0.002129   0.000709   0.000004
    20  Cl  -0.029310   0.000739   0.000009   0.000647  -0.030369   0.259447
               7          8          9         10         11         12
     1  C    0.391035  -0.025876   0.001507   0.001388   0.000017   0.000000
     2  C   -0.022610   0.390346  -0.025564   0.000078   0.000551   0.000044
     3  C    0.001409  -0.026155   0.390714   0.001301  -0.027898  -0.006563
     4  C    0.000046   0.001468  -0.025034  -0.022564   0.406453  -0.033633
     5  C    0.001347   0.000033   0.001359   0.388702  -0.028550   0.000998
     6  C   -0.025088   0.001566   0.000092  -0.025480   0.000528  -0.000009
     7  H    0.540242  -0.003782  -0.000036  -0.000041   0.000000   0.000000
     8  H   -0.003782   0.557423  -0.004393   0.000002  -0.000011   0.000000
     9  H   -0.000036  -0.004393   0.560212  -0.000042  -0.002460  -0.000793
    10  H   -0.000041   0.000002  -0.000042   0.543979  -0.002563   0.000027
    11  N    0.000000  -0.000011  -0.002460  -0.002563   6.389313   0.350544
    12  C    0.000000   0.000000  -0.000793   0.000027   0.350544   4.734156
    13  H    0.000000   0.000001  -0.000220   0.000000  -0.023970   0.368784
    14  H    0.000000   0.000000   0.000017  -0.000001  -0.020830   0.379883
    15  H    0.000000   0.000002  -0.000255  -0.000001  -0.023475   0.376481
    16  C    0.000000   0.000000   0.000023  -0.000784   0.350468  -0.033477
    17  H    0.000000   0.000000  -0.000001  -0.000290  -0.023450   0.001580
    18  H    0.000000   0.000000  -0.000001   0.000012  -0.020797  -0.006123
    19  H    0.000000   0.000000   0.000000  -0.000215  -0.023961   0.000565
    20  Cl  -0.001999  -0.000015   0.000000  -0.002437  -0.000001   0.000000
              13         14         15         16         17         18
     1  C   -0.000001   0.000000  -0.000001   0.000000  -0.000001   0.000000
     2  C    0.000004  -0.000001   0.000023  -0.000011   0.000000   0.000000
     3  C    0.000711   0.000137  -0.000877   0.000989   0.000011  -0.000026
     4  C   -0.002132   0.001738  -0.001710  -0.033625  -0.001741   0.001738
     5  C    0.000043  -0.000027   0.000010  -0.006723  -0.000889   0.000140
     6  C    0.000000   0.000000   0.000000   0.000049   0.000026  -0.000001
     7  H    0.000000   0.000000   0.000000   0.000000   0.000000   0.000000
     8  H    0.000001   0.000000   0.000002   0.000000   0.000000   0.000000
     9  H   -0.000220   0.000017  -0.000255   0.000023  -0.000001  -0.000001
    10  H    0.000000  -0.000001  -0.000001  -0.000784  -0.000290   0.000012
    11  N   -0.023970  -0.020830  -0.023475   0.350468  -0.023450  -0.020797
    12  C    0.368784   0.379883   0.376481  -0.033477   0.001580  -0.006123
    13  H    0.618693  -0.023210  -0.028879   0.000571  -0.000089  -0.000019
    14  H   -0.023210   0.583886  -0.020941  -0.006135   0.000177   0.001774
    15  H   -0.028879  -0.020941   0.595054   0.001581  -0.000037   0.000178
    16  C    0.000571  -0.006135   0.001581   4.735477   0.376507   0.379901
    17  H   -0.000089   0.000177  -0.000037   0.376507   0.593884  -0.020880
    18  H   -0.000019   0.001774   0.000178   0.379901  -0.020880   0.583671
    19  H    0.000420  -0.000019  -0.000089   0.368813  -0.028826  -0.023194
    20  Cl   0.000000   0.000000   0.000000   0.000000   0.000000   0.000000
              19         20
     1  C   -0.000001  -0.029310
     2  C    0.000000   0.000739
     3  C    0.000039   0.000009
     4  C   -0.002129   0.000647
     5  C    0.000709  -0.030369
     6  C    0.000004   0.259447
     7  H    0.000000  -0.001999
     8  H    0.000000  -0.000015
     9  H    0.000000   0.000000
    10  H   -0.000215  -0.002437
    11  N   -0.023961  -0.000001
    12  C    0.000565   0.000000
    13  H    0.000420   0.000000
    14  H   -0.000019   0.000000
    15  H   -0.000089   0.000000
    16  C    0.368813   0.000000
    17  H   -0.028826   0.000000
    18  H   -0.023194   0.000000
    19  H    0.617821   0.000000
    20  Cl   0.000000  17.027563
 MBS Mulliken charges:
               1
     1  C   -0.129171
     2  C   -0.090884
     3  C   -0.153200
     4  C    0.134013
     5  C   -0.148210
     6  C    0.131547
     7  H    0.119477
     8  H    0.109392
     9  H    0.104877
    10  H    0.118930
    11  N   -0.299908
    12  C   -0.132463
    13  H    0.089295
    14  H    0.103551
    15  H    0.102939
    16  C   -0.133623
    17  H    0.104020
    18  H    0.103630
    19  H    0.090062
    20  Cl  -0.224273
 Sum of MBS Mulliken charges =   0.00000
 MBS Mulliken charges with hydrogens summed into heavy atoms:
               1
     1  C   -0.009694
     2  C    0.018508
     3  C   -0.048324
     4  C    0.134013
     5  C   -0.029280
     6  C    0.131547
    11  N   -0.299908
    12  C    0.163322
    16  C    0.164089
    20  Cl  -0.224273
 Breneman (CHELPG) radii used.
 Generate Potential Derived Charges using the Breneman model, NDens= 1.
 Grid spacing= 0.300 Box extension= 2.800
 NStep X,Y,Z=   44     39     26   Total possible points=       44616
 Number of Points to Fit=   12779

 **********************************************************************

            Electrostatic Properties Using The SCF Density

 **********************************************************************

       Atomic Center    1 is at  -1.660301  1.411324  0.019156
       Atomic Center    2 is at  -0.489083  2.166581  0.012346
       Atomic Center    3 is at   0.765129  1.570628 -0.023854
       Atomic Center    4 is at   0.895187  0.164114 -0.065029
       Atomic Center    5 is at  -0.290634 -0.603427 -0.040990
       Atomic Center    6 is at  -1.525088  0.029008 -0.005708
       Atomic Center    7 is at  -2.636717  1.874799  0.049534
       Atomic Center    8 is at  -0.556174  3.248634  0.039783
       Atomic Center    9 is at   1.641468  2.202562 -0.021304
       Atomic Center   10 is at  -0.260716 -1.682208 -0.050449
       Atomic Center   11 is at   2.137862 -0.446780 -0.138047
       Atomic Center   12 is at   3.337594  0.347983  0.073062
       Atomic Center   13 is at   3.382426  0.791862  1.078360
       Atomic Center   14 is at   4.211466 -0.288780 -0.058606
       Atomic Center   15 is at   3.407802  1.155700 -0.660617
       Atomic Center   16 is at   2.239439 -1.886661  0.040928
       Atomic Center   17 is at   1.649238 -2.418055 -0.710741
       Atomic Center   18 is at   3.278349 -2.187291 -0.088116
       Atomic Center   19 is at   1.905886 -2.216164  1.035841
       Atomic Center   20 is at  -2.977736 -0.973583  0.017246
   12779 points will be used for fitting atomic charges
 Fitting point charges to electrostatic potential
 Charges from ESP fit, RMS=   0.00421 RRMS=   0.32658:
 ESP charges:
               1
     1  C   -0.154939
     2  C   -0.060431
     3  C   -0.285146
     4  C    0.344879
     5  C   -0.261519
     6  C    0.152225
     7  H    0.103033
     8  H    0.097028
     9  H    0.138699
    10  H    0.134200
    11  N   -0.354515
    12  C    0.115588
    13  H   -0.000315
    14  H    0.040445
    15  H    0.000766
    16  C    0.091609
    17  H    0.010031
    18  H    0.045667
    19  H    0.008883
    20  Cl  -0.166185
 Sum of ESP charges =   0.00000
 ESP charges with hydrogens summed into heavy atoms:
               1
     1  C   -0.051906
     2  C    0.036597
     3  C   -0.146447
     4  C    0.344879
     5  C   -0.127320
     6  C    0.152225
    11  N   -0.354515
    12  C    0.156483
    16  C    0.156189
    20  Cl  -0.166185
 Charge=   0.00000 Dipole=     3.7043     0.2026     0.2058 Tot=     3.7155
 -----------------------------------------------------------------

              Electrostatic Properties (Atomic Units)

 -----------------------------------------------------------------
    Center     Electric         -------- Electric Field --------
               Potential          X             Y             Z
 -----------------------------------------------------------------
    1 Atom    -14.777853
    2 Atom    -14.769185
    3 Atom    -14.776136
    4 Atom    -14.723041
    5 Atom    -14.772246
    6 Atom    -14.716734
    7 Atom     -1.105028
    8 Atom     -1.105716
    9 Atom     -1.104410
   10 Atom     -1.098261
   11 Atom    -18.362779
   12 Atom    -14.734253
   13 Atom     -1.107357
   14 Atom     -1.096874
   15 Atom     -1.104372
   16 Atom    -14.734736
   17 Atom     -1.104717
   18 Atom     -1.097182
   19 Atom     -1.107713
   20 Atom    -64.404401
 -----------------------------------------------------------------
 ******************************Gaussian NBO Version 3.1******************************
             N A T U R A L   A T O M I C   O R B I T A L   A N D
          N A T U R A L   B O N D   O R B I T A L   A N A L Y S I S
 ******************************Gaussian NBO Version 3.1******************************
       /RESON  / : Allow strongly delocalized NBO set

 Analyzing the SCF density

 Job title: Table13_5                                                       

 Storage needed:    250340 in NPA ( 104855400 available)


 NATURAL POPULATIONS:  Natural atomic orbital occupancies 
                                                          
   NAO  Atom  No  lang   Type(AO)    Occupancy      Energy
 ----------------------------------------------------------
     1    C    1  S      Cor( 1S)     1.99895     -10.02156
     2    C    1  S      Val( 2S)     0.94184      -0.14975
     3    C    1  S      Ryd( 3S)     0.00188       0.77254
     4    C    1  S      Ryd( 4S)     0.00031       0.89416
     5    C    1  S      Ryd( 5S)     0.00001      22.97830
     6    C    1  px     Val( 2p)     1.16828      -0.06117
     7    C    1  px     Ryd( 4p)     0.00625       1.00912
     8    C    1  px     Ryd( 3p)     0.00045       0.40450
     9    C    1  px     Ryd( 5p)     0.00009       3.14236
    10    C    1  py     Val( 2p)     1.08839      -0.06307
    11    C    1  py     Ryd( 4p)     0.00502       0.78110
    12    C    1  py     Ryd( 3p)     0.00039       0.36706
    13    C    1  py     Ryd( 5p)     0.00014       3.12180
    14    C    1  pz     Val( 2p)     1.06019      -0.10855
    15    C    1  pz     Ryd( 4p)     0.00258       0.49648
    16    C    1  pz     Ryd( 3p)     0.00058       0.30434
    17    C    1  pz     Ryd( 5p)     0.00002       2.72548
    18    C    1  dxy    Ryd( 3d)     0.00065       2.52836
    19    C    1  dxz    Ryd( 3d)     0.00045       1.63615
    20    C    1  dyz    Ryd( 3d)     0.00045       1.66249
    21    C    1  dx2y2  Ryd( 3d)     0.00081       2.56342
    22    C    1  dz2    Ryd( 3d)     0.00041       2.06051

    23    C    2  S      Cor( 1S)     1.99917     -10.03490
    24    C    2  S      Val( 2S)     0.94474      -0.15957
    25    C    2  S      Ryd( 3S)     0.00144       0.89278
    26    C    2  S      Ryd( 4S)     0.00018       1.01302
    27    C    2  S      Ryd( 5S)     0.00000      22.67116
    28    C    2  px     Val( 2p)     1.05724      -0.04169
    29    C    2  px     Ryd( 4p)     0.00434       0.80187
    30    C    2  px     Ryd( 3p)     0.00044       0.40534
    31    C    2  px     Ryd( 5p)     0.00016       3.07551
    32    C    2  py     Val( 2p)     1.16727      -0.05393
    33    C    2  py     Ryd( 4p)     0.00706       1.06690
    34    C    2  py     Ryd( 3p)     0.00031       0.28620
    35    C    2  py     Ryd( 5p)     0.00006       3.17256
    36    C    2  pz     Val( 2p)     0.98063      -0.10835
    37    C    2  pz     Ryd( 4p)     0.00077       0.53285
    38    C    2  pz     Ryd( 3p)     0.00033       0.32446
    39    C    2  pz     Ryd( 5p)     0.00001       2.66068
    40    C    2  dxy    Ryd( 3d)     0.00060       2.58240
    41    C    2  dxz    Ryd( 3d)     0.00067       1.68683
    42    C    2  dyz    Ryd( 3d)     0.00036       1.60477
    43    C    2  dx2y2  Ryd( 3d)     0.00078       2.50784
    44    C    2  dz2    Ryd( 3d)     0.00042       2.04740

    45    C    3  S      Cor( 1S)     1.99910     -10.02719
    46    C    3  S      Val( 2S)     0.93784      -0.15686
    47    C    3  S      Ryd( 4S)     0.00162       0.81971
    48    C    3  S      Ryd( 3S)     0.00016       0.58176
    49    C    3  S      Ryd( 5S)     0.00001      23.26504
    50    C    3  px     Val( 2p)     1.14854      -0.05957
    51    C    3  px     Ryd( 4p)     0.00398       1.06603
    52    C    3  px     Ryd( 3p)     0.00033       0.49374
    53    C    3  px     Ryd( 5p)     0.00007       3.12956
    54    C    3  py     Val( 2p)     1.08506      -0.04827
    55    C    3  py     Ryd( 4p)     0.00450       0.90853
    56    C    3  py     Ryd( 3p)     0.00049       0.40472
    57    C    3  py     Ryd( 5p)     0.00012       3.14629
    58    C    3  pz     Val( 2p)     1.08299      -0.11367
    59    C    3  pz     Ryd( 4p)     0.00184       0.50377
    60    C    3  pz     Ryd( 3p)     0.00038       0.33440
    61    C    3  pz     Ryd( 5p)     0.00002       2.73436
    62    C    3  dxy    Ryd( 3d)     0.00068       2.53057
    63    C    3  dxz    Ryd( 3d)     0.00041       1.63471
    64    C    3  dyz    Ryd( 3d)     0.00045       1.66750
    65    C    3  dx2y2  Ryd( 3d)     0.00070       2.61152
    66    C    3  dz2    Ryd( 3d)     0.00042       2.08718

    67    C    4  S      Cor( 1S)     1.99902     -10.08153
    68    C    4  S      Val( 2S)     0.82314      -0.11494
    69    C    4  S      Ryd( 3S)     0.00096       0.83299
    70    C    4  S      Ryd( 4S)     0.00044       0.85908
    71    C    4  S      Ryd( 5S)     0.00002      22.78436
    72    C    4  px     Val( 2p)     0.92321      -0.02848
    73    C    4  px     Ryd( 4p)     0.00538       1.14170
    74    C    4  px     Ryd( 3p)     0.00033       0.78179
    75    C    4  px     Ryd( 5p)     0.00009       2.85935
    76    C    4  py     Val( 2p)     1.05746      -0.05970
    77    C    4  py     Ryd( 4p)     0.00555       1.20259
    78    C    4  py     Ryd( 3p)     0.00018       0.79475
    79    C    4  py     Ryd( 5p)     0.00012       2.82699
    80    C    4  pz     Val( 2p)     0.96968      -0.11281
    81    C    4  pz     Ryd( 3p)     0.00059       0.60856
    82    C    4  pz     Ryd( 4p)     0.00036       0.69516
    83    C    4  pz     Ryd( 5p)     0.00002       2.39232
    84    C    4  dxy    Ryd( 3d)     0.00104       2.54496
    85    C    4  dxz    Ryd( 3d)     0.00166       1.64978
    86    C    4  dyz    Ryd( 3d)     0.00086       1.64976
    87    C    4  dx2y2  Ryd( 3d)     0.00095       2.56488
    88    C    4  dz2    Ryd( 3d)     0.00049       2.06183

    89    C    5  S      Cor( 1S)     1.99890     -10.02665
    90    C    5  S      Val( 2S)     0.93417      -0.15306
    91    C    5  S      Ryd( 3S)     0.00214       0.82662
    92    C    5  S      Ryd( 4S)     0.00026       0.83614
    93    C    5  S      Ryd( 5S)     0.00001      23.08256
    94    C    5  px     Val( 2p)     1.07061      -0.06517
    95    C    5  px     Ryd( 4p)     0.00398       0.92773
    96    C    5  px     Ryd( 3p)     0.00032       0.50776
    97    C    5  px     Ryd( 5p)     0.00013       3.20705
    98    C    5  py     Val( 2p)     1.18760      -0.07261
    99    C    5  py     Ryd( 4p)     0.00483       0.98738
   100    C    5  py     Ryd( 3p)     0.00038       0.45789
   101    C    5  py     Ryd( 5p)     0.00007       3.16238
   102    C    5  pz     Val( 2p)     1.08445      -0.11694
   103    C    5  pz     Ryd( 4p)     0.00198       0.49422
   104    C    5  pz     Ryd( 3p)     0.00056       0.33813
   105    C    5  pz     Ryd( 5p)     0.00001       2.75330
   106    C    5  dxy    Ryd( 3d)     0.00073       2.62004
   107    C    5  dxz    Ryd( 3d)     0.00049       1.67248
   108    C    5  dyz    Ryd( 3d)     0.00045       1.62211
   109    C    5  dx2y2  Ryd( 3d)     0.00065       2.50836
   110    C    5  dz2    Ryd( 3d)     0.00044       2.07790

   111    C    6  S      Cor( 1S)     1.99859     -10.10199
   112    C    6  S      Val( 2S)     0.92851      -0.20557
   113    C    6  S      Ryd( 4S)     0.00084       0.87899
   114    C    6  S      Ryd( 3S)     0.00027       0.57431
   115    C    6  S      Ryd( 5S)     0.00001      23.26098
   116    C    6  px     Val( 2p)     0.96866      -0.12090
   117    C    6  px     Ryd( 4p)     0.00688       0.91237
   118    C    6  px     Ryd( 3p)     0.00030       0.46906
   119    C    6  px     Ryd( 5p)     0.00035       3.07859
   120    C    6  py     Val( 2p)     1.03522      -0.09503
   121    C    6  py     Ryd( 4p)     0.00677       0.86871
   122    C    6  py     Ryd( 3p)     0.00024       0.47496
   123    C    6  py     Ryd( 5p)     0.00024       3.16075
   124    C    6  pz     Val( 2p)     1.05602      -0.13686
   125    C    6  pz     Ryd( 4p)     0.00098       0.60743
   126    C    6  pz     Ryd( 3p)     0.00038       0.43067
   127    C    6  pz     Ryd( 5p)     0.00003       2.55763
   128    C    6  dxy    Ryd( 3d)     0.00182       2.26422
   129    C    6  dxz    Ryd( 3d)     0.00124       1.54173
   130    C    6  dyz    Ryd( 3d)     0.00098       1.60712
   131    C    6  dx2y2  Ryd( 3d)     0.00123       2.42795
   132    C    6  dz2    Ryd( 3d)     0.00086       1.98316

   133    H    7  S      Val( 1S)     0.77606       0.05185
   134    H    7  S      Ryd( 2S)     0.00068       0.82730
   135    H    7  S      Ryd( 3S)     0.00020       1.88449
   136    H    7  px     Ryd( 2p)     0.00038       2.59312
   137    H    7  py     Ryd( 2p)     0.00019       2.11280
   138    H    7  pz     Ryd( 2p)     0.00023       1.60718

   139    H    8  S      Val( 1S)     0.79080       0.04630
   140    H    8  S      Ryd( 2S)     0.00059       0.61950
   141    H    8  S      Ryd( 3S)     0.00016       2.14536
   142    H    8  px     Ryd( 2p)     0.00012       1.99856
   143    H    8  py     Ryd( 2p)     0.00043       2.69154
   144    H    8  pz     Ryd( 2p)     0.00020       1.59583

   145    H    9  S      Val( 1S)     0.78847       0.04722
   146    H    9  S      Ryd( 2S)     0.00057       0.88388
   147    H    9  S      Ryd( 3S)     0.00019       1.80243
   148    H    9  px     Ryd( 2p)     0.00031       2.49798
   149    H    9  py     Ryd( 2p)     0.00024       2.26740
   150    H    9  pz     Ryd( 2p)     0.00026       1.60772

   151    H   10  S      Val( 1S)     0.77362       0.04699
   152    H   10  S      Ryd( 2S)     0.00095       1.06816
   153    H   10  S      Ryd( 3S)     0.00018       1.60199
   154    H   10  px     Ryd( 2p)     0.00017       2.01786
   155    H   10  py     Ryd( 2p)     0.00043       2.74535
   156    H   10  pz     Ryd( 2p)     0.00025       1.60987

   157    N   11  S      Cor( 1S)     1.99930     -14.17765
   158    N   11  S      Val( 2S)     1.19302      -0.51070
   159    N   11  S      Ryd( 4S)     0.00051       1.54612
   160    N   11  S      Ryd( 3S)     0.00028       1.07982
   161    N   11  S      Ryd( 5S)     0.00000      35.04454
   162    N   11  px     Val( 2p)     1.28478      -0.23744
   163    N   11  px     Ryd( 4p)     0.00121       1.01784
   164    N   11  px     Ryd( 3p)     0.00075       0.53662
   165    N   11  px     Ryd( 5p)     0.00004       4.30685
   166    N   11  py     Val( 2p)     1.27655      -0.23709
   167    N   11  py     Ryd( 4p)     0.00157       1.20698
   168    N   11  py     Ryd( 3p)     0.00068       0.67312
   169    N   11  py     Ryd( 5p)     0.00002       4.30194
   170    N   11  pz     Val( 2p)     1.72183      -0.24292
   171    N   11  pz     Ryd( 4p)     0.00599       0.70856
   172    N   11  pz     Ryd( 3p)     0.00032       0.35495
   173    N   11  pz     Ryd( 5p)     0.00001       3.88287
   174    N   11  dxy    Ryd( 3d)     0.00079       2.84113
   175    N   11  dxz    Ryd( 3d)     0.00045       2.27103
   176    N   11  dyz    Ryd( 3d)     0.00043       2.30014
   177    N   11  dx2y2  Ryd( 3d)     0.00073       2.83114
   178    N   11  dz2    Ryd( 3d)     0.00055       2.59898

   179    C   12  S      Cor( 1S)     1.99935     -10.07473
   180    C   12  S      Val( 2S)     1.06310      -0.25587
   181    C   12  S      Ryd( 4S)     0.00092       0.93328
   182    C   12  S      Ryd( 3S)     0.00027       0.54733
   183    C   12  S      Ryd( 5S)     0.00000      23.34687
   184    C   12  px     Val( 2p)     0.96379      -0.09081
   185    C   12  px     Ryd( 4p)     0.00236       0.60491
   186    C   12  px     Ryd( 3p)     0.00021       0.54965
   187    C   12  px     Ryd( 5p)     0.00006       2.78124
   188    C   12  py     Val( 2p)     1.11816      -0.10802
   189    C   12  py     Ryd( 4p)     0.00279       0.56340
   190    C   12  py     Ryd( 3p)     0.00011       0.55538
   191    C   12  py     Ryd( 5p)     0.00007       2.82296
   192    C   12  pz     Val( 2p)     1.19459      -0.11330
   193    C   12  pz     Ryd( 3p)     0.00097       0.53894
   194    C   12  pz     Ryd( 4p)     0.00069       0.54461
   195    C   12  pz     Ryd( 5p)     0.00002       2.75074
   196    C   12  dxy    Ryd( 3d)     0.00119       2.23139
   197    C   12  dxz    Ryd( 3d)     0.00077       1.77322
   198    C   12  dyz    Ryd( 3d)     0.00109       2.16282
   199    C   12  dx2y2  Ryd( 3d)     0.00065       1.99077
   200    C   12  dz2    Ryd( 3d)     0.00094       2.13084

   201    H   13  S      Val( 1S)     0.81463       0.00962
   202    H   13  S      Ryd( 2S)     0.00232       0.51773
   203    H   13  S      Ryd( 3S)     0.00014       2.19663
   204    H   13  px     Ryd( 2p)     0.00013       1.76283
   205    H   13  py     Ryd( 2p)     0.00013       1.92788
   206    H   13  pz     Ryd( 2p)     0.00033       2.56920

   207    H   14  S      Val( 1S)     0.80025       0.01374
   208    H   14  S      Ryd( 2S)     0.00043       0.52434
   209    H   14  S      Ryd( 3S)     0.00014       2.15456
   210    H   14  px     Ryd( 2p)     0.00030       2.34037
   211    H   14  py     Ryd( 2p)     0.00019       2.04939
   212    H   14  pz     Ryd( 2p)     0.00016       1.75296

   213    H   15  S      Val( 1S)     0.80348       0.01553
   214    H   15  S      Ryd( 2S)     0.00089       0.50457
   215    H   15  S      Ryd( 3S)     0.00018       2.20677
   216    H   15  px     Ryd( 2p)     0.00014       1.71868
   217    H   15  py     Ryd( 2p)     0.00022       2.28002
   218    H   15  pz     Ryd( 2p)     0.00025       2.18214

   219    C   16  S      Cor( 1S)     1.99934     -10.07424
   220    C   16  S      Val( 2S)     1.06335      -0.25559
   221    C   16  S      Ryd( 4S)     0.00092       0.93501
   222    C   16  S      Ryd( 3S)     0.00025       0.54737
   223    C   16  S      Ryd( 5S)     0.00000      23.35447
   224    C   16  px     Val( 2p)     1.21272      -0.11797
   225    C   16  px     Ryd( 4p)     0.00282       0.68582
   226    C   16  px     Ryd( 3p)     0.00016       0.57941
   227    C   16  px     Ryd( 5p)     0.00004       2.80359
   228    C   16  py     Val( 2p)     0.86773      -0.07996
   229    C   16  py     Ryd( 3p)     0.00228       0.49855
   230    C   16  py     Ryd( 4p)     0.00017       0.54052
   231    C   16  py     Ryd( 5p)     0.00011       2.78970
   232    C   16  pz     Val( 2p)     1.19721      -0.11334
   233    C   16  pz     Ryd( 3p)     0.00095       0.54126
   234    C   16  pz     Ryd( 4p)     0.00069       0.54802
   235    C   16  pz     Ryd( 5p)     0.00002       2.74808
   236    C   16  dxy    Ryd( 3d)     0.00063       2.00994
   237    C   16  dxz    Ryd( 3d)     0.00049       1.97418
   238    C   16  dyz    Ryd( 3d)     0.00139       1.96625
   239    C   16  dx2y2  Ryd( 3d)     0.00121       2.21456
   240    C   16  dz2    Ryd( 3d)     0.00092       2.12629

   241    H   17  S      Val( 1S)     0.80250       0.01653
   242    H   17  S      Ryd( 2S)     0.00089       0.51541
   243    H   17  S      Ryd( 3S)     0.00019       2.19918
   244    H   17  px     Ryd( 2p)     0.00023       2.03636
   245    H   17  py     Ryd( 2p)     0.00013       1.94395
   246    H   17  pz     Ryd( 2p)     0.00025       2.20602

   247    H   18  S      Val( 1S)     0.80003       0.01403
   248    H   18  S      Ryd( 2S)     0.00042       0.53996
   249    H   18  S      Ryd( 3S)     0.00013       2.13792
   250    H   18  px     Ryd( 2p)     0.00033       2.61553
   251    H   18  py     Ryd( 2p)     0.00017       1.77725
   252    H   18  pz     Ryd( 2p)     0.00016       1.75254

   253    H   19  S      Val( 1S)     0.81396       0.01039
   254    H   19  S      Ryd( 2S)     0.00232       0.52353
   255    H   19  S      Ryd( 3S)     0.00015       2.19555
   256    H   19  px     Ryd( 2p)     0.00016       1.89336
   257    H   19  py     Ryd( 2p)     0.00012       1.81851
   258    H   19  pz     Ryd( 2p)     0.00033       2.55465

   259   Cl   20  S      Cor( 1S)     2.00000    -100.21461
   260   Cl   20  S      Cor( 2S)     1.99972     -10.46721
   261   Cl   20  S      Val( 3S)     1.83821      -0.99817
   262   Cl   20  S      Ryd( 4S)     0.00217       0.74440
   263   Cl   20  S      Ryd( 5S)     0.00009       1.18695
   264   Cl   20  S      Ryd( 6S)     0.00000      17.26406
   265   Cl   20  S      Ryd( 7S)     0.00000     207.76535
   266   Cl   20  px     Cor( 2p)     1.99994      -7.21592
   267   Cl   20  px     Val( 3p)     1.48268      -0.28112
   268   Cl   20  px     Ryd( 4p)     0.00321       0.37265
   269   Cl   20  px     Ryd( 5p)     0.00014       0.45042
   270   Cl   20  px     Ryd( 6p)     0.00002       3.98961
   271   Cl   20  px     Ryd( 7p)     0.00000      24.51072
   272   Cl   20  py     Cor( 2p)     1.99997      -7.21306
   273   Cl   20  py     Val( 3p)     1.74011      -0.29857
   274   Cl   20  py     Ryd( 4p)     0.00261       0.38513
   275   Cl   20  py     Ryd( 5p)     0.00013       0.48268
   276   Cl   20  py     Ryd( 6p)     0.00001       3.77143
   277   Cl   20  py     Ryd( 7p)     0.00000      24.50504
   278   Cl   20  pz     Cor( 2p)     1.99999      -7.21080
   279   Cl   20  pz     Val( 3p)     1.93220      -0.31308
   280   Cl   20  pz     Ryd( 4p)     0.00188       0.38894
   281   Cl   20  pz     Ryd( 5p)     0.00012       0.46229
   282   Cl   20  pz     Ryd( 6p)     0.00001       3.35028
   283   Cl   20  pz     Ryd( 7p)     0.00000      24.47717
   284   Cl   20  dxy    Ryd( 3d)     0.00386       1.20956
   285   Cl   20  dxz    Ryd( 3d)     0.00160       0.92096
   286   Cl   20  dyz    Ryd( 3d)     0.00078       0.89854
   287   Cl   20  dx2y2  Ryd( 3d)     0.00145       1.15786
   288   Cl   20  dz2    Ryd( 3d)     0.00138       0.99192

 WARNING:  1 low occupancy (<1.9990e) core orbital  found on  C    1
           1 low occupancy (<1.9990e) core orbital  found on  C    5
           1 low occupancy (<1.9990e) core orbital  found on  C    6

 WARNING:  Population inversion found on atom  C    1
           Population inversion found on atom  C    2
           Population inversion found on atom  C    3
           Population inversion found on atom  C    4
           Population inversion found on atom  C    5
           Population inversion found on atom  C    6
           Population inversion found on atom  N   11
           Population inversion found on atom  C   12
           Population inversion found on atom  C   16


 Summary of Natural Population Analysis:                  
                                                          
                                       Natural Population 
                Natural  -----------------------------------------------
    Atom  No    Charge         Core      Valence    Rydberg      Total
 -----------------------------------------------------------------------
      C    1   -0.27814      1.99895     4.25870    0.02049     6.27814
      C    2   -0.16701      1.99917     4.14989    0.01795     6.16701
      C    3   -0.26971      1.99910     4.25443    0.01618     6.26971
      C    4    0.20847      1.99902     3.77348    0.01903     5.79153
      C    5   -0.29317      1.99890     4.27684    0.01743     6.29317
      C    6   -0.01043      1.99859     3.98842    0.02343     6.01043
      H    7    0.22227      0.00000     0.77606    0.00166     0.77773
      H    8    0.20770      0.00000     0.79080    0.00150     0.79230
      H    9    0.20996      0.00000     0.78847    0.00157     0.79004
      H   10    0.22440      0.00000     0.77362    0.00197     0.77560
      N   11   -0.48981      1.99930     5.47618    0.01433     7.48981
      C   12   -0.35209      1.99935     4.33964    0.01310     6.35209
      H   13    0.18232      0.00000     0.81463    0.00305     0.81768
      H   14    0.19853      0.00000     0.80025    0.00123     0.80147
      H   15    0.19485      0.00000     0.80348    0.00168     0.80515
      C   16   -0.35342      1.99934     4.34101    0.01307     6.35342
      H   17    0.19581      0.00000     0.80250    0.00169     0.80419
      H   18    0.19876      0.00000     0.80003    0.00121     0.80124
      H   19    0.18298      0.00000     0.81396    0.00307     0.81702
     Cl   20   -0.01227      9.99962     6.99320    0.01945    17.01227
 =======================================================================
   * Total *    0.00000     27.99133    53.81559    0.19309    82.00000

                                 Natural Population      
 --------------------------------------------------------
   Core                      27.99133 ( 99.9690% of  28)
   Valence                   53.81559 ( 99.6585% of  54)
   Natural Minimal Basis     81.80691 ( 99.7645% of  82)
   Natural Rydberg Basis      0.19309 (  0.2355% of  82)
 --------------------------------------------------------

    Atom  No          Natural Electron Configuration
 ----------------------------------------------------------------------------
      C    1      [core]2S( 0.94)2p( 3.32)4p( 0.01)
      C    2      [core]2S( 0.94)2p( 3.21)4p( 0.01)
      C    3      [core]2S( 0.94)2p( 3.32)4p( 0.01)
      C    4      [core]2S( 0.82)2p( 2.95)3d( 0.01)4p( 0.01)
      C    5      [core]2S( 0.93)2p( 3.34)4p( 0.01)
      C    6      [core]2S( 0.93)2p( 3.06)3d( 0.01)4p( 0.01)
      H    7            1S( 0.78)
      H    8            1S( 0.79)
      H    9            1S( 0.79)
      H   10            1S( 0.77)
      N   11      [core]2S( 1.19)2p( 4.28)4p( 0.01)
      C   12      [core]2S( 1.06)2p( 3.28)4p( 0.01)
      H   13            1S( 0.81)
      H   14            1S( 0.80)
      H   15            1S( 0.80)
      C   16      [core]2S( 1.06)2p( 3.28)
      H   17            1S( 0.80)
      H   18            1S( 0.80)
      H   19            1S( 0.81)
     Cl   20      [core]3S( 1.84)3p( 5.15)3d( 0.01)4p( 0.01)


 NBO analysis skipped by request.
 1\1\GINC-COREV4-21-006\SP\RB3LYP\6-311+G(d,p)\C8H10Cl1N1\ROOT\23-Jul-2
 021\0\\# b3lyp/6-311+g(d,p) geom=connectivity pop=(hirshfeld,chelpg,mb
 s,npa)\\Table13_5\\0,1\C,0,-1.660301,1.411324,0.019156\C,0,-0.489083,2
 .166581,0.012346\C,0,0.765129,1.570628,-0.023854\C,0,0.895187,0.164114
 ,-0.065029\C,0,-0.290634,-0.603427,-0.04099\C,0,-1.525088,0.029008,-0.
 005708\H,0,-2.636717,1.874799,0.049534\H,0,-0.556174,3.248634,0.039783
 \H,0,1.641468,2.202562,-0.021304\H,0,-0.260716,-1.682208,-0.050449\N,0
 ,2.137862,-0.44678,-0.138047\C,0,3.337594,0.347983,0.073062\H,0,3.3824
 26,0.791862,1.07836\H,0,4.211466,-0.28878,-0.058606\H,0,3.407802,1.155
 7,-0.660617\C,0,2.239439,-1.886661,0.040928\H,0,1.649238,-2.418055,-0.
 710741\H,0,3.278349,-2.187291,-0.088116\H,0,1.905886,-2.216164,1.03584
 1\Cl,0,-2.977736,-0.973583,0.017246\\Version=ES64L-G09RevD.01\State=1-
 A\HF=-825.9381658\RMSD=1.356e-09\Dipole=1.4291255,0.0481831,0.0748645\
 Quadrupole=1.8053058,2.7348057,-4.5401115,-2.8036536,0.2812132,0.05812
 77\PG=C01 [X(C8H10Cl1N1)]\\@


 THE PROBLEM WITH THE LADDER OF SUCCESS IS YOU CAN'T
 CLIMB IT WHILE YOU'RE TWIDDLING YOUR THUMBS.
 Job cpu time:       0 days  0 hours 10 minutes 10.9 seconds.
 File lengths (MBytes):  RWF=     75 Int=      0 D2E=      0 Chk=      4 Scr=      1
 Normal termination of Gaussian 09 at Fri Jul 23 17:29:41 2021.
