 Entering Gaussian System, Link 0=g09
 Initial command:
 /cm/shared/apps/gaussian/g09revD.01/g09/l1.exe "//home/sweav003/CHB/CHActivation_Mkhalid/OtherCharges/G09-Table6_3.com.o9447132.tmp/Gau-97129.inp" -scrdir="//home/sweav003/CHB/CHActivation_Mkhalid/OtherCharges/G09-Table6_3.com.o9447132.tmp/"
 Entering Link 1 = /cm/shared/apps/gaussian/g09revD.01/g09/l1.exe PID=     97130.
  
 Copyright (c) 1988,1990,1992,1993,1995,1998,2003,2009,2013,
            Gaussian, Inc.  All Rights Reserved.
  
 This is part of the Gaussian(R) 09 program.  It is based on
 the Gaussian(R) 03 system (copyright 2003, Gaussian, Inc.),
 the Gaussian(R) 98 system (copyright 1998, Gaussian, Inc.),
 the Gaussian(R) 94 system (copyright 1995, Gaussian, Inc.),
 the Gaussian 92(TM) system (copyright 1992, Gaussian, Inc.),
 the Gaussian 90(TM) system (copyright 1990, Gaussian, Inc.),
 the Gaussian 88(TM) system (copyright 1988, Gaussian, Inc.),
 the Gaussian 86(TM) system (copyright 1986, Carnegie Mellon
 University), and the Gaussian 82(TM) system (copyright 1983,
 Carnegie Mellon University). Gaussian is a federally registered
 trademark of Gaussian, Inc.
  
 This software contains proprietary and confidential information,
 including trade secrets, belonging to Gaussian, Inc.
  
 This software is provided under written license and may be
 used, copied, transmitted, or stored only in accord with that
 written license.
  
 The following legend is applicable only to US Government
 contracts under FAR:
  
                    RESTRICTED RIGHTS LEGEND
  
 Use, reproduction and disclosure by the US Government is
 subject to restrictions as set forth in subparagraphs (a)
 and (c) of the Commercial Computer Software - Restricted
 Rights clause in FAR 52.227-19.
  
 Gaussian, Inc.
 340 Quinnipiac St., Bldg. 40, Wallingford CT 06492
  
  
 ---------------------------------------------------------------
 Warning -- This program may not be used in any manner that
 competes with the business of Gaussian, Inc. or will provide
 assistance to any competitor of Gaussian, Inc.  The licensee
 of this program is prohibited from giving any competitor of
 Gaussian, Inc. access to this program.  By using this program,
 the user acknowledges that Gaussian, Inc. is engaged in the
 business of creating and licensing software in the field of
 computational chemistry and represents and warrants to the
 licensee that it is not a competitor of Gaussian, Inc. and that
 it will not use this program in any manner prohibited above.
 ---------------------------------------------------------------
  

 Cite this work as:
 Gaussian 09, Revision D.01,
 M. J. Frisch, G. W. Trucks, H. B. Schlegel, G. E. Scuseria, 
 M. A. Robb, J. R. Cheeseman, G. Scalmani, V. Barone, B. Mennucci, 
 G. A. Petersson, H. Nakatsuji, M. Caricato, X. Li, H. P. Hratchian, 
 A. F. Izmaylov, J. Bloino, G. Zheng, J. L. Sonnenberg, M. Hada, 
 M. Ehara, K. Toyota, R. Fukuda, J. Hasegawa, M. Ishida, T. Nakajima, 
 Y. Honda, O. Kitao, H. Nakai, T. Vreven, J. A. Montgomery, Jr., 
 J. E. Peralta, F. Ogliaro, M. Bearpark, J. J. Heyd, E. Brothers, 
 K. N. Kudin, V. N. Staroverov, T. Keith, R. Kobayashi, J. Normand, 
 K. Raghavachari, A. Rendell, J. C. Burant, S. S. Iyengar, J. Tomasi, 
 M. Cossi, N. Rega, J. M. Millam, M. Klene, J. E. Knox, J. B. Cross, 
 V. Bakken, C. Adamo, J. Jaramillo, R. Gomperts, R. E. Stratmann, 
 O. Yazyev, A. J. Austin, R. Cammi, C. Pomelli, J. W. Ochterski, 
 R. L. Martin, K. Morokuma, V. G. Zakrzewski, G. A. Voth, 
 P. Salvador, J. J. Dannenberg, S. Dapprich, A. D. Daniels, 
 O. Farkas, J. B. Foresman, J. V. Ortiz, J. Cioslowski, 
 and D. J. Fox, Gaussian, Inc., Wallingford CT, 2013.
 
 ******************************************
 Gaussian 09:  ES64L-G09RevD.01 24-Apr-2013
                23-Jul-2021 
 ******************************************
 %mem=100MW
 %nprocshared=20
 Will use up to   20 processors via shared memory.
 ---------------------------------------------------------------------
 # b3lyp/6-311+g(d,p) geom=connectivity pop=(hirshfeld,chelpg,mbs,npa)
 ---------------------------------------------------------------------
 1/38=1,57=2/1;
 2/12=2,17=6,18=5,40=1/2;
 3/5=4,6=6,7=111,11=2,16=1,25=1,30=1,74=-5/1,2,3;
 4//1;
 5/5=2,38=5/2;
 6/7=2,8=2,9=2,10=2,15=8,20=3,27=100,28=1,40=-1,79=1/1,2,7;
 99/5=1,9=1/99;
 --------
 Table6_3
 --------
 Symbolic Z-matrix:
 Charge =  0 Multiplicity = 1
 6                    -1.92713  -0.22919  -0.00001 
 6                    -1.64115   1.10944  -0.00003 
 6                    -0.24718   1.37107   0.00005 
 6                     0.50887   0.22076  -0.00002 
 16                   -0.50393  -1.20388   0.00001 
 1                    -2.89644  -0.7044   -0.00002 
 1                    -2.39943   1.88038  -0.00005 
 1                     0.19287   2.35874   0.00007 
 6                     1.91762   0.11625  -0.00002 
 7                     3.07136   0.0282   -0.00001 
 
                          Input orientation:                          
 ---------------------------------------------------------------------
 Center     Atomic      Atomic             Coordinates (Angstroms)
 Number     Number       Type             X           Y           Z
 ---------------------------------------------------------------------
      1          6           0       -1.927125   -0.229189   -0.000005
      2          6           0       -1.641145    1.109438   -0.000032
      3          6           0       -0.247175    1.371070    0.000046
      4          6           0        0.508868    0.220758   -0.000015
      5         16           0       -0.503926   -1.203880    0.000012
      6          1           0       -2.896437   -0.704403   -0.000016
      7          1           0       -2.399435    1.880382   -0.000052
      8          1           0        0.192873    2.358738    0.000072
      9          6           0        1.917623    0.116253   -0.000017
     10          7           0        3.071362    0.028196   -0.000007
 ---------------------------------------------------------------------
                    Distance matrix (angstroms):
                    1          2          3          4          5
     1  C    0.000000
     2  C    1.368834   0.000000
     3  C    2.320142   1.418310   0.000000
     4  C    2.477199   2.326437   1.376524   0.000000
     5  S    1.724969   2.577733   2.587719   1.747955   0.000000
     6  H    1.079534   2.205851   3.365439   3.528743   2.444092
     7  H    2.161797   1.081369   2.211701   3.348519   3.620169
     8  H    3.345408   2.219093   1.081263   2.161206   3.630121
     9  C    3.860235   3.694759   2.502182   1.412626   2.758016
    10  N    5.005109   4.834957   3.579944   2.569719   3.781626
                    6          7          8          9         10
     6  H    0.000000
     7  H    2.632133   0.000000
     8  H    4.350479   2.636074   0.000000
     9  C    4.883508   4.663597   2.829046   0.000000
    10  N    6.012597   5.775830   3.703664   1.157095   0.000000
 Stoichiometry    C5H3NS
 Framework group  C1[X(C5H3NS)]
 Deg. of freedom    24
 Full point group                 C1      NOp   1
 Largest Abelian subgroup         C1      NOp   1
 Largest concise Abelian subgroup C1      NOp   1
                         Standard orientation:                         
 ---------------------------------------------------------------------
 Center     Atomic      Atomic             Coordinates (Angstroms)
 Number     Number       Type             X           Y           Z
 ---------------------------------------------------------------------
      1          6           0        1.927125   -0.229189    0.000005
      2          6           0        1.641145    1.109438    0.000032
      3          6           0        0.247175    1.371070   -0.000046
      4          6           0       -0.508868    0.220758    0.000015
      5         16           0        0.503926   -1.203880   -0.000012
      6          1           0        2.896437   -0.704403    0.000016
      7          1           0        2.399435    1.880382    0.000052
      8          1           0       -0.192873    2.358738   -0.000072
      9          6           0       -1.917623    0.116253    0.000017
     10          7           0       -3.071362    0.028196    0.000007
 ---------------------------------------------------------------------
 Rotational constants (GHZ):      5.3428505      1.8104209      1.3522216
 Standard basis: 6-311+G(d,p) (5D, 7F)
 There are   187 symmetry adapted cartesian basis functions of A   symmetry.
 There are   180 symmetry adapted basis functions of A   symmetry.
   180 basis functions,   290 primitive gaussians,   187 cartesian basis functions
    28 alpha electrons       28 beta electrons
       nuclear repulsion energy       304.6834772411 Hartrees.
 NAtoms=   10 NActive=   10 NUniq=   10 SFac= 1.00D+00 NAtFMM=   60 NAOKFM=F Big=F
 Integral buffers will be    131072 words long.
 Raffenetti 2 integral format.
 Two-electron integral symmetry is turned on.
 One-electron integrals computed using PRISM.
 NBasis=   180 RedAO= T EigKep=  5.71D-06  NBF=   180
 NBsUse=   180 1.00D-06 EigRej= -1.00D+00 NBFU=   180
 ExpMin= 4.05D-02 ExpMax= 9.34D+04 ExpMxC= 3.17D+03 IAcc=2 IRadAn=         4 AccDes= 0.00D+00
 Harris functional with IExCor=  402 and IRadAn=       4 diagonalized for initial guess.
 HarFok:  IExCor=  402 AccDes= 0.00D+00 IRadAn=         4 IDoV= 1 UseB2=F ITyADJ=14
 ICtDFT=  3500011 ScaDFX=  1.000000  1.000000  1.000000  1.000000
 FoFCou: FMM=F IPFlag=           0 FMFlag=      100000 FMFlg1=           0
         NFxFlg=           0 DoJE=T BraDBF=F KetDBF=T FulRan=T
         wScrn=  0.000000 ICntrl=     500 IOpCl=  0 I1Cent=   200000004 NGrid=           0
         NMat0=    1 NMatS0=      1 NMatT0=    0 NMatD0=    1 NMtDS0=    0 NMtDT0=    0
 Petite list used in FoFCou.
 Requested convergence on RMS density matrix=1.00D-08 within 128 cycles.
 Requested convergence on MAX density matrix=1.00D-06.
 Requested convergence on             energy=1.00D-06.
 No special actions if energy rises.
 SCF Done:  E(RB3LYP) =  -645.338758563     A.U. after   14 cycles
            NFock= 14  Conv=0.23D-08     -V/T= 2.0025

 **********************************************************************

            Population analysis using the SCF density.

 **********************************************************************

 Orbital symmetries:
       Occupied  (A) (A) (A) (A) (A) (A) (A) (A) (A) (A) (A) (A)
                 (A) (A) (A) (A) (A) (A) (A) (A) (A) (A) (A) (A)
                 (A) (A) (A) (A)
       Virtual   (A) (A) (A) (A) (A) (A) (A) (A) (A) (A) (A) (A)
                 (A) (A) (A) (A) (A) (A) (A) (A) (A) (A) (A) (A)
                 (A) (A) (A) (A) (A) (A) (A) (A) (A) (A) (A) (A)
                 (A) (A) (A) (A) (A) (A) (A) (A) (A) (A) (A) (A)
                 (A) (A) (A) (A) (A) (A) (A) (A) (A) (A) (A) (A)
                 (A) (A) (A) (A) (A) (A) (A) (A) (A) (A) (A) (A)
                 (A) (A) (A) (A) (A) (A) (A) (A) (A) (A) (A) (A)
                 (A) (A) (A) (A) (A) (A) (A) (A) (A) (A) (A) (A)
                 (A) (A) (A) (A) (A) (A) (A) (A) (A) (A) (A) (A)
                 (A) (A) (A) (A) (A) (A) (A) (A) (A) (A) (A) (A)
                 (A) (A) (A) (A) (A) (A) (A) (A) (A) (A) (A) (A)
                 (A) (A) (A) (A) (A) (A) (A) (A) (A) (A) (A) (A)
                 (A) (A) (A) (A) (A) (A) (A) (A)
 The electronic state is 1-A.
 Alpha  occ. eigenvalues --  -88.91316 -14.32602 -10.25412 -10.23488 -10.22569
 Alpha  occ. eigenvalues --  -10.21768 -10.20979  -7.99901  -5.96199  -5.95809
 Alpha  occ. eigenvalues --   -5.95497  -0.93262  -0.91142  -0.78211  -0.77417
 Alpha  occ. eigenvalues --   -0.65004  -0.59594  -0.55845  -0.47711  -0.44195
 Alpha  occ. eigenvalues --   -0.43516  -0.43002  -0.38434  -0.37745  -0.36688
 Alpha  occ. eigenvalues --   -0.34860  -0.28964  -0.26841
 Alpha virt. eigenvalues --   -0.07585  -0.02113  -0.00703  -0.00042   0.00411
 Alpha virt. eigenvalues --    0.01777   0.01982   0.03485   0.03787   0.04447
 Alpha virt. eigenvalues --    0.05818   0.07335   0.07660   0.08604   0.08940
 Alpha virt. eigenvalues --    0.09284   0.10631   0.11995   0.12611   0.12669
 Alpha virt. eigenvalues --    0.14402   0.14491   0.14570   0.14944   0.15224
 Alpha virt. eigenvalues --    0.16686   0.18025   0.19315   0.19852   0.19934
 Alpha virt. eigenvalues --    0.21575   0.22274   0.22786   0.24089   0.24553
 Alpha virt. eigenvalues --    0.27381   0.27572   0.28440   0.30844   0.31747
 Alpha virt. eigenvalues --    0.31779   0.35514   0.37724   0.42407   0.44062
 Alpha virt. eigenvalues --    0.48688   0.51617   0.51675   0.53618   0.55911
 Alpha virt. eigenvalues --    0.57471   0.58192   0.59442   0.60736   0.61987
 Alpha virt. eigenvalues --    0.67015   0.69580   0.70994   0.71364   0.71570
 Alpha virt. eigenvalues --    0.73488   0.76886   0.77593   0.77791   0.78719
 Alpha virt. eigenvalues --    0.81507   0.83076   0.88438   0.89069   0.90706
 Alpha virt. eigenvalues --    0.93623   0.94471   0.95440   0.99279   0.99516
 Alpha virt. eigenvalues --    1.03062   1.04434   1.07813   1.09033   1.12736
 Alpha virt. eigenvalues --    1.20950   1.27100   1.32960   1.34674   1.37341
 Alpha virt. eigenvalues --    1.49017   1.50572   1.53877   1.54495   1.58574
 Alpha virt. eigenvalues --    1.61858   1.63898   1.69911   1.70135   1.70581
 Alpha virt. eigenvalues --    1.76711   1.77921   1.78864   1.86780   1.87613
 Alpha virt. eigenvalues --    1.93231   1.97595   1.99346   2.02115   2.04063
 Alpha virt. eigenvalues --    2.07219   2.10351   2.10369   2.12328   2.20733
 Alpha virt. eigenvalues --    2.32154   2.37644   2.41355   2.55934   2.59000
 Alpha virt. eigenvalues --    2.64626   2.66908   2.67423   2.69754   2.72799
 Alpha virt. eigenvalues --    2.77765   2.78937   2.83692   2.87637   2.92117
 Alpha virt. eigenvalues --    2.93701   2.96940   3.03743   3.08425   3.17225
 Alpha virt. eigenvalues --    3.22394   3.30156   3.35279   3.47102   3.55987
 Alpha virt. eigenvalues --    3.97910   3.99704   4.01332   4.03840   4.29393
 Alpha virt. eigenvalues --    4.59885   7.91027  17.25246  17.42900  17.46541
 Alpha virt. eigenvalues --   23.53996  23.78476  24.05238  24.12198  24.47531
 Alpha virt. eigenvalues --   35.87778 189.06474
          Condensed to atoms (all electrons):
               1          2          3          4          5          6
     1  C    5.223990   0.431149   0.077022  -0.016310   0.037572   0.390854
     2  C    0.431149   5.319781  -0.056143   0.610843   0.327637  -0.002753
     3  C    0.077022  -0.056143   5.827335  -0.387967  -0.506777  -0.021902
     4  C   -0.016310   0.610843  -0.387967  10.256774   0.399239   0.025426
     5  S    0.037572   0.327637  -0.506777   0.399239  16.135092  -0.035822
     6  H    0.390854  -0.002753  -0.021902   0.025426  -0.035822   0.466580
     7  H    0.001858   0.369336  -0.019368  -0.008240   0.002542  -0.004931
     8  H   -0.000432  -0.042590   0.402788  -0.083352   0.003293  -0.000061
     9  C   -0.194627  -0.639130   0.513868  -6.680219  -0.202390   0.008892
    10  N    0.014234   0.021308  -0.003201   0.719909  -0.004080  -0.000076
               7          8          9         10
     1  C    0.001858  -0.000432  -0.194627   0.014234
     2  C    0.369336  -0.042590  -0.639130   0.021308
     3  C   -0.019368   0.402788   0.513868  -0.003201
     4  C   -0.008240  -0.083352  -6.680219   0.719909
     5  S    0.002542   0.003293  -0.202390  -0.004080
     6  H   -0.004931  -0.000061   0.008892  -0.000076
     7  H    0.513837  -0.003963   0.006222  -0.000091
     8  H   -0.003963   0.505933   0.072927  -0.003370
     9  C    0.006222   0.072927  14.763741  -0.494881
    10  N   -0.000091  -0.003370  -0.494881   6.938452
 Mulliken charges:
               1
     1  C    0.034690
     2  C   -0.339438
     3  C    0.174346
     4  C    1.163896
     5  S   -0.156305
     6  H    0.173792
     7  H    0.142799
     8  H    0.148828
     9  C   -1.154403
    10  N   -0.188206
 Sum of Mulliken charges =   0.00000
 Mulliken charges with hydrogens summed into heavy atoms:
               1
     1  C    0.208483
     2  C   -0.196639
     3  C    0.323174
     4  C    1.163896
     5  S   -0.156305
     9  C   -1.154403
    10  N   -0.188206
 Electronic spatial extent (au):  <R**2>=            820.3401
 Charge=              0.0000 electrons
 Dipole moment (field-independent basis, Debye):
    X=              4.8231    Y=              0.7375    Z=              0.0000  Tot=              4.8791
 Quadrupole moment (field-independent basis, Debye-Ang):
   XX=            -55.7883   YY=            -42.6021   ZZ=            -49.8783
   XY=             -0.4088   XZ=              0.0001   YZ=              0.0000
 Traceless Quadrupole moment (field-independent basis, Debye-Ang):
   XX=             -6.3654   YY=              6.8208   ZZ=             -0.4554
   XY=             -0.4088   XZ=              0.0001   YZ=              0.0000
 Octapole moment (field-independent basis, Debye-Ang**2):
  XXX=             71.8421  YYY=              5.9542  ZZZ=             -0.0001  XYY=              4.7991
  XXY=             -1.9589  XXZ=              0.0002  XZZ=             -2.0577  YZZ=             -1.9518
  YYZ=             -0.0004  XYZ=              0.0003
 Hexadecapole moment (field-independent basis, Debye-Ang**3):
 XXXX=           -934.6501 YYYY=           -279.4147 ZZZZ=            -60.3388 XXXY=             -4.3886
 XXXZ=              0.0015 YYYX=              1.0358 YYYZ=             -0.0004 ZZZX=              0.0000
 ZZZY=              0.0000 XXYY=           -168.2059 XXZZ=           -150.8080 YYZZ=            -64.9047
 XXYZ=              0.0006 YYXZ=              0.0004 ZZXY=             -1.4671
 N-N= 3.046834772411D+02 E-N=-2.130059611172D+03  KE= 6.437415476966D+02
 There are a total of       81458 grid points.
 ElSum from          density=       56.0000635308
 ElSum from atomic densities=       56.0001754421

 Hirshfeld populations at iteration   1 (CX, CA, CB, DipXYZ):
               1          2          3          4          5          6
     1  C    0.000001   3.029243   3.029243   0.059478  -0.062333  -0.000002
     2  C    0.000001   3.028412   3.028412   0.048233   0.108617   0.000011
     3  C    0.000001   3.019230   3.019230  -0.010654   0.118008  -0.000016
     4  C    0.000001   3.010479   3.010479  -0.073771  -0.042366   0.000007
     5  S    0.000004   7.936306   7.936306   0.005699  -0.021096  -0.000006
     6  H    0.000003   0.466180   0.466180   0.169157  -0.073513   0.000001
     7  H    0.000002   0.468638   0.468638   0.118862   0.124029   0.000004
     8  H    0.000003   0.465900   0.465900  -0.063695   0.161291  -0.000006
     9  C    0.000001   2.963752   2.963752   0.195291   0.026218   0.000004
    10  N    0.000036   3.611893   3.611893   0.048496   0.002407  -0.000001
       Tot   0.000053  28.000032  28.000032   0.497096   0.341261  -0.000004

 Dip from Atomic Chgs              1.400221  -0.051161  -0.000006
         Total Dipole              1.897316   0.290100  -0.000010

 Hirshfeld charges, spin densities, dipoles, and CM5 charges using IRadAn=      4:
              Q-H        S-H        Dx         Dy         Dz        Q-CM5   
     1  C   -0.058485   0.000000   0.059478  -0.062333  -0.000002  -0.125034
     2  C   -0.056823   0.000000   0.048233   0.108617   0.000011  -0.113260
     3  C   -0.038460   0.000000  -0.010654   0.118008  -0.000016  -0.091790
     4  C   -0.020958   0.000000  -0.073771  -0.042366   0.000007  -0.034260
     5  S    0.127388   0.000000   0.005699  -0.021096  -0.000006   0.152460
     6  H    0.067641   0.000000   0.169157  -0.073513   0.000001   0.124233
     7  H    0.062724   0.000000   0.118862   0.124029   0.000004   0.118299
     8  H    0.068200   0.000000  -0.063695   0.161291  -0.000006   0.124607
     9  C    0.072495   0.000000   0.195291   0.026218   0.000004   0.190556
    10  N   -0.223786   0.000000   0.048496   0.002407  -0.000001  -0.345874
       Tot  -0.000064   0.000000   0.497096   0.341261  -0.000004  -0.000064
 Hirshfeld charges with hydrogens summed into heavy atoms:
              Q-H       Q-CM5   
     1  C    0.009156  -0.000801
     2  C    0.005901   0.005039
     3  C    0.029740   0.032817
     4  C   -0.020958  -0.034260
     5  S    0.127388   0.152460
     9  C    0.072495   0.190556
    10  N   -0.223786  -0.345874
 
 EQQ= 0.000000000000E+00 EQD= 0.000000000000E+00 EDD= 0.676162277469E-02
 EQQ+QD+DD= 0.676162277469E-02
 
          MBS Condensed to atoms (all electrons):
               1          2          3          4          5          6
     1  C    4.939077   0.534605  -0.046413  -0.032450   0.370429   0.385444
     2  C    0.534605   4.836786   0.480275  -0.047607  -0.039359  -0.018691
     3  C   -0.046413   0.480275   4.827672   0.523729  -0.041367   0.001606
     4  C   -0.032450  -0.047607   0.523729   4.828889   0.351743   0.000898
     5  S    0.370429  -0.039359  -0.041367   0.351743  15.290024  -0.019909
     6  H    0.385444  -0.018691   0.001606   0.000898  -0.019909   0.504937
     7  H   -0.021769   0.388686  -0.021267   0.001606   0.001296  -0.002245
     8  H    0.001643  -0.020090   0.387550  -0.022082   0.001223  -0.000031
     9  C    0.000586   0.001092  -0.023900   0.448970  -0.021765  -0.000008
    10  N    0.000000  -0.000001  -0.000167  -0.008638  -0.000183   0.000000
               7          8          9         10
     1  C   -0.021769   0.001643   0.000586   0.000000
     2  C    0.388686  -0.020090   0.001092  -0.000001
     3  C   -0.021267   0.387550  -0.023900  -0.000167
     4  C    0.001606  -0.022082   0.448970  -0.008638
     5  S    0.001296   0.001223  -0.021765  -0.000183
     6  H   -0.002245  -0.000031  -0.000008   0.000000
     7  H    0.526496  -0.001805  -0.000016   0.000000
     8  H   -0.001805   0.517722  -0.001971   0.000039
     9  C   -0.000016  -0.001971   4.738109   0.722144
    10  N    0.000000   0.000039   0.722144   6.566628
 MBS Mulliken charges:
               1
     1  C   -0.131152
     2  C   -0.115696
     3  C   -0.087718
     4  C   -0.045059
     5  S    0.107868
     6  H    0.147999
     7  H    0.129018
     8  H    0.137802
     9  C    0.136759
    10  N   -0.279822
 Sum of MBS Mulliken charges =   0.00000
 MBS Mulliken charges with hydrogens summed into heavy atoms:
               1
     1  C    0.016847
     2  C    0.013322
     3  C    0.050084
     4  C   -0.045059
     5  S    0.107868
     9  C    0.136759
    10  N   -0.279822
 Breneman (CHELPG) radii used.
 Generate Potential Derived Charges using the Breneman model, NDens= 1.
 Grid spacing= 0.300 Box extension= 2.800
 NStep X,Y,Z=   40     31     20   Total possible points=       24800
 Number of Points to Fit=    8545

 **********************************************************************

            Electrostatic Properties Using The SCF Density

 **********************************************************************

       Atomic Center    1 is at   1.927125 -0.229189  0.000005
       Atomic Center    2 is at   1.641145  1.109438  0.000032
       Atomic Center    3 is at   0.247175  1.371070 -0.000046
       Atomic Center    4 is at  -0.508868  0.220758  0.000015
       Atomic Center    5 is at   0.503926 -1.203880 -0.000012
       Atomic Center    6 is at   2.896437 -0.704403  0.000016
       Atomic Center    7 is at   2.399435  1.880382  0.000052
       Atomic Center    8 is at  -0.192873  2.358738 -0.000072
       Atomic Center    9 is at  -1.917623  0.116253  0.000017
       Atomic Center   10 is at  -3.071362  0.028196  0.000007
    8545 points will be used for fitting atomic charges
 Fitting point charges to electrostatic potential
 Charges from ESP fit, RMS=   0.00464 RRMS=   0.22766:
 ESP charges:
               1
     1  C   -0.182269
     2  C   -0.068009
     3  C   -0.037121
     4  C   -0.166521
     5  S    0.080302
     6  H    0.176384
     7  H    0.102591
     8  H    0.103770
     9  C    0.503704
    10  N   -0.512830
 Sum of ESP charges =   0.00000
 ESP charges with hydrogens summed into heavy atoms:
               1
     1  C   -0.005886
     2  C    0.034582
     3  C    0.066649
     4  C   -0.166521
     5  S    0.080302
     9  C    0.503704
    10  N   -0.512830
 Charge=   0.00000 Dipole=     4.8001     0.6701     0.0000 Tot=     4.8467
 -----------------------------------------------------------------

              Electrostatic Properties (Atomic Units)

 -----------------------------------------------------------------
    Center     Electric         -------- Electric Field --------
               Potential          X             Y             Z
 -----------------------------------------------------------------
    1 Atom    -14.717153
    2 Atom    -14.741307
    3 Atom    -14.734012
    4 Atom    -14.694498
    5 Atom    -59.181682
    6 Atom     -1.051290
    7 Atom     -1.069301
    8 Atom     -1.065229
    9 Atom    -14.736877
   10 Atom    -18.408122
 -----------------------------------------------------------------
 ******************************Gaussian NBO Version 3.1******************************
             N A T U R A L   A T O M I C   O R B I T A L   A N D
          N A T U R A L   B O N D   O R B I T A L   A N A L Y S I S
 ******************************Gaussian NBO Version 3.1******************************
       /RESON  / : Allow strongly delocalized NBO set

 Analyzing the SCF density

 Job title: Table6_3                                                        

 Storage needed:     98130 in NPA ( 104857020 available)


 NATURAL POPULATIONS:  Natural atomic orbital occupancies 
                                                          
   NAO  Atom  No  lang   Type(AO)    Occupancy      Energy
 ----------------------------------------------------------
     1    C    1  S      Cor( 1S)     1.99913     -10.10842
     2    C    1  S      Val( 2S)     1.04992      -0.30227
     3    C    1  S      Ryd( 4S)     0.00133       0.59349
     4    C    1  S      Ryd( 3S)     0.00067       0.57892
     5    C    1  S      Ryd( 5S)     0.00001      23.36192
     6    C    1  px     Val( 2p)     1.11804      -0.14574
     7    C    1  px     Ryd( 4p)     0.00475       0.81342
     8    C    1  px     Ryd( 3p)     0.00059       0.69461
     9    C    1  px     Ryd( 5p)     0.00008       2.69569
    10    C    1  py     Val( 2p)     1.07849      -0.13617
    11    C    1  py     Ryd( 3p)     0.00542       0.51615
    12    C    1  py     Ryd( 4p)     0.00030       0.56320
    13    C    1  py     Ryd( 5p)     0.00028       2.92992
    14    C    1  pz     Val( 2p)     1.10263      -0.17783
    15    C    1  pz     Ryd( 4p)     0.00238       0.42732
    16    C    1  pz     Ryd( 3p)     0.00025       0.42435
    17    C    1  pz     Ryd( 5p)     0.00001       2.52479
    18    C    1  dxy    Ryd( 3d)     0.00189       2.17817
    19    C    1  dxz    Ryd( 3d)     0.00094       1.46142
    20    C    1  dyz    Ryd( 3d)     0.00073       1.56845
    21    C    1  dx2y2  Ryd( 3d)     0.00079       2.26795
    22    C    1  dz2    Ryd( 3d)     0.00104       1.87565

    23    C    2  S      Cor( 1S)     1.99910     -10.06217
    24    C    2  S      Val( 2S)     0.95987      -0.20025
    25    C    2  S      Ryd( 3S)     0.00205       0.61196
    26    C    2  S      Ryd( 4S)     0.00013       0.93948
    27    C    2  S      Ryd( 5S)     0.00001      22.91845
    28    C    2  px     Val( 2p)     1.10906      -0.08601
    29    C    2  px     Ryd( 4p)     0.00501       0.83068
    30    C    2  px     Ryd( 3p)     0.00044       0.30941
    31    C    2  px     Ryd( 5p)     0.00012       3.06902
    32    C    2  py     Val( 2p)     1.13416      -0.10379
    33    C    2  py     Ryd( 4p)     0.00539       0.86301
    34    C    2  py     Ryd( 3p)     0.00044       0.30534
    35    C    2  py     Ryd( 5p)     0.00012       3.06284
    36    C    2  pz     Val( 2p)     1.03471      -0.14179
    37    C    2  pz     Ryd( 4p)     0.00128       0.51293
    38    C    2  pz     Ryd( 3p)     0.00027       0.24804
    39    C    2  pz     Ryd( 5p)     0.00002       2.64985
    40    C    2  dxy    Ryd( 3d)     0.00071       2.39485
    41    C    2  dxz    Ryd( 3d)     0.00053       1.59954
    42    C    2  dyz    Ryd( 3d)     0.00055       1.62215
    43    C    2  dx2y2  Ryd( 3d)     0.00073       2.57739
    44    C    2  dz2    Ryd( 3d)     0.00042       2.00887

    45    C    3  S      Cor( 1S)     1.99903     -10.06811
    46    C    3  S      Val( 2S)     0.95464      -0.19497
    47    C    3  S      Ryd( 3S)     0.00209       0.62719
    48    C    3  S      Ryd( 4S)     0.00021       0.62989
    49    C    3  S      Ryd( 5S)     0.00001      23.32659
    50    C    3  px     Val( 2p)     1.06127      -0.08783
    51    C    3  px     Ryd( 4p)     0.00437       0.79045
    52    C    3  px     Ryd( 3p)     0.00067       0.38032
    53    C    3  px     Ryd( 5p)     0.00012       3.09965
    54    C    3  py     Val( 2p)     1.16435      -0.10082
    55    C    3  py     Ryd( 4p)     0.00553       0.93384
    56    C    3  py     Ryd( 3p)     0.00035       0.30591
    57    C    3  py     Ryd( 5p)     0.00009       3.08689
    58    C    3  pz     Val( 2p)     0.98628      -0.14230
    59    C    3  pz     Ryd( 4p)     0.00132       0.52345
    60    C    3  pz     Ryd( 3p)     0.00042       0.23265
    61    C    3  pz     Ryd( 5p)     0.00002       2.65795
    62    C    3  dxy    Ryd( 3d)     0.00079       2.51021
    63    C    3  dxz    Ryd( 3d)     0.00060       1.60150
    64    C    3  dyz    Ryd( 3d)     0.00053       1.62068
    65    C    3  dx2y2  Ryd( 3d)     0.00059       2.48111
    66    C    3  dz2    Ryd( 3d)     0.00044       2.01453

    67    C    4  S      Cor( 1S)     1.99880     -10.12518
    68    C    4  S      Val( 2S)     0.96121      -0.24487
    69    C    4  S      Ryd( 4S)     0.00257       0.81930
    70    C    4  S      Ryd( 3S)     0.00034       0.57478
    71    C    4  S      Ryd( 5S)     0.00002      23.33704
    72    C    4  px     Val( 2p)     1.08392      -0.13190
    73    C    4  px     Ryd( 4p)     0.00457       1.04781
    74    C    4  px     Ryd( 3p)     0.00034       0.67339
    75    C    4  px     Ryd( 5p)     0.00013       3.18703
    76    C    4  py     Val( 2p)     1.07964      -0.17403
    77    C    4  py     Ryd( 4p)     0.00350       0.81882
    78    C    4  py     Ryd( 3p)     0.00036       0.60700
    79    C    4  py     Ryd( 5p)     0.00030       2.93254
    80    C    4  pz     Val( 2p)     1.19170      -0.17942
    81    C    4  pz     Ryd( 4p)     0.00221       0.52628
    82    C    4  pz     Ryd( 3p)     0.00030       0.34728
    83    C    4  pz     Ryd( 5p)     0.00001       2.65205
    84    C    4  dxy    Ryd( 3d)     0.00146       2.30596
    85    C    4  dxz    Ryd( 3d)     0.00065       1.61042
    86    C    4  dyz    Ryd( 3d)     0.00088       1.49345
    87    C    4  dx2y2  Ryd( 3d)     0.00142       2.38130
    88    C    4  dz2    Ryd( 3d)     0.00097       1.93915

    89    S    5  S      Cor( 1S)     2.00000     -87.75172
    90    S    5  S      Cor( 2S)     1.99924      -8.87607
    91    S    5  S      Val( 3S)     1.63100      -0.76110
    92    S    5  S      Ryd( 5S)     0.00672       0.85446
    93    S    5  S      Ryd( 4S)     0.00030       0.47377
    94    S    5  S      Ryd( 6S)     0.00000      14.25385
    95    S    5  S      Ryd( 7S)     0.00000     182.19562
    96    S    5  px     Cor( 2p)     1.99986      -5.95343
    97    S    5  px     Val( 3p)     0.92070      -0.20385
    98    S    5  px     Ryd( 5p)     0.00576       0.49384
    99    S    5  px     Ryd( 4p)     0.00054       0.27347
   100    S    5  px     Ryd( 6p)     0.00014       2.25566
   101    S    5  px     Ryd( 7p)     0.00000      16.59456
   102    S    5  py     Cor( 2p)     1.99985      -5.95065
   103    S    5  py     Val( 3p)     1.32362      -0.23352
   104    S    5  py     Ryd( 5p)     0.00158       0.39691
   105    S    5  py     Ryd( 4p)     0.00012       0.16489
   106    S    5  py     Ryd( 6p)     0.00020       2.31728
   107    S    5  py     Ryd( 7p)     0.00000      16.48578
   108    S    5  pz     Cor( 2p)     1.99994      -5.94961
   109    S    5  pz     Val( 3p)     1.59930      -0.27468
   110    S    5  pz     Ryd( 5p)     0.00537       0.34024
   111    S    5  pz     Ryd( 4p)     0.00008       0.17185
   112    S    5  pz     Ryd( 6p)     0.00007       2.13588
   113    S    5  pz     Ryd( 7p)     0.00000      16.63450
   114    S    5  dxy    Ryd( 3d)     0.00840       1.30582
   115    S    5  dxz    Ryd( 3d)     0.00528       0.81683
   116    S    5  dyz    Ryd( 3d)     0.00305       0.83619
   117    S    5  dx2y2  Ryd( 3d)     0.00272       1.12628
   118    S    5  dz2    Ryd( 3d)     0.00280       1.14806

   119    H    6  S      Val( 1S)     0.76207       0.02007
   120    H    6  S      Ryd( 3S)     0.00039       2.13220
   121    H    6  S      Ryd( 2S)     0.00031       0.48805
   122    H    6  px     Ryd( 2p)     0.00039       2.49408
   123    H    6  py     Ryd( 2p)     0.00015       1.97893
   124    H    6  pz     Ryd( 2p)     0.00014       1.53839

   125    H    7  S      Val( 1S)     0.76977       0.02590
   126    H    7  S      Ryd( 2S)     0.00043       0.52321
   127    H    7  S      Ryd( 3S)     0.00024       2.09446
   128    H    7  px     Ryd( 2p)     0.00030       2.28310
   129    H    7  py     Ryd( 2p)     0.00030       2.28263
   130    H    7  pz     Ryd( 2p)     0.00021       1.56243

   131    H    8  S      Val( 1S)     0.76542       0.02438
   132    H    8  S      Ryd( 2S)     0.00040       0.49506
   133    H    8  S      Ryd( 3S)     0.00025       2.11297
   134    H    8  px     Ryd( 2p)     0.00021       2.01300
   135    H    8  py     Ryd( 2p)     0.00040       2.57288
   136    H    8  pz     Ryd( 2p)     0.00020       1.56809

   137    C    9  S      Cor( 1S)     1.99920     -10.08865
   138    C    9  S      Val( 2S)     0.80999      -0.10705
   139    C    9  S      Ryd( 4S)     0.00557       1.04659
   140    C    9  S      Ryd( 3S)     0.00030       0.49503
   141    C    9  S      Ryd( 5S)     0.00004      22.73407
   142    C    9  px     Val( 2p)     1.02829       0.01768
   143    C    9  px     Ryd( 4p)     0.01734       1.16489
   144    C    9  px     Ryd( 3p)     0.00062       0.42218
   145    C    9  px     Ryd( 5p)     0.00011       2.36361
   146    C    9  py     Val( 2p)     0.93702      -0.11070
   147    C    9  py     Ryd( 4p)     0.00512       0.63456
   148    C    9  py     Ryd( 3p)     0.00025       0.42778
   149    C    9  py     Ryd( 5p)     0.00003       2.54663
   150    C    9  pz     Val( 2p)     0.93124      -0.10856
   151    C    9  pz     Ryd( 4p)     0.00058       0.57853
   152    C    9  pz     Ryd( 3p)     0.00041       0.34807
   153    C    9  pz     Ryd( 5p)     0.00012       2.54693
   154    C    9  dxy    Ryd( 3d)     0.00078       2.30877
   155    C    9  dxz    Ryd( 3d)     0.00124       2.21824
   156    C    9  dyz    Ryd( 3d)     0.00008       1.37634
   157    C    9  dx2y2  Ryd( 3d)     0.00038       2.94178
   158    C    9  dz2    Ryd( 3d)     0.00016       1.92103

   159    N   10  S      Cor( 1S)     1.99959     -14.06916
   160    N   10  S      Val( 2S)     1.59096      -0.58017
   161    N   10  S      Ryd( 4S)     0.00506       1.54302
   162    N   10  S      Ryd( 3S)     0.00004       0.92442
   163    N   10  S      Ryd( 5S)     0.00000      35.11910
   164    N   10  px     Val( 2p)     1.50885      -0.18078
   165    N   10  px     Ryd( 3p)     0.00188       0.64555
   166    N   10  px     Ryd( 5p)     0.00015       3.45288
   167    N   10  px     Ryd( 4p)     0.00002       1.72534
   168    N   10  py     Val( 2p)     1.05969      -0.15574
   169    N   10  py     Ryd( 3p)     0.00029       0.61262
   170    N   10  py     Ryd( 5p)     0.00000       2.66438
   171    N   10  py     Ryd( 4p)     0.00001       1.80145
   172    N   10  pz     Val( 2p)     1.11939      -0.15771
   173    N   10  pz     Ryd( 3p)     0.00051       0.58959
   174    N   10  pz     Ryd( 5p)     0.00001       2.67509
   175    N   10  pz     Ryd( 4p)     0.00000       1.73714
   176    N   10  dxy    Ryd( 3d)     0.00344       2.13237
   177    N   10  dxz    Ryd( 3d)     0.00348       2.06842
   178    N   10  dyz    Ryd( 3d)     0.00002       1.96751
   179    N   10  dx2y2  Ryd( 3d)     0.00421       2.46718
   180    N   10  dz2    Ryd( 3d)     0.00143       2.13790

 WARNING:  1 low occupancy (<1.9990e) core orbital  found on  C    4

 WARNING:  Population inversion found on atom  C    1
           Population inversion found on atom  C    2
           Population inversion found on atom  C    3
           Population inversion found on atom  C    4
           Population inversion found on atom  S    5
           Population inversion found on atom  H    6
           Population inversion found on atom  C    9
           Population inversion found on atom  N   10


 Summary of Natural Population Analysis:                  
                                                          
                                       Natural Population 
                Natural  -----------------------------------------------
    Atom  No    Charge         Core      Valence    Rydberg      Total
 -----------------------------------------------------------------------
      C    1   -0.36967      1.99913     4.34909    0.02145     6.36967
      C    2   -0.25513      1.99910     4.23780    0.01822     6.25513
      C    3   -0.18374      1.99903     4.16655    0.01817     6.18374
      C    4   -0.33532      1.99880     4.31646    0.02005     6.33532
      S    5    0.48333      9.99890     5.47462    0.04315    15.51667
      H    6    0.23655      0.00000     0.76207    0.00138     0.76345
      H    7    0.22875      0.00000     0.76977    0.00147     0.77125
      H    8    0.23313      0.00000     0.76542    0.00145     0.76687
      C    9    0.26113      1.99920     3.70655    0.03312     5.73887
      N   10   -0.29904      1.99959     5.27888    0.02057     7.29904
 =======================================================================
   * Total *    0.00000     21.99376    33.82721    0.17903    56.00000

                                 Natural Population      
 --------------------------------------------------------
   Core                      21.99376 ( 99.9716% of  22)
   Valence                   33.82721 ( 99.4918% of  34)
   Natural Minimal Basis     55.82097 ( 99.6803% of  56)
   Natural Rydberg Basis      0.17903 (  0.3197% of  56)
 --------------------------------------------------------

    Atom  No          Natural Electron Configuration
 ----------------------------------------------------------------------------
      C    1      [core]2S( 1.05)2p( 3.30)3p( 0.01)3d( 0.01)4p( 0.01)
      C    2      [core]2S( 0.96)2p( 3.28)4p( 0.01)
      C    3      [core]2S( 0.95)2p( 3.21)4p( 0.01)
      C    4      [core]2S( 0.96)2p( 3.36)3d( 0.01)4p( 0.01)
      S    5      [core]3S( 1.63)3p( 3.84)3d( 0.02)5S( 0.01)5p( 0.01)
      H    6            1S( 0.76)
      H    7            1S( 0.77)
      H    8            1S( 0.77)
      C    9      [core]2S( 0.81)2p( 2.90)4S( 0.01)4p( 0.02)
      N   10      [core]2S( 1.59)2p( 3.69)4S( 0.01)3d( 0.01)


 NBO analysis skipped by request.
 1\1\GINC-COREV2-25-010\SP\RB3LYP\6-311+G(d,p)\C5H3N1S1\ROOT\23-Jul-202
 1\0\\# b3lyp/6-311+g(d,p) geom=connectivity pop=(hirshfeld,chelpg,mbs,
 npa)\\Table6_3\\0,1\C,0,-1.927125,-0.229189,-0.000005\C,0,-1.641145,1.
 109438,-0.000032\C,0,-0.247175,1.37107,0.000046\C,0,0.508868,0.220758,
 -0.000015\S,0,-0.503926,-1.20388,0.000012\H,0,-2.896437,-0.704403,-0.0
 00016\H,0,-2.399435,1.880382,-0.000052\H,0,0.192873,2.358738,0.000072\
 C,0,1.917623,0.116253,-0.000017\N,0,3.071362,0.028196,-0.000007\\Versi
 on=ES64L-G09RevD.01\State=1-A\HF=-645.3387586\RMSD=2.331e-09\Dipole=-1
 .8975489,0.2901401,0.00001\Quadrupole=-4.7325001,5.0710847,-0.3385846,
 0.3038983,0.0000784,0.0000183\PG=C01 [X(C5H3N1S1)]\\@


 SUCCESS IS NEVER CERTAIN,
 FAILURE IS NEVER FINAL.
 Job cpu time:       0 days  0 hours  2 minutes 19.1 seconds.
 File lengths (MBytes):  RWF=     66 Int=      0 D2E=      0 Chk=      2 Scr=      1
 Normal termination of Gaussian 09 at Fri Jul 23 17:35:45 2021.
