 Entering Gaussian System, Link 0=g09
 Initial command:
 /cm/shared/apps/gaussian/g09revD.01/g09/l1.exe "//home/sweav003/CHB/CHActivation_Mkhalid/OtherCharges/G09-Table5_4.com.o9447124.tmp/Gau-30675.inp" -scrdir="//home/sweav003/CHB/CHActivation_Mkhalid/OtherCharges/G09-Table5_4.com.o9447124.tmp/"
 Entering Link 1 = /cm/shared/apps/gaussian/g09revD.01/g09/l1.exe PID=     30676.
  
 Copyright (c) 1988,1990,1992,1993,1995,1998,2003,2009,2013,
            Gaussian, Inc.  All Rights Reserved.
  
 This is part of the Gaussian(R) 09 program.  It is based on
 the Gaussian(R) 03 system (copyright 2003, Gaussian, Inc.),
 the Gaussian(R) 98 system (copyright 1998, Gaussian, Inc.),
 the Gaussian(R) 94 system (copyright 1995, Gaussian, Inc.),
 the Gaussian 92(TM) system (copyright 1992, Gaussian, Inc.),
 the Gaussian 90(TM) system (copyright 1990, Gaussian, Inc.),
 the Gaussian 88(TM) system (copyright 1988, Gaussian, Inc.),
 the Gaussian 86(TM) system (copyright 1986, Carnegie Mellon
 University), and the Gaussian 82(TM) system (copyright 1983,
 Carnegie Mellon University). Gaussian is a federally registered
 trademark of Gaussian, Inc.
  
 This software contains proprietary and confidential information,
 including trade secrets, belonging to Gaussian, Inc.
  
 This software is provided under written license and may be
 used, copied, transmitted, or stored only in accord with that
 written license.
  
 The following legend is applicable only to US Government
 contracts under FAR:
  
                    RESTRICTED RIGHTS LEGEND
  
 Use, reproduction and disclosure by the US Government is
 subject to restrictions as set forth in subparagraphs (a)
 and (c) of the Commercial Computer Software - Restricted
 Rights clause in FAR 52.227-19.
  
 Gaussian, Inc.
 340 Quinnipiac St., Bldg. 40, Wallingford CT 06492
  
  
 ---------------------------------------------------------------
 Warning -- This program may not be used in any manner that
 competes with the business of Gaussian, Inc. or will provide
 assistance to any competitor of Gaussian, Inc.  The licensee
 of this program is prohibited from giving any competitor of
 Gaussian, Inc. access to this program.  By using this program,
 the user acknowledges that Gaussian, Inc. is engaged in the
 business of creating and licensing software in the field of
 computational chemistry and represents and warrants to the
 licensee that it is not a competitor of Gaussian, Inc. and that
 it will not use this program in any manner prohibited above.
 ---------------------------------------------------------------
  

 Cite this work as:
 Gaussian 09, Revision D.01,
 M. J. Frisch, G. W. Trucks, H. B. Schlegel, G. E. Scuseria, 
 M. A. Robb, J. R. Cheeseman, G. Scalmani, V. Barone, B. Mennucci, 
 G. A. Petersson, H. Nakatsuji, M. Caricato, X. Li, H. P. Hratchian, 
 A. F. Izmaylov, J. Bloino, G. Zheng, J. L. Sonnenberg, M. Hada, 
 M. Ehara, K. Toyota, R. Fukuda, J. Hasegawa, M. Ishida, T. Nakajima, 
 Y. Honda, O. Kitao, H. Nakai, T. Vreven, J. A. Montgomery, Jr., 
 J. E. Peralta, F. Ogliaro, M. Bearpark, J. J. Heyd, E. Brothers, 
 K. N. Kudin, V. N. Staroverov, T. Keith, R. Kobayashi, J. Normand, 
 K. Raghavachari, A. Rendell, J. C. Burant, S. S. Iyengar, J. Tomasi, 
 M. Cossi, N. Rega, J. M. Millam, M. Klene, J. E. Knox, J. B. Cross, 
 V. Bakken, C. Adamo, J. Jaramillo, R. Gomperts, R. E. Stratmann, 
 O. Yazyev, A. J. Austin, R. Cammi, C. Pomelli, J. W. Ochterski, 
 R. L. Martin, K. Morokuma, V. G. Zakrzewski, G. A. Voth, 
 P. Salvador, J. J. Dannenberg, S. Dapprich, A. D. Daniels, 
 O. Farkas, J. B. Foresman, J. V. Ortiz, J. Cioslowski, 
 and D. J. Fox, Gaussian, Inc., Wallingford CT, 2013.
 
 ******************************************
 Gaussian 09:  ES64L-G09RevD.01 24-Apr-2013
                23-Jul-2021 
 ******************************************
 %mem=100MW
 %nprocshared=20
 Will use up to   20 processors via shared memory.
 ---------------------------------------------------------------------
 # b3lyp/6-311+g(d,p) geom=connectivity pop=(hirshfeld,chelpg,mbs,npa)
 ---------------------------------------------------------------------
 1/38=1,57=2/1;
 2/12=2,17=6,18=5,40=1/2;
 3/5=4,6=6,7=111,11=2,16=1,25=1,30=1,74=-5/1,2,3;
 4//1;
 5/5=2,38=5/2;
 6/7=2,8=2,9=2,10=2,15=8,20=3,27=100,28=1,40=-1,79=1/1,2,7;
 99/5=1,9=1/99;
 --------
 Table5_4
 --------
 Symbolic Z-matrix:
 Charge =  0 Multiplicity = 1
 6                    -1.68053  -0.22951  -0.00001 
 6                    -1.38599   1.10157   0. 
 6                     0.01993   1.35639   0.00001 
 6                     0.78543   0.22314   0.00002 
 16                   -0.23705  -1.19458   0.00001 
 1                    -2.64838  -0.70663  -0.00005 
 1                    -2.14021   1.87763  -0.00001 
 1                     0.45005   2.35036  0. 
 6                     2.27961   0.10561  -0.00002 
 1                     2.64694  -0.42659   0.88266 
 1                     2.6469   -0.42642  -0.88281 
 1                     2.72688   1.10179   0.00007 
 
                          Input orientation:                          
 ---------------------------------------------------------------------
 Center     Atomic      Atomic             Coordinates (Angstroms)
 Number     Number       Type             X           Y           Z
 ---------------------------------------------------------------------
      1          6           0       -1.680526   -0.229513   -0.000013
      2          6           0       -1.385993    1.101565    0.000000
      3          6           0        0.019930    1.356390    0.000011
      4          6           0        0.785430    0.223142    0.000024
      5         16           0       -0.237054   -1.194579    0.000007
      6          1           0       -2.648379   -0.706632   -0.000050
      7          1           0       -2.140207    1.877625   -0.000012
      8          1           0        0.450047    2.350359   -0.000002
      9          6           0        2.279606    0.105606   -0.000015
     10          1           0        2.646941   -0.426591    0.882659
     11          1           0        2.646898   -0.426424   -0.882807
     12          1           0        2.726881    1.101786    0.000067
 ---------------------------------------------------------------------
                    Distance matrix (angstroms):
                    1          2          3          4          5
     1  C    0.000000
     2  C    1.363275   0.000000
     3  C    2.325218   1.428830   0.000000
     4  C    2.507157   2.342372   1.367568   0.000000
     5  S    1.736365   2.567555   2.563881   1.747972   0.000000
     6  H    1.079065   2.205265   3.372823   3.557460   2.460199
     7  H    2.156696   1.082177   2.222134   3.361051   3.613922
     8  H    3.345905   2.220480   1.083040   2.153493   3.610913
     9  C    3.974286   3.798493   2.582750   1.498792   2.832677
    10  H    4.420964   4.402148   3.295341   2.160190   3.112283
    11  H    4.420939   4.402080   3.295262   2.160183   3.112331
    12  H    4.604084   4.112874   2.718898   2.131020   3.749427
                    6          7          8          9         10
     6  H    0.000000
     7  H    2.633747   0.000000
     8  H    4.352636   2.633039   0.000000
     9  C    4.994474   4.761806   2.895894   0.000000
    10  H    5.375687   5.385657   3.649231   1.094204   0.000000
    11  H    5.375661   5.385568   3.649113   1.094203   1.765466
    12  H    5.671313   4.928536   2.596711   1.091984   1.766719
                   11         12
    11  H    0.000000
    12  H    1.766717   0.000000
 Stoichiometry    C5H6S
 Framework group  C1[X(C5H6S)]
 Deg. of freedom    30
 Full point group                 C1      NOp   1
 Largest Abelian subgroup         C1      NOp   1
 Largest concise Abelian subgroup C1      NOp   1
                         Standard orientation:                         
 ---------------------------------------------------------------------
 Center     Atomic      Atomic             Coordinates (Angstroms)
 Number     Number       Type             X           Y           Z
 ---------------------------------------------------------------------
      1          6           0        1.680526   -0.229513    0.000013
      2          6           0        1.385993    1.101565    0.000000
      3          6           0       -0.019930    1.356390   -0.000011
      4          6           0       -0.785430    0.223142   -0.000024
      5         16           0        0.237054   -1.194579   -0.000007
      6          1           0        2.648379   -0.706632    0.000050
      7          1           0        2.140207    1.877625    0.000012
      8          1           0       -0.450047    2.350359    0.000002
      9          6           0       -2.279606    0.105606    0.000015
     10          1           0       -2.646941   -0.426591   -0.882659
     11          1           0       -2.646898   -0.426424    0.882807
     12          1           0       -2.726881    1.101786   -0.000067
 ---------------------------------------------------------------------
 Rotational constants (GHZ):      5.2495597      3.0920234      1.9697085
 Standard basis: 6-311+G(d,p) (5D, 7F)
 There are   182 symmetry adapted cartesian basis functions of A   symmetry.
 There are   176 symmetry adapted basis functions of A   symmetry.
   176 basis functions,   278 primitive gaussians,   182 cartesian basis functions
    26 alpha electrons       26 beta electrons
       nuclear repulsion energy       272.0037656368 Hartrees.
 NAtoms=   12 NActive=   12 NUniq=   12 SFac= 1.00D+00 NAtFMM=   60 NAOKFM=F Big=F
 Integral buffers will be    131072 words long.
 Raffenetti 2 integral format.
 Two-electron integral symmetry is turned on.
 One-electron integrals computed using PRISM.
 NBasis=   176 RedAO= T EigKep=  9.92D-06  NBF=   176
 NBsUse=   176 1.00D-06 EigRej= -1.00D+00 NBFU=   176
 ExpMin= 4.05D-02 ExpMax= 9.34D+04 ExpMxC= 3.17D+03 IAcc=2 IRadAn=         4 AccDes= 0.00D+00
 Harris functional with IExCor=  402 and IRadAn=       4 diagonalized for initial guess.
 HarFok:  IExCor=  402 AccDes= 0.00D+00 IRadAn=         4 IDoV= 1 UseB2=F ITyADJ=14
 ICtDFT=  3500011 ScaDFX=  1.000000  1.000000  1.000000  1.000000
 FoFCou: FMM=F IPFlag=           0 FMFlag=      100000 FMFlg1=           0
         NFxFlg=           0 DoJE=T BraDBF=F KetDBF=T FulRan=T
         wScrn=  0.000000 ICntrl=     500 IOpCl=  0 I1Cent=   200000004 NGrid=           0
         NMat0=    1 NMatS0=      1 NMatT0=    0 NMatD0=    1 NMtDS0=    0 NMtDT0=    0
 Petite list used in FoFCou.
 Requested convergence on RMS density matrix=1.00D-08 within 128 cycles.
 Requested convergence on MAX density matrix=1.00D-06.
 Requested convergence on             energy=1.00D-06.
 No special actions if energy rises.
 SCF Done:  E(RB3LYP) =  -592.401771653     A.U. after   13 cycles
            NFock= 13  Conv=0.94D-08     -V/T= 2.0025

 **********************************************************************

            Population analysis using the SCF density.

 **********************************************************************

 Orbital symmetries:
       Occupied  (A) (A) (A) (A) (A) (A) (A) (A) (A) (A) (A) (A)
                 (A) (A) (A) (A) (A) (A) (A) (A) (A) (A) (A) (A)
                 (A) (A)
       Virtual   (A) (A) (A) (A) (A) (A) (A) (A) (A) (A) (A) (A)
                 (A) (A) (A) (A) (A) (A) (A) (A) (A) (A) (A) (A)
                 (A) (A) (A) (A) (A) (A) (A) (A) (A) (A) (A) (A)
                 (A) (A) (A) (A) (A) (A) (A) (A) (A) (A) (A) (A)
                 (A) (A) (A) (A) (A) (A) (A) (A) (A) (A) (A) (A)
                 (A) (A) (A) (A) (A) (A) (A) (A) (A) (A) (A) (A)
                 (A) (A) (A) (A) (A) (A) (A) (A) (A) (A) (A) (A)
                 (A) (A) (A) (A) (A) (A) (A) (A) (A) (A) (A) (A)
                 (A) (A) (A) (A) (A) (A) (A) (A) (A) (A) (A) (A)
                 (A) (A) (A) (A) (A) (A) (A) (A) (A) (A) (A) (A)
                 (A) (A) (A) (A) (A) (A) (A) (A) (A) (A) (A) (A)
                 (A) (A) (A) (A) (A) (A) (A) (A) (A) (A) (A) (A)
                 (A) (A) (A) (A) (A) (A)
 The electronic state is 1-A.
 Alpha  occ. eigenvalues --  -88.87281 -10.20740 -10.19681 -10.18179 -10.17643
 Alpha  occ. eigenvalues --  -10.17352  -7.95921  -5.92206  -5.91838  -5.91522
 Alpha  occ. eigenvalues --   -0.88238  -0.76816  -0.73409  -0.68154  -0.56276
 Alpha  occ. eigenvalues --   -0.53846  -0.50390  -0.43348  -0.43314  -0.40904
 Alpha  occ. eigenvalues --   -0.38903  -0.36966  -0.36787  -0.34159  -0.25435
 Alpha  occ. eigenvalues --   -0.23341
 Alpha virt. eigenvalues --   -0.02188   0.00348   0.00765   0.02316   0.02770
 Alpha virt. eigenvalues --    0.03747   0.04264   0.04948   0.05597   0.05731
 Alpha virt. eigenvalues --    0.07660   0.07671   0.08306   0.08844   0.10950
 Alpha virt. eigenvalues --    0.11679   0.11769   0.13728   0.13791   0.13965
 Alpha virt. eigenvalues --    0.15335   0.15504   0.16099   0.18101   0.18699
 Alpha virt. eigenvalues --    0.19380   0.19577   0.19892   0.21370   0.21743
 Alpha virt. eigenvalues --    0.22278   0.22956   0.23698   0.26006   0.27418
 Alpha virt. eigenvalues --    0.30521   0.32551   0.33194   0.37097   0.39701
 Alpha virt. eigenvalues --    0.42380   0.44737   0.45335   0.49098   0.50705
 Alpha virt. eigenvalues --    0.52972   0.54619   0.55404   0.56875   0.57138
 Alpha virt. eigenvalues --    0.59455   0.61442   0.61927   0.63913   0.67431
 Alpha virt. eigenvalues --    0.68239   0.71384   0.72529   0.73293   0.74818
 Alpha virt. eigenvalues --    0.77510   0.78782   0.79494   0.81177   0.82226
 Alpha virt. eigenvalues --    0.83534   0.87515   0.91092   0.96243   0.96445
 Alpha virt. eigenvalues --    0.96632   1.01637   1.04907   1.05146   1.08423
 Alpha virt. eigenvalues --    1.08821   1.27957   1.31057   1.35544   1.38247
 Alpha virt. eigenvalues --    1.41225   1.44845   1.52850   1.53323   1.55631
 Alpha virt. eigenvalues --    1.55808   1.57662   1.59431   1.61712   1.67431
 Alpha virt. eigenvalues --    1.68612   1.69579   1.73359   1.74315   1.79226
 Alpha virt. eigenvalues --    1.81790   1.84611   1.89212   1.89557   1.93657
 Alpha virt. eigenvalues --    1.98095   1.98917   2.03552   2.07877   2.08411
 Alpha virt. eigenvalues --    2.12131   2.17680   2.19603   2.26224   2.35555
 Alpha virt. eigenvalues --    2.38958   2.41655   2.44372   2.49084   2.50008
 Alpha virt. eigenvalues --    2.55778   2.57114   2.59035   2.66573   2.70540
 Alpha virt. eigenvalues --    2.71541   2.73121   2.75532   2.77773   2.79166
 Alpha virt. eigenvalues --    2.89359   2.90424   2.98992   3.11061   3.14119
 Alpha virt. eigenvalues --    3.26871   3.30139   3.34366   3.51093   3.68786
 Alpha virt. eigenvalues --    3.78014   3.83748   4.03094   4.17333   4.39833
 Alpha virt. eigenvalues --    7.94224  17.28981  17.45889  17.49190  23.59945
 Alpha virt. eigenvalues --   23.80646  23.94533  24.12668  24.16577 189.09771
          Condensed to atoms (all electrons):
               1          2          3          4          5          6
     1  C    5.264907   0.477054  -0.049879  -0.184391   0.051065   0.388069
     2  C    0.477054   4.963142   0.453592   0.012693   0.199021   0.000922
     3  C   -0.049879   0.453592   5.096863   0.173473  -0.231294  -0.021620
     4  C   -0.184391   0.012693   0.173473   5.961567   0.424378   0.026892
     5  S    0.051065   0.199021  -0.231294   0.424378  16.193423  -0.038497
     6  H    0.388069   0.000922  -0.021620   0.026892  -0.038497   0.482351
     7  H   -0.006335   0.372276  -0.020763  -0.002448   0.005709  -0.005600
     8  H   -0.004818  -0.013017   0.350666  -0.005553   0.011429  -0.000135
     9  C    0.071601  -0.105050   0.260462  -0.517807  -0.409540   0.004713
    10  H    0.000931  -0.001543  -0.030024  -0.007398   0.005968  -0.000010
    11  H    0.000931  -0.001540  -0.030038  -0.007366   0.005967  -0.000010
    12  H    0.002538   0.004066   0.071024  -0.110679  -0.003662   0.000018
               7          8          9         10         11         12
     1  C   -0.006335  -0.004818   0.071601   0.000931   0.000931   0.002538
     2  C    0.372276  -0.013017  -0.105050  -0.001543  -0.001540   0.004066
     3  C   -0.020763   0.350666   0.260462  -0.030024  -0.030038   0.071024
     4  C   -0.002448  -0.005553  -0.517807  -0.007398  -0.007366  -0.110679
     5  S    0.005709   0.011429  -0.409540   0.005968   0.005967  -0.003662
     6  H   -0.005600  -0.000135   0.004713  -0.000010  -0.000010   0.000018
     7  H    0.533126  -0.004321   0.000356   0.000015   0.000015  -0.000024
     8  H   -0.004321   0.539183   0.004492   0.000086   0.000086   0.001252
     9  C    0.000356   0.004492   5.997430   0.393754   0.393729   0.404574
    10  H    0.000015   0.000086   0.393754   0.542159  -0.035481  -0.024731
    11  H    0.000015   0.000086   0.393729  -0.035481   0.542158  -0.024730
    12  H   -0.000024   0.001252   0.404574  -0.024731  -0.024730   0.532667
 Mulliken charges:
               1
     1  C   -0.011674
     2  C   -0.361617
     3  C   -0.022462
     4  C    0.236639
     5  S   -0.213967
     6  H    0.162907
     7  H    0.127996
     8  H    0.120649
     9  C   -0.498713
    10  H    0.156274
    11  H    0.156280
    12  H    0.147688
 Sum of Mulliken charges =   0.00000
 Mulliken charges with hydrogens summed into heavy atoms:
               1
     1  C    0.151233
     2  C   -0.233621
     3  C    0.098188
     4  C    0.236639
     5  S   -0.213967
     9  C   -0.038471
 Electronic spatial extent (au):  <R**2>=            637.3259
 Charge=              0.0000 electrons
 Dipole moment (field-independent basis, Debye):
    X=             -0.4863    Y=              0.5439    Z=              0.0001  Tot=              0.7296
 Quadrupole moment (field-independent basis, Debye-Ang):
   XX=            -37.9802   YY=            -41.9815   ZZ=            -47.0936
   XY=             -0.4441   XZ=              0.0001   YZ=              0.0000
 Traceless Quadrupole moment (field-independent basis, Debye-Ang):
   XX=              4.3716   YY=              0.3702   ZZ=             -4.7418
   XY=             -0.4441   XZ=              0.0001   YZ=              0.0000
 Octapole moment (field-independent basis, Debye-Ang**2):
  XXX=              3.0991  YYY=              5.3641  ZZZ=              0.0004  XYY=              1.3875
  XXY=             -1.9169  XXZ=              0.0004  XZZ=             -3.9756  YZZ=             -2.6112
  YYZ=              0.0000  XYZ=             -0.0001
 Hexadecapole moment (field-independent basis, Debye-Ang**3):
 XXXX=           -501.3832 YYYY=           -298.0144 ZZZZ=            -66.7205 XXXY=             -4.6758
 XXXZ=              0.0015 YYYX=             -1.9155 YYYZ=              0.0002 ZZZX=             -0.0007
 ZZZY=              0.0001 XXYY=           -127.2829 XXZZ=           -104.4345 YYZZ=            -68.3824
 XXYZ=             -0.0001 YYXZ=              0.0007 ZZXY=              0.8568
 N-N= 2.720037656368D+02 E-N=-1.941043434815D+03  KE= 5.909241490596D+02
 There are a total of       98062 grid points.
 ElSum from          density=       52.0001502631
 ElSum from atomic densities=       52.0002505355

 Hirshfeld populations at iteration   1 (CX, CA, CB, DipXYZ):
               1          2          3          4          5          6
     1  C    0.000001   3.042453   3.042453   0.046840  -0.065925   0.000002
     2  C    0.000001   3.036114   3.036114   0.036187   0.109811  -0.000001
     3  C    0.000001   3.039362   3.039362   0.003863   0.109015   0.000003
     4  C    0.000000   3.013053   3.013053  -0.083307  -0.051512   0.000000
     5  S    0.000002   7.968152   7.968152   0.002821   0.043167   0.000002
     6  H    0.000004   0.472195   0.472195   0.164131  -0.072236   0.000007
     7  H    0.000003   0.474136   0.474136   0.113434   0.120330   0.000002
     8  H    0.000002   0.475395   0.475395  -0.060254   0.151027   0.000003
     9  C    0.000000   3.047742   3.047742  -0.005873   0.008717   0.000000
    10  H    0.000002   0.477723   0.477723  -0.059098  -0.071608  -0.121825
    11  H    0.000002   0.477723   0.477723  -0.059092  -0.071585   0.121842
    12  H    0.000001   0.476026   0.476026  -0.066709   0.137973  -0.000011
       Tot   0.000017  26.000075  26.000075   0.032942   0.347174   0.000024

 Dip from Atomic Chgs             -0.224365  -0.133311   0.000010
         Total Dipole             -0.191423   0.213863   0.000035

 Hirshfeld charges, spin densities, dipoles, and CM5 charges using IRadAn=      4:
              Q-H        S-H        Dx         Dy         Dz        Q-CM5   
     1  C   -0.084906   0.000000   0.046840  -0.065925   0.000002  -0.151207
     2  C   -0.072228   0.000000   0.036187   0.109811  -0.000001  -0.128670
     3  C   -0.078725   0.000000   0.003863   0.109015   0.000003  -0.133414
     4  C   -0.026107   0.000000  -0.083307  -0.051512   0.000000  -0.053434
     5  S    0.063696   0.000000   0.002821   0.043167   0.000002   0.086729
     6  H    0.055610   0.000000   0.164131  -0.072236   0.000007   0.112084
     7  H    0.051727   0.000000   0.113434   0.120330   0.000002   0.107167
     8  H    0.049209   0.000000  -0.060254   0.151027   0.000003   0.105135
     9  C   -0.095485   0.000000  -0.005873   0.008717   0.000000  -0.237247
    10  H    0.044554   0.000000  -0.059098  -0.071608  -0.121825   0.096263
    11  H    0.044554   0.000000  -0.059092  -0.071585   0.121842   0.096263
    12  H    0.047949   0.000000  -0.066709   0.137973  -0.000011   0.100181
       Tot  -0.000150   0.000000   0.032942   0.347174   0.000024  -0.000150
 Hirshfeld charges with hydrogens summed into heavy atoms:
              Q-H       Q-CM5   
     1  C   -0.029296  -0.039123
     2  C   -0.020500  -0.021503
     3  C   -0.029516  -0.028279
     4  C   -0.026107  -0.053434
     5  S    0.063696   0.086729
     9  C    0.041572   0.055460
 
 EQQ= 0.000000000000E+00 EQD= 0.000000000000E+00 EDD= 0.534195988042E-02
 EQQ+QD+DD= 0.534195988042E-02
 
          MBS Condensed to atoms (all electrons):
               1          2          3          4          5          6
     1  C    4.964863   0.543504  -0.047321  -0.030611   0.361416   0.386049
     2  C    0.543504   4.848523   0.469735  -0.044896  -0.041404  -0.018937
     3  C   -0.047321   0.469735   4.871624   0.542345  -0.043470   0.001602
     4  C   -0.030611  -0.044896   0.542345   4.907666   0.356782   0.000833
     5  S    0.361416  -0.041404  -0.043470   0.356782  15.375807  -0.019652
     6  H    0.386049  -0.018937   0.001602   0.000833  -0.019652   0.518519
     7  H   -0.022263   0.387531  -0.021301   0.001561   0.001370  -0.002277
     8  H    0.001637  -0.021478   0.386317  -0.023365   0.001405  -0.000032
     9  C    0.000473   0.000935  -0.021900   0.387771  -0.020451  -0.000006
    10  H    0.000010  -0.000022   0.000515  -0.022650  -0.001241   0.000000
    11  H    0.000010  -0.000022   0.000514  -0.022651  -0.001241   0.000000
    12  H   -0.000018   0.000029  -0.003982  -0.020876   0.001030   0.000000
               7          8          9         10         11         12
     1  C   -0.022263   0.001637   0.000473   0.000010   0.000010  -0.000018
     2  C    0.387531  -0.021478   0.000935  -0.000022  -0.000022   0.000029
     3  C   -0.021301   0.386317  -0.021900   0.000515   0.000514  -0.003982
     4  C    0.001561  -0.023365   0.387771  -0.022650  -0.022651  -0.020876
     5  S    0.001370   0.001405  -0.020451  -0.001241  -0.001241   0.001030
     6  H   -0.002277  -0.000032  -0.000006   0.000000   0.000000   0.000000
     7  H    0.542765  -0.001700  -0.000013   0.000000   0.000000  -0.000002
     8  H   -0.001700   0.550033  -0.002280   0.000026   0.000026   0.000970
     9  C   -0.000013  -0.002280   4.786290   0.374172   0.374171   0.375967
    10  H    0.000000   0.000026   0.374172   0.587540  -0.023195  -0.021270
    11  H    0.000000   0.000026   0.374171  -0.023195   0.587540  -0.021270
    12  H   -0.000002   0.000970   0.375967  -0.021270  -0.021270   0.585017
 MBS Mulliken charges:
               1
     1  C   -0.157749
     2  C   -0.123496
     3  C   -0.134680
     4  C   -0.031908
     5  S    0.029649
     6  H    0.133902
     7  H    0.114330
     8  H    0.108442
     9  C   -0.255128
    10  H    0.106117
    11  H    0.106119
    12  H    0.104403
 Sum of MBS Mulliken charges =   0.00000
 MBS Mulliken charges with hydrogens summed into heavy atoms:
               1
     1  C   -0.023847
     2  C   -0.009166
     3  C   -0.026238
     4  C   -0.031908
     5  S    0.029649
     9  C    0.061510
 Breneman (CHELPG) radii used.
 Generate Potential Derived Charges using the Breneman model, NDens= 1.
 Grid spacing= 0.300 Box extension= 2.800
 NStep X,Y,Z=   38     31     26   Total possible points=       30628
 Number of Points to Fit=    9478

 **********************************************************************

            Electrostatic Properties Using The SCF Density

 **********************************************************************

       Atomic Center    1 is at   1.680526 -0.229513  0.000013
       Atomic Center    2 is at   1.385993  1.101565  0.000000
       Atomic Center    3 is at  -0.019930  1.356390 -0.000011
       Atomic Center    4 is at  -0.785430  0.223142 -0.000024
       Atomic Center    5 is at   0.237054 -1.194579 -0.000007
       Atomic Center    6 is at   2.648379 -0.706632  0.000050
       Atomic Center    7 is at   2.140207  1.877625  0.000012
       Atomic Center    8 is at  -0.450047  2.350359  0.000002
       Atomic Center    9 is at  -2.279606  0.105606  0.000015
       Atomic Center   10 is at  -2.646941 -0.426591 -0.882659
       Atomic Center   11 is at  -2.646898 -0.426424  0.882807
       Atomic Center   12 is at  -2.726881  1.101786 -0.000067
    9478 points will be used for fitting atomic charges
 Fitting point charges to electrostatic potential
 Charges from ESP fit, RMS=   0.00433 RRMS=   0.47435:
 ESP charges:
               1
     1  C   -0.229270
     2  C   -0.047859
     3  C   -0.196424
     4  C    0.048309
     5  S   -0.020640
     6  H    0.172590
     7  H    0.086366
     8  H    0.127820
     9  C   -0.064241
    10  H    0.045882
    11  H    0.045875
    12  H    0.031592
 Sum of ESP charges =   0.00000
 ESP charges with hydrogens summed into heavy atoms:
               1
     1  C   -0.056681
     2  C    0.038507
     3  C   -0.068603
     4  C    0.048309
     5  S   -0.020640
     9  C    0.059108
 Charge=   0.00000 Dipole=    -0.4262     0.4728     0.0000 Tot=     0.6365
 -----------------------------------------------------------------

              Electrostatic Properties (Atomic Units)

 -----------------------------------------------------------------
    Center     Electric         -------- Electric Field --------
               Potential          X             Y             Z
 -----------------------------------------------------------------
    1 Atom    -14.754651
    2 Atom    -14.774636
    3 Atom    -14.777522
    4 Atom    -14.743748
    5 Atom    -59.221538
    6 Atom     -1.084573
    7 Atom     -1.100130
    8 Atom     -1.100454
    9 Atom    -14.763404
   10 Atom     -1.108133
   11 Atom     -1.108134
   12 Atom     -1.106107
 -----------------------------------------------------------------
 ******************************Gaussian NBO Version 3.1******************************
             N A T U R A L   A T O M I C   O R B I T A L   A N D
          N A T U R A L   B O N D   O R B I T A L   A N A L Y S I S
 ******************************Gaussian NBO Version 3.1******************************
       /RESON  / : Allow strongly delocalized NBO set

 Analyzing the SCF density

 Job title: Table5_4                                                        

 Storage needed:     93842 in NPA ( 104856760 available)


 NATURAL POPULATIONS:  Natural atomic orbital occupancies 
                                                          
   NAO  Atom  No  lang   Type(AO)    Occupancy      Energy
 ----------------------------------------------------------
     1    C    1  S      Cor( 1S)     1.99911     -10.06992
     2    C    1  S      Val( 2S)     1.04266      -0.26256
     3    C    1  S      Ryd( 4S)     0.00119       0.65751
     4    C    1  S      Ryd( 3S)     0.00077       0.56113
     5    C    1  S      Ryd( 5S)     0.00001      23.38869
     6    C    1  px     Val( 2p)     1.10984      -0.10891
     7    C    1  px     Ryd( 4p)     0.00444       0.83674
     8    C    1  px     Ryd( 3p)     0.00063       0.70868
     9    C    1  px     Ryd( 5p)     0.00008       2.71371
    10    C    1  py     Val( 2p)     1.07764      -0.10139
    11    C    1  py     Ryd( 3p)     0.00532       0.54095
    12    C    1  py     Ryd( 4p)     0.00033       0.58543
    13    C    1  py     Ryd( 5p)     0.00027       2.94502
    14    C    1  pz     Val( 2p)     1.14290      -0.14414
    15    C    1  pz     Ryd( 3p)     0.00267       0.44943
    16    C    1  pz     Ryd( 4p)     0.00039       0.45952
    17    C    1  pz     Ryd( 5p)     0.00001       2.54804
    18    C    1  dxy    Ryd( 3d)     0.00181       2.20584
    19    C    1  dxz    Ryd( 3d)     0.00083       1.49795
    20    C    1  dyz    Ryd( 3d)     0.00070       1.60581
    21    C    1  dx2y2  Ryd( 3d)     0.00077       2.30626
    22    C    1  dz2    Ryd( 3d)     0.00102       1.90174

    23    C    2  S      Cor( 1S)     1.99910     -10.02832
    24    C    2  S      Val( 2S)     0.95687      -0.16571
    25    C    2  S      Ryd( 3S)     0.00217       0.60145
    26    C    2  S      Ryd( 4S)     0.00021       0.82924
    27    C    2  S      Ryd( 5S)     0.00001      23.08173
    28    C    2  px     Val( 2p)     1.10497      -0.05073
    29    C    2  px     Ryd( 4p)     0.00491       0.83640
    30    C    2  px     Ryd( 3p)     0.00046       0.31339
    31    C    2  px     Ryd( 5p)     0.00011       3.10333
    32    C    2  py     Val( 2p)     1.13453      -0.07062
    33    C    2  py     Ryd( 4p)     0.00559       0.87247
    34    C    2  py     Ryd( 3p)     0.00048       0.32212
    35    C    2  py     Ryd( 5p)     0.00012       3.10255
    36    C    2  pz     Val( 2p)     1.03809      -0.10928
    37    C    2  pz     Ryd( 4p)     0.00154       0.52941
    38    C    2  pz     Ryd( 3p)     0.00038       0.27497
    39    C    2  pz     Ryd( 5p)     0.00002       2.68488
    40    C    2  dxy    Ryd( 3d)     0.00073       2.42321
    41    C    2  dxz    Ryd( 3d)     0.00052       1.62841
    42    C    2  dyz    Ryd( 3d)     0.00058       1.65710
    43    C    2  dx2y2  Ryd( 3d)     0.00070       2.60179
    44    C    2  dz2    Ryd( 3d)     0.00042       2.02898

    45    C    3  S      Cor( 1S)     1.99894     -10.02219
    46    C    3  S      Val( 2S)     0.94805      -0.15256
    47    C    3  S      Ryd( 3S)     0.00159       0.67038
    48    C    3  S      Ryd( 4S)     0.00026       0.78395
    49    C    3  S      Ryd( 5S)     0.00001      23.14430
    50    C    3  px     Val( 2p)     1.07022      -0.05522
    51    C    3  px     Ryd( 4p)     0.00480       0.76333
    52    C    3  px     Ryd( 3p)     0.00052       0.39969
    53    C    3  px     Ryd( 5p)     0.00013       3.12823
    54    C    3  py     Val( 2p)     1.17449      -0.06993
    55    C    3  py     Ryd( 4p)     0.00509       0.92737
    56    C    3  py     Ryd( 3p)     0.00042       0.39717
    57    C    3  py     Ryd( 5p)     0.00008       3.10018
    58    C    3  pz     Val( 2p)     1.05636      -0.10866
    59    C    3  pz     Ryd( 4p)     0.00171       0.50779
    60    C    3  pz     Ryd( 3p)     0.00045       0.27537
    61    C    3  pz     Ryd( 5p)     0.00002       2.71151
    62    C    3  dxy    Ryd( 3d)     0.00080       2.54231
    63    C    3  dxz    Ryd( 3d)     0.00054       1.63754
    64    C    3  dyz    Ryd( 3d)     0.00056       1.65494
    65    C    3  dx2y2  Ryd( 3d)     0.00068       2.49405
    66    C    3  dz2    Ryd( 3d)     0.00042       2.03217

    67    C    4  S      Cor( 1S)     1.99903     -10.07888
    68    C    4  S      Val( 2S)     0.96962      -0.23255
    69    C    4  S      Ryd( 4S)     0.00227       0.71007
    70    C    4  S      Ryd( 3S)     0.00033       0.55553
    71    C    4  S      Ryd( 5S)     0.00001      23.38302
    72    C    4  px     Val( 2p)     1.05725      -0.09831
    73    C    4  px     Ryd( 4p)     0.00460       0.93437
    74    C    4  px     Ryd( 3p)     0.00049       0.55284
    75    C    4  px     Ryd( 5p)     0.00015       3.31016
    76    C    4  py     Val( 2p)     1.03956      -0.12072
    77    C    4  py     Ryd( 4p)     0.00482       0.69726
    78    C    4  py     Ryd( 3p)     0.00050       0.47562
    79    C    4  py     Ryd( 5p)     0.00023       3.09304
    80    C    4  pz     Val( 2p)     1.10864      -0.13485
    81    C    4  pz     Ryd( 4p)     0.00287       0.52736
    82    C    4  pz     Ryd( 3p)     0.00056       0.33891
    83    C    4  pz     Ryd( 5p)     0.00002       2.70465
    84    C    4  dxy    Ryd( 3d)     0.00181       2.29899
    85    C    4  dxz    Ryd( 3d)     0.00090       1.63249
    86    C    4  dyz    Ryd( 3d)     0.00079       1.54262
    87    C    4  dx2y2  Ryd( 3d)     0.00091       2.23420
    88    C    4  dz2    Ryd( 3d)     0.00090       1.91118

    89    S    5  S      Cor( 1S)     2.00000     -87.69188
    90    S    5  S      Cor( 2S)     1.99918      -8.84865
    91    S    5  S      Val( 3S)     1.62268      -0.72902
    92    S    5  S      Ryd( 5S)     0.00669       0.83765
    93    S    5  S      Ryd( 4S)     0.00035       0.43203
    94    S    5  S      Ryd( 6S)     0.00000      14.24530
    95    S    5  S      Ryd( 7S)     0.00000     182.23378
    96    S    5  px     Cor( 2p)     1.99986      -5.91332
    97    S    5  px     Val( 3p)     0.94269      -0.17138
    98    S    5  px     Ryd( 5p)     0.00620       0.48845
    99    S    5  px     Ryd( 4p)     0.00039       0.43955
   100    S    5  px     Ryd( 6p)     0.00013       2.13389
   101    S    5  px     Ryd( 7p)     0.00000      16.60660
   102    S    5  py     Cor( 2p)     1.99985      -5.91051
   103    S    5  py     Val( 3p)     1.35696      -0.20403
   104    S    5  py     Ryd( 5p)     0.00186       0.39918
   105    S    5  py     Ryd( 4p)     0.00011       0.34360
   106    S    5  py     Ryd( 6p)     0.00021       2.22371
   107    S    5  py     Ryd( 7p)     0.00000      16.50253
   108    S    5  pz     Cor( 2p)     1.99995      -5.90951
   109    S    5  pz     Val( 3p)     1.63385      -0.24262
   110    S    5  pz     Ryd( 4p)     0.00603       0.35070
   111    S    5  pz     Ryd( 5p)     0.00011       0.41135
   112    S    5  pz     Ryd( 6p)     0.00007       1.97147
   113    S    5  pz     Ryd( 7p)     0.00000      16.65237
   114    S    5  dxy    Ryd( 3d)     0.00814       1.32599
   115    S    5  dxz    Ryd( 3d)     0.00511       0.85132
   116    S    5  dyz    Ryd( 3d)     0.00286       0.86701
   117    S    5  dx2y2  Ryd( 3d)     0.00301       1.12335
   118    S    5  dz2    Ryd( 3d)     0.00274       1.16356

   119    H    6  S      Val( 1S)     0.77170       0.04732
   120    H    6  S      Ryd( 2S)     0.00040       0.80198
   121    H    6  S      Ryd( 3S)     0.00038       1.87432
   122    H    6  px     Ryd( 2p)     0.00039       2.51492
   123    H    6  py     Ryd( 2p)     0.00015       2.00798
   124    H    6  pz     Ryd( 2p)     0.00019       1.56848

   125    H    7  S      Val( 1S)     0.78041       0.05014
   126    H    7  S      Ryd( 2S)     0.00055       0.51984
   127    H    7  S      Ryd( 3S)     0.00023       2.14926
   128    H    7  px     Ryd( 2p)     0.00030       2.30392
   129    H    7  py     Ryd( 2p)     0.00030       2.30940
   130    H    7  pz     Ryd( 2p)     0.00024       1.58926

   131    H    8  S      Val( 1S)     0.78233       0.04666
   132    H    8  S      Ryd( 2S)     0.00062       0.81229
   133    H    8  S      Ryd( 3S)     0.00024       1.85487
   134    H    8  px     Ryd( 2p)     0.00019       2.04076
   135    H    8  py     Ryd( 2p)     0.00042       2.59721
   136    H    8  pz     Ryd( 2p)     0.00023       1.59286

   137    C    9  S      Cor( 1S)     1.99926     -10.03456
   138    C    9  S      Val( 2S)     1.07544      -0.25121
   139    C    9  S      Ryd( 4S)     0.00131       0.92972
   140    C    9  S      Ryd( 3S)     0.00016       0.44404
   141    C    9  S      Ryd( 5S)     0.00000      23.41943
   142    C    9  px     Val( 2p)     1.07894      -0.10128
   143    C    9  px     Ryd( 4p)     0.00148       0.48199
   144    C    9  px     Ryd( 3p)     0.00026       0.18564
   145    C    9  px     Ryd( 5p)     0.00011       3.06994
   146    C    9  py     Val( 2p)     1.22191      -0.10673
   147    C    9  py     Ryd( 4p)     0.00356       0.50501
   148    C    9  py     Ryd( 3p)     0.00010       0.22490
   149    C    9  py     Ryd( 5p)     0.00003       3.11953
   150    C    9  pz     Val( 2p)     1.21291      -0.10563
   151    C    9  pz     Ryd( 4p)     0.00138       0.48495
   152    C    9  pz     Ryd( 3p)     0.00009       0.18295
   153    C    9  pz     Ryd( 5p)     0.00006       3.10518
   154    C    9  dxy    Ryd( 3d)     0.00045       2.06430
   155    C    9  dxz    Ryd( 3d)     0.00056       1.90815
   156    C    9  dyz    Ryd( 3d)     0.00074       2.05325
   157    C    9  dx2y2  Ryd( 3d)     0.00071       2.18477
   158    C    9  dz2    Ryd( 3d)     0.00069       2.09798

   159    H   10  S      Val( 1S)     0.78360       0.02631
   160    H   10  S      Ryd( 2S)     0.00075       0.62591
   161    H   10  S      Ryd( 3S)     0.00010       2.13479
   162    H   10  px     Ryd( 2p)     0.00017       1.79491
   163    H   10  py     Ryd( 2p)     0.00013       1.98116
   164    H   10  pz     Ryd( 2p)     0.00023       2.35834

   165    H   11  S      Val( 1S)     0.78360       0.02631
   166    H   11  S      Ryd( 2S)     0.00075       0.62591
   167    H   11  S      Ryd( 3S)     0.00010       2.13479
   168    H   11  px     Ryd( 2p)     0.00017       1.79488
   169    H   11  py     Ryd( 2p)     0.00013       1.98104
   170    H   11  pz     Ryd( 2p)     0.00023       2.35850

   171    H   12  S      Val( 1S)     0.78194       0.02619
   172    H   12  S      Ryd( 2S)     0.00072       0.76809
   173    H   12  S      Ryd( 3S)     0.00010       1.94789
   174    H   12  px     Ryd( 2p)     0.00017       1.87439
   175    H   12  py     Ryd( 2p)     0.00024       2.53908
   176    H   12  pz     Ryd( 2p)     0.00009       1.71426

 WARNING:  1 low occupancy (<1.9990e) core orbital  found on  C    3

 WARNING:  Population inversion found on atom  C    1
           Population inversion found on atom  C    2
           Population inversion found on atom  C    3
           Population inversion found on atom  C    4
           Population inversion found on atom  S    5
           Population inversion found on atom  C    9


 Summary of Natural Population Analysis:                  
                                                          
                                       Natural Population 
                Natural  -----------------------------------------------
    Atom  No    Charge         Core      Valence    Rydberg      Total
 -----------------------------------------------------------------------
      C    1   -0.39336      1.99911     4.37303    0.02122     6.39336
      C    2   -0.25251      1.99910     4.23447    0.01895     6.25251
      C    3   -0.26614      1.99894     4.24912    0.01809     6.26614
      C    4   -0.19626      1.99903     4.17507    0.02216     6.19626
      S    5    0.40092      9.99884     5.55619    0.04404    15.59908
      H    6    0.22681      0.00000     0.77170    0.00150     0.77319
      H    7    0.21797      0.00000     0.78041    0.00162     0.78203
      H    8    0.21597      0.00000     0.78233    0.00170     0.78403
      C    9   -0.60016      1.99926     4.58920    0.01170     6.60016
      H   10    0.21501      0.00000     0.78360    0.00138     0.78499
      H   11    0.21502      0.00000     0.78360    0.00138     0.78498
      H   12    0.21674      0.00000     0.78194    0.00133     0.78326
 =======================================================================
   * Total *    0.00000     19.99428    31.86065    0.14507    52.00000

                                 Natural Population      
 --------------------------------------------------------
   Core                      19.99428 ( 99.9714% of  20)
   Valence                   31.86065 ( 99.5645% of  32)
   Natural Minimal Basis     51.85493 ( 99.7210% of  52)
   Natural Rydberg Basis      0.14507 (  0.2790% of  52)
 --------------------------------------------------------

    Atom  No          Natural Electron Configuration
 ----------------------------------------------------------------------------
      C    1      [core]2S( 1.04)2p( 3.33)3p( 0.01)3d( 0.01)4p( 0.01)
      C    2      [core]2S( 0.96)2p( 3.28)4p( 0.01)
      C    3      [core]2S( 0.95)2p( 3.30)4p( 0.01)
      C    4      [core]2S( 0.97)2p( 3.21)3d( 0.01)4p( 0.01)
      S    5      [core]3S( 1.62)3p( 3.93)3d( 0.02)4p( 0.01)5S( 0.01)5p( 0.01)
      H    6            1S( 0.77)
      H    7            1S( 0.78)
      H    8            1S( 0.78)
      C    9      [core]2S( 1.08)2p( 3.51)4p( 0.01)
      H   10            1S( 0.78)
      H   11            1S( 0.78)
      H   12            1S( 0.78)


 NBO analysis skipped by request.
 1\1\GINC-COREV2-22-035\SP\RB3LYP\6-311+G(d,p)\C5H6S1\ROOT\23-Jul-2021\
 0\\# b3lyp/6-311+g(d,p) geom=connectivity pop=(hirshfeld,chelpg,mbs,np
 a)\\Table5_4\\0,1\C,0,-1.680526,-0.229513,-0.000013\C,0,-1.385993,1.10
 1565,0.\C,0,0.01993,1.35639,0.000011\C,0,0.78543,0.223142,0.000024\S,0
 ,-0.237054,-1.194579,0.000007\H,0,-2.648379,-0.706632,-0.00005\H,0,-2.
 140207,1.877625,-0.000012\H,0,0.450047,2.350359,-0.000002\C,0,2.279606
 ,0.105606,-0.000015\H,0,2.646941,-0.426591,0.882659\H,0,2.646898,-0.42
 6424,-0.882807\H,0,2.726881,1.101786,0.000067\\Version=ES64L-G09RevD.0
 1\State=1-A\HF=-592.4017717\RMSD=9.418e-09\Dipole=0.1913356,0.2139792,
 -0.0000348\Quadrupole=3.2501716,0.2752625,-3.5254341,0.3301856,0.00007
 58,-0.0000145\PG=C01 [X(C5H6S1)]\\@


 ON A TOMBSTONE, "HERE LIES LESTER MOORE,
 FOUR SLUGS FROM A 44, NO LES, NO MORE".
 Job cpu time:       0 days  0 hours  2 minutes 53.9 seconds.
 File lengths (MBytes):  RWF=     66 Int=      0 D2E=      0 Chk=      2 Scr=      1
 Normal termination of Gaussian 09 at Fri Jul 23 17:34:26 2021.
