 Entering Gaussian System, Link 0=g09
 Initial command:
 /cm/shared/apps/gaussian/g09revD.01/g09/l1.exe "//home/sweav003/CHB/CHActivation_Mkhalid/OtherCharges/G09-Chart2_4.com.o9447069.tmp/Gau-49655.inp" -scrdir="//home/sweav003/CHB/CHActivation_Mkhalid/OtherCharges/G09-Chart2_4.com.o9447069.tmp/"
 Entering Link 1 = /cm/shared/apps/gaussian/g09revD.01/g09/l1.exe PID=     49656.
  
 Copyright (c) 1988,1990,1992,1993,1995,1998,2003,2009,2013,
            Gaussian, Inc.  All Rights Reserved.
  
 This is part of the Gaussian(R) 09 program.  It is based on
 the Gaussian(R) 03 system (copyright 2003, Gaussian, Inc.),
 the Gaussian(R) 98 system (copyright 1998, Gaussian, Inc.),
 the Gaussian(R) 94 system (copyright 1995, Gaussian, Inc.),
 the Gaussian 92(TM) system (copyright 1992, Gaussian, Inc.),
 the Gaussian 90(TM) system (copyright 1990, Gaussian, Inc.),
 the Gaussian 88(TM) system (copyright 1988, Gaussian, Inc.),
 the Gaussian 86(TM) system (copyright 1986, Carnegie Mellon
 University), and the Gaussian 82(TM) system (copyright 1983,
 Carnegie Mellon University). Gaussian is a federally registered
 trademark of Gaussian, Inc.
  
 This software contains proprietary and confidential information,
 including trade secrets, belonging to Gaussian, Inc.
  
 This software is provided under written license and may be
 used, copied, transmitted, or stored only in accord with that
 written license.
  
 The following legend is applicable only to US Government
 contracts under FAR:
  
                    RESTRICTED RIGHTS LEGEND
  
 Use, reproduction and disclosure by the US Government is
 subject to restrictions as set forth in subparagraphs (a)
 and (c) of the Commercial Computer Software - Restricted
 Rights clause in FAR 52.227-19.
  
 Gaussian, Inc.
 340 Quinnipiac St., Bldg. 40, Wallingford CT 06492
  
  
 ---------------------------------------------------------------
 Warning -- This program may not be used in any manner that
 competes with the business of Gaussian, Inc. or will provide
 assistance to any competitor of Gaussian, Inc.  The licensee
 of this program is prohibited from giving any competitor of
 Gaussian, Inc. access to this program.  By using this program,
 the user acknowledges that Gaussian, Inc. is engaged in the
 business of creating and licensing software in the field of
 computational chemistry and represents and warrants to the
 licensee that it is not a competitor of Gaussian, Inc. and that
 it will not use this program in any manner prohibited above.
 ---------------------------------------------------------------
  

 Cite this work as:
 Gaussian 09, Revision D.01,
 M. J. Frisch, G. W. Trucks, H. B. Schlegel, G. E. Scuseria, 
 M. A. Robb, J. R. Cheeseman, G. Scalmani, V. Barone, B. Mennucci, 
 G. A. Petersson, H. Nakatsuji, M. Caricato, X. Li, H. P. Hratchian, 
 A. F. Izmaylov, J. Bloino, G. Zheng, J. L. Sonnenberg, M. Hada, 
 M. Ehara, K. Toyota, R. Fukuda, J. Hasegawa, M. Ishida, T. Nakajima, 
 Y. Honda, O. Kitao, H. Nakai, T. Vreven, J. A. Montgomery, Jr., 
 J. E. Peralta, F. Ogliaro, M. Bearpark, J. J. Heyd, E. Brothers, 
 K. N. Kudin, V. N. Staroverov, T. Keith, R. Kobayashi, J. Normand, 
 K. Raghavachari, A. Rendell, J. C. Burant, S. S. Iyengar, J. Tomasi, 
 M. Cossi, N. Rega, J. M. Millam, M. Klene, J. E. Knox, J. B. Cross, 
 V. Bakken, C. Adamo, J. Jaramillo, R. Gomperts, R. E. Stratmann, 
 O. Yazyev, A. J. Austin, R. Cammi, C. Pomelli, J. W. Ochterski, 
 R. L. Martin, K. Morokuma, V. G. Zakrzewski, G. A. Voth, 
 P. Salvador, J. J. Dannenberg, S. Dapprich, A. D. Daniels, 
 O. Farkas, J. B. Foresman, J. V. Ortiz, J. Cioslowski, 
 and D. J. Fox, Gaussian, Inc., Wallingford CT, 2013.
 
 ******************************************
 Gaussian 09:  ES64L-G09RevD.01 24-Apr-2013
                23-Jul-2021 
 ******************************************
 %mem=100MW
 %nprocshared=20
 Will use up to   20 processors via shared memory.
 ---------------------------------------------------------------------
 # b3lyp/6-311+g(d,p) geom=connectivity pop=(hirshfeld,chelpg,mbs,npa)
 ---------------------------------------------------------------------
 1/38=1,57=2/1;
 2/12=2,17=6,18=5,40=1/2;
 3/5=4,6=6,7=111,11=2,16=1,25=1,30=1,74=-5/1,2,3;
 4//1;
 5/5=2,38=5/2;
 6/7=2,8=2,9=2,10=2,15=8,20=3,27=100,28=1,40=-1,79=1/1,2,7;
 99/5=1,9=1/99;
 --------
 Chart2_4
 --------
 Symbolic Z-matrix:
 Charge =  0 Multiplicity = 1
 6                     0.5053   -0.58448   0.00064 
 6                     1.65607   0.43045   0.0001 
 1                     0.61734  -1.23645   0.87728 
 1                     0.6176   -1.23776  -0.875 
 6                     3.03044  -0.24817  -0.00002 
 1                     1.58102   1.08267  -0.87649 
 1                     1.58136   1.08308   0.87642 
 1                     3.83889   0.48842  -0.0003 
 1                     3.15944  -0.8823    0.88291 
 1                     3.15911  -0.8826   -0.88279 
 6                    -1.20408   0.82341   1.25778 
 6                    -1.91105  -1.22515   0.00069 
 1                    -0.57709   1.71852   1.28391 
 1                    -2.24737   1.15318   1.29025 
 1                    -1.00856   0.24917   2.16936 
 1                    -1.76188  -1.85318  -0.88334 
 1                    -1.76193  -1.85205   0.88555 
 1                    -2.95257  -0.8887    0.00046 
 6                    -0.94211  -0.027    -0.00001 
 6                    -1.20361   0.8216   -1.25912 
 1                    -2.24706   1.15071  -1.29285 
 1                    -0.57709   1.71702  -1.28593 
 1                    -1.00702   0.24625  -2.16978 
 
                          Input orientation:                          
 ---------------------------------------------------------------------
 Center     Atomic      Atomic             Coordinates (Angstroms)
 Number     Number       Type             X           Y           Z
 ---------------------------------------------------------------------
      1          6           0        0.505299   -0.584475    0.000637
      2          6           0        1.656065    0.430448    0.000101
      3          1           0        0.617342   -1.236451    0.877284
      4          1           0        0.617602   -1.237760   -0.875002
      5          6           0        3.030445   -0.248168   -0.000024
      6          1           0        1.581015    1.082667   -0.876485
      7          1           0        1.581358    1.083081    0.876418
      8          1           0        3.838891    0.488423   -0.000295
      9          1           0        3.159440   -0.882303    0.882912
     10          1           0        3.159114   -0.882603   -0.882793
     11          6           0       -1.204083    0.823408    1.257779
     12          6           0       -1.911045   -1.225147    0.000694
     13          1           0       -0.577092    1.718517    1.283906
     14          1           0       -2.247372    1.153184    1.290246
     15          1           0       -1.008556    0.249165    2.169365
     16          1           0       -1.761880   -1.853181   -0.883344
     17          1           0       -1.761929   -1.852046    0.885548
     18          1           0       -2.952568   -0.888695    0.000456
     19          6           0       -0.942107   -0.026998   -0.000010
     20          6           0       -1.203606    0.821602   -1.259119
     21          1           0       -2.247060    1.150712   -1.292848
     22          1           0       -0.577092    1.717020   -1.285930
     23          1           0       -1.007017    0.246251   -2.169781
 ---------------------------------------------------------------------
                    Distance matrix (angstroms):
                    1          2          3          4          5
     1  C    0.000000
     2  C    1.534383   0.000000
     3  H    1.098242   2.151034   0.000000
     4  H    1.098243   2.151076   1.752287   0.000000
     5  C    2.547443   1.532788   2.751261   2.750762   0.000000
     6  H    2.169302   1.095183   3.063116   2.512479   2.154101
     7  H    2.169248   1.095191   2.511883   3.063103   2.154119
     8  H    3.501992   2.183596   3.758153   3.757861   1.093687
     9  H    2.812752   2.182386   2.566654   3.110876   1.094688
    10  H    2.812839   2.182375   3.111862   2.566219   1.094689
    11  C    2.546474   3.149066   2.775857   3.480762   4.545500
    12  C    2.499836   3.932591   2.676057   2.676015   5.037143
    13  H    2.849934   2.879977   3.213075   3.850682   4.304724
    14  H    3.501392   4.174164   3.753329   4.314277   5.611055
    15  H    2.773102   3.440752   2.553443   3.758125   4.611629
    16  H    2.744292   4.204496   3.023386   2.457793   5.130565
    17  H    2.744108   4.204340   2.457632   3.023086   5.130644
    18  H    3.471224   4.793708   3.692427   3.692477   6.017202
    19  C    1.551053   2.638135   2.159700   2.159687   3.978704
    20  C    2.546447   3.149024   3.480754   2.775845   4.544988
    21  H    3.501351   4.174312   4.314258   3.753090   5.610732
    22  H    2.850211   2.880301   3.850865   3.213546   4.304630
    23  H    2.772710   3.440105   3.757865   2.553063   4.610140
                    6          7          8          9         10
     6  H    0.000000
     7  H    1.752903   0.000000
     8  H    2.493760   2.493732   0.000000
     9  H    3.073762   2.520539   1.766521   0.000000
    10  H    2.520461   3.073768   1.766525   1.765705   0.000000
    11  C    3.518390   2.823393   5.208316   4.700033   5.150729
    12  C    4.276673   4.276878   5.999841   5.158068   5.157945
    13  H    3.119138   2.286642   4.760589   4.570200   5.041790
    14  H    4.399573   3.851667   6.256996   5.791610   6.172246
    15  H    4.083847   3.012438   5.316240   4.506370   5.288293
    16  H    4.449067   4.784939   6.134454   5.318050   5.015795
    17  H    4.784619   4.448890   6.134468   5.016003   5.318225
    18  H    5.020823   5.021125   6.929673   6.175388   6.175178
    19  C    2.892354   2.892797   4.808701   4.281797   4.281516
    20  C    2.822885   3.519221   5.207919   5.150511   4.698857
    21  H    3.851253   4.400804   6.256846   6.172303   5.790443
    22  H    2.286367   3.120342   4.760590   5.042026   4.569441
    23  H    3.011663   4.084030   5.314898   5.286959   4.504142
                   11         12         13         14         15
    11  C    0.000000
    12  C    2.505321   0.000000
    13  H    1.093170   3.477243   0.000000
    14  H    1.094650   2.726265   1.763371   0.000000
    15  H    1.094977   2.773304   1.768953   1.767701   0.000000
    16  H    3.472704   1.094623   4.342548   3.741447   3.782379
    17  H    2.758224   1.094625   3.783047   3.070968   2.575043
    18  H    2.751247   1.094518   3.753356   2.515975   3.126991
    19  C    1.540732   1.540910   2.197385   2.182042   2.187892
    20  C    2.516899   2.505350   2.768384   2.774645   3.481412
    21  H    2.775000   2.725961   3.122636   2.583095   3.785974
    22  H    2.768053   3.477237   2.569836   3.121607   3.778865
    23  H    3.481395   2.773669   3.778936   3.785868   4.339147
                   16         17         18         19         20
    16  H    0.000000
    17  H    1.768892   0.000000
    18  H    1.768919   1.768913   0.000000
    19  C    2.187979   2.187949   2.187344   0.000000
    20  C    2.758141   3.472710   2.751457   1.540733   0.000000
    21  H    3.070255   3.741299   2.515861   2.182048   1.094645
    22  H    3.783138   4.342509   3.753322   2.197368   1.093166
    23  H    2.575336   3.782562   3.127811   2.187872   1.094980
                   21         22         23
    21  H    0.000000
    22  H    1.763390   0.000000
    23  H    1.767701   1.768952   0.000000
 Stoichiometry    C7H16
 Framework group  C1[X(C7H16)]
 Deg. of freedom    63
 Full point group                 C1      NOp   1
 Largest Abelian subgroup         C1      NOp   1
 Largest concise Abelian subgroup C1      NOp   1
                         Standard orientation:                         
 ---------------------------------------------------------------------
 Center     Atomic      Atomic             Coordinates (Angstroms)
 Number     Number       Type             X           Y           Z
 ---------------------------------------------------------------------
      1          6           0        0.505299    0.584475   -0.000637
      2          6           0        1.656065   -0.430448   -0.000101
      3          1           0        0.617342    1.236451   -0.877284
      4          1           0        0.617602    1.237760    0.875002
      5          6           0        3.030445    0.248168    0.000024
      6          1           0        1.581015   -1.082667    0.876485
      7          1           0        1.581358   -1.083081   -0.876418
      8          1           0        3.838891   -0.488423    0.000295
      9          1           0        3.159440    0.882303   -0.882912
     10          1           0        3.159114    0.882603    0.882793
     11          6           0       -1.204083   -0.823408   -1.257779
     12          6           0       -1.911045    1.225147   -0.000694
     13          1           0       -0.577092   -1.718517   -1.283906
     14          1           0       -2.247372   -1.153184   -1.290246
     15          1           0       -1.008556   -0.249165   -2.169365
     16          1           0       -1.761880    1.853181    0.883344
     17          1           0       -1.761929    1.852046   -0.885548
     18          1           0       -2.952568    0.888695   -0.000456
     19          6           0       -0.942107    0.026998    0.000010
     20          6           0       -1.203606   -0.821602    1.259119
     21          1           0       -2.247060   -1.150712    1.292848
     22          1           0       -0.577092   -1.717020    1.285930
     23          1           0       -1.007017   -0.246251    2.169781
 ---------------------------------------------------------------------
 Rotational constants (GHZ):      4.0279877      1.3861827      1.3688856
 Standard basis: 6-311+G(d,p) (5D, 7F)
 There are   257 symmetry adapted cartesian basis functions of A   symmetry.
 There are   250 symmetry adapted basis functions of A   symmetry.
   250 basis functions,   380 primitive gaussians,   257 cartesian basis functions
    29 alpha electrons       29 beta electrons
       nuclear repulsion energy       333.1460185528 Hartrees.
 NAtoms=   23 NActive=   23 NUniq=   23 SFac= 1.00D+00 NAtFMM=   60 NAOKFM=F Big=F
 Integral buffers will be    131072 words long.
 Raffenetti 2 integral format.
 Two-electron integral symmetry is turned on.
 One-electron integrals computed using PRISM.
 NBasis=   250 RedAO= T EigKep=  9.73D-06  NBF=   250
 NBsUse=   250 1.00D-06 EigRej= -1.00D+00 NBFU=   250
 ExpMin= 4.38D-02 ExpMax= 4.56D+03 ExpMxC= 6.82D+02 IAcc=2 IRadAn=         4 AccDes= 0.00D+00
 Harris functional with IExCor=  402 and IRadAn=       4 diagonalized for initial guess.
 HarFok:  IExCor=  402 AccDes= 0.00D+00 IRadAn=         4 IDoV= 1 UseB2=F ITyADJ=14
 ICtDFT=  3500011 ScaDFX=  1.000000  1.000000  1.000000  1.000000
 FoFCou: FMM=F IPFlag=           0 FMFlag=      100000 FMFlg1=           0
         NFxFlg=           0 DoJE=T BraDBF=F KetDBF=T FulRan=T
         wScrn=  0.000000 ICntrl=     500 IOpCl=  0 I1Cent=   200000004 NGrid=           0
         NMat0=    1 NMatS0=      1 NMatT0=    0 NMatD0=    1 NMtDS0=    0 NMtDT0=    0
 Petite list used in FoFCou.
 Requested convergence on RMS density matrix=1.00D-08 within 128 cycles.
 Requested convergence on MAX density matrix=1.00D-06.
 Requested convergence on             energy=1.00D-06.
 No special actions if energy rises.
 SCF Done:  E(RB3LYP) =  -276.476632477     A.U. after   11 cycles
            NFock= 11  Conv=0.85D-08     -V/T= 2.0054

 **********************************************************************

            Population analysis using the SCF density.

 **********************************************************************

 Orbital symmetries:
       Occupied  (A) (A) (A) (A) (A) (A) (A) (A) (A) (A) (A) (A)
                 (A) (A) (A) (A) (A) (A) (A) (A) (A) (A) (A) (A)
                 (A) (A) (A) (A) (A)
       Virtual   (A) (A) (A) (A) (A) (A) (A) (A) (A) (A) (A) (A)
                 (A) (A) (A) (A) (A) (A) (A) (A) (A) (A) (A) (A)
                 (A) (A) (A) (A) (A) (A) (A) (A) (A) (A) (A) (A)
                 (A) (A) (A) (A) (A) (A) (A) (A) (A) (A) (A) (A)
                 (A) (A) (A) (A) (A) (A) (A) (A) (A) (A) (A) (A)
                 (A) (A) (A) (A) (A) (A) (A) (A) (A) (A) (A) (A)
                 (A) (A) (A) (A) (A) (A) (A) (A) (A) (A) (A) (A)
                 (A) (A) (A) (A) (A) (A) (A) (A) (A) (A) (A) (A)
                 (A) (A) (A) (A) (A) (A) (A) (A) (A) (A) (A) (A)
                 (A) (A) (A) (A) (A) (A) (A) (A) (A) (A) (A) (A)
                 (A) (A) (A) (A) (A) (A) (A) (A) (A) (A) (A) (A)
                 (A) (A) (A) (A) (A) (A) (A) (A) (A) (A) (A) (A)
                 (A) (A) (A) (A) (A) (A) (A) (A) (A) (A) (A) (A)
                 (A) (A) (A) (A) (A) (A) (A) (A) (A) (A) (A) (A)
                 (A) (A) (A) (A) (A) (A) (A) (A) (A) (A) (A) (A)
                 (A) (A) (A) (A) (A) (A) (A) (A) (A) (A) (A) (A)
                 (A) (A) (A) (A) (A) (A) (A) (A) (A) (A) (A) (A)
                 (A) (A) (A) (A) (A) (A) (A) (A) (A) (A) (A) (A)
                 (A) (A) (A) (A) (A)
 The electronic state is 1-A.
 Alpha  occ. eigenvalues --  -10.18140 -10.16304 -10.16056 -10.15705 -10.15459
 Alpha  occ. eigenvalues --  -10.15459 -10.15440  -0.82618  -0.76810  -0.68440
 Alpha  occ. eigenvalues --   -0.68423  -0.67573  -0.59358  -0.53078  -0.46804
 Alpha  occ. eigenvalues --   -0.45870  -0.43886  -0.43657  -0.40801  -0.39360
 Alpha  occ. eigenvalues --   -0.39066  -0.36702  -0.36606  -0.36343  -0.34758
 Alpha  occ. eigenvalues --   -0.33411  -0.31755  -0.31381  -0.30855
 Alpha virt. eigenvalues --    0.00096   0.01704   0.02185   0.02528   0.04038
 Alpha virt. eigenvalues --    0.04480   0.04740   0.05397   0.05738   0.06306
 Alpha virt. eigenvalues --    0.07298   0.08085   0.08464   0.08716   0.09361
 Alpha virt. eigenvalues --    0.10358   0.10616   0.11818   0.11964   0.12942
 Alpha virt. eigenvalues --    0.13669   0.14040   0.15457   0.15938   0.16804
 Alpha virt. eigenvalues --    0.17268   0.17938   0.18693   0.20041   0.20354
 Alpha virt. eigenvalues --    0.21263   0.21353   0.21803   0.21920   0.23973
 Alpha virt. eigenvalues --    0.24122   0.24617   0.24793   0.25482   0.25806
 Alpha virt. eigenvalues --    0.25871   0.26898   0.27618   0.28195   0.28930
 Alpha virt. eigenvalues --    0.30093   0.31383   0.31458   0.32616   0.38939
 Alpha virt. eigenvalues --    0.39726   0.40895   0.42115   0.43289   0.44224
 Alpha virt. eigenvalues --    0.45993   0.46896   0.50243   0.50834   0.53002
 Alpha virt. eigenvalues --    0.53033   0.54818   0.56102   0.57083   0.60319
 Alpha virt. eigenvalues --    0.61544   0.62456   0.63037   0.63490   0.64027
 Alpha virt. eigenvalues --    0.65121   0.65175   0.65738   0.66849   0.67802
 Alpha virt. eigenvalues --    0.68438   0.69523   0.70763   0.71767   0.72234
 Alpha virt. eigenvalues --    0.72906   0.75104   0.76073   0.77564   0.77866
 Alpha virt. eigenvalues --    0.78810   0.80340   0.83281   0.93166   0.95557
 Alpha virt. eigenvalues --    0.96496   0.98620   1.04748   1.05157   1.07090
 Alpha virt. eigenvalues --    1.10964   1.14195   1.15532   1.17761   1.23713
 Alpha virt. eigenvalues --    1.26305   1.27309   1.40161   1.40186   1.44162
 Alpha virt. eigenvalues --    1.44713   1.45392   1.46958   1.47910   1.48526
 Alpha virt. eigenvalues --    1.49148   1.50068   1.53369   1.54397   1.55575
 Alpha virt. eigenvalues --    1.57643   1.57669   1.58923   1.59741   1.61841
 Alpha virt. eigenvalues --    1.62691   1.63693   1.64967   1.65472   1.65891
 Alpha virt. eigenvalues --    1.66929   1.69244   1.70236   1.73069   1.74180
 Alpha virt. eigenvalues --    1.74406   1.75370   1.79263   1.79741   1.81560
 Alpha virt. eigenvalues --    1.83204   1.87419   1.87866   1.95254   1.97482
 Alpha virt. eigenvalues --    1.98765   2.00569   2.04874   2.05446   2.08154
 Alpha virt. eigenvalues --    2.11583   2.12446   2.14082   2.17420   2.18073
 Alpha virt. eigenvalues --    2.20490   2.21122   2.24541   2.30278   2.31448
 Alpha virt. eigenvalues --    2.35674   2.38868   2.40434   2.41318   2.43716
 Alpha virt. eigenvalues --    2.45644   2.45851   2.49853   2.50813   2.50940
 Alpha virt. eigenvalues --    2.51887   2.52968   2.53983   2.55004   2.55395
 Alpha virt. eigenvalues --    2.56558   2.56935   2.57811   2.58961   2.61434
 Alpha virt. eigenvalues --    2.63982   2.65811   2.68682   2.69015   2.70521
 Alpha virt. eigenvalues --    2.73959   2.74084   2.75234   2.77313   2.79566
 Alpha virt. eigenvalues --    2.79946   2.83429   2.86816   2.90212   2.92817
 Alpha virt. eigenvalues --    2.98068   3.07691   3.10818   3.11345   3.19136
 Alpha virt. eigenvalues --    3.22824   3.23025   3.41205   3.64451   3.76578
 Alpha virt. eigenvalues --    3.77375   3.79004   3.79341   3.81239   3.81640
 Alpha virt. eigenvalues --    3.83351   3.84592   3.85265   3.86698   4.09580
 Alpha virt. eigenvalues --    4.22266   4.28956   4.29129   4.38795  23.78865
 Alpha virt. eigenvalues --   23.87912  23.91555  23.96840  23.97278  23.97715
 Alpha virt. eigenvalues --   23.98426
          Condensed to atoms (all electrons):
               1          2          3          4          5          6
     1  C    5.834602   0.018461   0.414103   0.414236   0.012871  -0.042491
     2  C    0.018461   5.346387  -0.054678  -0.054761   0.147934   0.429596
     3  H    0.414103  -0.054678   0.561556  -0.035978  -0.004573   0.008110
     4  H    0.414236  -0.054761  -0.035978   0.561572  -0.004545  -0.008112
     5  C    0.012871   0.147934  -0.004573  -0.004545   5.310138  -0.043260
     6  H   -0.042491   0.429596   0.008110  -0.008112  -0.043260   0.578560
     7  H   -0.042371   0.429529  -0.008133   0.008110  -0.043249  -0.039276
     8  H    0.035650  -0.064903  -0.000050  -0.000049   0.401387  -0.005071
     9  H   -0.022282  -0.034864   0.005013  -0.000999   0.424194   0.008524
    10  H   -0.022264  -0.034918  -0.000996   0.005015   0.424239  -0.008195
    11  C   -0.137464   0.044867  -0.010136   0.012081   0.000520   0.012149
    12  C    0.077555  -0.098734  -0.006610  -0.006611  -0.007120   0.002903
    13  H   -0.029881   0.009343  -0.000419  -0.000231   0.001966  -0.000616
    14  H    0.043881  -0.004549  -0.000159  -0.000367   0.000510  -0.000127
    15  H   -0.017863   0.002814   0.001918   0.000171  -0.002433   0.000056
    16  H   -0.028721   0.001010  -0.001067   0.002440  -0.000513  -0.000015
    17  H   -0.028658   0.000997   0.002440  -0.001068  -0.000507   0.000007
    18  H    0.050263  -0.002248   0.000068   0.000068   0.000356   0.000000
    19  C   -0.069982   0.026030  -0.014708  -0.014846  -0.034888  -0.011112
    20  C   -0.137463   0.044779   0.012062  -0.010115   0.000570  -0.013501
    21  H    0.043858  -0.004540  -0.000367  -0.000159   0.000508   0.000318
    22  H   -0.029844   0.009288  -0.000231  -0.000419   0.001971   0.000598
    23  H   -0.017821   0.002815   0.000172   0.001916  -0.002437   0.000251
               7          8          9         10         11         12
     1  C   -0.042371   0.035650  -0.022282  -0.022264  -0.137464   0.077555
     2  C    0.429529  -0.064903  -0.034864  -0.034918   0.044867  -0.098734
     3  H   -0.008133  -0.000050   0.005013  -0.000996  -0.010136  -0.006610
     4  H    0.008110  -0.000049  -0.000999   0.005015   0.012081  -0.006611
     5  C   -0.043249   0.401387   0.424194   0.424239   0.000520  -0.007120
     6  H   -0.039276  -0.005071   0.008524  -0.008195   0.012149   0.002903
     7  H    0.578554  -0.005070  -0.008194   0.008523  -0.013501   0.002909
     8  H   -0.005070   0.554175  -0.027272  -0.027269   0.000308   0.000081
     9  H   -0.008194  -0.027272   0.560335  -0.034421   0.006436   0.000008
    10  H    0.008523  -0.027269  -0.034421   0.560331  -0.003834   0.000013
    11  C   -0.013501   0.000308   0.006436  -0.003834   5.437614  -0.136862
    12  C    0.002909   0.000081   0.000008   0.000013  -0.136862   5.477082
    13  H    0.000594   0.000033  -0.000027   0.000002   0.400768   0.008767
    14  H    0.000318  -0.000002  -0.000005   0.000004   0.406889  -0.001702
    15  H    0.000251   0.000001  -0.000004   0.000009   0.381230  -0.005994
    16  H    0.000007   0.000000  -0.000006   0.000008   0.027567   0.391308
    17  H   -0.000015   0.000000   0.000008  -0.000006  -0.020822   0.391314
    18  H    0.000000  -0.000001   0.000001   0.000001  -0.020811   0.436734
    19  C   -0.011171   0.001502  -0.005491  -0.005518   0.329398   0.137641
    20  C    0.012143   0.000311  -0.003838   0.006440  -0.215554  -0.136855
    21  H   -0.000127  -0.000002   0.000004  -0.000005  -0.019903  -0.001682
    22  H   -0.000614   0.000033   0.000002  -0.000027  -0.001025   0.008777
    23  H    0.000056   0.000001   0.000009  -0.000004   0.019077  -0.006048
              13         14         15         16         17         18
     1  C   -0.029881   0.043881  -0.017863  -0.028721  -0.028658   0.050263
     2  C    0.009343  -0.004549   0.002814   0.001010   0.000997  -0.002248
     3  H   -0.000419  -0.000159   0.001918  -0.001067   0.002440   0.000068
     4  H   -0.000231  -0.000367   0.000171   0.002440  -0.001068   0.000068
     5  C    0.001966   0.000510  -0.002433  -0.000513  -0.000507   0.000356
     6  H   -0.000616  -0.000127   0.000056  -0.000015   0.000007   0.000000
     7  H    0.000594   0.000318   0.000251   0.000007  -0.000015   0.000000
     8  H    0.000033  -0.000002   0.000001   0.000000   0.000000  -0.000001
     9  H   -0.000027  -0.000005  -0.000004  -0.000006   0.000008   0.000001
    10  H    0.000002   0.000004   0.000009   0.000008  -0.000006   0.000001
    11  C    0.400768   0.406889   0.381230   0.027567  -0.020822  -0.020811
    12  C    0.008767  -0.001702  -0.005994   0.391308   0.391314   0.436734
    13  H    0.554830  -0.028410  -0.029405  -0.000529   0.000041   0.000036
    14  H   -0.028410   0.547328  -0.027207   0.000054  -0.000377   0.002048
    15  H   -0.029405  -0.027207   0.543543   0.000034   0.002441  -0.000357
    16  H   -0.000529   0.000054   0.000034   0.546953  -0.029033  -0.027849
    17  H    0.000041  -0.000377   0.002441  -0.029033   0.546962  -0.027849
    18  H    0.000036   0.002048  -0.000357  -0.027849  -0.027849   0.546859
    19  C   -0.018103  -0.054899  -0.004458   0.001422   0.001378  -0.074512
    20  C   -0.001048  -0.019901   0.019072  -0.020792   0.027577  -0.020838
    21  H   -0.000282   0.002234   0.000062  -0.000378   0.000055   0.002048
    22  H    0.002335  -0.000284   0.000076   0.000041  -0.000529   0.000036
    23  H    0.000076   0.000063  -0.000559   0.002441   0.000033  -0.000357
              19         20         21         22         23
     1  C   -0.069982  -0.137463   0.043858  -0.029844  -0.017821
     2  C    0.026030   0.044779  -0.004540   0.009288   0.002815
     3  H   -0.014708   0.012062  -0.000367  -0.000231   0.000172
     4  H   -0.014846  -0.010115  -0.000159  -0.000419   0.001916
     5  C   -0.034888   0.000570   0.000508   0.001971  -0.002437
     6  H   -0.011112  -0.013501   0.000318   0.000598   0.000251
     7  H   -0.011171   0.012143  -0.000127  -0.000614   0.000056
     8  H    0.001502   0.000311  -0.000002   0.000033   0.000001
     9  H   -0.005491  -0.003838   0.000004   0.000002   0.000009
    10  H   -0.005518   0.006440  -0.000005  -0.000027  -0.000004
    11  C    0.329398  -0.215554  -0.019903  -0.001025   0.019077
    12  C    0.137641  -0.136855  -0.001682   0.008777  -0.006048
    13  H   -0.018103  -0.001048  -0.000282   0.002335   0.000076
    14  H   -0.054899  -0.019901   0.002234  -0.000284   0.000063
    15  H   -0.004458   0.019072   0.000062   0.000076  -0.000559
    16  H    0.001422  -0.020792  -0.000378   0.000041   0.002441
    17  H    0.001378   0.027577   0.000055  -0.000529   0.000033
    18  H   -0.074512  -0.020838   0.002048   0.000036  -0.000357
    19  C    5.122861   0.329475  -0.054903  -0.018120  -0.004471
    20  C    0.329475   5.437608   0.406890   0.400749   0.381247
    21  H   -0.054903   0.406890   0.547320  -0.028406  -0.027206
    22  H   -0.018120   0.400749  -0.028406   0.554843  -0.029409
    23  H   -0.004471   0.381247  -0.027206  -0.029409   0.543540
 Mulliken charges:
               1
     1  C   -0.318375
     2  C   -0.159652
     3  H    0.132663
     4  H    0.132647
     5  C   -0.583640
     6  H    0.130705
     7  H    0.130727
     8  H    0.136202
     9  H    0.132869
    10  H    0.132871
    11  C   -0.498996
    12  C   -0.526873
    13  H    0.130161
    14  H    0.134660
    15  H    0.136605
    16  H    0.135618
    17  H    0.135611
    18  H    0.136303
    19  C    0.447475
    20  C   -0.499019
    21  H    0.134663
    22  H    0.130158
    23  H    0.136616
 Sum of Mulliken charges =   0.00000
 Mulliken charges with hydrogens summed into heavy atoms:
               1
     1  C   -0.053065
     2  C    0.101779
     5  C   -0.181698
    11  C   -0.097569
    12  C   -0.119340
    19  C    0.447475
    20  C   -0.097582
 Electronic spatial extent (au):  <R**2>=           1079.7611
 Charge=              0.0000 electrons
 Dipole moment (field-independent basis, Debye):
    X=              0.0335    Y=             -0.0696    Z=              0.0000  Tot=              0.0772
 Quadrupole moment (field-independent basis, Debye-Ang):
   XX=            -49.9755   YY=            -49.7380   ZZ=            -49.2593
   XY=             -0.1517   XZ=             -0.0002   YZ=              0.0002
 Traceless Quadrupole moment (field-independent basis, Debye-Ang):
   XX=             -0.3179   YY=             -0.0804   ZZ=              0.3983
   XY=             -0.1517   XZ=             -0.0002   YZ=              0.0002
 Octapole moment (field-independent basis, Debye-Ang**2):
  XXX=             -3.5784  YYY=             -1.3870  ZZZ=             -0.0064  XYY=              1.7176
  XXY=             -3.1611  XXZ=              0.0022  XZZ=              1.9278  YZZ=              2.5756
  YYZ=              0.0040  XYZ=              0.0007
 Hexadecapole moment (field-independent basis, Debye-Ang**3):
 XXXX=          -1011.3263 YYYY=           -285.2267 ZZZZ=           -266.1357 XXXY=             -0.4631
 XXXZ=             -0.0104 YYYX=             -1.6046 YYYZ=              0.0041 ZZZX=              0.0060
 ZZZY=             -0.0016 XXYY=           -217.4812 XXZZ=           -214.8342 YYZZ=            -89.5979
 XXYZ=             -0.0027 YYXZ=             -0.0021 ZZXY=             -1.3139
 N-N= 3.331460185528D+02 E-N=-1.305383709678D+03  KE= 2.749824461169D+02
 There are a total of      189638 grid points.
 ElSum from          density=       58.0001303213
 ElSum from atomic densities=       58.0002754710

 Hirshfeld populations at iteration   1 (CX, CA, CB, DipXYZ):
               1          2          3          4          5          6
     1  C    0.000000   3.029469   3.029469  -0.002003  -0.037826   0.000030
     2  C    0.000000   3.029605   3.029605   0.008208   0.026440   0.000000
     3  H    0.000000   0.485578   0.485578   0.015891   0.077448  -0.110288
     4  H    0.000000   0.485579   0.485579   0.015919   0.077617   0.110159
     5  C    0.000000   3.050559   3.050559  -0.023068  -0.015147  -0.000003
     6  H    0.000000   0.484651   0.484651  -0.000352  -0.080034   0.113571
     7  H    0.000000   0.484651   0.484651  -0.000316  -0.080081  -0.113545
     8  H    0.000000   0.483079   0.483079   0.103830  -0.101097   0.000036
     9  H    0.000000   0.483930   0.483930   0.016360   0.079033  -0.116764
    10  H    0.000000   0.483930   0.483930   0.016317   0.079071   0.116745
    11  C    0.000000   3.051554   3.051554   0.004671   0.010643   0.017174
    12  C    0.000000   3.051085   3.051085   0.011843  -0.014710   0.000016
    13  H    0.000000   0.483851   0.483851   0.077636  -0.118144  -0.005020
    14  H    0.000000   0.483756   0.483756  -0.134952  -0.043826  -0.005118
    15  H    0.000000   0.483804   0.483804   0.025102   0.073297  -0.119057
    16  H    0.000000   0.483951   0.483951   0.017630   0.081899   0.114022
    17  H    0.000000   0.483952   0.483952   0.017624   0.081752  -0.114126
    18  H    0.000000   0.483938   0.483938  -0.135131  -0.042170   0.000029
    19  C    0.000000   2.990180   2.990180   0.005441  -0.006335   0.000006
    20  C    0.000000   3.051553   3.051553   0.004655   0.010614  -0.017193
    21  H    0.000000   0.483756   0.483756  -0.134977  -0.043735   0.005286
    22  H    0.000000   0.483851   0.483851   0.077577  -0.118183   0.005110
    23  H    0.000000   0.483804   0.483804   0.025240   0.073442   0.118937
       Tot   0.000004  29.000065  29.000065   0.013144  -0.030029   0.000006

 Dip from Atomic Chgs             -0.000220   0.003031   0.000000
         Total Dipole              0.012925  -0.026999   0.000006

 Hirshfeld charges, spin densities, dipoles, and CM5 charges using IRadAn=      4:
              Q-H        S-H        Dx         Dy         Dz        Q-CM5   
     1  C   -0.058937   0.000000  -0.002003  -0.037826   0.000030  -0.165333
     2  C   -0.059210   0.000000   0.008208   0.026440   0.000000  -0.171584
     3  H    0.028843   0.000000   0.015891   0.077448  -0.110288   0.085099
     4  H    0.028843   0.000000   0.015919   0.077617   0.110159   0.085099
     5  C   -0.101119   0.000000  -0.023068  -0.015147  -0.000003  -0.251406
     6  H    0.030699   0.000000  -0.000352  -0.080034   0.113571   0.085955
     7  H    0.030699   0.000000  -0.000316  -0.080081  -0.113545   0.085952
     8  H    0.033841   0.000000   0.103830  -0.101097   0.000036   0.084508
     9  H    0.032140   0.000000   0.016360   0.079033  -0.116764   0.083270
    10  H    0.032140   0.000000   0.016317   0.079071   0.116745   0.083270
    11  C   -0.103107   0.000000   0.004671   0.010643   0.017174  -0.249889
    12  C   -0.102169   0.000000   0.011843  -0.014710   0.000016  -0.249223
    13  H    0.032298   0.000000   0.077636  -0.118144  -0.005020   0.084870
    14  H    0.032488   0.000000  -0.134952  -0.043826  -0.005118   0.084643
    15  H    0.032391   0.000000   0.025102   0.073297  -0.119057   0.084506
    16  H    0.032098   0.000000   0.017630   0.081899   0.114022   0.084213
    17  H    0.032096   0.000000   0.017624   0.081752  -0.114126   0.084212
    18  H    0.032123   0.000000  -0.135131  -0.042170   0.000029   0.084237
    19  C    0.019641   0.000000   0.005441  -0.006335   0.000006  -0.016663
    20  C   -0.103106   0.000000   0.004655   0.010614  -0.017193  -0.249888
    21  H    0.032489   0.000000  -0.134977  -0.043735   0.005286   0.084645
    22  H    0.032298   0.000000   0.077577  -0.118183   0.005110   0.084870
    23  H    0.032392   0.000000   0.025240   0.073442   0.118937   0.084507
       Tot  -0.000130   0.000000   0.013144  -0.030029   0.000006  -0.000130
 Hirshfeld charges with hydrogens summed into heavy atoms:
              Q-H       Q-CM5   
     1  C   -0.001251   0.004864
     2  C    0.002187   0.000323
     5  C   -0.002997  -0.000359
    11  C   -0.005931   0.004131
    12  C   -0.005852   0.003440
    19  C    0.019641  -0.016663
    20  C   -0.005927   0.004134
 
 EQQ= 0.000000000000E+00 EQD= 0.000000000000E+00 EDD=-0.324695013268E-02
 EQQ+QD+DD=-0.324695013268E-02
 
          MBS Condensed to atoms (all electrons):
               1          2          3          4          5          6
     1  C    4.830411   0.370562   0.369762   0.369762  -0.022831  -0.023543
     2  C    0.370562   4.789982  -0.024771  -0.024771   0.370657   0.374219
     3  H    0.369762  -0.024771   0.637251  -0.024568  -0.002495   0.002370
     4  H    0.369762  -0.024771  -0.024568   0.637251  -0.002501  -0.002555
     5  C   -0.022831   0.370657  -0.002495  -0.002501   4.827446  -0.023334
     6  H   -0.023543   0.374219   0.002370  -0.002555  -0.023334   0.626215
     7  H   -0.023544   0.374220  -0.002564   0.002370  -0.023333  -0.025719
     8  H    0.001380  -0.020056   0.000010   0.000010   0.377243  -0.002208
     9  H   -0.002280  -0.022054   0.001408  -0.000058   0.375941   0.002244
    10  H   -0.002281  -0.022055  -0.000058   0.001410   0.375941  -0.002520
    11  C   -0.024277  -0.002452  -0.002401   0.001482   0.000013   0.000034
    12  C   -0.026673   0.000697  -0.003143  -0.003143  -0.000005   0.000004
    13  H   -0.001785  -0.000479  -0.000007   0.000004  -0.000007   0.000062
    14  H    0.001426   0.000041   0.000008  -0.000051   0.000000  -0.000006
    15  H   -0.002421  -0.000040   0.001088   0.000024  -0.000004   0.000009
    16  H   -0.002546   0.000010  -0.000044   0.001277  -0.000001   0.000001
    17  H   -0.002548   0.000010   0.001278  -0.000044  -0.000001   0.000000
    18  H    0.001497  -0.000021   0.000025   0.000025   0.000000   0.000000
    19  C    0.363251  -0.016804  -0.023554  -0.023555   0.000638  -0.001722
    20  C   -0.024279  -0.002453   0.001482  -0.002402   0.000013  -0.000243
    21  H    0.001426   0.000041  -0.000051   0.000008   0.000000  -0.000023
    22  H   -0.001782  -0.000480   0.000004  -0.000007  -0.000007   0.000823
    23  H   -0.002425  -0.000040   0.000024   0.001089  -0.000004   0.000109
               7          8          9         10         11         12
     1  C   -0.023544   0.001380  -0.002280  -0.002281  -0.024277  -0.026673
     2  C    0.374220  -0.020056  -0.022054  -0.022055  -0.002452   0.000697
     3  H   -0.002564   0.000010   0.001408  -0.000058  -0.002401  -0.003143
     4  H    0.002370   0.000010  -0.000058   0.001410   0.001482  -0.003143
     5  C   -0.023333   0.377243   0.375941   0.375941   0.000013  -0.000005
     6  H   -0.025719  -0.002208   0.002244  -0.002520   0.000034   0.000004
     7  H    0.626221  -0.002209  -0.002519   0.002244  -0.000243   0.000004
     8  H   -0.002209   0.608228  -0.022996  -0.022996   0.000000   0.000000
     9  H   -0.002519  -0.022996   0.613234  -0.023619   0.000001   0.000000
    10  H    0.002244  -0.022996  -0.023619   0.613234   0.000000   0.000000
    11  C   -0.000243   0.000000   0.000001   0.000000   4.855204  -0.027103
    12  C    0.000004   0.000000   0.000000   0.000000  -0.027103   4.856598
    13  H    0.000822   0.000001   0.000001   0.000000   0.374830   0.001526
    14  H   -0.000022   0.000000   0.000000   0.000000   0.374367  -0.002903
    15  H    0.000109   0.000000   0.000001   0.000000   0.373949  -0.002229
    16  H    0.000000   0.000000   0.000000   0.000000   0.001552   0.374009
    17  H    0.000001   0.000000   0.000000   0.000000  -0.002327   0.374008
    18  H    0.000000   0.000000   0.000000   0.000000  -0.002473   0.374253
    19  C   -0.001717  -0.000018   0.000002   0.000002   0.367834   0.369132
    20  C    0.000034   0.000000   0.000000   0.000001  -0.027022  -0.027101
    21  H   -0.000006   0.000000   0.000000   0.000000  -0.002090  -0.002906
    22  H    0.000062   0.000001   0.000000   0.000001  -0.002430   0.001526
    23  H    0.000009   0.000000   0.000000   0.000001   0.001523  -0.002225
              13         14         15         16         17         18
     1  C   -0.001785   0.001426  -0.002421  -0.002546  -0.002548   0.001497
     2  C   -0.000479   0.000041  -0.000040   0.000010   0.000010  -0.000021
     3  H   -0.000007   0.000008   0.001088  -0.000044   0.001278   0.000025
     4  H    0.000004  -0.000051   0.000024   0.001277  -0.000044   0.000025
     5  C   -0.000007   0.000000  -0.000004  -0.000001  -0.000001   0.000000
     6  H    0.000062  -0.000006   0.000009   0.000001   0.000000   0.000000
     7  H    0.000822  -0.000022   0.000109   0.000000   0.000001   0.000000
     8  H    0.000001   0.000000   0.000000   0.000000   0.000000   0.000000
     9  H    0.000001   0.000000   0.000001   0.000000   0.000000   0.000000
    10  H    0.000000   0.000000   0.000000   0.000000   0.000000   0.000000
    11  C    0.374830   0.374367   0.373949   0.001552  -0.002327  -0.002473
    12  C    0.001526  -0.002903  -0.002229   0.374009   0.374008   0.374253
    13  H    0.611590  -0.023067  -0.022897  -0.000058   0.000015   0.000018
    14  H   -0.023067   0.614240  -0.022614   0.000026  -0.000047   0.001093
    15  H   -0.022897  -0.022614   0.615327   0.000011   0.000946  -0.000036
    16  H   -0.000058   0.000026   0.000011   0.614710  -0.022714  -0.022731
    17  H    0.000015  -0.000047   0.000946  -0.022714   0.614714  -0.022731
    18  H    0.000018   0.001093  -0.000036  -0.022731  -0.022731   0.614469
    19  C   -0.020277  -0.021105  -0.021130  -0.021108  -0.021109  -0.020988
    20  C   -0.002426  -0.002093   0.001523  -0.002327   0.001552  -0.002472
    21  H   -0.000045   0.000884   0.000011  -0.000047   0.000027   0.001093
    22  H    0.000953  -0.000045   0.000017   0.000015  -0.000058   0.000018
    23  H    0.000016   0.000011  -0.000057   0.000946   0.000011  -0.000036
              19         20         21         22         23
     1  C    0.363251  -0.024279   0.001426  -0.001782  -0.002425
     2  C   -0.016804  -0.002453   0.000041  -0.000480  -0.000040
     3  H   -0.023554   0.001482  -0.000051   0.000004   0.000024
     4  H   -0.023555  -0.002402   0.000008  -0.000007   0.001089
     5  C    0.000638   0.000013   0.000000  -0.000007  -0.000004
     6  H   -0.001722  -0.000243  -0.000023   0.000823   0.000109
     7  H   -0.001717   0.000034  -0.000006   0.000062   0.000009
     8  H   -0.000018   0.000000   0.000000   0.000001   0.000000
     9  H    0.000002   0.000000   0.000000   0.000000   0.000000
    10  H    0.000002   0.000001   0.000000   0.000001   0.000001
    11  C    0.367834  -0.027022  -0.002090  -0.002430   0.001523
    12  C    0.369132  -0.027101  -0.002906   0.001526  -0.002225
    13  H   -0.020277  -0.002426  -0.000045   0.000953   0.000016
    14  H   -0.021105  -0.002093   0.000884  -0.000045   0.000011
    15  H   -0.021130   0.001523   0.000011   0.000017  -0.000057
    16  H   -0.021108  -0.002327  -0.000047   0.000015   0.000946
    17  H   -0.021109   0.001552   0.000027  -0.000058   0.000011
    18  H   -0.020988  -0.002472   0.001093   0.000018  -0.000036
    19  C    4.723504   0.367832  -0.021105  -0.020278  -0.021131
    20  C    0.367832   4.855202   0.374369   0.374831   0.373948
    21  H   -0.021105   0.374369   0.614232  -0.023066  -0.022614
    22  H   -0.020278   0.374831  -0.023066   0.611586  -0.022897
    23  H   -0.021131   0.373948  -0.022614  -0.022897   0.615331
 MBS Mulliken charges:
               1
     1  C   -0.146259
     2  C   -0.143962
     3  H    0.068945
     4  H    0.068943
     5  C   -0.253370
     6  H    0.075782
     7  H    0.075781
     8  H    0.083608
     9  H    0.080696
    10  H    0.080696
    11  C   -0.257971
    12  C   -0.254327
    13  H    0.081210
    14  H    0.079860
    15  H    0.078412
    16  H    0.079019
    17  H    0.079017
    18  H    0.078996
    19  C    0.063406
    20  C   -0.257969
    21  H    0.079863
    22  H    0.081212
    23  H    0.078411
 Sum of MBS Mulliken charges =   0.00000
 MBS Mulliken charges with hydrogens summed into heavy atoms:
               1
     1  C   -0.008371
     2  C    0.007601
     5  C   -0.008370
    11  C   -0.018489
    12  C   -0.017294
    19  C    0.063406
    20  C   -0.018483
 Breneman (CHELPG) radii used.
 Generate Potential Derived Charges using the Breneman model, NDens= 1.
 Grid spacing= 0.300 Box extension= 2.800
 NStep X,Y,Z=   43     31     35   Total possible points=       46655
 Number of Points to Fit=   13286

 **********************************************************************

            Electrostatic Properties Using The SCF Density

 **********************************************************************

       Atomic Center    1 is at   0.505299  0.584475 -0.000637
       Atomic Center    2 is at   1.656065 -0.430448 -0.000101
       Atomic Center    3 is at   0.617342  1.236451 -0.877284
       Atomic Center    4 is at   0.617602  1.237760  0.875002
       Atomic Center    5 is at   3.030445  0.248168  0.000024
       Atomic Center    6 is at   1.581015 -1.082667  0.876485
       Atomic Center    7 is at   1.581358 -1.083081 -0.876418
       Atomic Center    8 is at   3.838891 -0.488423  0.000295
       Atomic Center    9 is at   3.159440  0.882303 -0.882912
       Atomic Center   10 is at   3.159114  0.882603  0.882793
       Atomic Center   11 is at  -1.204083 -0.823408 -1.257779
       Atomic Center   12 is at  -1.911045  1.225147 -0.000694
       Atomic Center   13 is at  -0.577092 -1.718517 -1.283906
       Atomic Center   14 is at  -2.247372 -1.153184 -1.290246
       Atomic Center   15 is at  -1.008556 -0.249165 -2.169365
       Atomic Center   16 is at  -1.761880  1.853181  0.883344
       Atomic Center   17 is at  -1.761929  1.852046 -0.885548
       Atomic Center   18 is at  -2.952568  0.888695 -0.000456
       Atomic Center   19 is at  -0.942107  0.026998  0.000010
       Atomic Center   20 is at  -1.203606 -0.821602  1.259119
       Atomic Center   21 is at  -2.247060 -1.150712  1.292848
       Atomic Center   22 is at  -0.577092 -1.717020  1.285930
       Atomic Center   23 is at  -1.007017 -0.246251  2.169781
   13286 points will be used for fitting atomic charges
 Fitting point charges to electrostatic potential
 Charges from ESP fit, RMS=   0.00165 RRMS=   0.64544:
 ESP charges:
               1
     1  C   -0.177457
     2  C    0.202523
     3  H    0.011891
     4  H    0.011793
     5  C   -0.185575
     6  H   -0.039787
     7  H   -0.039768
     8  H    0.032982
     9  H    0.037739
    10  H    0.037763
    11  C   -0.299152
    12  C   -0.368001
    13  H    0.043040
    14  H    0.048859
    15  H    0.049952
    16  H    0.060862
    17  H    0.060675
    18  H    0.072115
    19  C    0.596952
    20  C   -0.299519
    21  H    0.048885
    22  H    0.043181
    23  H    0.050047
 Sum of ESP charges =   0.00000
 ESP charges with hydrogens summed into heavy atoms:
               1
     1  C   -0.153773
     2  C    0.122967
     5  C   -0.077091
    11  C   -0.157301
    12  C   -0.174349
    19  C    0.596952
    20  C   -0.157406
 Charge=   0.00000 Dipole=     0.0080    -0.0458     0.0002 Tot=     0.0465
 -----------------------------------------------------------------

              Electrostatic Properties (Atomic Units)

 -----------------------------------------------------------------
    Center     Electric         -------- Electric Field --------
               Potential          X             Y             Z
 -----------------------------------------------------------------
    1 Atom    -14.785888
    2 Atom    -14.781919
    3 Atom     -1.136850
    4 Atom     -1.136849
    5 Atom    -14.788790
    6 Atom     -1.137217
    7 Atom     -1.137219
    8 Atom     -1.131157
    9 Atom     -1.131809
   10 Atom     -1.131809
   11 Atom    -14.792125
   12 Atom    -14.792618
   13 Atom     -1.131225
   14 Atom     -1.130714
   15 Atom     -1.130528
   16 Atom     -1.131051
   17 Atom     -1.131052
   18 Atom     -1.130980
   19 Atom    -14.761664
   20 Atom    -14.792125
   21 Atom     -1.130713
   22 Atom     -1.131224
   23 Atom     -1.130528
 -----------------------------------------------------------------
 ******************************Gaussian NBO Version 3.1******************************
             N A T U R A L   A T O M I C   O R B I T A L   A N D
          N A T U R A L   B O N D   O R B I T A L   A N A L Y S I S
 ******************************Gaussian NBO Version 3.1******************************
       /RESON  / : Allow strongly delocalized NBO set

 Analyzing the SCF density

 Job title: Chart2_4                                                        

 Storage needed:    189360 in NPA ( 104854725 available)


 NATURAL POPULATIONS:  Natural atomic orbital occupancies 
                                                          
   NAO  Atom  No  lang   Type(AO)    Occupancy      Energy
 ----------------------------------------------------------
     1    C    1  S      Cor( 1S)     1.99920     -10.01453
     2    C    1  S      Val( 2S)     1.01026      -0.20739
     3    C    1  S      Ryd( 4S)     0.00251       1.09111
     4    C    1  S      Ryd( 3S)     0.00021       1.01590
     5    C    1  S      Ryd( 5S)     0.00000      22.99193
     6    C    1  px     Val( 2p)     1.02987      -0.06309
     7    C    1  px     Ryd( 4p)     0.00269       0.68579
     8    C    1  px     Ryd( 3p)     0.00064       0.49659
     9    C    1  px     Ryd( 5p)     0.00010       3.19512
    10    C    1  py     Val( 2p)     1.11839      -0.07510
    11    C    1  py     Ryd( 4p)     0.00249       0.57244
    12    C    1  py     Ryd( 3p)     0.00024       0.35132
    13    C    1  py     Ryd( 5p)     0.00008       3.15026
    14    C    1  pz     Val( 2p)     1.19985      -0.07287
    15    C    1  pz     Ryd( 4p)     0.00488       0.70854
    16    C    1  pz     Ryd( 3p)     0.00035       0.28729
    17    C    1  pz     Ryd( 5p)     0.00003       3.21876
    18    C    1  dxy    Ryd( 3d)     0.00071       2.19837
    19    C    1  dxz    Ryd( 3d)     0.00027       1.84759
    20    C    1  dyz    Ryd( 3d)     0.00135       2.26578
    21    C    1  dx2y2  Ryd( 3d)     0.00060       2.04919
    22    C    1  dz2    Ryd( 3d)     0.00061       2.07884

    23    C    2  S      Cor( 1S)     1.99931     -10.02281
    24    C    2  S      Val( 2S)     1.02280      -0.22145
    25    C    2  S      Ryd( 3S)     0.00194       0.85080
    26    C    2  S      Ryd( 4S)     0.00036       0.94090
    27    C    2  S      Ryd( 5S)     0.00000      23.22571
    28    C    2  px     Val( 2p)     1.03943      -0.06969
    29    C    2  px     Ryd( 4p)     0.00222       0.64661
    30    C    2  px     Ryd( 3p)     0.00052       0.39003
    31    C    2  px     Ryd( 5p)     0.00015       3.14916
    32    C    2  py     Val( 2p)     1.12265      -0.07684
    33    C    2  py     Ryd( 4p)     0.00113       0.51338
    34    C    2  py     Ryd( 3p)     0.00021       0.30791
    35    C    2  py     Ryd( 5p)     0.00009       3.13831
    36    C    2  pz     Val( 2p)     1.19245      -0.07374
    37    C    2  pz     Ryd( 4p)     0.00206       0.61728
    38    C    2  pz     Ryd( 3p)     0.00018       0.26781
    39    C    2  pz     Ryd( 5p)     0.00003       3.15625
    40    C    2  dxy    Ryd( 3d)     0.00066       2.26426
    41    C    2  dxz    Ryd( 3d)     0.00024       1.83941
    42    C    2  dyz    Ryd( 3d)     0.00123       2.28199
    43    C    2  dx2y2  Ryd( 3d)     0.00053       2.01641
    44    C    2  dz2    Ryd( 3d)     0.00065       2.12231

    45    H    3  S      Val( 1S)     0.80500       0.04673
    46    H    3  S      Ryd( 2S)     0.00093       0.98200
    47    H    3  S      Ryd( 3S)     0.00021       1.91195
    48    H    3  px     Ryd( 2p)     0.00016       1.89382
    49    H    3  py     Ryd( 2p)     0.00021       2.17095
    50    H    3  pz     Ryd( 2p)     0.00021       2.42498

    51    H    4  S      Val( 1S)     0.80500       0.04673
    52    H    4  S      Ryd( 2S)     0.00093       0.98185
    53    H    4  S      Ryd( 3S)     0.00021       1.91211
    54    H    4  px     Ryd( 2p)     0.00016       1.89376
    55    H    4  py     Ryd( 2p)     0.00021       2.17220
    56    H    4  pz     Ryd( 2p)     0.00021       2.42362

    57    C    5  S      Cor( 1S)     1.99938     -10.01657
    58    C    5  S      Val( 2S)     1.08572      -0.24338
    59    C    5  S      Ryd( 3S)     0.00078       0.72501
    60    C    5  S      Ryd( 4S)     0.00027       0.78239
    61    C    5  S      Ryd( 5S)     0.00000      23.29554
    62    C    5  px     Val( 2p)     1.09752      -0.07792
    63    C    5  px     Ryd( 4p)     0.00177       0.54857
    64    C    5  px     Ryd( 3p)     0.00035       0.17776
    65    C    5  px     Ryd( 5p)     0.00006       3.14902
    66    C    5  py     Val( 2p)     1.17657      -0.08014
    67    C    5  py     Ryd( 4p)     0.00167       0.54434
    68    C    5  py     Ryd( 3p)     0.00008       0.19817
    69    C    5  py     Ryd( 5p)     0.00004       3.14227
    70    C    5  pz     Val( 2p)     1.20184      -0.08289
    71    C    5  pz     Ryd( 4p)     0.00064       0.51313
    72    C    5  pz     Ryd( 3p)     0.00008       0.20619
    73    C    5  pz     Ryd( 5p)     0.00001       3.13831
    74    C    5  dxy    Ryd( 3d)     0.00087       2.24571
    75    C    5  dxz    Ryd( 3d)     0.00017       1.85090
    76    C    5  dyz    Ryd( 3d)     0.00101       2.23007
    77    C    5  dx2y2  Ryd( 3d)     0.00037       1.96093
    78    C    5  dz2    Ryd( 3d)     0.00061       2.10803

    79    H    6  S      Val( 1S)     0.80747       0.04145
    80    H    6  S      Ryd( 2S)     0.00125       0.80213
    81    H    6  S      Ryd( 3S)     0.00013       2.10380
    82    H    6  px     Ryd( 2p)     0.00020       1.82792
    83    H    6  py     Ryd( 2p)     0.00020       2.10854
    84    H    6  pz     Ryd( 2p)     0.00025       2.40372

    85    H    7  S      Val( 1S)     0.80747       0.04144
    86    H    7  S      Ryd( 2S)     0.00125       0.80199
    87    H    7  S      Ryd( 3S)     0.00013       2.10401
    88    H    7  px     Ryd( 2p)     0.00020       1.82795
    89    H    7  py     Ryd( 2p)     0.00020       2.10889
    90    H    7  pz     Ryd( 2p)     0.00025       2.40332

    91    H    8  S      Val( 1S)     0.79949       0.04113
    92    H    8  S      Ryd( 2S)     0.00048       0.59130
    93    H    8  S      Ryd( 3S)     0.00010       2.17175
    94    H    8  px     Ryd( 2p)     0.00023       2.25044
    95    H    8  py     Ryd( 2p)     0.00021       2.15604
    96    H    8  pz     Ryd( 2p)     0.00011       1.78764

    97    H    9  S      Val( 1S)     0.80580       0.03776
    98    H    9  S      Ryd( 2S)     0.00096       0.73018
    99    H    9  S      Ryd( 3S)     0.00010       2.06086
   100    H    9  px     Ryd( 2p)     0.00013       1.75353
   101    H    9  py     Ryd( 2p)     0.00018       2.06141
   102    H    9  pz     Ryd( 2p)     0.00025       2.37784

   103    H   10  S      Val( 1S)     0.80580       0.03775
   104    H   10  S      Ryd( 2S)     0.00096       0.73029
   105    H   10  S      Ryd( 3S)     0.00010       2.06078
   106    H   10  px     Ryd( 2p)     0.00013       1.75349
   107    H   10  py     Ryd( 2p)     0.00018       2.06170
   108    H   10  pz     Ryd( 2p)     0.00025       2.37768

   109    C   11  S      Cor( 1S)     1.99929     -10.00768
   110    C   11  S      Val( 2S)     1.07187      -0.22961
   111    C   11  S      Ryd( 4S)     0.00084       1.14718
   112    C   11  S      Ryd( 3S)     0.00007       0.57855
   113    C   11  S      Ryd( 5S)     0.00000      23.31244
   114    C   11  px     Val( 2p)     1.20416      -0.08074
   115    C   11  px     Ryd( 4p)     0.00269       0.59926
   116    C   11  px     Ryd( 3p)     0.00032       0.23085
   117    C   11  px     Ryd( 5p)     0.00002       3.18617
   118    C   11  py     Val( 2p)     1.16893      -0.07823
   119    C   11  py     Ryd( 4p)     0.00252       0.57163
   120    C   11  py     Ryd( 3p)     0.00026       0.20313
   121    C   11  py     Ryd( 5p)     0.00003       3.19942
   122    C   11  pz     Val( 2p)     1.11768      -0.07782
   123    C   11  pz     Ryd( 4p)     0.00193       0.53697
   124    C   11  pz     Ryd( 3p)     0.00038       0.18932
   125    C   11  pz     Ryd( 5p)     0.00005       3.19991
   126    C   11  dxy    Ryd( 3d)     0.00084       2.11808
   127    C   11  dxz    Ryd( 3d)     0.00021       1.85476
   128    C   11  dyz    Ryd( 3d)     0.00077       2.20339
   129    C   11  dx2y2  Ryd( 3d)     0.00054       2.03845
   130    C   11  dz2    Ryd( 3d)     0.00094       2.17506

   131    C   12  S      Cor( 1S)     1.99929     -10.00765
   132    C   12  S      Val( 2S)     1.07275      -0.22973
   133    C   12  S      Ryd( 4S)     0.00062       1.23313
   134    C   12  S      Ryd( 3S)     0.00005       0.52890
   135    C   12  S      Ryd( 5S)     0.00000      23.25943
   136    C   12  px     Val( 2p)     1.15210      -0.07830
   137    C   12  px     Ryd( 4p)     0.00238       0.57788
   138    C   12  px     Ryd( 3p)     0.00031       0.18689
   139    C   12  px     Ryd( 5p)     0.00003       3.18385
   140    C   12  py     Val( 2p)     1.12402      -0.07783
   141    C   12  py     Ryd( 4p)     0.00212       0.55217
   142    C   12  py     Ryd( 3p)     0.00034       0.18502
   143    C   12  py     Ryd( 5p)     0.00004       3.18828
   144    C   12  pz     Val( 2p)     1.20708      -0.08010
   145    C   12  pz     Ryd( 4p)     0.00265       0.59013
   146    C   12  pz     Ryd( 3p)     0.00014       0.20682
   147    C   12  pz     Ryd( 5p)     0.00002       3.17625
   148    C   12  dxy    Ryd( 3d)     0.00054       2.14098
   149    C   12  dxz    Ryd( 3d)     0.00010       1.82759
   150    C   12  dyz    Ryd( 3d)     0.00123       2.24862
   151    C   12  dx2y2  Ryd( 3d)     0.00080       2.05633
   152    C   12  dz2    Ryd( 3d)     0.00065       2.10659

   153    H   13  S      Val( 1S)     0.79925       0.04755
   154    H   13  S      Ryd( 2S)     0.00063       0.69743
   155    H   13  S      Ryd( 3S)     0.00016       2.11886
   156    H   13  px     Ryd( 2p)     0.00018       2.10004
   157    H   13  py     Ryd( 2p)     0.00024       2.44894
   158    H   13  pz     Ryd( 2p)     0.00012       1.77372

   159    H   14  S      Val( 1S)     0.79905       0.04573
   160    H   14  S      Ryd( 2S)     0.00057       0.74581
   161    H   14  S      Ryd( 3S)     0.00020       2.03081
   162    H   14  px     Ryd( 2p)     0.00027       2.63305
   163    H   14  py     Ryd( 2p)     0.00013       1.89828
   164    H   14  pz     Ryd( 2p)     0.00012       1.78105

   165    H   15  S      Val( 1S)     0.79982       0.04524
   166    H   15  S      Ryd( 2S)     0.00048       0.79245
   167    H   15  S      Ryd( 3S)     0.00021       1.99626
   168    H   15  px     Ryd( 2p)     0.00012       1.83804
   169    H   15  py     Ryd( 2p)     0.00016       2.01282
   170    H   15  pz     Ryd( 2p)     0.00025       2.45280

   171    H   16  S      Val( 1S)     0.79983       0.04583
   172    H   16  S      Ryd( 2S)     0.00055       0.67065
   173    H   16  S      Ryd( 3S)     0.00020       2.12318
   174    H   16  px     Ryd( 2p)     0.00012       1.80008
   175    H   16  py     Ryd( 2p)     0.00018       2.11057
   176    H   16  pz     Ryd( 2p)     0.00022       2.39324

   177    H   17  S      Val( 1S)     0.79984       0.04582
   178    H   17  S      Ryd( 2S)     0.00055       0.67079
   179    H   17  S      Ryd( 3S)     0.00020       2.12305
   180    H   17  px     Ryd( 2p)     0.00012       1.80004
   181    H   17  py     Ryd( 2p)     0.00018       2.10954
   182    H   17  pz     Ryd( 2p)     0.00022       2.39435

   183    H   18  S      Val( 1S)     0.80012       0.04543
   184    H   18  S      Ryd( 2S)     0.00056       0.72571
   185    H   18  S      Ryd( 3S)     0.00018       2.05182
   186    H   18  px     Ryd( 2p)     0.00028       2.65439
   187    H   18  py     Ryd( 2p)     0.00013       1.83913
   188    H   18  pz     Ryd( 2p)     0.00011       1.82401

   189    C   19  S      Cor( 1S)     1.99921     -10.04332
   190    C   19  S      Val( 2S)     0.92381      -0.19587
   191    C   19  S      Ryd( 3S)     0.00195       0.83443
   192    C   19  S      Ryd( 4S)     0.00021       1.19605
   193    C   19  S      Ryd( 5S)     0.00000      23.63939
   194    C   19  px     Val( 2p)     1.05070      -0.07719
   195    C   19  px     Ryd( 3p)     0.00214       0.71648
   196    C   19  px     Ryd( 4p)     0.00054       0.74487
   197    C   19  px     Ryd( 5p)     0.00005       2.94222
   198    C   19  py     Val( 2p)     1.05408      -0.08136
   199    C   19  py     Ryd( 4p)     0.00341       0.75898
   200    C   19  py     Ryd( 3p)     0.00034       0.74318
   201    C   19  py     Ryd( 5p)     0.00002       2.99634
   202    C   19  pz     Val( 2p)     1.05203      -0.08153
   203    C   19  pz     Ryd( 3p)     0.00210       0.74057
   204    C   19  pz     Ryd( 4p)     0.00043       0.75807
   205    C   19  pz     Ryd( 5p)     0.00001       2.93215
   206    C   19  dxy    Ryd( 3d)     0.00088       2.23912
   207    C   19  dxz    Ryd( 3d)     0.00038       1.85098
   208    C   19  dyz    Ryd( 3d)     0.00096       2.27656
   209    C   19  dx2y2  Ryd( 3d)     0.00061       2.01314
   210    C   19  dz2    Ryd( 3d)     0.00084       2.19792

   211    C   20  S      Cor( 1S)     1.99929     -10.00768
   212    C   20  S      Val( 2S)     1.07187      -0.22961
   213    C   20  S      Ryd( 4S)     0.00084       1.14719
   214    C   20  S      Ryd( 3S)     0.00007       0.57850
   215    C   20  S      Ryd( 5S)     0.00000      23.31240
   216    C   20  px     Val( 2p)     1.20418      -0.08074
   217    C   20  px     Ryd( 4p)     0.00269       0.59929
   218    C   20  px     Ryd( 3p)     0.00032       0.23088
   219    C   20  px     Ryd( 5p)     0.00002       3.18620
   220    C   20  py     Val( 2p)     1.16909      -0.07824
   221    C   20  py     Ryd( 4p)     0.00252       0.57170
   222    C   20  py     Ryd( 3p)     0.00026       0.20317
   223    C   20  py     Ryd( 5p)     0.00003       3.19936
   224    C   20  pz     Val( 2p)     1.11749      -0.07782
   225    C   20  pz     Ryd( 4p)     0.00193       0.53686
   226    C   20  pz     Ryd( 3p)     0.00038       0.18928
   227    C   20  pz     Ryd( 5p)     0.00005       3.19994
   228    C   20  dxy    Ryd( 3d)     0.00084       2.11761
   229    C   20  dxz    Ryd( 3d)     0.00021       1.85507
   230    C   20  dyz    Ryd( 3d)     0.00077       2.20340
   231    C   20  dx2y2  Ryd( 3d)     0.00054       2.03877
   232    C   20  dz2    Ryd( 3d)     0.00094       2.17492

   233    H   21  S      Val( 1S)     0.79905       0.04574
   234    H   21  S      Ryd( 2S)     0.00057       0.74592
   235    H   21  S      Ryd( 3S)     0.00020       2.03070
   236    H   21  px     Ryd( 2p)     0.00027       2.63330
   237    H   21  py     Ryd( 2p)     0.00013       1.89790
   238    H   21  pz     Ryd( 2p)     0.00012       1.78117

   239    H   22  S      Val( 1S)     0.79925       0.04755
   240    H   22  S      Ryd( 2S)     0.00063       0.69732
   241    H   22  S      Ryd( 3S)     0.00016       2.11905
   242    H   22  px     Ryd( 2p)     0.00018       2.09962
   243    H   22  py     Ryd( 2p)     0.00024       2.44932
   244    H   22  pz     Ryd( 2p)     0.00012       1.77368

   245    H   23  S      Val( 1S)     0.79982       0.04524
   246    H   23  S      Ryd( 2S)     0.00048       0.79271
   247    H   23  S      Ryd( 3S)     0.00021       1.99597
   248    H   23  px     Ryd( 2p)     0.00012       1.83837
   249    H   23  py     Ryd( 2p)     0.00016       2.01385
   250    H   23  pz     Ryd( 2p)     0.00025       2.45151

 WARNING:  Population inversion found on atom  C    1
           Population inversion found on atom  C    2
           Population inversion found on atom  C    5
           Population inversion found on atom  C   11
           Population inversion found on atom  C   12
           Population inversion found on atom  C   19
           Population inversion found on atom  C   20


 Summary of Natural Population Analysis:                  
                                                          
                                       Natural Population 
                Natural  -----------------------------------------------
    Atom  No    Charge         Core      Valence    Rydberg      Total
 -----------------------------------------------------------------------
      C    1   -0.37532      1.99920     4.35836    0.01776     6.37532
      C    2   -0.38882      1.99931     4.37733    0.01219     6.38882
      H    3    0.19326      0.00000     0.80500    0.00173     0.80674
      H    4    0.19326      0.00000     0.80500    0.00174     0.80674
      C    5   -0.56981      1.99938     4.56164    0.00879     6.56981
      H    6    0.19051      0.00000     0.80747    0.00202     0.80949
      H    7    0.19051      0.00000     0.80747    0.00202     0.80949
      H    8    0.19939      0.00000     0.79949    0.00112     0.80061
      H    9    0.19258      0.00000     0.80580    0.00162     0.80742
      H   10    0.19258      0.00000     0.80580    0.00162     0.80742
      C   11   -0.57433      1.99929     4.56263    0.01241     6.57433
      C   12   -0.56729      1.99929     4.55595    0.01204     6.56729
      H   13    0.19942      0.00000     0.79925    0.00133     0.80058
      H   14    0.19966      0.00000     0.79905    0.00129     0.80034
      H   15    0.19896      0.00000     0.79982    0.00122     0.80104
      H   16    0.19890      0.00000     0.79983    0.00127     0.80110
      H   17    0.19889      0.00000     0.79984    0.00127     0.80111
      H   18    0.19863      0.00000     0.80012    0.00126     0.80137
      C   19   -0.09469      1.99921     4.08062    0.01486     6.09469
      C   20   -0.57433      1.99929     4.56263    0.01241     6.57433
      H   21    0.19966      0.00000     0.79905    0.00129     0.80034
      H   22    0.19942      0.00000     0.79925    0.00133     0.80058
      H   23    0.19896      0.00000     0.79982    0.00122     0.80104
 =======================================================================
   * Total *    0.00000     13.99497    43.89123    0.11380    58.00000

                                 Natural Population      
 --------------------------------------------------------
   Core                      13.99497 ( 99.9641% of  14)
   Valence                   43.89123 ( 99.7528% of  44)
   Natural Minimal Basis     57.88620 ( 99.8038% of  58)
   Natural Rydberg Basis      0.11380 (  0.1962% of  58)
 --------------------------------------------------------

    Atom  No          Natural Electron Configuration
 ----------------------------------------------------------------------------
      C    1      [core]2S( 1.01)2p( 3.35)4p( 0.01)
      C    2      [core]2S( 1.02)2p( 3.35)4p( 0.01)
      H    3            1S( 0.81)
      H    4            1S( 0.81)
      C    5      [core]2S( 1.09)2p( 3.48)
      H    6            1S( 0.81)
      H    7            1S( 0.81)
      H    8            1S( 0.80)
      H    9            1S( 0.81)
      H   10            1S( 0.81)
      C   11      [core]2S( 1.07)2p( 3.49)4p( 0.01)
      C   12      [core]2S( 1.07)2p( 3.48)4p( 0.01)
      H   13            1S( 0.80)
      H   14            1S( 0.80)
      H   15            1S( 0.80)
      H   16            1S( 0.80)
      H   17            1S( 0.80)
      H   18            1S( 0.80)
      C   19      [core]2S( 0.92)2p( 3.16)
      C   20      [core]2S( 1.07)2p( 3.49)4p( 0.01)
      H   21            1S( 0.80)
      H   22            1S( 0.80)
      H   23            1S( 0.80)


 NBO analysis skipped by request.
 1\1\GINC-COREV4-21-006\SP\RB3LYP\6-311+G(d,p)\C7H16\ROOT\23-Jul-2021\0
 \\# b3lyp/6-311+g(d,p) geom=connectivity pop=(hirshfeld,chelpg,mbs,npa
 )\\Chart2_4\\0,1\C,0,0.505299,-0.584475,0.000637\C,0,1.656065,0.430448
 ,0.000101\H,0,0.617342,-1.236451,0.877284\H,0,0.617602,-1.23776,-0.875
 002\C,0,3.030445,-0.248168,-0.000024\H,0,1.581015,1.082667,-0.876485\H
 ,0,1.581358,1.083081,0.876418\H,0,3.838891,0.488423,-0.000295\H,0,3.15
 944,-0.882303,0.882912\H,0,3.159114,-0.882603,-0.882793\C,0,-1.204083,
 0.823408,1.257779\C,0,-1.911045,-1.225147,0.000694\H,0,-0.577092,1.718
 517,1.283906\H,0,-2.247372,1.153184,1.290246\H,0,-1.008556,0.249165,2.
 169365\H,0,-1.76188,-1.853181,-0.883344\H,0,-1.761929,-1.852046,0.8855
 48\H,0,-2.952568,-0.888695,0.000456\C,0,-0.942107,-0.026998,-0.00001\C
 ,0,-1.203606,0.821602,-1.259119\H,0,-2.24706,1.150712,-1.292848\H,0,-0
 .577092,1.71702,-1.28593\H,0,-1.007017,0.246251,-2.169781\\Version=ES6
 4L-G09RevD.01\State=1-A\HF=-276.4766325\RMSD=8.502e-09\Dipole=0.013178
 3,0.0273844,0.0000021\Quadrupole=-0.2363634,-0.05975,0.2961134,0.11279
 13,0.0001421,0.0001331\PG=C01 [X(C7H16)]\\@


 FROM WHENCE IT HAPPENS, THAT THEY WHICH TRUST TO BOOKS, DO AS THEY THAT CAST UP MANY LITTLE SUMMS INTO GREATER,
 WITHOUT CONSIDERING WETHER THOSE LITTLE SUMMES WERE RIGHTLY CAST UP OR NOT...
 AND AT LAST FINDING THE ERROUR VISIBLE, AND NOT MISTRUSTING THEIR FIRST GROUNDS,
 KNOW NOT WHICH WAY TO CLEERE THEMSELVES...
 BUT SPEND TIME IN FLUTTERING OVER THEIR BOOKES....
 AS BIRDS THAT ENTERING BY THE CHIMNEY, AND FINDING THEMSELVES INCLOSED IN A CHAMBER,
 FLUTTER AT THE FALSE LIGHT OF A GLASSE WINDOW,
 FOR WANT OF WIT TO CONSIDER WHICH WAY THEY CAME IN....
           LEVIATHAN
 Job cpu time:       0 days  0 hours  6 minutes 32.8 seconds.
 File lengths (MBytes):  RWF=     70 Int=      0 D2E=      0 Chk=      3 Scr=      1
 Normal termination of Gaussian 09 at Fri Jul 23 17:22:24 2021.
