 Entering Gaussian System, Link 0=g09
 Initial command:
 /cm/shared/apps/gaussian/g09revD.01/g09/l1.exe "//home/sweav003/HartwigDocs/IrCatSterIo/G09-Scheme2_1.com.o9624907.tmp/Gau-57653.inp" -scrdir="//home/sweav003/HartwigDocs/IrCatSterIo/G09-Scheme2_1.com.o9624907.tmp/"
 Entering Link 1 = /cm/shared/apps/gaussian/g09revD.01/g09/l1.exe PID=     57654.
  
 Copyright (c) 1988,1990,1992,1993,1995,1998,2003,2009,2013,
            Gaussian, Inc.  All Rights Reserved.
  
 This is part of the Gaussian(R) 09 program.  It is based on
 the Gaussian(R) 03 system (copyright 2003, Gaussian, Inc.),
 the Gaussian(R) 98 system (copyright 1998, Gaussian, Inc.),
 the Gaussian(R) 94 system (copyright 1995, Gaussian, Inc.),
 the Gaussian 92(TM) system (copyright 1992, Gaussian, Inc.),
 the Gaussian 90(TM) system (copyright 1990, Gaussian, Inc.),
 the Gaussian 88(TM) system (copyright 1988, Gaussian, Inc.),
 the Gaussian 86(TM) system (copyright 1986, Carnegie Mellon
 University), and the Gaussian 82(TM) system (copyright 1983,
 Carnegie Mellon University). Gaussian is a federally registered
 trademark of Gaussian, Inc.
  
 This software contains proprietary and confidential information,
 including trade secrets, belonging to Gaussian, Inc.
  
 This software is provided under written license and may be
 used, copied, transmitted, or stored only in accord with that
 written license.
  
 The following legend is applicable only to US Government
 contracts under FAR:
  
                    RESTRICTED RIGHTS LEGEND
  
 Use, reproduction and disclosure by the US Government is
 subject to restrictions as set forth in subparagraphs (a)
 and (c) of the Commercial Computer Software - Restricted
 Rights clause in FAR 52.227-19.
  
 Gaussian, Inc.
 340 Quinnipiac St., Bldg. 40, Wallingford CT 06492
  
  
 ---------------------------------------------------------------
 Warning -- This program may not be used in any manner that
 competes with the business of Gaussian, Inc. or will provide
 assistance to any competitor of Gaussian, Inc.  The licensee
 of this program is prohibited from giving any competitor of
 Gaussian, Inc. access to this program.  By using this program,
 the user acknowledges that Gaussian, Inc. is engaged in the
 business of creating and licensing software in the field of
 computational chemistry and represents and warrants to the
 licensee that it is not a competitor of Gaussian, Inc. and that
 it will not use this program in any manner prohibited above.
 ---------------------------------------------------------------
  

 Cite this work as:
 Gaussian 09, Revision D.01,
 M. J. Frisch, G. W. Trucks, H. B. Schlegel, G. E. Scuseria, 
 M. A. Robb, J. R. Cheeseman, G. Scalmani, V. Barone, B. Mennucci, 
 G. A. Petersson, H. Nakatsuji, M. Caricato, X. Li, H. P. Hratchian, 
 A. F. Izmaylov, J. Bloino, G. Zheng, J. L. Sonnenberg, M. Hada, 
 M. Ehara, K. Toyota, R. Fukuda, J. Hasegawa, M. Ishida, T. Nakajima, 
 Y. Honda, O. Kitao, H. Nakai, T. Vreven, J. A. Montgomery, Jr., 
 J. E. Peralta, F. Ogliaro, M. Bearpark, J. J. Heyd, E. Brothers, 
 K. N. Kudin, V. N. Staroverov, T. Keith, R. Kobayashi, J. Normand, 
 K. Raghavachari, A. Rendell, J. C. Burant, S. S. Iyengar, J. Tomasi, 
 M. Cossi, N. Rega, J. M. Millam, M. Klene, J. E. Knox, J. B. Cross, 
 V. Bakken, C. Adamo, J. Jaramillo, R. Gomperts, R. E. Stratmann, 
 O. Yazyev, A. J. Austin, R. Cammi, C. Pomelli, J. W. Ochterski, 
 R. L. Martin, K. Morokuma, V. G. Zakrzewski, G. A. Voth, 
 P. Salvador, J. J. Dannenberg, S. Dapprich, A. D. Daniels, 
 O. Farkas, J. B. Foresman, J. V. Ortiz, J. Cioslowski, 
 and D. J. Fox, Gaussian, Inc., Wallingford CT, 2013.
 
 ******************************************
 Gaussian 09:  ES64L-G09RevD.01 24-Apr-2013
                 2-Nov-2021 
 ******************************************
 %mem=100MW
 %nprocshared=20
 Will use up to   20 processors via shared memory.
 %chk=Scheme2_1.chk
 ----------------------------------------------------------------------
 # opt freq b3lyp/6-311+g(d,p) geom=connectivity pop=(hirshfeld,chelpg,
 mbs,npa)
 ----------------------------------------------------------------------
 1/14=-1,18=20,19=15,26=3,38=1,57=2/1,3;
 2/9=110,12=2,17=6,18=5,40=1/2;
 3/5=4,6=6,7=111,11=2,16=1,25=1,30=1,71=1,74=-5/1,2,3;
 4//1;
 5/5=2,38=5/2;
 6/7=2,8=2,9=2,10=2,15=8,20=3,27=100,28=1,40=-1,79=1/1,2,7;
 7//1,2,3,16;
 1/14=-1,18=20,19=15,26=3/3(2);
 2/9=110/2;
 99//99;
 2/9=110/2;
 3/5=4,6=6,7=111,11=2,16=1,25=1,30=1,71=1,74=-5/1,2,3;
 4/5=5,16=3,69=1/1;
 5/5=2,38=5/2;
 7//1,2,3,16;
 1/14=-1,18=20,19=15,26=3/3(-5);
 2/9=110/2;
 6/7=2,8=2,9=2,10=2,15=8,19=2,20=3,27=100,28=1,40=-1,79=1/1,2,7;
 99/9=1/99;
 -------------------
 Title Card Required
 -------------------
 Symbolic Z-matrix:
 Charge =  0 Multiplicity = 1
 C                    -1.39649  -0.31392  -0.11814 
 C                     0.00471  -0.33718  -0.11508 
 C                     0.72528   0.86284  -0.047 
 C                     0.04465   2.08613   0.01803 
 C                    -1.35655   2.10939   0.01497 
 C                    -2.07712   0.90936  -0.05311 
 H                    -1.94666  -1.23017  -0.17012 
 H                     0.52439  -1.27119  -0.16473 
 H                     0.59482   3.00238   0.07001 
 H                    -3.14697   0.92712  -0.05545 
 O                    -2.05108   3.35764   0.08132 
 O                     2.15508   0.83911  -0.04388 
 C                     2.62752   0.75732   1.30335 
 H                     2.25497  -0.13661   1.7583 
 H                     3.69737   0.73957   1.30569 
 H                     2.28372   1.60782   1.85412 
 C                    -2.27842   3.8476   -1.24274 
 H                    -2.7981    4.78161  -1.19309 
 H                    -1.33996   3.98746  -1.73733 
 H                    -2.86733   3.14035  -1.78854 
 

 GradGradGradGradGradGradGradGradGradGradGradGradGradGradGradGradGradGrad
 Berny optimization.
 Initialization pass.
                           ----------------------------
                           !    Initial Parameters    !
                           ! (Angstroms and Degrees)  !
 --------------------------                            --------------------------
 ! Name  Definition              Value          Derivative Info.                !
 --------------------------------------------------------------------------------
 ! R1    R(1,2)                  1.4014         estimate D2E/DX2                !
 ! R2    R(1,6)                  1.4014         estimate D2E/DX2                !
 ! R3    R(1,7)                  1.07           estimate D2E/DX2                !
 ! R4    R(2,3)                  1.4014         estimate D2E/DX2                !
 ! R5    R(2,8)                  1.07           estimate D2E/DX2                !
 ! R6    R(3,4)                  1.4014         estimate D2E/DX2                !
 ! R7    R(3,12)                 1.43           estimate D2E/DX2                !
 ! R8    R(4,5)                  1.4014         estimate D2E/DX2                !
 ! R9    R(4,9)                  1.07           estimate D2E/DX2                !
 ! R10   R(5,6)                  1.4014         estimate D2E/DX2                !
 ! R11   R(5,11)                 1.43           estimate D2E/DX2                !
 ! R12   R(6,10)                 1.07           estimate D2E/DX2                !
 ! R13   R(11,17)                1.43           estimate D2E/DX2                !
 ! R14   R(12,13)                1.43           estimate D2E/DX2                !
 ! R15   R(13,14)                1.07           estimate D2E/DX2                !
 ! R16   R(13,15)                1.07           estimate D2E/DX2                !
 ! R17   R(13,16)                1.07           estimate D2E/DX2                !
 ! R18   R(17,18)                1.07           estimate D2E/DX2                !
 ! R19   R(17,19)                1.07           estimate D2E/DX2                !
 ! R20   R(17,20)                1.07           estimate D2E/DX2                !
 ! A1    A(2,1,6)              120.0            estimate D2E/DX2                !
 ! A2    A(2,1,7)              120.0            estimate D2E/DX2                !
 ! A3    A(6,1,7)              120.0            estimate D2E/DX2                !
 ! A4    A(1,2,3)              120.0            estimate D2E/DX2                !
 ! A5    A(1,2,8)              120.0            estimate D2E/DX2                !
 ! A6    A(3,2,8)              120.0            estimate D2E/DX2                !
 ! A7    A(2,3,4)              120.0            estimate D2E/DX2                !
 ! A8    A(2,3,12)             120.0            estimate D2E/DX2                !
 ! A9    A(4,3,12)             120.0            estimate D2E/DX2                !
 ! A10   A(3,4,5)              120.0            estimate D2E/DX2                !
 ! A11   A(3,4,9)              120.0            estimate D2E/DX2                !
 ! A12   A(5,4,9)              120.0            estimate D2E/DX2                !
 ! A13   A(4,5,6)              120.0            estimate D2E/DX2                !
 ! A14   A(4,5,11)             120.0            estimate D2E/DX2                !
 ! A15   A(6,5,11)             120.0            estimate D2E/DX2                !
 ! A16   A(1,6,5)              120.0            estimate D2E/DX2                !
 ! A17   A(1,6,10)             120.0            estimate D2E/DX2                !
 ! A18   A(5,6,10)             120.0            estimate D2E/DX2                !
 ! A19   A(5,11,17)            109.4712         estimate D2E/DX2                !
 ! A20   A(3,12,13)            109.4712         estimate D2E/DX2                !
 ! A21   A(12,13,14)           109.4712         estimate D2E/DX2                !
 ! A22   A(12,13,15)           109.4712         estimate D2E/DX2                !
 ! A23   A(12,13,16)           109.4712         estimate D2E/DX2                !
 ! A24   A(14,13,15)           109.4712         estimate D2E/DX2                !
 ! A25   A(14,13,16)           109.4712         estimate D2E/DX2                !
 ! A26   A(15,13,16)           109.4712         estimate D2E/DX2                !
 ! A27   A(11,17,18)           109.4712         estimate D2E/DX2                !
 ! A28   A(11,17,19)           109.4712         estimate D2E/DX2                !
 ! A29   A(11,17,20)           109.4712         estimate D2E/DX2                !
 ! A30   A(18,17,19)           109.4712         estimate D2E/DX2                !
 ! A31   A(18,17,20)           109.4712         estimate D2E/DX2                !
 ! A32   A(19,17,20)           109.4712         estimate D2E/DX2                !
 ! D1    D(6,1,2,3)              0.0002         estimate D2E/DX2                !
 ! D2    D(6,1,2,8)           -180.0            estimate D2E/DX2                !
 ! D3    D(7,1,2,3)            180.0            estimate D2E/DX2                !
 ! D4    D(7,1,2,8)             -0.0001         estimate D2E/DX2                !
 ! D5    D(2,1,6,5)             -0.0002         estimate D2E/DX2                !
 ! D6    D(2,1,6,10)           179.9998         estimate D2E/DX2                !
 ! D7    D(7,1,6,5)           -180.0            estimate D2E/DX2                !
 ! D8    D(7,1,6,10)             0.0            estimate D2E/DX2                !
 ! D9    D(1,2,3,4)             -0.0002         estimate D2E/DX2                !
 ! D10   D(1,2,3,12)           179.9998         estimate D2E/DX2                !
 ! D11   D(8,2,3,4)            180.0            estimate D2E/DX2                !
 ! D12   D(8,2,3,12)             0.0            estimate D2E/DX2                !
 ! D13   D(2,3,4,5)              0.0001         estimate D2E/DX2                !
 ! D14   D(2,3,4,9)           -179.9999         estimate D2E/DX2                !
 ! D15   D(12,3,4,5)          -179.9999         estimate D2E/DX2                !
 ! D16   D(12,3,4,9)             0.0001         estimate D2E/DX2                !
 ! D17   D(2,3,12,13)          -90.0            estimate D2E/DX2                !
 ! D18   D(4,3,12,13)           90.0            estimate D2E/DX2                !
 ! D19   D(3,4,5,6)             -0.0001         estimate D2E/DX2                !
 ! D20   D(3,4,5,11)           179.9999         estimate D2E/DX2                !
 ! D21   D(9,4,5,6)            179.9999         estimate D2E/DX2                !
 ! D22   D(9,4,5,11)            -0.0001         estimate D2E/DX2                !
 ! D23   D(4,5,6,1)              0.0001         estimate D2E/DX2                !
 ! D24   D(4,5,6,10)          -179.9999         estimate D2E/DX2                !
 ! D25   D(11,5,6,1)          -179.9999         estimate D2E/DX2                !
 ! D26   D(11,5,6,10)            0.0001         estimate D2E/DX2                !
 ! D27   D(4,5,11,17)           90.0            estimate D2E/DX2                !
 ! D28   D(6,5,11,17)          -90.0            estimate D2E/DX2                !
 ! D29   D(5,11,17,18)         180.0            estimate D2E/DX2                !
 ! D30   D(5,11,17,19)         -60.0            estimate D2E/DX2                !
 ! D31   D(5,11,17,20)          60.0            estimate D2E/DX2                !
 ! D32   D(3,12,13,14)          60.0            estimate D2E/DX2                !
 ! D33   D(3,12,13,15)        -180.0            estimate D2E/DX2                !
 ! D34   D(3,12,13,16)         -60.0            estimate D2E/DX2                !
 --------------------------------------------------------------------------------
 Trust Radius=3.00D-01 FncErr=1.00D-07 GrdErr=1.00D-06
 Number of steps in this run=     96 maximum allowed number of steps=    120.
 GradGradGradGradGradGradGradGradGradGradGradGradGradGradGradGradGradGrad

                          Input orientation:                          
 ---------------------------------------------------------------------
 Center     Atomic      Atomic             Coordinates (Angstroms)
 Number     Number       Type             X           Y           Z
 ---------------------------------------------------------------------
      1          6           0       -1.396490   -0.313924   -0.118138
      2          6           0        0.004714   -0.337183   -0.115082
      3          6           0        0.725283    0.862845   -0.046998
      4          6           0        0.044649    2.086132    0.018027
      5          6           0       -1.356554    2.109391    0.014970
      6          6           0       -2.077124    0.909363   -0.053114
      7          1           0       -1.946660   -1.230171   -0.170121
      8          1           0        0.524393   -1.271189   -0.164729
      9          1           0        0.594820    3.002380    0.070008
     10          1           0       -3.146974    0.927122   -0.055450
     11          8           0       -2.051079    3.357643    0.081324
     12          8           0        2.155083    0.839111   -0.043876
     13          6           0        2.627517    0.757325    1.303350
     14          1           0        2.254968   -0.136612    1.758304
     15          1           0        3.697367    0.739566    1.305686
     16          1           0        2.283716    1.607824    1.854123
     17          6           0       -2.278424    3.847603   -1.242743
     18          1           0       -2.798104    4.781609   -1.193094
     19          1           0       -1.339955    3.987458   -1.737330
     20          1           0       -2.867325    3.140354   -1.788541
 ---------------------------------------------------------------------
                    Distance matrix (angstroms):
                    1          2          3          4          5
     1  C    0.000000
     2  C    1.401400   0.000000
     3  C    2.427296   1.401400   0.000000
     4  C    2.802800   2.427296   1.401400   0.000000
     5  C    2.427296   2.802800   2.427296   1.401400   0.000000
     6  C    1.401400   2.427296   2.802800   2.427296   1.401400
     7  H    1.070000   2.146700   3.396345   3.872800   3.396345
     8  H    2.146700   1.070000   2.146700   3.396345   3.872800
     9  H    3.872800   3.396345   2.146700   1.070000   2.146700
    10  H    2.146700   3.396345   3.872800   3.396345   2.146700
    11  O    3.734792   4.232800   3.734792   2.452106   1.430000
    12  O    3.734792   2.452106   1.430000   2.452106   3.734792
    13  C    4.400095   3.176317   2.335180   3.176317   4.400095
    14  H    4.109212   2.934868   2.568651   3.585341   4.596395
    15  H    5.393004   4.100446   3.267757   4.100446   5.393004
    16  H    4.596394   3.585341   2.568651   2.934868   4.109212
    17  C    4.400096   4.898650   4.400096   3.176317   2.335180
    18  H    5.393006   5.934638   5.393005   4.100446   3.267757
    19  H    4.596397   4.810649   4.109214   2.934868   2.568651
    20  H    4.109214   4.810649   4.596397   3.585341   2.568651
                    6          7          8          9         10
     6  C    0.000000
     7  H    2.146700   0.000000
     8  H    3.396345   2.471400   0.000000
     9  H    3.396345   4.942800   4.280590   0.000000
    10  H    1.070000   2.471400   4.280590   4.280590   0.000000
    11  O    2.452106   4.595886   5.302800   2.669667   2.669667
    12  O    4.232800   4.595886   2.669667   2.669667   5.302800
    13  C    4.898649   5.200419   3.270055   3.270055   5.934637
    14  H    4.810647   4.750619   2.824927   3.931883   5.796742
    15  H    5.934637   6.157347   4.033983   4.033984   6.980894
    16  H    4.810647   5.481594   3.931883   2.824928   5.796742
    17  C    3.176317   5.200421   5.934638   3.270054   3.270054
    18  H    4.100446   6.157348   6.980895   4.033983   4.033983
    19  H    3.585341   5.481596   5.796744   2.824926   3.931882
    20  H    2.934868   4.750621   5.796744   3.931882   2.824926
                   11         12         13         14         15
    11  O    0.000000
    12  O    4.904129   0.000000
    13  C    5.490379   1.430000   0.000000
    14  H    5.793456   2.051796   1.070000   0.000000
    15  H    6.434130   2.051796   1.070000   1.747303   0.000000
    16  H    4.999513   2.051796   1.070000   1.747303   1.747303
    17  C    1.430000   5.490382   6.332509   6.740319   7.201699
    18  H    2.051796   6.434132   7.201698   7.644161   8.048177
    19  H    2.051796   4.999517   5.951498   6.492372   6.721857
    20  H    2.051796   5.793459   6.740320   7.039639   7.644162
                   16         17         18         19         20
    16  H    0.000000
    17  C    5.951497   0.000000
    18  H    6.721855   1.070000   0.000000
    19  H    5.629581   1.070000   1.747303   0.000000
    20  H    6.492371   1.070000   1.747303   1.747303   0.000000
 Stoichiometry    C8H10O2
 Framework group  C1[X(C8H10O2)]
 Deg. of freedom    54
 Full point group                 C1      NOp   1
 Largest Abelian subgroup         C1      NOp   1
 Largest concise Abelian subgroup C1      NOp   1
                         Standard orientation:                         
 ---------------------------------------------------------------------
 Center     Atomic      Atomic             Coordinates (Angstroms)
 Number     Number       Type             X           Y           Z
 ---------------------------------------------------------------------
      1          6           0       -0.000001    2.081252    0.000001
      2          6           0       -1.170715    1.380552   -0.319950
      3          6           0       -1.170715   -0.020848   -0.319950
      4          6           0        0.000000   -0.721548   -0.000002
      5          6           0        1.170715   -0.020848    0.319948
      6          6           0        1.170715    1.380552    0.319949
      7          1           0       -0.000001    3.151252    0.000001
      8          1           0       -2.064583    1.915552   -0.564237
      9          1           0        0.000001   -1.791548   -0.000004
     10          1           0        2.064582    1.915552    0.564236
     11          8           0        2.365322   -0.735848    0.646428
     12          8           0       -2.365323   -0.735848   -0.646427
     13          6           0       -3.118949   -0.974181    0.545271
     14          1           0       -3.375340   -0.039244    0.998102
     15          1           0       -4.012816   -1.509181    0.300984
     16          1           0       -2.532593   -1.552452    1.228418
     17          6           0        3.118951   -0.974181   -0.545269
     18          1           0        4.012818   -1.509181   -0.300980
     19          1           0        2.532596   -1.552451   -1.228417
     20          1           0        3.375342   -0.039243   -0.998099
 ---------------------------------------------------------------------
 Rotational constants (GHZ):      2.4636620      0.8617398      0.6926293
 Standard basis: 6-311+G(d,p) (5D, 7F)
 There are   290 symmetry adapted cartesian basis functions of A   symmetry.
 There are   280 symmetry adapted basis functions of A   symmetry.
   280 basis functions,   440 primitive gaussians,   290 cartesian basis functions
    37 alpha electrons       37 beta electrons
       nuclear repulsion energy       509.3738176881 Hartrees.
 NAtoms=   20 NActive=   20 NUniq=   20 SFac= 1.00D+00 NAtFMM=   60 NAOKFM=F Big=F
 Integral buffers will be    131072 words long.
 Raffenetti 2 integral format.
 Two-electron integral symmetry is turned on.
 One-electron integrals computed using PRISM.
 NBasis=   280 RedAO= T EigKep=  2.99D-06  NBF=   280
 NBsUse=   280 1.00D-06 EigRej= -1.00D+00 NBFU=   280
 ExpMin= 4.38D-02 ExpMax= 8.59D+03 ExpMxC= 1.30D+03 IAcc=2 IRadAn=         4 AccDes= 0.00D+00
 Harris functional with IExCor=  402 and IRadAn=       4 diagonalized for initial guess.
 HarFok:  IExCor=  402 AccDes= 0.00D+00 IRadAn=         4 IDoV= 1 UseB2=F ITyADJ=14
 ICtDFT=  3500011 ScaDFX=  1.000000  1.000000  1.000000  1.000000
 FoFCou: FMM=F IPFlag=           0 FMFlag=      100000 FMFlg1=           0
         NFxFlg=           0 DoJE=T BraDBF=F KetDBF=T FulRan=T
         wScrn=  0.000000 ICntrl=     500 IOpCl=  0 I1Cent=   200000004 NGrid=           0
         NMat0=    1 NMatS0=      1 NMatT0=    0 NMatD0=    1 NMtDS0=    0 NMtDT0=    0
 Petite list used in FoFCou.
 Requested convergence on RMS density matrix=1.00D-08 within 128 cycles.
 Requested convergence on MAX density matrix=1.00D-06.
 Requested convergence on             energy=1.00D-06.
 No special actions if energy rises.
 SCF Done:  E(RB3LYP) =  -461.406030913     A.U. after   13 cycles
            NFock= 13  Conv=0.50D-08     -V/T= 2.0041

 **********************************************************************

            Population analysis using the SCF density.

 **********************************************************************

 Orbital symmetries:
       Occupied  (A) (A) (A) (A) (A) (A) (A) (A) (A) (A) (A) (A)
                 (A) (A) (A) (A) (A) (A) (A) (A) (A) (A) (A) (A)
                 (A) (A) (A) (A) (A) (A) (A) (A) (A) (A) (A) (A)
                 (A)
       Virtual   (A) (A) (A) (A) (A) (A) (A) (A) (A) (A) (A) (A)
                 (A) (A) (A) (A) (A) (A) (A) (A) (A) (A) (A) (A)
                 (A) (A) (A) (A) (A) (A) (A) (A) (A) (A) (A) (A)
                 (A) (A) (A) (A) (A) (A) (A) (A) (A) (A) (A) (A)
                 (A) (A) (A) (A) (A) (A) (A) (A) (A) (A) (A) (A)
                 (A) (A) (A) (A) (A) (A) (A) (A) (A) (A) (A) (A)
                 (A) (A) (A) (A) (A) (A) (A) (A) (A) (A) (A) (A)
                 (A) (A) (A) (A) (A) (A) (A) (A) (A) (A) (A) (A)
                 (A) (A) (A) (A) (A) (A) (A) (A) (A) (A) (A) (A)
                 (A) (A) (A) (A) (A) (A) (A) (A) (A) (A) (A) (A)
                 (A) (A) (A) (A) (A) (A) (A) (A) (A) (A) (A) (A)
                 (A) (A) (A) (A) (A) (A) (A) (A) (A) (A) (A) (A)
                 (A) (A) (A) (A) (A) (A) (A) (A) (A) (A) (A) (A)
                 (A) (A) (A) (A) (A) (A) (A) (A) (A) (A) (A) (A)
                 (A) (A) (A) (A) (A) (A) (A) (A) (A) (A) (A) (A)
                 (A) (A) (A) (A) (A) (A) (A) (A) (A) (A) (A) (A)
                 (A) (A) (A) (A) (A) (A) (A) (A) (A) (A) (A) (A)
                 (A) (A) (A) (A) (A) (A) (A) (A) (A) (A) (A) (A)
                 (A) (A) (A) (A) (A) (A) (A) (A) (A) (A) (A) (A)
                 (A) (A) (A) (A) (A) (A) (A) (A) (A) (A) (A) (A)
                 (A) (A) (A)
 The electronic state is 1-A.
 Alpha  occ. eigenvalues --  -19.14309 -19.14309 -10.24163 -10.24162 -10.21356
 Alpha  occ. eigenvalues --  -10.21356 -10.18943 -10.18459 -10.18286 -10.18284
 Alpha  occ. eigenvalues --   -1.04738  -1.04542  -0.86071  -0.76155  -0.75783
 Alpha  occ. eigenvalues --   -0.69859  -0.69430  -0.62089  -0.60012  -0.53724
 Alpha  occ. eigenvalues --   -0.49948  -0.49895  -0.48072  -0.46710  -0.46039
 Alpha  occ. eigenvalues --   -0.45878  -0.44353  -0.43677  -0.39379  -0.38560
 Alpha  occ. eigenvalues --   -0.37319  -0.35838  -0.34231  -0.28678  -0.27977
 Alpha  occ. eigenvalues --   -0.26263  -0.25404
 Alpha virt. eigenvalues --   -0.02522  -0.02000   0.00331   0.01351   0.01810
 Alpha virt. eigenvalues --    0.03203   0.03370   0.04081   0.04097   0.04539
 Alpha virt. eigenvalues --    0.05698   0.06475   0.06646   0.08575   0.08701
 Alpha virt. eigenvalues --    0.09013   0.10330   0.11301   0.11470   0.11852
 Alpha virt. eigenvalues --    0.13256   0.13568   0.13622   0.13916   0.14063
 Alpha virt. eigenvalues --    0.15434   0.16014   0.16156   0.16538   0.18373
 Alpha virt. eigenvalues --    0.18452   0.19101   0.19306   0.20009   0.20138
 Alpha virt. eigenvalues --    0.20679   0.21439   0.21578   0.22261   0.23004
 Alpha virt. eigenvalues --    0.23313   0.23457   0.23629   0.25116   0.25264
 Alpha virt. eigenvalues --    0.25459   0.26848   0.27112   0.28344   0.29358
 Alpha virt. eigenvalues --    0.30602   0.33122   0.34306   0.34801   0.35220
 Alpha virt. eigenvalues --    0.35297   0.35586   0.37428   0.37791   0.38441
 Alpha virt. eigenvalues --    0.41680   0.44566   0.45010   0.46864   0.47236
 Alpha virt. eigenvalues --    0.49772   0.50908   0.52115   0.52125   0.53335
 Alpha virt. eigenvalues --    0.54674   0.55952   0.56426   0.59071   0.60311
 Alpha virt. eigenvalues --    0.61043   0.61977   0.62874   0.64752   0.66344
 Alpha virt. eigenvalues --    0.66897   0.67655   0.68562   0.68905   0.69619
 Alpha virt. eigenvalues --    0.70087   0.71968   0.72250   0.72673   0.75174
 Alpha virt. eigenvalues --    0.79959   0.81242   0.82768   0.83291   0.84062
 Alpha virt. eigenvalues --    0.85756   0.90101   0.90571   0.91308   0.92083
 Alpha virt. eigenvalues --    0.98231   0.99425   1.00178   1.01657   1.01725
 Alpha virt. eigenvalues --    1.02732   1.04089   1.05085   1.07366   1.08542
 Alpha virt. eigenvalues --    1.12943   1.14714   1.19369   1.21575   1.26624
 Alpha virt. eigenvalues --    1.26726   1.27803   1.29291   1.30516   1.34924
 Alpha virt. eigenvalues --    1.37613   1.41900   1.43846   1.45869   1.49637
 Alpha virt. eigenvalues --    1.49703   1.51358   1.53416   1.53812   1.55400
 Alpha virt. eigenvalues --    1.57049   1.57902   1.58156   1.60247   1.60922
 Alpha virt. eigenvalues --    1.64497   1.64752   1.66442   1.67928   1.71928
 Alpha virt. eigenvalues --    1.72718   1.73695   1.75130   1.75788   1.76688
 Alpha virt. eigenvalues --    1.77238   1.80898   1.83465   1.89442   1.90070
 Alpha virt. eigenvalues --    1.90947   1.91421   1.96361   1.97709   1.99186
 Alpha virt. eigenvalues --    2.01639   2.02721   2.04654   2.05868   2.06536
 Alpha virt. eigenvalues --    2.07403   2.13006   2.14374   2.17330   2.18439
 Alpha virt. eigenvalues --    2.19713   2.26179   2.28353   2.31476   2.39358
 Alpha virt. eigenvalues --    2.43852   2.44108   2.45474   2.47220   2.53286
 Alpha virt. eigenvalues --    2.54261   2.55090   2.55459   2.55840   2.56507
 Alpha virt. eigenvalues --    2.60636   2.62673   2.66096   2.68062   2.69319
 Alpha virt. eigenvalues --    2.71020   2.73268   2.73278   2.75736   2.75948
 Alpha virt. eigenvalues --    2.79512   2.80460   2.83269   2.84573   2.84851
 Alpha virt. eigenvalues --    2.87890   2.88869   2.99685   3.02555   3.02998
 Alpha virt. eigenvalues --    3.05614   3.08365   3.09037   3.13473   3.17250
 Alpha virt. eigenvalues --    3.25629   3.27898   3.29025   3.32280   3.35648
 Alpha virt. eigenvalues --    3.36588   3.49639   3.61138   3.61356   3.65370
 Alpha virt. eigenvalues --    3.84527   3.84969   3.85622   3.85917   4.01840
 Alpha virt. eigenvalues --    4.03869   4.04374   4.09885   4.14918   4.15374
 Alpha virt. eigenvalues --    4.17239   4.81962   5.14055   5.14688   5.37001
 Alpha virt. eigenvalues --    5.38535   5.65386   5.69516  23.54882  23.89535
 Alpha virt. eigenvalues --   23.93772  23.96092  23.96240  24.05088  24.06309
 Alpha virt. eigenvalues --   24.16327  49.92362  49.93604
          Condensed to atoms (all electrons):
               1          2          3          4          5          6
     1  C    5.616919  -0.374475   0.496999  -0.056741   0.497000  -0.374490
     2  C   -0.374475   8.758010  -1.334671  -1.098200  -0.544129   0.379859
     3  C    0.496999  -1.334671   8.598921  -2.490410   1.276984  -0.544135
     4  C   -0.056741  -1.098200  -2.490410  12.866626  -2.490378  -1.098168
     5  C    0.497000  -0.544129   1.276984  -2.490378   8.598876  -1.334666
     6  C   -0.374490   0.379859  -0.544135  -1.098168  -1.334666   8.757995
     7  H    0.388333  -0.029527   0.015312  -0.008059   0.015312  -0.029526
     8  H    0.011056   0.388195   0.005725  -0.041322   0.015327  -0.018480
     9  H    0.003810  -0.031563   0.004824   0.419560   0.004824  -0.031563
    10  H    0.011057  -0.018480   0.015327  -0.041322   0.005725   0.388194
    11  O    0.026928   0.008953   0.017601  -0.248222   0.660021  -0.318717
    12  O    0.026926  -0.318717   0.660027  -0.248222   0.017599   0.008953
    13  C   -0.046577   0.111614  -0.352658   0.153643  -0.079786   0.065365
    14  H   -0.012833   0.053173  -0.038671  -0.008471   0.002191   0.000658
    15  H   -0.000091   0.001659   0.018548  -0.000442  -0.001684   0.000452
    16  H    0.004979  -0.023188  -0.024877   0.040209  -0.009535   0.005520
    17  C   -0.046577   0.065365  -0.079786   0.153644  -0.352658   0.111614
    18  H   -0.000091   0.000452  -0.001684  -0.000442   0.018548   0.001659
    19  H    0.004979   0.005519  -0.009537   0.040209  -0.024877  -0.023186
    20  H   -0.012835   0.000658   0.002191  -0.008469  -0.038671   0.053172
               7          8          9         10         11         12
     1  C    0.388333   0.011056   0.003810   0.011057   0.026928   0.026926
     2  C   -0.029527   0.388195  -0.031563  -0.018480   0.008953  -0.318717
     3  C    0.015312   0.005725   0.004824   0.015327   0.017601   0.660027
     4  C   -0.008059  -0.041322   0.419560  -0.041322  -0.248222  -0.248222
     5  C    0.015312   0.015327   0.004824   0.005725   0.660021   0.017599
     6  C   -0.029526  -0.018480  -0.031563   0.388194  -0.318717   0.008953
     7  H    0.529619  -0.007207   0.000049  -0.007207  -0.000613  -0.000613
     8  H   -0.007207   0.525021  -0.000110  -0.000209   0.000103  -0.005929
     9  H    0.000049  -0.000110   0.513108  -0.000110  -0.004706  -0.004706
    10  H   -0.007207  -0.000209  -0.000110   0.525021  -0.005929   0.000103
    11  O   -0.000613   0.000103  -0.004706  -0.005929   8.008951  -0.000609
    12  O   -0.000613  -0.005929  -0.004706   0.000103  -0.000609   8.008951
    13  C   -0.000028  -0.000858  -0.001812  -0.000113   0.000851   0.183073
    14  H    0.000043   0.000901   0.000067  -0.000002   0.000016  -0.047230
    15  H   -0.000002  -0.000269  -0.000257   0.000000  -0.000006  -0.049462
    16  H   -0.000005   0.000080   0.000942   0.000000   0.000095  -0.046086
    17  C   -0.000028  -0.000113  -0.001812  -0.000858   0.183073   0.000851
    18  H   -0.000002   0.000000  -0.000257  -0.000269  -0.049462  -0.000006
    19  H   -0.000005   0.000000   0.000942   0.000080  -0.046086   0.000095
    20  H    0.000043  -0.000002   0.000067   0.000901  -0.047230   0.000016
              13         14         15         16         17         18
     1  C   -0.046577  -0.012833  -0.000091   0.004979  -0.046577  -0.000091
     2  C    0.111614   0.053173   0.001659  -0.023188   0.065365   0.000452
     3  C   -0.352658  -0.038671   0.018548  -0.024877  -0.079786  -0.001684
     4  C    0.153643  -0.008471  -0.000442   0.040209   0.153644  -0.000442
     5  C   -0.079786   0.002191  -0.001684  -0.009535  -0.352658   0.018548
     6  C    0.065365   0.000658   0.000452   0.005520   0.111614   0.001659
     7  H   -0.000028   0.000043  -0.000002  -0.000005  -0.000028  -0.000002
     8  H   -0.000858   0.000901  -0.000269   0.000080  -0.000113   0.000000
     9  H   -0.001812   0.000067  -0.000257   0.000942  -0.001812  -0.000257
    10  H   -0.000113  -0.000002   0.000000   0.000000  -0.000858  -0.000269
    11  O    0.000851   0.000016  -0.000006   0.000095   0.183073  -0.049462
    12  O    0.183073  -0.047230  -0.049462  -0.046086   0.000851  -0.000006
    13  C    4.981020   0.416115   0.405564   0.419911   0.000774   0.000000
    14  H    0.416115   0.580776  -0.029041  -0.050806   0.000138   0.000000
    15  H    0.405564  -0.029041   0.534995  -0.029222   0.000000   0.000000
    16  H    0.419911  -0.050806  -0.029222   0.576642  -0.000181   0.000000
    17  C    0.000774   0.000138   0.000000  -0.000181   4.981020   0.405564
    18  H    0.000000   0.000000   0.000000   0.000000   0.405564   0.534995
    19  H   -0.000181   0.000002   0.000000  -0.000008   0.419911  -0.029222
    20  H    0.000138   0.000000   0.000000   0.000002   0.416115  -0.029041
              19         20
     1  C    0.004979  -0.012835
     2  C    0.005519   0.000658
     3  C   -0.009537   0.002191
     4  C    0.040209  -0.008469
     5  C   -0.024877  -0.038671
     6  C   -0.023186   0.053172
     7  H   -0.000005   0.000043
     8  H    0.000000  -0.000002
     9  H    0.000942   0.000067
    10  H    0.000080   0.000901
    11  O   -0.046086  -0.047230
    12  O    0.000095   0.000016
    13  C   -0.000181   0.000138
    14  H    0.000002   0.000000
    15  H    0.000000   0.000000
    16  H   -0.000008   0.000002
    17  C    0.419911   0.416115
    18  H   -0.029222  -0.029041
    19  H    0.576642  -0.050807
    20  H   -0.050807   0.580777
 Mulliken charges:
               1
     1  C   -0.164277
     2  C   -0.000510
     3  C   -0.236028
     4  C    0.164976
     5  C   -0.236023
     6  C   -0.000510
     7  H    0.134111
     8  H    0.128092
     9  H    0.128702
    10  H    0.128092
    11  O   -0.185014
    12  O   -0.185014
    13  C   -0.256057
    14  H    0.132974
    15  H    0.149257
    16  H    0.135528
    17  C   -0.256057
    18  H    0.149257
    19  H    0.135528
    20  H    0.132974
 Sum of Mulliken charges =   0.00000
 Mulliken charges with hydrogens summed into heavy atoms:
               1
     1  C   -0.030166
     2  C    0.127582
     3  C   -0.236028
     4  C    0.293678
     5  C   -0.236023
     6  C    0.127582
    11  O   -0.185014
    12  O   -0.185014
    13  C    0.161702
    17  C    0.161702
 Electronic spatial extent (au):  <R**2>=           1685.6864
 Charge=              0.0000 electrons
 Dipole moment (field-independent basis, Debye):
    X=              0.0000    Y=              0.6508    Z=              0.0000  Tot=              0.6508
 Quadrupole moment (field-independent basis, Debye-Ang):
   XX=            -53.7469   YY=            -54.8461   ZZ=            -64.8708
   XY=              0.0000   XZ=             -7.7771   YZ=              0.0000
 Traceless Quadrupole moment (field-independent basis, Debye-Ang):
   XX=              4.0743   YY=              2.9752   ZZ=             -7.0496
   XY=              0.0000   XZ=             -7.7771   YZ=              0.0000
 Octapole moment (field-independent basis, Debye-Ang**2):
  XXX=              0.0001  YYY=              1.1320  ZZZ=              0.0000  XYY=              0.0000
  XXY=             -6.7747  XXZ=              0.0000  XZZ=              0.0000  YZZ=             -3.5580
  YYZ=              0.0000  XYZ=             10.0666
 Hexadecapole moment (field-independent basis, Debye-Ang**3):
 XXXX=          -1386.0741 YYYY=           -512.6913 ZZZZ=           -160.0061 XXXY=              0.0000
 XXXZ=            -50.7524 YYYX=              0.0000 YYYZ=              0.0000 ZZZX=             -0.0450
 ZZZY=              0.0000 XXYY=           -318.9740 XXZZ=           -298.6894 YYZZ=           -126.9740
 XXYZ=             -0.0001 YYXZ=             -0.0779 ZZXY=              0.0000
 N-N= 5.093738176881D+02 E-N=-2.095137300897D+03  KE= 4.595298145882D+02
 There are a total of      164768 grid points.
 ElSum from          density=       73.9999478716
 ElSum from atomic densities=       74.0000716145

 Hirshfeld populations at iteration   1 (CX, CA, CB, DipXYZ):
               1          2          3          4          5          6
     1  C    0.000000   3.020335   3.020335   0.000000   0.070623   0.000000
     2  C    0.000000   3.028738   3.028738  -0.046125   0.034818  -0.014305
     3  C    0.000000   2.962942   2.962942  -0.123642  -0.076327  -0.027534
     4  C    0.000000   3.029835   3.029835   0.000000  -0.056472   0.000000
     5  C    0.000000   2.962942   2.962942   0.123642  -0.076327   0.027534
     6  C    0.000000   3.028738   3.028738   0.046125   0.034818   0.014304
     7  H    0.000002   0.474343   0.474343   0.000000   0.165464   0.000000
     8  H    0.000001   0.474641   0.474641  -0.133330   0.091702  -0.036071
     9  H    0.000001   0.472142   0.472142   0.000000  -0.167348   0.000000
    10  H    0.000001   0.474641   0.474641   0.133330   0.091702   0.036070
    11  O    0.000005   4.087927   4.087927  -0.038187   0.048773  -0.179718
    12  O    0.000005   4.087927   4.087927   0.038188   0.048772   0.179718
    13  C    0.000000   3.008772   3.008772   0.009400  -0.002679  -0.048601
    14  H    0.000000   0.482129   0.482129  -0.049675   0.117843   0.066657
    15  H    0.000001   0.474738   0.474738  -0.135110  -0.079363  -0.025982
    16  H    0.000000   0.481773   0.481773   0.064286  -0.085814   0.098029
    17  C    0.000000   3.008772   3.008772  -0.009401  -0.002679   0.048601
    18  H    0.000001   0.474738   0.474738   0.135110  -0.079363   0.025983
    19  H    0.000000   0.481773   0.481773  -0.064286  -0.085814  -0.098030
    20  H    0.000000   0.482129   0.482129   0.049675   0.117843  -0.066657
       Tot   0.000019  36.999974  36.999974   0.000001   0.110176   0.000000

 Dip from Atomic Chgs              0.000001   0.146077   0.000000
         Total Dipole              0.000002   0.256254   0.000000

 Hirshfeld charges, spin densities, dipoles, and CM5 charges using IRadAn=      4:
              Q-H        S-H        Dx         Dy         Dz        Q-CM5   
     1  C   -0.040670   0.000000   0.000000   0.070623   0.000000  -0.097846
     2  C   -0.057476   0.000000  -0.046125   0.034818  -0.014305  -0.110416
     3  C    0.074116   0.000000  -0.123642  -0.076327  -0.027534   0.085460
     4  C   -0.059670   0.000000   0.000000  -0.056472   0.000000  -0.108106
     5  C    0.074116   0.000000   0.123642  -0.076327   0.027534   0.085460
     6  C   -0.057476   0.000000   0.046125   0.034818   0.014304  -0.110416
     7  H    0.051313   0.000000   0.000000   0.165464   0.000000   0.108921
     8  H    0.050718   0.000000  -0.133330   0.091702  -0.036071   0.110934
     9  H    0.055717   0.000000   0.000000  -0.167348   0.000000   0.118579
    10  H    0.050718   0.000000   0.133330   0.091702   0.036070   0.110934
    11  O   -0.175854   0.000000  -0.038187   0.048773  -0.179718  -0.260340
    12  O   -0.175855   0.000000   0.038188   0.048772   0.179718  -0.260340
    13  C   -0.017543   0.000000   0.009400  -0.002679  -0.048601  -0.147384
    14  H    0.035742   0.000000  -0.049675   0.117843   0.066657   0.099030
    15  H    0.050524   0.000000  -0.135110  -0.079363  -0.025982   0.112218
    16  H    0.036455   0.000000   0.064286  -0.085814   0.098029   0.099750
    17  C   -0.017543   0.000000  -0.009401  -0.002679   0.048601  -0.147384
    18  H    0.050524   0.000000   0.135110  -0.079363   0.025983   0.112218
    19  H    0.036455   0.000000  -0.064286  -0.085814  -0.098030   0.099750
    20  H    0.035742   0.000000   0.049675   0.117843  -0.066657   0.099030
       Tot   0.000052   0.000000   0.000001   0.110176   0.000000   0.000052
 Hirshfeld charges with hydrogens summed into heavy atoms:
              Q-H       Q-CM5   
     1  C    0.010644   0.011075
     2  C   -0.006758   0.000518
     3  C    0.074116   0.085460
     4  C   -0.003954   0.010473
     5  C    0.074116   0.085460
     6  C   -0.006758   0.000518
    11  O   -0.175854  -0.260340
    12  O   -0.175855  -0.260340
    13  C    0.105178   0.163614
    17  C    0.105178   0.163614
 
 EQQ= 0.000000000000E+00 EQD= 0.000000000000E+00 EDD= 0.230501864026E-02
 EQQ+QD+DD= 0.230501864026E-02
 
          MBS Condensed to atoms (all electrons):
               1          2          3          4          5          6
     1  C    4.823025   0.500364  -0.027888  -0.008808  -0.027888   0.500364
     2  C    0.500364   4.862233   0.495313  -0.037523  -0.010299  -0.031289
     3  C   -0.027888   0.495313   4.710186   0.491621  -0.024031  -0.010299
     4  C   -0.008808  -0.037523   0.491621   4.886867   0.491621  -0.037523
     5  C   -0.027888  -0.010299  -0.024031   0.491621   4.710186   0.495313
     6  C    0.500364  -0.031289  -0.010299  -0.037523   0.495313   4.862233
     7  H    0.393367  -0.025253   0.001401  -0.000013   0.001401  -0.025253
     8  H   -0.024006   0.389547  -0.025557   0.001444   0.000075   0.001492
     9  H    0.000074   0.001404  -0.023676   0.385744  -0.023676   0.001404
    10  H   -0.024006   0.001492   0.000075   0.001444  -0.025557   0.389547
    11  O    0.000316   0.000002   0.000286  -0.021518   0.286130  -0.021743
    12  O    0.000316  -0.021743   0.286130  -0.021518   0.000286   0.000002
    13  C   -0.000012  -0.001392  -0.037287  -0.001389  -0.000011   0.000003
    14  H   -0.000044   0.001578  -0.003683  -0.000173   0.000003  -0.000001
    15  H    0.000000   0.000003   0.002578   0.000002   0.000000   0.000000
    16  H    0.000003  -0.000173  -0.003750   0.001554  -0.000042  -0.000001
    17  C   -0.000012   0.000003  -0.000011  -0.001389  -0.037287  -0.001392
    18  H    0.000000   0.000000   0.000000   0.000002   0.002578   0.000003
    19  H    0.000003  -0.000001  -0.000042   0.001554  -0.003750  -0.000173
    20  H   -0.000044  -0.000001   0.000003  -0.000173  -0.003683   0.001578
               7          8          9         10         11         12
     1  C    0.393367  -0.024006   0.000074  -0.024006   0.000316   0.000316
     2  C   -0.025253   0.389547   0.001404   0.001492   0.000002  -0.021743
     3  C    0.001401  -0.025557  -0.023676   0.000075   0.000286   0.286130
     4  C   -0.000013   0.001444   0.385744   0.001444  -0.021518  -0.021518
     5  C    0.001401   0.000075  -0.023676  -0.025557   0.286130   0.000286
     6  C   -0.025253   0.001492   0.001404   0.389547  -0.021743   0.000002
     7  H    0.544110  -0.003829   0.000002  -0.003829  -0.000005  -0.000005
     8  H   -0.003829   0.540806  -0.000044  -0.000038   0.000000  -0.000619
     9  H    0.000002  -0.000044   0.530070  -0.000044  -0.000762  -0.000762
    10  H   -0.003829  -0.000038  -0.000044   0.540806  -0.000619   0.000000
    11  O   -0.000005   0.000000  -0.000762  -0.000619   7.953228   0.000000
    12  O   -0.000005  -0.000619  -0.000762   0.000000   0.000000   7.953228
    13  C    0.000000  -0.000013   0.000000   0.000000   0.000000   0.267882
    14  H    0.000002   0.000101   0.000024   0.000000   0.000000  -0.019308
    15  H    0.000000  -0.000019  -0.000020   0.000000   0.000000  -0.017419
    16  H    0.000000   0.000025   0.000117   0.000000   0.000000  -0.019244
    17  C    0.000000   0.000000   0.000000  -0.000013   0.267882   0.000000
    18  H    0.000000   0.000000  -0.000020  -0.000019  -0.017419   0.000000
    19  H    0.000000   0.000000   0.000117   0.000025  -0.019244   0.000000
    20  H    0.000002   0.000000   0.000024   0.000101  -0.019308   0.000000
              13         14         15         16         17         18
     1  C   -0.000012  -0.000044   0.000000   0.000003  -0.000012   0.000000
     2  C   -0.001392   0.001578   0.000003  -0.000173   0.000003   0.000000
     3  C   -0.037287  -0.003683   0.002578  -0.003750  -0.000011   0.000000
     4  C   -0.001389  -0.000173   0.000002   0.001554  -0.001389   0.000002
     5  C   -0.000011   0.000003   0.000000  -0.000042  -0.037287   0.002578
     6  C    0.000003  -0.000001   0.000000  -0.000001  -0.001392   0.000003
     7  H    0.000000   0.000002   0.000000   0.000000   0.000000   0.000000
     8  H   -0.000013   0.000101  -0.000019   0.000025   0.000000   0.000000
     9  H    0.000000   0.000024  -0.000020   0.000117   0.000000  -0.000020
    10  H    0.000000   0.000000   0.000000   0.000000  -0.000013  -0.000019
    11  O    0.000000   0.000000   0.000000   0.000000   0.267882  -0.017419
    12  O    0.267882  -0.019308  -0.017419  -0.019244   0.000000   0.000000
    13  C    4.726945   0.373785   0.379925   0.374000   0.000000   0.000000
    14  H    0.373785   0.599106  -0.024239  -0.027494   0.000000   0.000000
    15  H    0.379925  -0.024239   0.565957  -0.024212   0.000000   0.000000
    16  H    0.374000  -0.027494  -0.024212   0.597828   0.000000   0.000000
    17  C    0.000000   0.000000   0.000000   0.000000   4.726945   0.379925
    18  H    0.000000   0.000000   0.000000   0.000000   0.379925   0.565957
    19  H    0.000000   0.000000   0.000000   0.000000   0.374000  -0.024212
    20  H    0.000000   0.000000   0.000000   0.000000   0.373785  -0.024239
              19         20
     1  C    0.000003  -0.000044
     2  C   -0.000001  -0.000001
     3  C   -0.000042   0.000003
     4  C    0.001554  -0.000173
     5  C   -0.003750  -0.003683
     6  C   -0.000173   0.001578
     7  H    0.000000   0.000002
     8  H    0.000000   0.000000
     9  H    0.000117   0.000024
    10  H    0.000025   0.000101
    11  O   -0.019244  -0.019308
    12  O    0.000000   0.000000
    13  C    0.000000   0.000000
    14  H    0.000000   0.000000
    15  H    0.000000   0.000000
    16  H    0.000000   0.000000
    17  C    0.374000   0.373785
    18  H   -0.024212  -0.024239
    19  H    0.597828  -0.027494
    20  H   -0.027494   0.599106
 MBS Mulliken charges:
               1
     1  C   -0.105126
     2  C   -0.124264
     3  C    0.168630
     4  C   -0.131826
     5  C    0.168630
     6  C   -0.124264
     7  H    0.117902
     8  H    0.120637
     9  H    0.130025
    10  H    0.120637
    11  O   -0.407226
    12  O   -0.407226
    13  C   -0.082436
    14  H    0.100342
    15  H    0.117443
    16  H    0.101387
    17  C   -0.082436
    18  H    0.117443
    19  H    0.101387
    20  H    0.100342
 Sum of MBS Mulliken charges =   0.00000
 MBS Mulliken charges with hydrogens summed into heavy atoms:
               1
     1  C    0.012776
     2  C   -0.003628
     3  C    0.168630
     4  C   -0.001801
     5  C    0.168630
     6  C   -0.003628
    11  O   -0.407226
    12  O   -0.407226
    13  C    0.236737
    17  C    0.236737
 Breneman (CHELPG) radii used.
 Generate Potential Derived Charges using the Breneman model, NDens= 1.
 Grid spacing= 0.300 Box extension= 2.800
 NStep X,Y,Z=   47     37     28   Total possible points=       48692
 Number of Points to Fit=   13534

 **********************************************************************

            Electrostatic Properties Using The SCF Density

 **********************************************************************

       Atomic Center    1 is at  -0.000001  2.081252  0.000001
       Atomic Center    2 is at  -1.170715  1.380552 -0.319950
       Atomic Center    3 is at  -1.170715 -0.020848 -0.319950
       Atomic Center    4 is at   0.000000 -0.721548 -0.000002
       Atomic Center    5 is at   1.170715 -0.020848  0.319948
       Atomic Center    6 is at   1.170715  1.380552  0.319949
       Atomic Center    7 is at  -0.000001  3.151252  0.000001
       Atomic Center    8 is at  -2.064583  1.915552 -0.564237
       Atomic Center    9 is at   0.000001 -1.791548 -0.000004
       Atomic Center   10 is at   2.064582  1.915552  0.564236
       Atomic Center   11 is at   2.365322 -0.735848  0.646428
       Atomic Center   12 is at  -2.365323 -0.735848 -0.646427
       Atomic Center   13 is at  -3.118949 -0.974181  0.545271
       Atomic Center   14 is at  -3.375340 -0.039244  0.998102
       Atomic Center   15 is at  -4.012816 -1.509181  0.300984
       Atomic Center   16 is at  -2.532593 -1.552452  1.228418
       Atomic Center   17 is at   3.118951 -0.974181 -0.545269
       Atomic Center   18 is at   4.012818 -1.509181 -0.300980
       Atomic Center   19 is at   2.532596 -1.552451 -1.228417
       Atomic Center   20 is at   3.375342 -0.039243 -0.998099
   13534 points will be used for fitting atomic charges
 Fitting point charges to electrostatic potential
 Charges from ESP fit, RMS=   0.00369 RRMS=   0.31310:
 ESP charges:
               1
     1  C   -0.118580
     2  C   -0.220712
     3  C    0.404886
     4  C   -0.367159
     5  C    0.404886
     6  C   -0.220713
     7  H    0.118428
     8  H    0.146997
     9  H    0.216484
    10  H    0.146997
    11  O   -0.507993
    12  O   -0.507993
    13  C    0.324309
    14  H   -0.045253
    15  H    0.024334
    16  H   -0.051154
    17  C    0.324310
    18  H    0.024334
    19  H   -0.051155
    20  H   -0.045253
 Sum of ESP charges =   0.00000
 ESP charges with hydrogens summed into heavy atoms:
               1
     1  C   -0.000152
     2  C   -0.073715
     3  C    0.404886
     4  C   -0.150676
     5  C    0.404886
     6  C   -0.073715
    11  O   -0.507993
    12  O   -0.507993
    13  C    0.252236
    17  C    0.252236
 Charge=   0.00000 Dipole=     0.0000     0.6966     0.0000 Tot=     0.6966
 -----------------------------------------------------------------

              Electrostatic Properties (Atomic Units)

 -----------------------------------------------------------------
    Center     Electric         -------- Electric Field --------
               Potential          X             Y             Z
 -----------------------------------------------------------------
    1 Atom    -14.761722
    2 Atom    -14.768414
    3 Atom    -14.707282
    4 Atom    -14.767009
    5 Atom    -14.707282
    6 Atom    -14.768414
    7 Atom     -1.098756
    8 Atom     -1.099771
    9 Atom     -1.094090
   10 Atom     -1.099771
   11 Atom    -22.351771
   12 Atom    -22.351771
   13 Atom    -14.733550
   14 Atom     -1.116327
   15 Atom     -1.110071
   16 Atom     -1.116427
   17 Atom    -14.733550
   18 Atom     -1.110071
   19 Atom     -1.116427
   20 Atom     -1.116327
 -----------------------------------------------------------------
 ******************************Gaussian NBO Version 3.1******************************
             N A T U R A L   A T O M I C   O R B I T A L   A N D
          N A T U R A L   B O N D   O R B I T A L   A N A L Y S I S
 ******************************Gaussian NBO Version 3.1******************************
       /RESON  / : Allow strongly delocalized NBO set

 Analyzing the SCF density

 Job title: Title Card Required                                             

 Storage needed:    236700 in NPA ( 104855400 available)


 NATURAL POPULATIONS:  Natural atomic orbital occupancies 
                                                          
   NAO  Atom  No  lang   Type(AO)    Occupancy      Energy
 ----------------------------------------------------------
     1    C    1  S      Cor( 1S)     1.99921     -10.04467
     2    C    1  S      Val( 2S)     0.95385      -0.17511
     3    C    1  S      Ryd( 3S)     0.00143       0.76863
     4    C    1  S      Ryd( 4S)     0.00012       1.38899
     5    C    1  S      Ryd( 5S)     0.00000      22.41743
     6    C    1  px     Val( 2p)     1.04746      -0.05754
     7    C    1  px     Ryd( 4p)     0.00399       0.77125
     8    C    1  px     Ryd( 3p)     0.00038       0.41614
     9    C    1  px     Ryd( 5p)     0.00015       3.00658
    10    C    1  py     Val( 2p)     1.17011      -0.05852
    11    C    1  py     Ryd( 4p)     0.00629       1.07870
    12    C    1  py     Ryd( 3p)     0.00033       0.29102
    13    C    1  py     Ryd( 5p)     0.00008       3.19062
    14    C    1  pz     Val( 2p)     0.99535      -0.11321
    15    C    1  pz     Ryd( 4p)     0.00125       0.54576
    16    C    1  pz     Ryd( 3p)     0.00031       0.34088
    17    C    1  pz     Ryd( 5p)     0.00002       2.66476
    18    C    1  dxy    Ryd( 3d)     0.00059       2.50500
    19    C    1  dxz    Ryd( 3d)     0.00051       1.80717
    20    C    1  dyz    Ryd( 3d)     0.00038       1.67266
    21    C    1  dx2y2  Ryd( 3d)     0.00076       2.42791
    22    C    1  dz2    Ryd( 3d)     0.00044       1.96156

    23    C    2  S      Cor( 1S)     1.99904     -10.03530
    24    C    2  S      Val( 2S)     0.95681      -0.17097
    25    C    2  S      Ryd( 4S)     0.00152       0.80761
    26    C    2  S      Ryd( 3S)     0.00017       0.65238
    27    C    2  S      Ryd( 5S)     0.00001      23.19993
    28    C    2  px     Val( 2p)     1.14617      -0.06554
    29    C    2  px     Ryd( 4p)     0.00543       1.03743
    30    C    2  px     Ryd( 3p)     0.00024       0.35942
    31    C    2  px     Ryd( 5p)     0.00008       3.10405
    32    C    2  py     Val( 2p)     1.09886      -0.06462
    33    C    2  py     Ryd( 4p)     0.00452       0.86530
    34    C    2  py     Ryd( 3p)     0.00037       0.38302
    35    C    2  py     Ryd( 5p)     0.00014       3.11786
    36    C    2  pz     Val( 2p)     1.03309      -0.11333
    37    C    2  pz     Ryd( 4p)     0.00174       0.56391
    38    C    2  pz     Ryd( 3p)     0.00029       0.31423
    39    C    2  pz     Ryd( 5p)     0.00002       2.72913
    40    C    2  dxy    Ryd( 3d)     0.00062       2.46835
    41    C    2  dxz    Ryd( 3d)     0.00044       1.76223
    42    C    2  dyz    Ryd( 3d)     0.00055       1.72612
    43    C    2  dx2y2  Ryd( 3d)     0.00076       2.50982
    44    C    2  dz2    Ryd( 3d)     0.00042       1.98146

    45    C    3  S      Cor( 1S)     1.99872     -10.11292
    46    C    3  S      Val( 2S)     0.84881      -0.15428
    47    C    3  S      Ryd( 3S)     0.00093       0.88327
    48    C    3  S      Ryd( 4S)     0.00033       0.91452
    49    C    3  S      Ryd( 5S)     0.00002      22.83819
    50    C    3  px     Val( 2p)     0.84323      -0.05290
    51    C    3  px     Ryd( 4p)     0.00601       1.12759
    52    C    3  px     Ryd( 3p)     0.00041       0.82068
    53    C    3  px     Ryd( 5p)     0.00015       2.82052
    54    C    3  py     Val( 2p)     0.98948      -0.05480
    55    C    3  py     Ryd( 4p)     0.00485       1.09629
    56    C    3  py     Ryd( 3p)     0.00027       0.80515
    57    C    3  py     Ryd( 5p)     0.00013       2.84227
    58    C    3  pz     Val( 2p)     0.98014      -0.11745
    59    C    3  pz     Ryd( 3p)     0.00322       0.68508
    60    C    3  pz     Ryd( 4p)     0.00028       0.71980
    61    C    3  pz     Ryd( 5p)     0.00010       2.42554
    62    C    3  dxy    Ryd( 3d)     0.00182       2.38971
    63    C    3  dxz    Ryd( 3d)     0.00148       1.75744
    64    C    3  dyz    Ryd( 3d)     0.00096       1.70026
    65    C    3  dx2y2  Ryd( 3d)     0.00182       2.47568
    66    C    3  dz2    Ryd( 3d)     0.00074       1.97868

    67    C    4  S      Cor( 1S)     1.99889     -10.03489
    68    C    4  S      Val( 2S)     0.96102      -0.17257
    69    C    4  S      Ryd( 4S)     0.00151       0.85937
    70    C    4  S      Ryd( 3S)     0.00017       0.74759
    71    C    4  S      Ryd( 5S)     0.00001      23.11766
    72    C    4  px     Val( 2p)     1.08126      -0.07276
    73    C    4  px     Ryd( 4p)     0.00461       0.88089
    74    C    4  px     Ryd( 3p)     0.00019       0.58018
    75    C    4  px     Ryd( 5p)     0.00015       3.06399
    76    C    4  py     Val( 2p)     1.19579      -0.07557
    77    C    4  py     Ryd( 4p)     0.00543       1.15029
    78    C    4  py     Ryd( 3p)     0.00023       0.48885
    79    C    4  py     Ryd( 5p)     0.00006       2.98959
    80    C    4  pz     Val( 2p)     1.02841      -0.11598
    81    C    4  pz     Ryd( 4p)     0.00166       0.56397
    82    C    4  pz     Ryd( 3p)     0.00023       0.36637
    83    C    4  pz     Ryd( 5p)     0.00002       2.73869
    84    C    4  dxy    Ryd( 3d)     0.00072       2.54128
    85    C    4  dxz    Ryd( 3d)     0.00054       1.81750
    86    C    4  dyz    Ryd( 3d)     0.00053       1.70442
    87    C    4  dx2y2  Ryd( 3d)     0.00065       2.44992
    88    C    4  dz2    Ryd( 3d)     0.00047       1.99622

    89    C    5  S      Cor( 1S)     1.99872     -10.11292
    90    C    5  S      Val( 2S)     0.84881      -0.15428
    91    C    5  S      Ryd( 3S)     0.00093       0.88327
    92    C    5  S      Ryd( 4S)     0.00033       0.91453
    93    C    5  S      Ryd( 5S)     0.00002      22.83819
    94    C    5  px     Val( 2p)     0.84323      -0.05290
    95    C    5  px     Ryd( 4p)     0.00601       1.12759
    96    C    5  px     Ryd( 3p)     0.00041       0.82069
    97    C    5  px     Ryd( 5p)     0.00015       2.82052
    98    C    5  py     Val( 2p)     0.98948      -0.05480
    99    C    5  py     Ryd( 4p)     0.00485       1.09629
   100    C    5  py     Ryd( 3p)     0.00027       0.80515
   101    C    5  py     Ryd( 5p)     0.00013       2.84227
   102    C    5  pz     Val( 2p)     0.98014      -0.11745
   103    C    5  pz     Ryd( 3p)     0.00322       0.68508
   104    C    5  pz     Ryd( 4p)     0.00028       0.71980
   105    C    5  pz     Ryd( 5p)     0.00010       2.42554
   106    C    5  dxy    Ryd( 3d)     0.00182       2.38971
   107    C    5  dxz    Ryd( 3d)     0.00148       1.75744
   108    C    5  dyz    Ryd( 3d)     0.00096       1.70026
   109    C    5  dx2y2  Ryd( 3d)     0.00182       2.47568
   110    C    5  dz2    Ryd( 3d)     0.00074       1.97868

   111    C    6  S      Cor( 1S)     1.99904     -10.03530
   112    C    6  S      Val( 2S)     0.95681      -0.17097
   113    C    6  S      Ryd( 4S)     0.00152       0.80761
   114    C    6  S      Ryd( 3S)     0.00017       0.65238
   115    C    6  S      Ryd( 5S)     0.00001      23.19993
   116    C    6  px     Val( 2p)     1.14617      -0.06554
   117    C    6  px     Ryd( 4p)     0.00543       1.03743
   118    C    6  px     Ryd( 3p)     0.00024       0.35942
   119    C    6  px     Ryd( 5p)     0.00008       3.10405
   120    C    6  py     Val( 2p)     1.09886      -0.06462
   121    C    6  py     Ryd( 4p)     0.00452       0.86530
   122    C    6  py     Ryd( 3p)     0.00037       0.38302
   123    C    6  py     Ryd( 5p)     0.00014       3.11786
   124    C    6  pz     Val( 2p)     1.03309      -0.11333
   125    C    6  pz     Ryd( 4p)     0.00174       0.56391
   126    C    6  pz     Ryd( 3p)     0.00029       0.31423
   127    C    6  pz     Ryd( 5p)     0.00002       2.72913
   128    C    6  dxy    Ryd( 3d)     0.00062       2.46835
   129    C    6  dxz    Ryd( 3d)     0.00044       1.76223
   130    C    6  dyz    Ryd( 3d)     0.00055       1.72612
   131    C    6  dx2y2  Ryd( 3d)     0.00076       2.50982
   132    C    6  dz2    Ryd( 3d)     0.00042       1.98146

   133    H    7  S      Val( 1S)     0.79030       0.04851
   134    H    7  S      Ryd( 2S)     0.00063       0.63293
   135    H    7  S      Ryd( 3S)     0.00019       2.09237
   136    H    7  px     Ryd( 2p)     0.00011       1.95317
   137    H    7  py     Ryd( 2p)     0.00043       2.71786
   138    H    7  pz     Ryd( 2p)     0.00020       1.62499

   139    H    8  S      Val( 1S)     0.78190       0.05278
   140    H    8  S      Ryd( 2S)     0.00074       1.20084
   141    H    8  S      Ryd( 3S)     0.00019       1.53323
   142    H    8  px     Ryd( 2p)     0.00032       2.49346
   143    H    8  py     Ryd( 2p)     0.00018       2.19466
   144    H    8  pz     Ryd( 2p)     0.00020       1.67862

   145    H    9  S      Val( 1S)     0.77090       0.05165
   146    H    9  S      Ryd( 3S)     0.00126       1.36509
   147    H    9  S      Ryd( 2S)     0.00016       1.34366
   148    H    9  px     Ryd( 2p)     0.00013       2.02580
   149    H    9  py     Ryd( 2p)     0.00039       2.76032
   150    H    9  pz     Ryd( 2p)     0.00015       1.65028

   151    H   10  S      Val( 1S)     0.78190       0.05278
   152    H   10  S      Ryd( 2S)     0.00074       1.20084
   153    H   10  S      Ryd( 3S)     0.00019       1.53323
   154    H   10  px     Ryd( 2p)     0.00032       2.49346
   155    H   10  py     Ryd( 2p)     0.00018       2.19466
   156    H   10  pz     Ryd( 2p)     0.00020       1.67862

   157    O   11  S      Cor( 1S)     1.99976     -18.94774
   158    O   11  S      Val( 2S)     1.62924      -0.87057
   159    O   11  S      Ryd( 3S)     0.00344       1.00155
   160    O   11  S      Ryd( 4S)     0.00011       1.53867
   161    O   11  S      Ryd( 5S)     0.00000      49.57867
   162    O   11  px     Val( 2p)     1.50351      -0.29108
   163    O   11  px     Ryd( 3p)     0.00380       0.73001
   164    O   11  px     Ryd( 4p)     0.00055       0.84510
   165    O   11  px     Ryd( 5p)     0.00002       5.09621
   166    O   11  py     Val( 2p)     1.81705      -0.30098
   167    O   11  py     Ryd( 3p)     0.00520       0.63599
   168    O   11  py     Ryd( 4p)     0.00032       0.85064
   169    O   11  py     Ryd( 5p)     0.00002       5.01541
   170    O   11  pz     Val( 2p)     1.61553      -0.31024
   171    O   11  pz     Ryd( 3p)     0.00179       0.63118
   172    O   11  pz     Ryd( 4p)     0.00049       0.83278
   173    O   11  pz     Ryd( 5p)     0.00004       5.09751
   174    O   11  dxy    Ryd( 3d)     0.00049       3.26784
   175    O   11  dxz    Ryd( 3d)     0.00100       3.27773
   176    O   11  dyz    Ryd( 3d)     0.00082       3.00485
   177    O   11  dx2y2  Ryd( 3d)     0.00029       3.13705
   178    O   11  dz2    Ryd( 3d)     0.00113       3.19668

   179    O   12  S      Cor( 1S)     1.99976     -18.94774
   180    O   12  S      Val( 2S)     1.62924      -0.87057
   181    O   12  S      Ryd( 3S)     0.00344       1.00155
   182    O   12  S      Ryd( 4S)     0.00011       1.53867
   183    O   12  S      Ryd( 5S)     0.00000      49.57867
   184    O   12  px     Val( 2p)     1.50351      -0.29108
   185    O   12  px     Ryd( 3p)     0.00380       0.73001
   186    O   12  px     Ryd( 4p)     0.00055       0.84510
   187    O   12  px     Ryd( 5p)     0.00002       5.09621
   188    O   12  py     Val( 2p)     1.81705      -0.30098
   189    O   12  py     Ryd( 3p)     0.00520       0.63599
   190    O   12  py     Ryd( 4p)     0.00032       0.85064
   191    O   12  py     Ryd( 5p)     0.00002       5.01541
   192    O   12  pz     Val( 2p)     1.61553      -0.31024
   193    O   12  pz     Ryd( 3p)     0.00179       0.63118
   194    O   12  pz     Ryd( 4p)     0.00049       0.83278
   195    O   12  pz     Ryd( 5p)     0.00004       5.09751
   196    O   12  dxy    Ryd( 3d)     0.00049       3.26785
   197    O   12  dxz    Ryd( 3d)     0.00100       3.27773
   198    O   12  dyz    Ryd( 3d)     0.00082       3.00485
   199    O   12  dx2y2  Ryd( 3d)     0.00029       3.13705
   200    O   12  dz2    Ryd( 3d)     0.00113       3.19669

   201    C   13  S      Cor( 1S)     1.99918     -10.08355
   202    C   13  S      Val( 2S)     1.06733      -0.25524
   203    C   13  S      Ryd( 4S)     0.00216       0.88628
   204    C   13  S      Ryd( 3S)     0.00016       0.87645
   205    C   13  S      Ryd( 5S)     0.00000      23.05850
   206    C   13  px     Val( 2p)     1.06823      -0.09662
   207    C   13  px     Ryd( 3p)     0.00106       0.70700
   208    C   13  px     Ryd( 4p)     0.00038       1.28438
   209    C   13  px     Ryd( 5p)     0.00006       1.86486
   210    C   13  py     Val( 2p)     1.17497      -0.10233
   211    C   13  py     Ryd( 3p)     0.00056       0.64063
   212    C   13  py     Ryd( 4p)     0.00060       1.27704
   213    C   13  py     Ryd( 5p)     0.00003       1.93176
   214    C   13  pz     Val( 2p)     0.86354      -0.08252
   215    C   13  pz     Ryd( 3p)     0.00303       0.59036
   216    C   13  pz     Ryd( 4p)     0.00033       1.32803
   217    C   13  pz     Ryd( 5p)     0.00004       1.87899
   218    C   13  dxy    Ryd( 3d)     0.00112       2.10820
   219    C   13  dxz    Ryd( 3d)     0.00187       2.16322
   220    C   13  dyz    Ryd( 3d)     0.00172       2.09612
   221    C   13  dx2y2  Ryd( 3d)     0.00098       1.95389
   222    C   13  dz2    Ryd( 3d)     0.00151       1.94509

   223    H   14  S      Val( 1S)     0.83529       0.01551
   224    H   14  S      Ryd( 2S)     0.00141       0.51135
   225    H   14  S      Ryd( 3S)     0.00015       2.22225
   226    H   14  px     Ryd( 2p)     0.00015       1.86138
   227    H   14  py     Ryd( 2p)     0.00038       2.48777
   228    H   14  pz     Ryd( 2p)     0.00012       1.90827

   229    H   15  S      Val( 1S)     0.81720       0.02223
   230    H   15  S      Ryd( 2S)     0.00047       0.47595
   231    H   15  S      Ryd( 3S)     0.00013       2.17825
   232    H   15  px     Ryd( 2p)     0.00030       2.42907
   233    H   15  py     Ryd( 2p)     0.00023       1.98890
   234    H   15  pz     Ryd( 2p)     0.00010       1.75725

   235    H   16  S      Val( 1S)     0.83445       0.01619
   236    H   16  S      Ryd( 2S)     0.00137       0.51205
   237    H   16  S      Ryd( 3S)     0.00015       2.22153
   238    H   16  px     Ryd( 2p)     0.00025       2.00913
   239    H   16  py     Ryd( 2p)     0.00024       2.10177
   240    H   16  pz     Ryd( 2p)     0.00016       2.14575

   241    C   17  S      Cor( 1S)     1.99918     -10.08355
   242    C   17  S      Val( 2S)     1.06733      -0.25524
   243    C   17  S      Ryd( 4S)     0.00216       0.88628
   244    C   17  S      Ryd( 3S)     0.00016       0.87645
   245    C   17  S      Ryd( 5S)     0.00000      23.05850
   246    C   17  px     Val( 2p)     1.06823      -0.09662
   247    C   17  px     Ryd( 3p)     0.00106       0.70700
   248    C   17  px     Ryd( 4p)     0.00038       1.28438
   249    C   17  px     Ryd( 5p)     0.00006       1.86486
   250    C   17  py     Val( 2p)     1.17497      -0.10233
   251    C   17  py     Ryd( 3p)     0.00056       0.64063
   252    C   17  py     Ryd( 4p)     0.00060       1.27704
   253    C   17  py     Ryd( 5p)     0.00003       1.93176
   254    C   17  pz     Val( 2p)     0.86354      -0.08252
   255    C   17  pz     Ryd( 3p)     0.00303       0.59036
   256    C   17  pz     Ryd( 4p)     0.00033       1.32803
   257    C   17  pz     Ryd( 5p)     0.00004       1.87899
   258    C   17  dxy    Ryd( 3d)     0.00112       2.10820
   259    C   17  dxz    Ryd( 3d)     0.00187       2.16323
   260    C   17  dyz    Ryd( 3d)     0.00172       2.09612
   261    C   17  dx2y2  Ryd( 3d)     0.00098       1.95389
   262    C   17  dz2    Ryd( 3d)     0.00151       1.94509

   263    H   18  S      Val( 1S)     0.81720       0.02223
   264    H   18  S      Ryd( 2S)     0.00047       0.47595
   265    H   18  S      Ryd( 3S)     0.00013       2.17825
   266    H   18  px     Ryd( 2p)     0.00030       2.42906
   267    H   18  py     Ryd( 2p)     0.00023       1.98890
   268    H   18  pz     Ryd( 2p)     0.00010       1.75725

   269    H   19  S      Val( 1S)     0.83445       0.01619
   270    H   19  S      Ryd( 2S)     0.00137       0.51205
   271    H   19  S      Ryd( 3S)     0.00015       2.22153
   272    H   19  px     Ryd( 2p)     0.00025       2.00913
   273    H   19  py     Ryd( 2p)     0.00024       2.10177
   274    H   19  pz     Ryd( 2p)     0.00016       2.14575

   275    H   20  S      Val( 1S)     0.83529       0.01551
   276    H   20  S      Ryd( 2S)     0.00141       0.51135
   277    H   20  S      Ryd( 3S)     0.00015       2.22225
   278    H   20  px     Ryd( 2p)     0.00015       1.86138
   279    H   20  py     Ryd( 2p)     0.00038       2.48777
   280    H   20  pz     Ryd( 2p)     0.00012       1.90827

 WARNING:  1 low occupancy (<1.9990e) core orbital  found on  C    3
           1 low occupancy (<1.9990e) core orbital  found on  C    4
           1 low occupancy (<1.9990e) core orbital  found on  C    5

 WARNING:  Population inversion found on atom  C    1
           Population inversion found on atom  C    2
           Population inversion found on atom  C    3
           Population inversion found on atom  C    4
           Population inversion found on atom  C    5
           Population inversion found on atom  C    6
           Population inversion found on atom  H    9
           Population inversion found on atom  C   13
           Population inversion found on atom  C   17


 Summary of Natural Population Analysis:                  
                                                          
                                       Natural Population 
                Natural  -----------------------------------------------
    Atom  No    Charge         Core      Valence    Rydberg      Total
 -----------------------------------------------------------------------
      C    1   -0.18300      1.99921     4.16678    0.01702     6.18300
      C    2   -0.25129      1.99904     4.23493    0.01733     6.25129
      C    3    0.31609      1.99872     3.66167    0.02352     5.68391
      C    4   -0.28257      1.99889     4.26648    0.01720     6.28257
      C    5    0.31609      1.99872     3.66167    0.02352     5.68391
      C    6   -0.25129      1.99904     4.23493    0.01733     6.25129
      H    7    0.20814      0.00000     0.79030    0.00156     0.79186
      H    8    0.21647      0.00000     0.78190    0.00163     0.78353
      H    9    0.22702      0.00000     0.77090    0.00209     0.77298
      H   10    0.21647      0.00000     0.78190    0.00163     0.78353
      O   11   -0.58461      1.99976     6.56533    0.01952     8.58461
      O   12   -0.58461      1.99976     6.56533    0.01952     8.58461
      C   13   -0.18888      1.99918     4.17407    0.01563     6.18888
      H   14    0.16249      0.00000     0.83529    0.00222     0.83751
      H   15    0.18157      0.00000     0.81720    0.00123     0.81843
      H   16    0.16338      0.00000     0.83445    0.00217     0.83662
      C   17   -0.18888      1.99918     4.17407    0.01563     6.18888
      H   18    0.18157      0.00000     0.81720    0.00123     0.81843
      H   19    0.16338      0.00000     0.83445    0.00217     0.83662
      H   20    0.16249      0.00000     0.83529    0.00222     0.83751
 =======================================================================
   * Total *    0.00000     19.99151    53.80414    0.20436    74.00000

                                 Natural Population      
 --------------------------------------------------------
   Core                      19.99151 ( 99.9575% of  20)
   Valence                   53.80414 ( 99.6373% of  54)
   Natural Minimal Basis     73.79564 ( 99.7238% of  74)
   Natural Rydberg Basis      0.20436 (  0.2762% of  74)
 --------------------------------------------------------

    Atom  No          Natural Electron Configuration
 ----------------------------------------------------------------------------
      C    1      [core]2S( 0.95)2p( 3.21)4p( 0.01)
      C    2      [core]2S( 0.96)2p( 3.28)4p( 0.01)
      C    3      [core]2S( 0.85)2p( 2.81)3d( 0.01)4p( 0.01)
      C    4      [core]2S( 0.96)2p( 3.31)4p( 0.01)
      C    5      [core]2S( 0.85)2p( 2.81)3d( 0.01)4p( 0.01)
      C    6      [core]2S( 0.96)2p( 3.28)4p( 0.01)
      H    7            1S( 0.79)
      H    8            1S( 0.78)
      H    9            1S( 0.77)
      H   10            1S( 0.78)
      O   11      [core]2S( 1.63)2p( 4.94)3p( 0.01)
      O   12      [core]2S( 1.63)2p( 4.94)3p( 0.01)
      C   13      [core]2S( 1.07)2p( 3.11)3d( 0.01)
      H   14            1S( 0.84)
      H   15            1S( 0.82)
      H   16            1S( 0.83)
      C   17      [core]2S( 1.07)2p( 3.11)3d( 0.01)
      H   18            1S( 0.82)
      H   19            1S( 0.83)
      H   20            1S( 0.84)


 NBO analysis skipped by request.
 Calling FoFJK, ICntrl=      2127 FMM=F ISym2X=0 I1Cent= 0 IOpClX= 0 NMat=1 NMatS=1 NMatT=0.
 ***** Axes restored to original set *****
 -------------------------------------------------------------------
 Center     Atomic                   Forces (Hartrees/Bohr)
 Number     Number              X              Y              Z
 -------------------------------------------------------------------
      1        6           0.011560077    0.019252039    0.001091889
      2        6          -0.004628485    0.009758788    0.000292961
      3        6           0.011097638   -0.001763878   -0.002181703
      4        6          -0.004750768   -0.007911858   -0.000448793
      5        6          -0.006891901    0.008768029    0.002578982
      6        6           0.010789245    0.000501244    0.000289587
      7        1          -0.004814905   -0.008018687   -0.000454909
      8        1           0.006211664   -0.007583782   -0.000761984
      9        1           0.005033939    0.008383445    0.000475709
     10        1          -0.009643451    0.001868518    0.000437803
     11        8           0.015284828   -0.026034365   -0.000530211
     12        8          -0.030154856    0.001269962   -0.000875025
     13        6          -0.004148928    0.000783351   -0.011183676
     14        1          -0.004338322   -0.013985411    0.009783499
     15        1           0.013968483    0.000029316   -0.004682589
     16        1          -0.003883537    0.012947427    0.011299231
     17        6           0.002086221   -0.004218543    0.010988783
     18        1          -0.006790648    0.011924545    0.005360807
     19        1           0.013795933    0.003560594   -0.010362670
     20        1          -0.009782227   -0.009530735   -0.011117688
 -------------------------------------------------------------------
 Cartesian Forces:  Max     0.030154856 RMS     0.009352006

 GradGradGradGradGradGradGradGradGradGradGradGradGradGradGradGradGradGrad
 Berny optimization.
 FormGI is forming the generalized inverse of G from B-inverse, IUseBI=4.
 Internal  Forces:  Max     0.028556246 RMS     0.007654806
 Search for a local minimum.
 Step number   1 out of a maximum of   96
 All quantities printed in internal units (Hartrees-Bohrs-Radians)
 Mixed Optimization -- RFO/linear search
 Second derivative matrix not updated -- first step.
 ITU=  0
     Eigenvalues ---    0.01295   0.01295   0.01295   0.01295   0.01922
     Eigenvalues ---    0.01937   0.02070   0.02070   0.02070   0.02070
     Eigenvalues ---    0.02070   0.02070   0.02070   0.10344   0.10344
     Eigenvalues ---    0.10344   0.10344   0.16000   0.16000   0.16000
     Eigenvalues ---    0.16000   0.16000   0.16000   0.16000   0.16000
     Eigenvalues ---    0.16000   0.16000   0.22000   0.23478   0.23493
     Eigenvalues ---    0.25000   0.25000   0.25000   0.25000   0.37230
     Eigenvalues ---    0.37230   0.37230   0.37230   0.37230   0.37230
     Eigenvalues ---    0.37230   0.37230   0.37230   0.37230   0.40989
     Eigenvalues ---    0.40989   0.40989   0.40989   0.41364   0.41554
     Eigenvalues ---    0.45389   0.45389   0.45389   0.45389
 RFO step:  Lambda=-1.45691530D-02 EMin= 1.29493781D-02
 Linear search not attempted -- first point.
 Iteration  1 RMS(Cart)=  0.05796046 RMS(Int)=  0.00242505
 Iteration  2 RMS(Cart)=  0.00377907 RMS(Int)=  0.00022967
 Iteration  3 RMS(Cart)=  0.00001452 RMS(Int)=  0.00022948
 Iteration  4 RMS(Cart)=  0.00000001 RMS(Int)=  0.00022948
 Variable       Old X    -DE/DX   Delta X   Delta X   Delta X     New X
                                 (Linear)    (Quad)   (Total)
    R1        2.64826  -0.00630   0.00000  -0.01332  -0.01335   2.63491
    R2        2.64826  -0.00630   0.00000  -0.01332  -0.01335   2.63491
    R3        2.02201   0.00936   0.00000   0.02421   0.02421   2.04621
    R4        2.64826  -0.00921   0.00000  -0.01967  -0.01967   2.62860
    R5        2.02201   0.00967   0.00000   0.02500   0.02500   2.04701
    R6        2.64826  -0.00931   0.00000  -0.02001  -0.01998   2.62828
    R7        2.70231  -0.02856   0.00000  -0.06728  -0.06728   2.63503
    R8        2.64826  -0.00931   0.00000  -0.02001  -0.01998   2.62828
    R9        2.02201   0.00979   0.00000   0.02531   0.02531   2.04731
   R10        2.64826  -0.00921   0.00000  -0.01967  -0.01967   2.62860
   R11        2.70231  -0.02856   0.00000  -0.06728  -0.06728   2.63503
   R12        2.02201   0.00967   0.00000   0.02500   0.02500   2.04701
   R13        2.70231   0.00545   0.00000   0.01283   0.01283   2.71514
   R14        2.70231   0.00545   0.00000   0.01283   0.01283   2.71514
   R15        2.02201   0.01735   0.00000   0.04486   0.04486   2.06686
   R16        2.02201   0.01396   0.00000   0.03608   0.03608   2.05808
   R17        2.02201   0.01735   0.00000   0.04486   0.04486   2.06686
   R18        2.02201   0.01396   0.00000   0.03608   0.03608   2.05808
   R19        2.02201   0.01735   0.00000   0.04486   0.04486   2.06686
   R20        2.02201   0.01735   0.00000   0.04486   0.04486   2.06686
    A1        2.09440   0.00211   0.00000   0.01031   0.01028   2.10468
    A2        2.09440  -0.00105   0.00000  -0.00516  -0.00514   2.08925
    A3        2.09440  -0.00105   0.00000  -0.00516  -0.00514   2.08925
    A4        2.09440  -0.00368   0.00000  -0.01460  -0.01461   2.07979
    A5        2.09440   0.00359   0.00000   0.01733   0.01732   2.11172
    A6        2.09440   0.00009   0.00000  -0.00272  -0.00272   2.09167
    A7        2.09440   0.00485   0.00000   0.01880   0.01873   2.11313
    A8        2.09440  -0.00130   0.00000  -0.00514  -0.00529   2.08911
    A9        2.09440  -0.00355   0.00000  -0.01367  -0.01382   2.08058
   A10        2.09440  -0.00445   0.00000  -0.01871  -0.01863   2.07577
   A11        2.09440   0.00223   0.00000   0.00936   0.00931   2.10371
   A12        2.09440   0.00223   0.00000   0.00936   0.00931   2.10371
   A13        2.09440   0.00485   0.00000   0.01880   0.01873   2.11313
   A14        2.09440  -0.00355   0.00000  -0.01367  -0.01382   2.08058
   A15        2.09440  -0.00130   0.00000  -0.00514  -0.00529   2.08911
   A16        2.09440  -0.00368   0.00000  -0.01460  -0.01461   2.07979
   A17        2.09440   0.00359   0.00000   0.01733   0.01732   2.11172
   A18        2.09440   0.00009   0.00000  -0.00272  -0.00272   2.09167
   A19        1.91063   0.01545   0.00000   0.05840   0.05840   1.96903
   A20        1.91063   0.01545   0.00000   0.05840   0.05840   1.96903
   A21        1.91063   0.00527   0.00000   0.03216   0.03179   1.94243
   A22        1.91063  -0.00935   0.00000  -0.05755  -0.05739   1.85325
   A23        1.91063   0.00535   0.00000   0.03264   0.03228   1.94291
   A24        1.91063   0.00021   0.00000  -0.00284  -0.00268   1.90795
   A25        1.91063  -0.00167   0.00000  -0.00158  -0.00237   1.90827
   A26        1.91063   0.00020   0.00000  -0.00283  -0.00267   1.90797
   A27        1.91063  -0.00935   0.00000  -0.05755  -0.05739   1.85325
   A28        1.91063   0.00535   0.00000   0.03264   0.03228   1.94291
[...]
 04121,-0.00871304,0.02707486,-0.00516700,-0.11593473,0.11302172,-0.033
 06917,0.01003358,-0.01453687,0.00303091,-0.00118053,-0.00268132,-0.001
 24499,-0.00109161,-0.00084347,0.00003517,-0.00422359,-0.00159941,-0.00
 261591,0.00076135,-0.00021670,0.00128623,0.11909438,-0.00202741,0.0044
 6204,-0.00085014,0.11115368,-0.26782723,0.05177788,0.01622948,-0.01929
 301,0.00642447,-0.00382578,-0.00294180,-0.00023940,-0.00113100,0.00001
 629,-0.00038089,-0.00082146,0.00183624,0.00024948,0.00054001,0.0006465
 1,-0.00033019,-0.12170105,0.28144901,-0.00232651,0.00663548,-0.0001483
 3,-0.03288400,0.05225188,-0.04379369,0.00002515,-0.00148322,0.00391873
 ,-0.00113308,0.00005627,0.00438306,0.00006358,-0.00030710,-0.00086186,
 -0.00269275,0.00004918,0.00585991,0.00121261,-0.00052521,-0.00379563,0
 .03671438,-0.05657342,0.03748106,-0.00091495,0.00098836,-0.00006572,-0
 .00056335,0.00291550,-0.00170116,0.01247377,0.01101165,0.00154080,-0.1
 3137585,-0.12664579,-0.01464710,-0.00934230,-0.02823613,-0.00023641,-0
 .00484857,0.00141602,-0.00265660,-0.00000562,-0.00004743,0.00012014,0.
 00041904,0.00072988,-0.00008687,0.13892315,0.00098840,0.00012335,0.000
 14103,0.00365911,-0.00287510,0.00170471,-0.01681652,-0.01870784,-0.002
 27174,-0.12664552,-0.26711521,-0.00904717,-0.00040818,0.00376286,-0.00
 024824,0.00067239,0.00153878,0.00050564,-0.00004743,-0.00004180,-0.000
 05255,-0.00083884,-0.00090372,-0.00008067,0.13719613,0.28612826,-0.000
 06634,0.00014140,-0.00106538,-0.00177323,0.00151423,0.00434007,0.00426
 043,0.00488226,0.00291780,-0.01465195,-0.00904426,-0.02919148,-0.00295
 198,-0.00740469,0.00226318,-0.00258435,0.00069602,0.00421141,0.0001201
 2,-0.00005253,-0.00041866,0.00006648,0.00032289,0.00046492,0.01722200,
 0.00927123,0.02335155,-0.00843822,-0.00188367,-0.00226788,0.00164329,0
 .00224953,-0.00148290,0.00055482,-0.00026914,0.00040227,0.00021579,-0.
 00309486,-0.00084557,-0.01327950,0.00402600,-0.00477582,-0.32043399,0.
 00410727,-0.07501193,0.00043029,0.00036675,0.00114393,-0.00039792,-0.0
 0019675,-0.00024371,-0.00055021,0.00022252,-0.00028657,0.33908410,0.02
 721886,0.00417904,0.00669814,0.00147164,-0.00420680,0.00142984,0.00001
 836,-0.00167950,0.00007998,-0.00195034,-0.00437989,0.00038328,-0.02674
 009,0.00471962,-0.00696833,0.00597476,-0.05719356,0.00416812,-0.000390
 01,0.00098752,-0.00060296,0.00120912,0.00010133,0.00036215,-0.00134619
 ,0.00009461,-0.00030870,-0.00654587,0.05485989,-0.00511309,-0.00078466
 ,-0.00014015,-0.00140710,0.00163077,0.00603606,0.00037446,0.00000584,-
 0.00081250,-0.00095850,0.00008821,0.00442483,-0.00177451,0.00094203,0.
 00321919,-0.07518752,0.00368837,-0.04992810,0.00121835,-0.00040842,-0.
 00380558,-0.00038113,0.00000046,0.00052638,-0.00013325,0.00009488,0.00
 043583,0.08202998,-0.00484148,0.04408046,-0.00459733,-0.00352187,-0.00
 183570,0.00081305,0.00421820,0.00015241,-0.00344065,-0.00897379,-0.001
 65907,-0.02508517,0.04206864,-0.01277705,-0.15432735,0.05139523,-0.033
 97682,0.01970507,-0.00889587,0.00402940,0.00051572,-0.00084660,0.00016
 262,0.00021299,0.00009454,0.00007446,0.00184948,-0.00071205,0.00132464
 ,0.00092634,0.00069672,0.00099429,0.29751567,-0.00954641,0.00374367,-0
 .00244359,0.00735701,-0.00248288,0.00199995,-0.00593868,-0.00328242,-0
 .00058021,0.01706414,-0.00673165,0.00588802,0.08841413,-0.21191500,0.0
 3936919,0.02245117,-0.06506104,0.01286135,0.00058633,-0.00170517,0.000
 33705,0.00026214,0.00011443,0.00004505,0.00069230,-0.00116732,-0.00000
 427,0.00111711,0.00211503,-0.00023129,-0.00218095,0.53915909,-0.001244
 68,-0.00090041,0.00365207,-0.00016037,0.00119041,-0.00154308,-0.001950
 83,-0.00135081,0.00603549,-0.01032199,0.01230646,0.00472612,-0.0375909
 4,0.02981809,-0.05449594,0.00097096,0.00480001,0.00720741,0.00002321,-
 0.00003197,0.00021376,0.00005780,0.00000203,-0.00009656,0.00118718,-0.
 00036581,-0.00268704,0.00095320,-0.00034029,-0.00292656,0.05977845,-0.
 04659602,0.08642427,0.00723951,-0.00335029,0.00119284,-0.05102254,-0.0
 1457089,-0.01361252,-0.25202151,0.03727565,-0.05771875,-0.03397281,0.0
 1241249,-0.01216407,0.00289396,-0.00262261,-0.00064912,-0.00641143,0.0
 0357498,-0.00164284,-0.00109014,-0.00025425,-0.00030791,0.00101479,0.0
 0116346,0.00097051,-0.00056840,-0.00057337,0.00068938,-0.00001327,0.00
 014369,0.00001159,-0.00145070,0.00443578,-0.00076633,0.47926304,0.0026
 7373,-0.00844898,0.00189215,-0.04591823,0.00779051,-0.01184984,0.00025
 503,-0.11129228,0.00687259,0.03741534,0.00242202,0.01023029,-0.0056576
 2,-0.00980629,0.00013152,0.00043657,0.00495791,-0.00050691,-0.00168725
 ,-0.00005119,-0.00040871,0.00074303,0.00202402,-0.00032014,-0.00197772
 ,0.00132305,-0.00093404,-0.00002389,0.00034744,-0.00005108,0.00214544,
 0.00195550,0.00034406,0.09296706,0.35199639,0.00061093,0.00034350,0.00
 400788,-0.01054879,-0.00379167,0.00508347,-0.05407431,0.01640549,-0.05
 742448,-0.01459028,0.00379454,0.00446009,-0.00035919,0.00090321,0.0062
 2475,-0.00133705,0.00030683,-0.00175939,-0.00016723,-0.00004047,0.0001
 6564,0.00101235,-0.00021159,-0.00292401,0.00082677,-0.00057246,-0.0027
 5953,0.00002776,-0.00000776,-0.00010332,-0.00054154,0.00093481,-0.0003
 8193,0.09702140,-0.00418087,0.09183957,-0.00129480,-0.00148684,-0.0006
 6425,-0.00064585,0.00465410,-0.00128925,-0.04036711,-0.03367482,-0.005
 57069,0.00126147,-0.00071635,0.00075807,-0.00083632,-0.00067513,-0.000
 23162,0.00123388,-0.00058745,0.00030791,-0.00023434,0.00015355,-0.0000
 1066,-0.00006572,-0.00041893,0.00021201,-0.00209983,-0.00093644,-0.000
 53346,-0.00003633,-0.00007391,0.00010391,0.00075724,-0.00166338,0.0003
 8032,-0.11527994,-0.04002567,-0.01075878,0.56464877,-0.00033640,-0.000
 06093,0.00009996,0.00442843,0.00136900,0.00126285,-0.01405493,0.004428
 40,-0.00462289,0.00856083,0.00145746,0.00191847,-0.00163881,0.00028747
 ,-0.00041766,0.00168746,0.00008373,0.00045201,0.00037021,0.00016011,0.
 00005461,-0.00006976,0.00009210,-0.00009773,0.00156550,-0.00051215,0.0
 0048414,0.00001414,-0.00008716,-0.00002866,0.00079109,-0.00259802,0.00
 044785,-0.07032045,-0.18635663,-0.00545934,-0.07357028,0.48879393,-0.0
 0077867,-0.00019575,0.00166569,-0.00127187,0.00132039,0.00214898,-0.00
 750903,-0.00967424,-0.00679413,-0.00015644,-0.00046267,-0.00140233,-0.
 00013362,-0.00016890,0.00030272,0.00008427,-0.00013624,0.00029698,-0.0
 0003236,-0.00000084,-0.00026009,0.00017760,-0.00018741,-0.00066458,-0.
 00077698,-0.00015812,0.00014659,0.00009552,-0.00005096,-0.00038421,0.0
 0013978,-0.00018193,-0.00003733,-0.00775871,0.00234662,-0.06035925,0.0
 0824774,-0.01189632,0.56435079,0.00073534,-0.00043322,0.00049255,-0.00
 123363,-0.00061501,0.00035361,0.00462088,-0.00101391,-0.00082842,0.000
 45611,0.00124500,-0.00001153,-0.00103351,-0.00046766,0.00030241,0.0000
 6786,0.00086004,-0.00003624,0.00001764,-0.00001054,-0.00004217,0.00005
 417,0.00007380,-0.00013197,-0.00102382,-0.00030309,-0.00147291,0.00002
 512,-0.00000140,-0.00012488,0.00007685,0.00001519,0.00000354,0.0047129
 9,-0.02000022,-0.01721600,-0.08930654,0.06051594,0.07039002,0.09008865
 ,0.00044305,-0.00004900,0.00040533,-0.00137701,-0.00051849,0.00008960,
 0.00666537,-0.00006575,0.00144994,-0.00060138,0.00070010,0.00015099,-0
 .00003255,-0.00018452,0.00000489,-0.00038180,0.00033483,-0.00017455,-0
 .00004622,-0.00003412,-0.00005426,0.00012695,0.00013039,-0.00018758,0.
 00011755,0.00042093,-0.00010862,0.00000113,0.00002653,-0.00002594,-0.0
 0011300,0.00038203,-0.00005870,-0.00430554,-0.03217532,-0.02058212,0.0
 5637706,-0.13477722,-0.10191347,-0.05738994,0.15963357,0.00031936,-0.0
 0005628,0.00010734,-0.00064251,-0.00011518,-0.00027826,0.00257794,-0.0
 0057345,0.00088532,0.00002885,-0.00069794,0.00014102,-0.00023408,0.000
 27741,0.00002269,-0.00001499,0.00020134,-0.00005726,-0.00001876,0.0000
 0127,-0.00000478,0.00005212,0.00008695,-0.00001312,-0.00034215,0.00056
 147,-0.00071503,0.00003176,0.00005828,0.00000157,0.00002977,0.00022650
 ,-0.00000908,-0.00637497,-0.00431090,0.00363708,0.06754219,-0.10373411
 ,-0.17565981,-0.07200895,0.11858699,0.18354964,0.00003467,-0.00036605,
 0.00004223,-0.00100041,0.00029147,-0.00033686,0.00180078,-0.00294252,0
 .00058763,0.00014337,-0.00018237,-0.00003852,0.00021164,-0.00021420,0.
 00003598,-0.00008745,0.00007685,-0.00002314,-0.00010438,-0.00000735,-0
 .00001420,0.00001127,-0.00004185,0.00000372,0.00005680,-0.00004267,0.0
 0015986,-0.00001502,0.00000269,0.00000249,-0.00014246,0.00032803,-0.00
 007900,-0.02529019,-0.00290564,-0.00630589,-0.26703795,0.08123899,-0.0
 6357452,-0.00866089,0.00485990,-0.00279708,0.29656166,0.00014455,-0.00
 050973,0.00008744,-0.00147752,0.00046524,-0.00040586,-0.00158846,-0.00
 454529,0.00010529,0.00036871,-0.00112428,0.00023946,-0.00027671,0.0004
 1571,-0.00009698,0.00011434,0.00015621,0.00001163,-0.00012863,0.000002
 83,-0.00003793,0.00003407,-0.00003425,0.00001358,0.00040774,0.00079096
 ,-0.00002609,0.00002348,0.00005512,-0.00000184,-0.00002640,0.00010685,
 -0.00001328,-0.03955889,0.00269196,-0.01039395,0.09394379,-0.07853057,
 0.02688103,0.01618100,-0.00469445,0.00636107,-0.08041811,0.08810746,-0
 .00000782,-0.00004290,0.00001064,-0.00016283,0.00004904,0.00015301,0.0
 0045046,-0.00024589,0.00079500,-0.00009290,0.00009866,0.00032823,0.000
 04245,-0.00008049,0.00017298,-0.00002689,0.00000140,-0.00003358,-0.000
 00221,-0.00000672,-0.00004648,-0.00000385,-0.00000609,0.00001277,0.000
 11534,-0.00014215,-0.00050643,0.00000049,-0.00000722,-0.00002502,-0.00
 004435,0.00007786,0.00002100,-0.00269976,-0.00097762,-0.00024649,-0.06
 482221,0.02361667,-0.06958940,0.02116332,-0.00732294,0.00742388,0.0720
 6883,-0.02471628,0.06768697,0.00094026,-0.00045556,0.00003447,-0.00121
 744,-0.00071035,-0.00073827,0.00474380,-0.00083949,0.00309478,0.000407
 78,0.00078347,-0.00001596,-0.00077812,-0.00037952,-0.00067344,0.000038
 76,0.00086618,-0.00008282,-0.00001649,-0.00000226,0.00003984,0.0000112
 9,0.00013769,0.00012957,-0.00170658,0.00026969,0.00090138,-0.00001858,
 0.00004908,0.00010726,0.00007171,0.00014067,0.00001443,-0.00705693,-0.
 01808673,0.01660044,-0.05108873,0.00018234,0.00283966,0.00039285,-0.00
 427679,0.01197128,0.00356025,0.01231950,-0.02597280,0.05178107,0.00055
 034,-0.00011079,-0.00013725,-0.00108282,-0.00059741,-0.00065833,0.0061
 0225,0.00006890,0.00195712,-0.00040472,0.00080831,-0.00053721,-0.00003
 830,-0.00025412,0.00001487,-0.00038596,0.00033912,-0.00009729,-0.00006
 359,-0.00002567,0.00003340,0.00001864,0.00015287,0.00019669,0.00010476
 ,0.00030638,0.00004654,-0.00001750,0.00002060,0.00002280,-0.00010987,0
 .00033290,-0.00006642,-0.01434238,-0.02736293,0.02308636,-0.00198954,-
 0.09495311,0.09441144,0.00127280,0.01101913,-0.01676232,0.00043239,-0.
 00331329,0.00972871,0.00999407,0.11369221,0.00002241,-0.00015996,-0.00
 003402,0.00037100,-0.00015959,-0.00021584,-0.00175207,0.00022120,0.000
 63425,0.00024182,0.00108802,0.00008406,-0.00021228,-0.00045569,-0.0001
 6546,0.00014008,0.00016737,-0.00003166,0.00002605,0.00000276,0.0000209
 5,-0.00004827,-0.00006093,0.00000651,-0.00025478,-0.00068904,0.0000827
 7,-0.00004302,-0.00004508,0.00005087,0.00002542,-0.00025444,0.00004430
 ,0.00384301,0.00181485,0.01057228,0.00631604,0.09786535,-0.25384093,-0
 .00080180,0.00973897,-0.01899964,0.00026914,0.00200464,-0.00616035,-0.
 00826079,-0.11123552,0.26793346,0.00045572,0.00057976,-0.00041522,-0.0
 0011214,0.00098285,-0.00019251,0.00098095,-0.00068730,0.00023645,-0.00
 179853,0.00695847,-0.00077663,0.01393806,0.01437051,0.00369461,-0.0026
 7152,0.00336802,-0.00168817,-0.00014250,0.00041823,-0.00001249,-0.0000
 6001,0.00000173,0.00009097,-0.00107893,0.00209991,-0.00056690,0.000236
 23,0.00008832,0.00023945,-0.12416895,-0.07496530,-0.00973378,-0.001485
 10,-0.00038276,-0.00032084,0.00058460,0.00099220,-0.00003522,0.0000395
 7,-0.00012766,-0.00010567,-0.00007357,-0.00007616,0.00000171,-0.000075
 60,-0.00010924,0.00017331,0.56545123,-0.00057050,-0.00186421,0.0002171
 2,-0.00129211,0.00146996,-0.00045110,0.00027610,-0.00158397,0.00025684
 ,-0.00231778,0.00460889,-0.00118379,-0.00524785,-0.05150658,0.00309437
 ,0.00359406,0.00345585,0.00083841,0.00020163,0.00006543,0.00002117,-0.
 00008632,-0.00006284,-0.00005597,-0.00040204,-0.00156367,0.00008190,-0
 .00026081,-0.00021880,-0.00011759,-0.04467316,-0.17717815,0.00006972,-
 0.00283709,-0.00028843,-0.00070982,0.00089150,0.00157791,0.00010764,0.
 00002502,-0.00020631,-0.00017128,-0.00013421,-0.00008548,-0.00003118,-
 0.00004867,-0.00016788,0.00018145,-0.07314782,0.48797539,-0.00030392,0
 .00051471,0.00171845,0.00003189,0.00013670,0.00025676,0.00014330,0.000
 00517,0.00035688,0.00012163,0.00120710,-0.00149375,0.00560606,0.008161
 88,-0.00516431,-0.00171195,0.00078471,0.00208779,0.00000818,0.00007723
 ,-0.00025726,0.00009937,-0.00003368,-0.00038486,-0.00032310,0.00072400
 ,0.00017720,0.00027331,-0.00002759,-0.00065564,-0.01268740,-0.00776412
 ,-0.06064873,-0.00008270,-0.00007860,-0.00010458,-0.00002425,0.0001354
 2,0.00032297,-0.00005168,-0.00004446,-0.00013477,0.00000729,-0.0000162
 8,-0.00004780,0.00009850,-0.00000099,-0.00005765,0.00837084,-0.0117777
 1,0.56436688,-0.00029447,-0.00002777,-0.00007500,0.00002403,0.00017270
 ,-0.00000391,0.00056385,-0.00009233,0.00011474,-0.00089850,-0.00017673
 ,-0.00030646,-0.00127310,-0.00319732,-0.00018603,0.00062723,-0.0006254
 5,0.00017111,0.00003375,-0.00005632,0.00002616,0.00002802,0.00004601,0
 .00000931,0.00045932,0.00061840,0.00019895,-0.00002046,0.00001747,-0.0
 0001047,0.01380390,-0.01909291,0.00531968,-0.00006815,0.00001250,-0.00
 002908,0.00000226,-0.00003647,0.00001732,0.00000814,-0.00000720,0.0000
 3421,-0.00001530,0.00003121,-0.00001147,0.00003418,-0.00001283,-0.0000
 3063,-0.18782077,0.13541024,-0.04849939,0.19552145,-0.00053832,-0.0001
 7072,-0.00012054,0.00013519,0.00004134,0.00002807,-0.00002983,0.000052
 97,0.00000209,-0.00072772,-0.00005119,-0.00014641,-0.00455112,-0.00137
 813,-0.00097938,0.00114345,-0.00121114,0.00043164,0.00006495,-0.000139
 44,0.00002583,0.00002521,0.00001079,0.00000292,0.00016802,0.00037630,-
 0.00004698,-0.00005845,-0.00000154,-0.00001379,0.01755772,-0.03757293,
 0.00821217,0.00036693,0.00003031,0.00009532,-0.00009453,-0.00016359,-0
 .00001325,0.00000088,0.00002222,0.00001499,0.00001649,0.00000868,0.000
 00510,0.00000476,0.00001905,-0.00001407,0.12270614,-0.16012387,0.04223
 955,-0.13330872,0.19217716,-0.00002606,0.00001047,0.00000078,0.0000002
 2,0.00003806,-0.00003020,0.00010844,-0.00001450,0.00018351,-0.00025369
 ,-0.00000464,0.00029702,-0.00005344,-0.00062546,0.00070174,-0.00000109
 ,-0.00002436,0.00020176,0.00001435,-0.00000549,-0.00004233,0.00001139,
 0.00000825,-0.00002373,0.00024290,0.00006942,-0.00049428,-0.00000299,0
 .00000594,0.00001179,0.00175976,-0.00123192,0.00092431,-0.00006368,0.0
 0000415,0.00002322,0.00002301,0.00000159,-0.00004552,0.00001584,-0.000
 00019,0.00002986,-0.00001004,0.00000888,0.00001404,-0.00001477,-0.0000
 0538,0.00000703,-0.04726399,0.04551129,-0.06721328,0.05126370,-0.04846
 332,0.06465748,0.00006906,0.00007693,0.00014936,0.00007395,-0.00036043
 ,0.00002204,-0.00019542,0.00027908,-0.00031019,0.00057930,-0.00032561,
 0.00046539,-0.00101120,0.00292899,-0.00010402,-0.00001737,-0.00043130,
 0.00020682,0.00000385,-0.00005033,-0.00001575,-0.00000362,-0.00001345,
 0.00002676,-0.00034007,0.00079713,0.00043102,0.00006025,0.00004811,-0.
 00010595,-0.00868762,-0.01416204,-0.01471679,0.00024634,-0.00001918,0.
 00007413,-0.00008005,-0.00010392,0.00003770,-0.00002267,0.00004731,-0.
 00004527,0.00002594,-0.00001882,-0.00000286,-0.00001583,0.00002680,0.0
 0000916,-0.07661529,-0.01108089,-0.07421746,-0.00596429,-0.00344750,-0
 .02118349,0.08263567,-0.00092436,0.00073633,0.00005183,0.00088048,0.00
 030784,0.00019146,-0.00012240,-0.00091348,0.00052019,0.00091671,0.0006
 8624,0.00036228,-0.00366343,0.00604284,-0.00338727,-0.00012796,-0.0018
 7088,0.00081699,0.00001033,-0.00003905,-0.00005540,0.00006192,0.000007
 24,-0.00010613,0.00102073,-0.00107982,-0.00086527,0.00016853,0.0001175
 2,-0.00018909,-0.01788998,-0.02221221,-0.02914757,0.00021987,0.0001314
 9,0.00003669,-0.00004075,-0.00013351,-0.00009507,0.00002425,0.00002810
 ,0.00005323,-0.00000042,0.00002330,0.00001693,0.00001576,0.00000716,0.
 00000902,-0.00903595,-0.05464727,-0.03056775,0.00581418,0.00580782,0.0
 1971201,0.02110292,0.06511736,0.00008004,0.00012341,-0.00000994,-0.000
 00286,-0.00019210,-0.00003557,0.00029093,0.00035289,-0.00008879,-0.000
 74666,-0.00068995,0.00003461,-0.00141413,0.00204566,0.00041531,0.00031
 613,-0.00041345,-0.00014244,0.00000989,-0.00003189,0.00001399,0.000021
 96,0.00005487,0.00004927,0.00055311,0.00049122,0.00010246,0.00004784,0
 .00008297,-0.00000710,-0.00224850,-0.00770244,0.00705226,0.00026568,0.
 00010310,0.00007108,-0.00008301,-0.00024995,-0.00008757,-0.00000324,0.
 00003496,0.00010980,-0.00000115,0.00003411,0.00001102,-0.00000135,-0.0
 0000744,-0.00003526,-0.07545642,-0.03536514,-0.26862022,-0.00115031,-0
 .00035032,-0.00575693,0.08696864,0.04355309,0.28565370,0.00011773,0.00
 013709,-0.00011343,0.00007850,-0.00038331,0.00011204,-0.00015415,0.000
 41540,0.00016470,0.00035296,-0.00064459,-0.00018231,-0.00137044,0.0036
 8938,-0.00147990,0.00015561,-0.00067307,0.00005366,0.00000010,-0.00005
 800,0.00002344,0.00002988,0.00000741,-0.00003413,0.00023691,0.00080042
 ,-0.00048658,0.00002725,0.00010899,0.00011462,-0.01434780,-0.01531433,
 0.00787593,0.00036047,0.00003620,0.00007519,-0.00011472,-0.00021610,-0
 .00000219,-0.00001513,0.00002079,-0.00000303,0.00002121,0.00000132,0.0
 0000735,-0.00000764,0.00005470,-0.00003379,-0.18558348,0.00170070,0.12
 314148,-0.01475107,0.00056646,0.01543363,0.00925905,0.00156958,-0.0074
 4660,0.20570475,-0.00074369,0.00063736,-0.00061880,0.00086967,0.000318
 86,0.00018898,0.00004060,-0.00103095,-0.00035590,0.00114729,0.00075147
 ,0.00004805,-0.00433816,0.00605891,0.00026805,0.00015799,-0.00191188,-
 0.00048349,-0.00002166,-0.00002362,0.00006008,-0.00000393,0.00001958,0
 .00012396,0.00032116,-0.00089887,0.00135485,0.00005450,0.00014301,0.00
 022048,-0.03102402,-0.01600270,0.02168048,0.00017585,0.00011145,0.0000
 4328,-0.00006598,-0.00007721,0.00006806,0.00002108,0.00000734,-0.00000
 803,0.00000859,0.00001300,-0.00001490,0.00003616,0.00001856,-0.0000193
 3,0.00596603,-0.04965597,-0.00367529,0.01451135,0.00226591,-0.01499481
 ,0.00470621,0.00188298,-0.00187361,0.00818097,0.05737278,0.00013936,-0
 .00020498,0.00003858,-0.00010572,-0.00006891,-0.00005191,-0.00036176,0
 .00000985,-0.00001024,0.00073773,0.00032030,0.00019279,0.00125207,-0.0
 0139438,0.00075198,-0.00016732,0.00045210,-0.00027411,-0.00001157,0.00
 001151,0.00000225,-0.00003544,-0.00005354,0.00000375,-0.00058414,0.000
 06435,-0.00065596,-0.00004567,-0.00006835,0.00000118,-0.00270059,0.005
 25044,0.00652525,-0.00015305,-0.00012061,-0.00002212,0.00009700,0.0001
 6775,-0.00010957,0.00000850,0.00001115,-0.00003646,0.00000322,-0.00003
 864,0.00002601,-0.00007140,0.00001022,0.00010431,0.12376051,-0.0005163
 3,-0.16450411,-0.00685242,-0.00090964,0.00655372,0.02231077,-0.0009101
 8,-0.01872969,-0.13722008,-0.00201210,0.17019433\\0.00000681,0.0000113
 4,0.00000065,0.00001165,0.00005253,0.00001392,-0.00001453,0.00000179,-
 0.00003282,-0.00003788,-0.00006309,-0.00000358,0.00000678,-0.00001468,
 0.00003209,0.00004147,0.00003592,-0.00000891,0.00000292,0.00000486,0.0
 0000027,0.00000663,-0.00002699,-0.00000118,0.00000465,0.00000775,0.000
 00044,-0.00002695,-0.00000685,-0.00000074,0.00000818,0.00000683,-0.000
 00034,0.00000214,0.00001036,0.00000131,0.00000069,-0.00004758,-0.00003
 762,0.00000657,0.00003045,0.00002134,0.00001382,0.00000325,0.00001718,
 -0.00001238,-0.00000564,0.00001351,-0.00004411,-0.00002472,0.00003353,
 -0.00000280,0.00001511,-0.00001614,0.00000154,-0.00001241,-0.00001454,
 0.00002479,0.00002176,-0.00001838\\\@


 LENDING MONEY TO FRIENDS CAUSES THEM TO LOSE THEIR MEMORIES.

    --  PETER'S THEORY OF RECIPROCAL INHIBITION OF FISCAL RECALL
 Job cpu time:       0 days  0 hours 53 minutes 18.5 seconds.
 File lengths (MBytes):  RWF=    197 Int=      0 D2E=      0 Chk=      7 Scr=      1
 Normal termination of Gaussian 09 at Tue Nov  2 16:21:57 2021.
