 Entering Gaussian System, Link 0=g09
 Initial command:
 /cm/shared/apps/gaussian/g09revD.01/g09/l1.exe "//home/sweav003/CHB/OrthoParaExtra/G09-regiodevergent1i_Ishiyana.com.o9918463.tmp/Gau-131312.inp" -scrdir="//home/sweav003/CHB/OrthoParaExtra/G09-regiodevergent1i_Ishiyana.com.o9918463.tmp/"
 Entering Link 1 = /cm/shared/apps/gaussian/g09revD.01/g09/l1.exe PID=    131313.
  
 Copyright (c) 1988,1990,1992,1993,1995,1998,2003,2009,2013,
            Gaussian, Inc.  All Rights Reserved.
  
 This is part of the Gaussian(R) 09 program.  It is based on
 the Gaussian(R) 03 system (copyright 2003, Gaussian, Inc.),
 the Gaussian(R) 98 system (copyright 1998, Gaussian, Inc.),
 the Gaussian(R) 94 system (copyright 1995, Gaussian, Inc.),
 the Gaussian 92(TM) system (copyright 1992, Gaussian, Inc.),
 the Gaussian 90(TM) system (copyright 1990, Gaussian, Inc.),
 the Gaussian 88(TM) system (copyright 1988, Gaussian, Inc.),
 the Gaussian 86(TM) system (copyright 1986, Carnegie Mellon
 University), and the Gaussian 82(TM) system (copyright 1983,
 Carnegie Mellon University). Gaussian is a federally registered
 trademark of Gaussian, Inc.
  
 This software contains proprietary and confidential information,
 including trade secrets, belonging to Gaussian, Inc.
  
 This software is provided under written license and may be
 used, copied, transmitted, or stored only in accord with that
 written license.
  
 The following legend is applicable only to US Government
 contracts under FAR:
  
                    RESTRICTED RIGHTS LEGEND
  
 Use, reproduction and disclosure by the US Government is
 subject to restrictions as set forth in subparagraphs (a)
 and (c) of the Commercial Computer Software - Restricted
 Rights clause in FAR 52.227-19.
  
 Gaussian, Inc.
 340 Quinnipiac St., Bldg. 40, Wallingford CT 06492
  
  
 ---------------------------------------------------------------
 Warning -- This program may not be used in any manner that
 competes with the business of Gaussian, Inc. or will provide
 assistance to any competitor of Gaussian, Inc.  The licensee
 of this program is prohibited from giving any competitor of
 Gaussian, Inc. access to this program.  By using this program,
 the user acknowledges that Gaussian, Inc. is engaged in the
 business of creating and licensing software in the field of
 computational chemistry and represents and warrants to the
 licensee that it is not a competitor of Gaussian, Inc. and that
 it will not use this program in any manner prohibited above.
 ---------------------------------------------------------------
  

 Cite this work as:
 Gaussian 09, Revision D.01,
 M. J. Frisch, G. W. Trucks, H. B. Schlegel, G. E. Scuseria, 
 M. A. Robb, J. R. Cheeseman, G. Scalmani, V. Barone, B. Mennucci, 
 G. A. Petersson, H. Nakatsuji, M. Caricato, X. Li, H. P. Hratchian, 
 A. F. Izmaylov, J. Bloino, G. Zheng, J. L. Sonnenberg, M. Hada, 
 M. Ehara, K. Toyota, R. Fukuda, J. Hasegawa, M. Ishida, T. Nakajima, 
 Y. Honda, O. Kitao, H. Nakai, T. Vreven, J. A. Montgomery, Jr., 
 J. E. Peralta, F. Ogliaro, M. Bearpark, J. J. Heyd, E. Brothers, 
 K. N. Kudin, V. N. Staroverov, T. Keith, R. Kobayashi, J. Normand, 
 K. Raghavachari, A. Rendell, J. C. Burant, S. S. Iyengar, J. Tomasi, 
 M. Cossi, N. Rega, J. M. Millam, M. Klene, J. E. Knox, J. B. Cross, 
 V. Bakken, C. Adamo, J. Jaramillo, R. Gomperts, R. E. Stratmann, 
 O. Yazyev, A. J. Austin, R. Cammi, C. Pomelli, J. W. Ochterski, 
 R. L. Martin, K. Morokuma, V. G. Zakrzewski, G. A. Voth, 
 P. Salvador, J. J. Dannenberg, S. Dapprich, A. D. Daniels, 
 O. Farkas, J. B. Foresman, J. V. Ortiz, J. Cioslowski, 
 and D. J. Fox, Gaussian, Inc., Wallingford CT, 2013.
 
 ******************************************
 Gaussian 09:  ES64L-G09RevD.01 24-Apr-2013
                 2-Feb-2023 
 ******************************************
 %nprocshared=20
 Will use up to   20 processors via shared memory.
 %mem=4GB
 %chk=regiodevergent1i_Ishiyana.chk
 ----------------------------------------------------------------------
 # opt freq=noraman b3lyp/6-311+g(d,p) pop=(npa,hirshfeld,chelpg,mbs) g
 eom=connectivity
 ----------------------------------------------------------------------
 1/14=-1,18=20,19=15,26=3,38=1,57=2/1,3;
 2/9=110,12=2,17=6,18=5,40=1/2;
 3/5=4,6=6,7=111,11=2,16=1,25=1,30=1,71=1,74=-5/1,2,3;
 4//1;
 5/5=2,38=5/2;
 6/7=2,8=2,9=2,10=2,15=8,20=3,27=100,28=1,40=-1,79=1/1,2,7;
 7//1,2,3,16;
 1/14=-1,18=20,19=15,26=3/3(2);
 2/9=110/2;
 99//99;
 2/9=110/2;
 3/5=4,6=6,7=111,11=2,16=1,25=1,30=1,71=1,74=-5/1,2,3;
 4/5=5,16=3,69=1/1;
 5/5=2,38=5/2;
 7//1,2,3,16;
 1/14=-1,18=20,19=15,26=3/3(-5);
 2/9=110/2;
 6/7=2,8=2,9=2,10=2,15=8,19=2,20=3,27=100,28=1,40=-1,79=1/1,2,7;
 99/9=1/99;
 -------------------
 Title Card Required
 -------------------
 Symbolic Z-matrix:
 Charge =  0 Multiplicity = 1
 C                    -1.46218   0.36046   0.01914 
 C                    -1.05291  -0.95696   0.03184 
 C                     0.39497  -0.94159   0.01832 
 C                     0.77463   0.38468  -0.00185 
 H                    -1.67577  -1.84617   0.0488 
 H                     1.03709  -1.81709   0.02335 
 C                    -2.81925   1.08844   0.02252 
 H                    -2.88702   1.71259   0.88897 
 H                    -2.90329   1.69036  -0.85812 
 H                    -3.61034   0.36815   0.03906 
 C                     2.11542   1.14193  -0.02373 
 O                     2.17456   2.36771  -0.03968 
 N                     3.31971   0.29896  -0.0242 
 C                     4.10742   0.5705   -1.23527 
 H                     4.60098   1.51461  -1.13548 
 H                     4.83688  -0.20118  -1.36675 
 H                     3.45775   0.59573  -2.08509 
 C                     4.12951   0.60074   1.16494 
 H                     4.92239  -0.11306   1.24704 
 H                     4.54245   1.58375   1.07517 
 H                     3.51314   0.55117   2.03817 
 S                    -0.35274   1.20678  -0.00188 
 

 GradGradGradGradGradGradGradGradGradGradGradGradGradGradGradGradGradGrad
 Berny optimization.
 Initialization pass.
                           ----------------------------
                           !    Initial Parameters    !
                           ! (Angstroms and Degrees)  !
 --------------------------                            --------------------------
 ! Name  Definition              Value          Derivative Info.                !
 --------------------------------------------------------------------------------
 ! R1    R(1,2)                  1.3796         estimate D2E/DX2                !
 ! R2    R(1,7)                  1.54           estimate D2E/DX2                !
 ! R3    R(1,22)                 1.3955         estimate D2E/DX2                !
 ! R4    R(2,3)                  1.448          estimate D2E/DX2                !
 ! R5    R(2,5)                  1.0858         estimate D2E/DX2                !
 ! R6    R(3,4)                  1.3797         estimate D2E/DX2                !
 ! R7    R(3,6)                  1.0857         estimate D2E/DX2                !
 ! R8    R(4,11)                 1.54           estimate D2E/DX2                !
 ! R9    R(4,22)                 1.3953         estimate D2E/DX2                !
 ! R10   R(7,8)                  1.07           estimate D2E/DX2                !
 ! R11   R(7,9)                  1.07           estimate D2E/DX2                !
 ! R12   R(7,10)                 1.07           estimate D2E/DX2                !
 ! R13   R(11,12)                1.2273         estimate D2E/DX2                !
 ! R14   R(11,13)                1.47           estimate D2E/DX2                !
 ! R15   R(13,14)                1.47           estimate D2E/DX2                !
 ! R16   R(13,18)                1.47           estimate D2E/DX2                !
 ! R17   R(14,15)                1.07           estimate D2E/DX2                !
 ! R18   R(14,16)                1.07           estimate D2E/DX2                !
 ! R19   R(14,17)                1.07           estimate D2E/DX2                !
 ! R20   R(18,19)                1.07           estimate D2E/DX2                !
 ! R21   R(18,20)                1.07           estimate D2E/DX2                !
 ! R22   R(18,21)                1.07           estimate D2E/DX2                !
 ! A1    A(2,1,7)              135.4644         estimate D2E/DX2                !
 ! A2    A(2,1,22)             110.0851         estimate D2E/DX2                !
 ! A3    A(7,1,22)             114.4505         estimate D2E/DX2                !
 ! A4    A(1,2,3)              106.6433         estimate D2E/DX2                !
 ! A5    A(1,2,5)              127.7352         estimate D2E/DX2                !
 ! A6    A(3,2,5)              125.6215         estimate D2E/DX2                !
 ! A7    A(2,3,4)              106.588          estimate D2E/DX2                !
 ! A8    A(2,3,6)              125.6441         estimate D2E/DX2                !
 ! A9    A(4,3,6)              127.768          estimate D2E/DX2                !
 ! A10   A(3,4,11)             135.4359         estimate D2E/DX2                !
 ! A11   A(3,4,22)             110.1235         estimate D2E/DX2                !
 ! A12   A(11,4,22)            114.4407         estimate D2E/DX2                !
 ! A13   A(1,7,8)              109.4712         estimate D2E/DX2                !
 ! A14   A(1,7,9)              109.4712         estimate D2E/DX2                !
 ! A15   A(1,7,10)             109.4712         estimate D2E/DX2                !
 ! A16   A(8,7,9)              109.4713         estimate D2E/DX2                !
 ! A17   A(8,7,10)             109.4712         estimate D2E/DX2                !
 ! A18   A(9,7,10)             109.4712         estimate D2E/DX2                !
 ! A19   A(4,11,12)            122.2249         estimate D2E/DX2                !
 ! A20   A(4,11,13)            115.5502         estimate D2E/DX2                !
 ! A21   A(12,11,13)           122.2249         estimate D2E/DX2                !
 ! A22   A(11,13,14)           109.4712         estimate D2E/DX2                !
 ! A23   A(11,13,18)           109.4712         estimate D2E/DX2                !
 ! A24   A(14,13,18)           109.4713         estimate D2E/DX2                !
 ! A25   A(13,14,15)           109.4712         estimate D2E/DX2                !
 ! A26   A(13,14,16)           109.4712         estimate D2E/DX2                !
 ! A27   A(13,14,17)           109.4712         estimate D2E/DX2                !
 ! A28   A(15,14,16)           109.4713         estimate D2E/DX2                !
 ! A29   A(15,14,17)           109.4712         estimate D2E/DX2                !
 ! A30   A(16,14,17)           109.4712         estimate D2E/DX2                !
 ! A31   A(13,18,19)           109.4712         estimate D2E/DX2                !
 ! A32   A(13,18,20)           109.4712         estimate D2E/DX2                !
 ! A33   A(13,18,21)           109.4712         estimate D2E/DX2                !
 ! A34   A(19,18,20)           109.4713         estimate D2E/DX2                !
 ! A35   A(19,18,21)           109.4712         estimate D2E/DX2                !
 ! A36   A(20,18,21)           109.4712         estimate D2E/DX2                !
 ! A37   A(1,22,4)             106.5602         estimate D2E/DX2                !
 ! D1    D(7,1,2,3)            179.9992         estimate D2E/DX2                !
 ! D2    D(7,1,2,5)             -0.0078         estimate D2E/DX2                !
 ! D3    D(22,1,2,3)             0.0097         estimate D2E/DX2                !
 ! D4    D(22,1,2,5)          -179.9973         estimate D2E/DX2                !
 ! D5    D(2,1,7,8)            120.0147         estimate D2E/DX2                !
 ! D6    D(2,1,7,9)           -119.9852         estimate D2E/DX2                !
 ! D7    D(2,1,7,10)             0.0148         estimate D2E/DX2                !
 ! D8    D(22,1,7,8)           -59.9961         estimate D2E/DX2                !
 ! D9    D(22,1,7,9)            60.0039         estimate D2E/DX2                !
 ! D10   D(22,1,7,10)         -179.9961         estimate D2E/DX2                !
 ! D11   D(2,1,22,4)            -0.0117         estimate D2E/DX2                !
 ! D12   D(7,1,22,4)           179.9964         estimate D2E/DX2                !
 ! D13   D(1,2,3,4)             -0.0039         estimate D2E/DX2                !
 ! D14   D(1,2,3,6)           -179.9997         estimate D2E/DX2                !
 ! D15   D(5,2,3,4)           -179.997          estimate D2E/DX2                !
 ! D16   D(5,2,3,6)              0.0071         estimate D2E/DX2                !
 ! D17   D(2,3,4,11)          -179.9989         estimate D2E/DX2                !
 ! D18   D(2,3,4,22)            -0.0034         estimate D2E/DX2                !
 ! D19   D(6,3,4,11)            -0.0031         estimate D2E/DX2                !
 ! D20   D(6,3,4,22)           179.9924         estimate D2E/DX2                !
 ! D21   D(3,4,11,12)          180.0            estimate D2E/DX2                !
 ! D22   D(3,4,11,13)           -0.0022         estimate D2E/DX2                !
 ! D23   D(22,4,11,12)           0.0046         estimate D2E/DX2                !
 ! D24   D(22,4,11,13)        -179.9976         estimate D2E/DX2                !
 ! D25   D(3,4,22,1)             0.0092         estimate D2E/DX2                !
 ! D26   D(11,4,22,1)         -179.9942         estimate D2E/DX2                !
 ! D27   D(4,11,13,14)         120.0001         estimate D2E/DX2                !
 ! D28   D(4,11,13,18)        -119.9998         estimate D2E/DX2                !
 ! D29   D(12,11,13,14)        -60.0021         estimate D2E/DX2                !
 ! D30   D(12,11,13,18)         59.9979         estimate D2E/DX2                !
 ! D31   D(11,13,14,15)         74.3883         estimate D2E/DX2                !
 ! D32   D(11,13,14,16)       -165.6117         estimate D2E/DX2                !
 ! D33   D(11,13,14,17)        -45.6117         estimate D2E/DX2                !
 ! D34   D(18,13,14,15)        -45.6117         estimate D2E/DX2                !
 ! D35   D(18,13,14,16)         74.3883         estimate D2E/DX2                !
 ! D36   D(18,13,14,17)       -165.6117         estimate D2E/DX2                !
 ! D37   D(11,13,18,19)        171.2209         estimate D2E/DX2                !
 ! D38   D(11,13,18,20)        -68.7791         estimate D2E/DX2                !
 ! D39   D(11,13,18,21)         51.2209         estimate D2E/DX2                !
 ! D40   D(14,13,18,19)        -68.7792         estimate D2E/DX2                !
 ! D41   D(14,13,18,20)         51.2209         estimate D2E/DX2                !
 ! D42   D(14,13,18,21)        171.2208         estimate D2E/DX2                !
 --------------------------------------------------------------------------------
 Trust Radius=3.00D-01 FncErr=1.00D-07 GrdErr=1.00D-06
 Number of steps in this run=    111 maximum allowed number of steps=    132.
 GradGradGradGradGradGradGradGradGradGradGradGradGradGradGradGradGradGrad

                          Input orientation:                          
 ---------------------------------------------------------------------
 Center     Atomic      Atomic             Coordinates (Angstroms)
 Number     Number       Type             X           Y           Z
 ---------------------------------------------------------------------
      1          6           0       -1.462180    0.360456    0.019141
      2          6           0       -1.052911   -0.956960    0.031843
      3          6           0        0.394975   -0.941593    0.018318
      4          6           0        0.774634    0.384682   -0.001848
      5          1           0       -1.675774   -1.846171    0.048801
      6          1           0        1.037093   -1.817093    0.023347
      7          6           0       -2.819249    1.088435    0.022520
      8          1           0       -2.887015    1.712594    0.888969
      9          1           0       -2.903292    1.690362   -0.858116
     10          1           0       -3.610337    0.368154    0.039056
     11          6           0        2.115419    1.141925   -0.023733
     12          8           0        2.174564    2.367713   -0.039680
     13          7           0        3.319710    0.298965   -0.024201
     14          6           0        4.107417    0.570502   -1.235269
     15          1           0        4.600982    1.514609   -1.135485
     16          1           0        4.836880   -0.201181   -1.366755
     17          1           0        3.457753    0.595729   -2.085093
     18          6           0        4.129512    0.600736    1.164939
     19          1           0        4.922391   -0.113059    1.247038
     20          1           0        4.542449    1.583754    1.075174
     21          1           0        3.513144    0.551168    2.038171
     22         16           0       -0.352743    1.206779   -0.001878
 ---------------------------------------------------------------------
                    Distance matrix (angstroms):
                    1          2          3          4          5
     1  C    0.000000
     2  C    1.379582   0.000000
     3  C    2.268118   1.448030   0.000000
     4  C    2.237044   2.267390   1.379693   0.000000
     5  H    2.217139   1.085791   2.259910   3.314177   0.000000
     6  H    3.314831   2.260092   1.085745   2.217506   2.713142
     7  C    1.540000   2.702532   3.801614   3.662220   3.149625
     8  H    2.148263   3.350391   4.309779   3.995570   3.851986
     9  H    2.148263   3.350261   4.309743   3.995639   3.851800
    10  H    2.148263   2.880349   4.214071   4.385193   2.940385
    11  C    3.662206   3.800884   2.702359   1.540000   4.827745
    12  O    4.154329   4.634129   3.757899   2.427683   5.708743
    13  N    4.782482   4.549758   3.177242   2.546617   5.437076
    14  C    5.712974   5.528806   4.200016   3.558552   6.398003
    15  H    6.279105   6.279953   5.005465   4.147626   7.217689
    16  H    6.474125   6.100566   4.711386   4.325280   6.864725
    17  H    5.356202   5.219037   4.020984   3.403465   6.072024
    18  C    5.712934   5.528818   4.200034   3.558550   6.398005
    19  H    6.518796   6.155737   4.763793   4.360201   6.926416
    20  H    6.218299   6.233122   4.969493   4.098070   7.175244
    21  H    5.372774   5.210437   4.003888   3.418893   6.052247
    22  S    1.395549   2.274453   2.274861   1.395286   3.327685
                    6          7          8          9         10
     6  H    0.000000
     7  C    4.828402   0.000000
     8  H    5.348515   1.070000   0.000000
     9  H    5.348444   1.070000   1.747303   0.000000
    10  H    5.135578   1.070000   1.747303   1.747303   0.000000
    11  C    3.149729   4.935174   5.116936   5.117073   5.778144
    12  O    4.337097   5.155442   5.187596   5.187799   6.121235
    13  N    3.112925   6.189690   6.430837   6.430953   6.930681
    14  C    4.087984   7.058965   7.398570   7.109596   7.824869
    15  H    5.014422   7.522129   7.759363   7.511454   8.373749
    16  H    4.356826   7.887300   8.270996   7.984165   8.582303
    17  H    4.015822   6.639695   7.095669   6.570128   7.383881
    18  C    4.088054   7.058913   7.109433   7.398673   7.824767
    19  H    4.415506   7.929440   8.027954   8.302127   8.631236
    20  H    4.995961   7.453054   7.432914   7.693375   8.307776
    21  H    3.974796   6.667136   6.605423   7.131401   7.400942
    22  S    3.328075   2.469464   2.733495   2.733550   3.364058
                   11         12         13         14         15
    11  C    0.000000
    12  O    1.227317   0.000000
    13  N    1.470000   2.364597   0.000000
    14  C    2.400500   2.897468   1.470000   0.000000
    15  H    2.748255   2.795725   2.086720   1.070000   0.000000
    16  H    3.318733   3.930429   2.086720   1.070000   1.747303
    17  H    2.519801   2.995032   2.086720   1.070000   1.747303
    18  C    2.400500   2.897436   1.470000   2.400500   2.519801
    19  H    3.327001   3.919238   2.086720   2.700609   2.903278
    20  H    2.700608   2.732100   2.086720   2.560093   2.212514
    21  H    2.560093   3.067424   2.086720   3.327002   3.490515
    22  S    2.469111   2.781452   3.783059   4.671095   5.091091
                   16         17         18         19         20
    16  H    0.000000
    17  H    1.747303   0.000000
    18  C    2.748256   3.318734   0.000000
    19  H    2.616675   3.708186   1.070000   0.000000
    20  H    3.039029   3.484256   1.070000   1.747303   0.000000
    21  H    3.729856   4.123876   1.070000   1.747303   1.747303
    22  S    5.547740   4.385550   4.671120   5.579319   5.026435
                   21         22
    21  H    0.000000
    22  S    4.420035   0.000000
 Stoichiometry    C8H11NOS
 Framework group  C1[X(C8H11NOS)]
 Deg. of freedom    60
 Full point group                 C1      NOp   1
 Largest Abelian subgroup         C1      NOp   1
 Largest concise Abelian subgroup C1      NOp   1
                         Standard orientation:                         
 ---------------------------------------------------------------------
 Center     Atomic      Atomic             Coordinates (Angstroms)
 Number     Number       Type             X           Y           Z
 ---------------------------------------------------------------------
      1          6           0        2.450162    0.167149    0.000064
      2          6           0        2.103651    1.502506   -0.000009
      3          6           0        0.656591    1.555479    0.000006
      4          6           0        0.214598    0.248499   -0.000001
      5          1           0        2.767913    2.361401    0.000038
      6          1           0        0.056576    2.460368   -0.000042
      7          6           0        3.771339   -0.624110    0.000077
      8          1           0        3.818069   -1.240237    0.873635
      9          1           0        3.818253   -1.239958   -0.873668
     10          1           0        4.595655    0.058094    0.000273
     11          6           0       -1.160573   -0.444687   -0.000015
     12          8           0       -1.277641   -1.666408   -0.000020
     13          7           0       -2.323696    0.454225    0.000030
     14          6           0       -3.135168    0.205604   -1.200220
     15          1           0       -3.671727   -0.712822   -1.084041
     16          1           0       -3.828662    1.009279   -1.334658
     17          1           0       -2.495778    0.139387   -2.055612
     18          6           0       -3.135142    0.205518    1.200281
     19          1           0       -3.892617    0.956958    1.280713
     20          1           0       -3.594860   -0.757884    1.126678
     21          1           0       -2.508593    0.236446    2.067102
     22         16           0        1.301876   -0.625943   -0.000098
 ---------------------------------------------------------------------
 Rotational constants (GHZ):      2.6115722      0.5693213      0.5156811
 Standard basis: 6-311+G(d,p) (5D, 7F)
 There are   327 symmetry adapted cartesian basis functions of A   symmetry.
 There are   316 symmetry adapted basis functions of A   symmetry.
   316 basis functions,   498 primitive gaussians,   327 cartesian basis functions
    45 alpha electrons       45 beta electrons
       nuclear repulsion energy       722.7343714312 Hartrees.
 NAtoms=   22 NActive=   22 NUniq=   22 SFac= 1.00D+00 NAtFMM=   60 NAOKFM=F Big=F
 Integral buffers will be    131072 words long.
 Raffenetti 2 integral format.
 Two-electron integral symmetry is turned on.
 One-electron integrals computed using PRISM.
 NBasis=   316 RedAO= T EigKep=  1.35D-06  NBF=   316
 NBsUse=   316 1.00D-06 EigRej= -1.00D+00 NBFU=   316
 ExpMin= 4.05D-02 ExpMax= 9.34D+04 ExpMxC= 3.17D+03 IAcc=2 IRadAn=         4 AccDes= 0.00D+00
 Harris functional with IExCor=  402 and IRadAn=       4 diagonalized for initial guess.
 HarFok:  IExCor=  402 AccDes= 0.00D+00 IRadAn=         4 IDoV= 1 UseB2=F ITyADJ=14
 ICtDFT=  3500011 ScaDFX=  1.000000  1.000000  1.000000  1.000000
 FoFCou: FMM=F IPFlag=           0 FMFlag=      100000 FMFlg1=           0
         NFxFlg=           0 DoJE=T BraDBF=F KetDBF=T FulRan=T
         wScrn=  0.000000 ICntrl=     500 IOpCl=  0 I1Cent=   200000004 NGrid=           0
         NMat0=    1 NMatS0=      1 NMatT0=    0 NMatD0=    1 NMtDS0=    0 NMtDT0=    0
 Petite list used in FoFCou.
 Requested convergence on RMS density matrix=1.00D-08 within 128 cycles.
 Requested convergence on MAX density matrix=1.00D-06.
 Requested convergence on             energy=1.00D-06.
 No special actions if energy rises.
 SCF Done:  E(RB3LYP) =  -839.556065603     A.U. after   15 cycles
            NFock= 15  Conv=0.23D-08     -V/T= 2.0002

 **********************************************************************

            Population analysis using the SCF density.

 **********************************************************************

 Orbital symmetries:
       Occupied  (A) (A) (A) (A) (A) (A) (A) (A) (A) (A) (A) (A)
                 (A) (A) (A) (A) (A) (A) (A) (A) (A) (A) (A) (A)
                 (A) (A) (A) (A) (A) (A) (A) (A) (A) (A) (A) (A)
                 (A) (A) (A) (A) (A) (A) (A) (A) (A)
       Virtual   (A) (A) (A) (A) (A) (A) (A) (A) (A) (A) (A) (A)
                 (A) (A) (A) (A) (A) (A) (A) (A) (A) (A) (A) (A)
                 (A) (A) (A) (A) (A) (A) (A) (A) (A) (A) (A) (A)
                 (A) (A) (A) (A) (A) (A) (A) (A) (A) (A) (A) (A)
                 (A) (A) (A) (A) (A) (A) (A) (A) (A) (A) (A) (A)
                 (A) (A) (A) (A) (A) (A) (A) (A) (A) (A) (A) (A)
                 (A) (A) (A) (A) (A) (A) (A) (A) (A) (A) (A) (A)
                 (A) (A) (A) (A) (A) (A) (A) (A) (A) (A) (A) (A)
                 (A) (A) (A) (A) (A) (A) (A) (A) (A) (A) (A) (A)
                 (A) (A) (A) (A) (A) (A) (A) (A) (A) (A) (A) (A)
                 (A) (A) (A) (A) (A) (A) (A) (A) (A) (A) (A) (A)
                 (A) (A) (A) (A) (A) (A) (A) (A) (A) (A) (A) (A)
                 (A) (A) (A) (A) (A) (A) (A) (A) (A) (A) (A) (A)
                 (A) (A) (A) (A) (A) (A) (A) (A) (A) (A) (A) (A)
                 (A) (A) (A) (A) (A) (A) (A) (A) (A) (A) (A) (A)
                 (A) (A) (A) (A) (A) (A) (A) (A) (A) (A) (A) (A)
                 (A) (A) (A) (A) (A) (A) (A) (A) (A) (A) (A) (A)
                 (A) (A) (A) (A) (A) (A) (A) (A) (A) (A) (A) (A)
                 (A) (A) (A) (A) (A) (A) (A) (A) (A) (A) (A) (A)
                 (A) (A) (A) (A) (A) (A) (A) (A) (A) (A) (A) (A)
                 (A) (A) (A) (A) (A) (A) (A) (A) (A) (A) (A) (A)
                 (A) (A) (A) (A) (A) (A) (A) (A) (A) (A) (A) (A)
                 (A) (A) (A) (A) (A) (A) (A)
 The electronic state is 1-A.
 Alpha  occ. eigenvalues --  -88.84561 -19.12705 -14.31762 -10.30192 -10.18711
 Alpha  occ. eigenvalues --  -10.18709 -10.18687 -10.18401 -10.18252 -10.18205
 Alpha  occ. eigenvalues --  -10.18021  -7.95742  -5.91856  -5.91278  -5.91261
 Alpha  occ. eigenvalues --   -1.06398  -0.99836  -0.92126  -0.80676  -0.76301
 Alpha  occ. eigenvalues --   -0.71864  -0.71284  -0.67145  -0.61238  -0.56993
 Alpha  occ. eigenvalues --   -0.53985  -0.51056  -0.48245  -0.47138  -0.46542
 Alpha  occ. eigenvalues --   -0.46351  -0.44185  -0.42755  -0.42130  -0.40775
 Alpha  occ. eigenvalues --   -0.40529  -0.39001  -0.38384  -0.38212  -0.36935
 Alpha  occ. eigenvalues --   -0.32998  -0.28707  -0.26291  -0.25633  -0.23800
 Alpha virt. eigenvalues --   -0.05549  -0.00207   0.00836   0.01364   0.02231
 Alpha virt. eigenvalues --    0.02414   0.02846   0.03697   0.04575   0.04671
 Alpha virt. eigenvalues --    0.05587   0.05763   0.05930   0.06533   0.06846
 Alpha virt. eigenvalues --    0.07335   0.07703   0.08989   0.09321   0.09448
 Alpha virt. eigenvalues --    0.10813   0.11502   0.12400   0.12640   0.13300
 Alpha virt. eigenvalues --    0.13591   0.14151   0.14502   0.14951   0.15081
 Alpha virt. eigenvalues --    0.16187   0.16408   0.16526   0.17167   0.18227
 Alpha virt. eigenvalues --    0.18345   0.18439   0.19172   0.19430   0.20495
 Alpha virt. eigenvalues --    0.21428   0.21639   0.21790   0.22199   0.22316
 Alpha virt. eigenvalues --    0.23711   0.24269   0.24489   0.24806   0.25493
 Alpha virt. eigenvalues --    0.25985   0.27097   0.27226   0.27711   0.28241
 Alpha virt. eigenvalues --    0.29262   0.29383   0.30988   0.31407   0.31595
 Alpha virt. eigenvalues --    0.33576   0.34416   0.34751   0.35238   0.36745
 Alpha virt. eigenvalues --    0.38977   0.40314   0.42852   0.43033   0.43251
 Alpha virt. eigenvalues --    0.44483   0.45724   0.47416   0.48092   0.50162
 Alpha virt. eigenvalues --    0.50939   0.51226   0.51796   0.53620   0.54970
 Alpha virt. eigenvalues --    0.55368   0.57777   0.58572   0.59121   0.60379
 Alpha virt. eigenvalues --    0.61415   0.62317   0.63230   0.63376   0.63754
 Alpha virt. eigenvalues --    0.65987   0.67074   0.67610   0.68345   0.69022
 Alpha virt. eigenvalues --    0.70413   0.70851   0.72663   0.72867   0.74812
 Alpha virt. eigenvalues --    0.75510   0.77164   0.77347   0.77906   0.78586
 Alpha virt. eigenvalues --    0.79564   0.83424   0.84899   0.85766   0.86259
 Alpha virt. eigenvalues --    0.87235   0.88801   0.91473   0.92375   0.92966
 Alpha virt. eigenvalues --    0.94520   0.95538   0.98246   0.98859   0.99408
 Alpha virt. eigenvalues --    1.01858   1.02185   1.06648   1.09107   1.10648
 Alpha virt. eigenvalues --    1.15916   1.18503   1.19779   1.22710   1.26045
 Alpha virt. eigenvalues --    1.26456   1.29071   1.31682   1.32272   1.35215
 Alpha virt. eigenvalues --    1.37781   1.40339   1.43737   1.44822   1.44972
 Alpha virt. eigenvalues --    1.48024   1.48105   1.51224   1.51524   1.52697
 Alpha virt. eigenvalues --    1.53726   1.55810   1.56101   1.56547   1.57449
 Alpha virt. eigenvalues --    1.59998   1.60519   1.61654   1.61970   1.64252
 Alpha virt. eigenvalues --    1.65412   1.66234   1.66625   1.70546   1.70731
 Alpha virt. eigenvalues --    1.75799   1.76857   1.77627   1.79254   1.82808
 Alpha virt. eigenvalues --    1.84535   1.84653   1.85087   1.86140   1.86974
 Alpha virt. eigenvalues --    1.89624   1.95011   1.96543   1.98018   1.98655
 Alpha virt. eigenvalues --    2.00896   2.01357   2.03865   2.07726   2.08084
 Alpha virt. eigenvalues --    2.11152   2.12036   2.13315   2.16253   2.18252
 Alpha virt. eigenvalues --    2.18656   2.21517   2.23042   2.27653   2.35819
 Alpha virt. eigenvalues --    2.36374   2.40465   2.43396   2.46960   2.47400
 Alpha virt. eigenvalues --    2.50385   2.50642   2.51055   2.54614   2.55370
 Alpha virt. eigenvalues --    2.58106   2.58200   2.58884   2.60089   2.62866
 Alpha virt. eigenvalues --    2.63686   2.64892   2.65077   2.65629   2.68259
 Alpha virt. eigenvalues --    2.70642   2.71034   2.72119   2.74479   2.76795
 Alpha virt. eigenvalues --    2.78505   2.78871   2.81627   2.88846   2.89199
 Alpha virt. eigenvalues --    2.92356   2.93076   2.94535   2.97569   3.00537
 Alpha virt. eigenvalues --    3.00802   3.04400   3.11275   3.16274   3.20510
 Alpha virt. eigenvalues --    3.31258   3.32939   3.38745   3.43774   3.46721
 Alpha virt. eigenvalues --    3.46927   3.54252   3.66561   3.79403   3.83391
 Alpha virt. eigenvalues --    3.83576   3.84062   3.85722   3.86790   3.89052
 Alpha virt. eigenvalues --    3.93831   4.02065   4.17078   4.22768   4.30192
 Alpha virt. eigenvalues --    4.45266   4.83357   4.84894   5.07852   5.25457
 Alpha virt. eigenvalues --    5.73323   8.32171  17.31056  17.75216  17.97973
 Alpha virt. eigenvalues --   23.69228  23.77857  23.88658  23.98898  23.99459
 Alpha virt. eigenvalues --   23.99545  24.11404  24.14755  35.53195  49.99092
 Alpha virt. eigenvalues --  189.62260
          Condensed to atoms (all electrons):
               1          2          3          4          5          6
     1  C    9.386737  -3.378527   2.661581  -2.724025  -0.042617  -0.037185
     2  C   -3.378527  11.318605  -4.189259   3.318461   0.431249   0.019100
     3  C    2.661581  -4.189259  11.095314  -2.075083  -0.034589   0.394238
     4  C   -2.724025   3.318461  -2.075083  13.158758   0.020645  -0.071832
     5  H   -0.042617   0.431249  -0.034589   0.020645   0.531270  -0.003933
     6  H   -0.037185   0.019100   0.394238  -0.071832  -0.003933   0.515105
     7  C    0.225205  -0.773349   0.532701  -0.532134  -0.024128  -0.003066
     8  H    0.004627  -0.028787   0.006203  -0.004913   0.000015   0.000012
     9  H    0.003673  -0.029138   0.006554  -0.005362   0.000014   0.000012
    10  H   -0.120189  -0.018363   0.022537  -0.022676   0.000598  -0.000024
    11  C   -0.102329   0.188635  -1.691694  -4.369356   0.008500   0.060607
    12  O    0.113267  -0.010254  -0.116313  -0.044392   0.000022  -0.001287
    13  N   -0.006543  -0.097538   0.004474  -0.449720   0.000081  -0.002779
    14  C    0.022369  -0.041721   0.023443  -0.218864  -0.000036  -0.001355
    15  H    0.003868  -0.002197  -0.011533   0.045809   0.000000  -0.000039
    16  H   -0.001768   0.001721  -0.004810  -0.038148   0.000000   0.000104
    17  H    0.004126  -0.000738   0.004351   0.039993   0.000000  -0.000102
    18  C    0.017938  -0.040489   0.030692  -0.224254  -0.000030  -0.001344
    19  H   -0.001465   0.001314  -0.005556  -0.038830   0.000000   0.000089
    20  H    0.004141  -0.002161  -0.011976   0.053854   0.000000  -0.000041
    21  H    0.003491  -0.000392   0.007755   0.034584   0.000000  -0.000098
    22  S   -0.105743  -0.162981  -0.462821   0.126940  -0.008536  -0.003912
               7          8          9         10         11         12
     1  C    0.225205   0.004627   0.003673  -0.120189  -0.102329   0.113267
     2  C   -0.773349  -0.028787  -0.029138  -0.018363   0.188635  -0.010254
     3  C    0.532701   0.006203   0.006554   0.022537  -1.691694  -0.116313
     4  C   -0.532134  -0.004913  -0.005362  -0.022676  -4.369356  -0.044392
     5  H   -0.024128   0.000015   0.000014   0.000598   0.008500   0.000022
     6  H   -0.003066   0.000012   0.000012  -0.000024   0.060607  -0.001287
     7  C    5.777482   0.389759   0.391390   0.494103  -0.100092   0.004302
     8  H    0.389759   0.518026  -0.030521  -0.021907   0.002487  -0.000123
     9  H    0.391390  -0.030521   0.518049  -0.021920   0.002123  -0.000124
    10  H    0.494103  -0.021907  -0.021920   0.517722  -0.005611   0.000036
    11  C   -0.100092   0.002487   0.002123  -0.005611  12.351974   0.442601
    12  O    0.004302  -0.000123  -0.000124   0.000036   0.442601   8.040321
    13  N   -0.006952   0.000062   0.000067  -0.000002   0.100974  -0.282456
    14  C   -0.001207   0.000030   0.000025   0.000012  -0.349700  -0.049417
    15  H    0.000196   0.000000   0.000000   0.000000  -0.042498   0.018186
    16  H   -0.000062   0.000000   0.000000   0.000000   0.065723  -0.001372
    17  H    0.000100   0.000000   0.000000   0.000000  -0.029033  -0.003060
    18  C   -0.001468   0.000021   0.000033   0.000011  -0.355157  -0.051507
    19  H   -0.000054   0.000000   0.000000   0.000000   0.067930  -0.001206
    20  H    0.000218   0.000000   0.000000   0.000000  -0.046185   0.020175
    21  H    0.000096   0.000000   0.000000   0.000000  -0.027371  -0.003293
    22  S   -0.037921  -0.005119  -0.004919   0.024633   0.254931   0.057992
              13         14         15         16         17         18
     1  C   -0.006543   0.022369   0.003868  -0.001768   0.004126   0.017938
     2  C   -0.097538  -0.041721  -0.002197   0.001721  -0.000738  -0.040489
     3  C    0.004474   0.023443  -0.011533  -0.004810   0.004351   0.030692
     4  C   -0.449720  -0.218864   0.045809  -0.038148   0.039993  -0.224254
     5  H    0.000081  -0.000036   0.000000   0.000000   0.000000  -0.000030
     6  H   -0.002779  -0.001355  -0.000039   0.000104  -0.000102  -0.001344
     7  C   -0.006952  -0.001207   0.000196  -0.000062   0.000100  -0.001468
     8  H    0.000062   0.000030   0.000000   0.000000   0.000000   0.000021
     9  H    0.000067   0.000025   0.000000   0.000000   0.000000   0.000033
    10  H   -0.000002   0.000012   0.000000   0.000000   0.000000   0.000011
    11  C    0.100974  -0.349700  -0.042498   0.065723  -0.029033  -0.355157
    12  O   -0.282456  -0.049417   0.018186  -0.001372  -0.003060  -0.051507
    13  N    7.323891   0.439211  -0.114406  -0.055606  -0.037593   0.450947
    14  C    0.439211   5.300209   0.422315   0.408992   0.404264  -0.048130
    15  H   -0.114406   0.422315   0.583709  -0.042824  -0.029914  -0.009479
    16  H   -0.055606   0.408992  -0.042824   0.545600  -0.022635   0.001834
    17  H   -0.037593   0.404264  -0.029914  -0.022635   0.531291   0.008015
    18  C    0.450947  -0.048130  -0.009479   0.001834   0.008015   5.300763
    19  H   -0.057683   0.003278  -0.004206   0.004489  -0.000081   0.408717
    20  H   -0.113799  -0.013414   0.028817  -0.003907   0.000215   0.419742
    21  H   -0.035336   0.009166   0.000122  -0.000138  -0.000692   0.404274
    22  S   -0.162381  -0.075668   0.008805   0.003587  -0.011112  -0.073972
              19         20         21         22
     1  C   -0.001465   0.004141   0.003491  -0.105743
     2  C    0.001314  -0.002161  -0.000392  -0.162981
     3  C   -0.005556  -0.011976   0.007755  -0.462821
     4  C   -0.038830   0.053854   0.034584   0.126940
     5  H    0.000000   0.000000   0.000000  -0.008536
     6  H    0.000089  -0.000041  -0.000098  -0.003912
     7  C   -0.000054   0.000218   0.000096  -0.037921
     8  H    0.000000   0.000000   0.000000  -0.005119
     9  H    0.000000   0.000000   0.000000  -0.004919
    10  H    0.000000   0.000000   0.000000   0.024633
    11  C    0.067930  -0.046185  -0.027371   0.254931
    12  O   -0.001206   0.020175  -0.003293   0.057992
    13  N   -0.057683  -0.113799  -0.035336  -0.162381
    14  C    0.003278  -0.013414   0.009166  -0.075668
    15  H   -0.004206   0.028817   0.000122   0.008805
    16  H    0.004489  -0.003907  -0.000138   0.003587
    17  H   -0.000081   0.000215  -0.000692  -0.011112
    18  C    0.408717   0.419742   0.404274  -0.073972
    19  H    0.546704  -0.041436  -0.022134   0.003438
    20  H   -0.041436   0.577698  -0.031598   0.009566
    21  H   -0.022134  -0.031598   0.532470  -0.011318
    22  S    0.003438   0.009566  -0.011318  16.379183
 Mulliken charges:
               1
     1  C    0.069369
     2  C   -0.503191
     3  C   -0.186209
     4  C    0.020545
     5  H    0.121474
     6  H    0.137729
     7  C   -0.335120
     8  H    0.170129
     9  H    0.170044
    10  H    0.151041
    11  C   -0.427459
    12  O   -0.132098
    13  N    0.103086
    14  C   -0.233802
    15  H    0.145271
    16  H    0.139221
    17  H    0.142606
    18  C   -0.237157
    19  H    0.136691
    20  H    0.150090
    21  H    0.140412
    22  S    0.257328
 Sum of Mulliken charges =   0.00000
 Mulliken charges with hydrogens summed into heavy atoms:
               1
     1  C    0.069369
     2  C   -0.381717
     3  C   -0.048480
     4  C    0.020545
     7  C    0.156094
    11  C   -0.427459
    12  O   -0.132098
    13  N    0.103086
    14  C    0.193295
    18  C    0.190036
    22  S    0.257328
 Electronic spatial extent (au):  <R**2>=           2281.4300
 Charge=              0.0000 electrons
 Dipole moment (field-independent basis, Debye):
    X=              1.0194    Y=              1.6733    Z=             -0.0019  Tot=              1.9594
 Quadrupole moment (field-independent basis, Debye-Ang):
   XX=            -61.0144   YY=            -77.9496   ZZ=            -71.7483
   XY=             -3.2086   XZ=             -0.0059   YZ=              0.0124
 Traceless Quadrupole moment (field-independent basis, Debye-Ang):
   XX=              9.2231   YY=             -7.7122   ZZ=             -1.5109
   XY=             -3.2086   XZ=             -0.0059   YZ=              0.0124
 Octapole moment (field-independent basis, Debye-Ang**2):
  XXX=              0.7384  YYY=              9.3008  ZZZ=             -0.0217  XYY=             10.0133
  XXY=              1.7970  XXZ=              0.0737  XZZ=             -8.6394  YZZ=             -6.3884
  YYZ=             -0.0107  XYZ=              0.0314
 Hexadecapole moment (field-independent basis, Debye-Ang**3):
 XXXX=          -2251.0010 YYYY=           -466.3067 ZZZZ=           -237.0713 XXXY=            -20.6587
 XXXZ=             -0.5038 YYYX=             -3.1635 YYYZ=             -0.2566 ZZZX=              0.0639
 ZZZY=              0.3288 XXYY=           -473.3870 XXZZ=           -437.1043 YYZZ=           -123.3835
 XXYZ=             -0.1926 YYXZ=              0.1082 ZZXY=            -11.0740
 N-N= 7.227343714312D+02 E-N=-3.421569972336D+03  KE= 8.393609033374D+02
 There are a total of      181322 grid points.
 ElSum from          density=       90.0000530796
 ElSum from atomic densities=       89.9998551955

 Hirshfeld populations at iteration   1 (CX, CA, CB, DipXYZ):
               1          2          3          4          5          6
     1  C    0.000000   3.029935   3.029935   0.135273  -0.004522   0.000035
     2  C    0.000000   3.032875   3.032875   0.065809   0.060464  -0.000013
     3  C    0.000000   3.027541   3.027541  -0.049819   0.066078   0.000036
     4  C    0.000000   3.044683   3.044683  -0.107356   0.010466   0.000111
     5  H    0.000002   0.474498   0.474498   0.101450   0.130273   0.000001
     6  H    0.000001   0.473096   0.473096  -0.078245   0.144465  -0.000005
     7  C    0.000000   3.041467   3.041467   0.002221   0.007280   0.000008
     8  H    0.000001   0.476501   0.476501   0.015888  -0.090081   0.128949
     9  H    0.000001   0.476504   0.476504   0.015911  -0.090038  -0.128970
    10  H    0.000001   0.476828   0.476828   0.120599   0.098895   0.000030
    11  C    0.000000   2.890210   2.890210  -0.030202   0.041213   0.000393
    12  O    0.000003   4.130819   4.130819  -0.001082   0.103254   0.000624
    13  N    0.000000   3.577996   3.577996  -0.050109  -0.155354   0.000046
    14  C    0.000000   3.022922   3.022922   0.003789   0.018018   0.010796
    15  H    0.000001   0.484761   0.484761  -0.076375  -0.108641   0.006756
    16  H    0.000001   0.478204   0.478204  -0.099215   0.111601  -0.023420
    17  H    0.000002   0.477751   0.477751   0.082203  -0.006959  -0.126794
    18  C    0.000000   3.022988   3.022988   0.003210   0.018630  -0.010730
    19  H    0.000001   0.477808   0.477808  -0.108234   0.104681   0.016011
    20  H    0.000001   0.485072   0.485072  -0.067413  -0.113796  -0.000138
    21  H    0.000002   0.477928   0.477928   0.080688   0.005700   0.127705
    22  S    0.000000   7.919640   7.919640   0.023122  -0.035064   0.000041
       Tot   0.000016  45.000027  45.000027  -0.017886   0.316563   0.001472

 Dip from Atomic Chgs              0.418153   0.341697  -0.002139
         Total Dipole              0.400267   0.658259  -0.000667

 Hirshfeld charges, spin densities, dipoles, and CM5 charges using IRadAn=      4:
              Q-H        S-H        Dx         Dy         Dz        Q-CM5   
     1  C   -0.059869   0.000000   0.135273  -0.004522   0.000035  -0.104996
     2  C   -0.065750   0.000000   0.065809   0.060464  -0.000013  -0.121154
     3  C   -0.055082   0.000000  -0.049819   0.066078   0.000036  -0.108874
     4  C   -0.089367   0.000000  -0.107356   0.010466   0.000111  -0.118994
     5  H    0.051004   0.000000   0.101450   0.130273   0.000001   0.104882
     6  H    0.053809   0.000000  -0.078245   0.144465  -0.000005   0.108791
     7  C   -0.082933   0.000000   0.002221   0.007280   0.000008  -0.236044
     8  H    0.046998   0.000000   0.015888  -0.090081   0.128949   0.098844
     9  H    0.046992   0.000000   0.015911  -0.090038  -0.128970   0.098838
    10  H    0.046345   0.000000   0.120599   0.098895   0.000030   0.100199
    11  C    0.219579   0.000000  -0.030202   0.041213   0.000393   0.301589
    12  O   -0.261638   0.000000  -0.001082   0.103254   0.000624  -0.301420
    13  N   -0.155993   0.000000  -0.050109  -0.155354   0.000046  -0.403574
    14  C   -0.045844   0.000000   0.003789   0.018018   0.010796  -0.144014
    15  H    0.030479   0.000000  -0.076375  -0.108641   0.006756   0.097452
    16  H    0.043591   0.000000  -0.099215   0.111601  -0.023420   0.107692
    17  H    0.044498   0.000000   0.082203  -0.006959  -0.126794   0.110317
    18  C   -0.045975   0.000000   0.003210   0.018630  -0.010730  -0.144183
    19  H    0.044384   0.000000  -0.108234   0.104681   0.016011   0.108582
    20  H    0.029856   0.000000  -0.067413  -0.113796  -0.000138   0.097102
    21  H    0.044144   0.000000   0.080688   0.005700   0.127705   0.109648
    22  S    0.160720   0.000000   0.023122  -0.035064   0.000041   0.239264
       Tot  -0.000053   0.000000  -0.017886   0.316563   0.001472  -0.000053
 Hirshfeld charges with hydrogens summed into heavy atoms:
              Q-H       Q-CM5   
     1  C   -0.059869  -0.104996
     2  C   -0.014746  -0.016272
     3  C   -0.001274  -0.000083
     4  C   -0.089367  -0.118994
     7  C    0.057401   0.061837
    11  C    0.219579   0.301589
    12  O   -0.261638  -0.301420
    13  N   -0.155993  -0.403574
    14  C    0.072724   0.171448
    18  C    0.072409   0.171149
    22  S    0.160720   0.239264
 
 EQQ= 0.000000000000E+00 EQD= 0.000000000000E+00 EDD= 0.259889339348E-02
 EQQ+QD+DD= 0.259889339348E-02
 
          MBS Condensed to atoms (all electrons):
               1          2          3          4          5          6
     1  C    4.834461   0.493415  -0.057641  -0.053113  -0.021381   0.001592
     2  C    0.493415   4.926529   0.507321  -0.058953   0.386148  -0.019155
     3  C   -0.057641   0.507321   4.908629   0.488147  -0.019647   0.385228
     4  C   -0.053113  -0.058953   0.488147   4.899947   0.001656  -0.020518
     5  H   -0.021381   0.386148  -0.019647   0.001656   0.539026  -0.001038
     6  H    0.001592  -0.019155   0.385228  -0.020518  -0.001038   0.523075
     7  C    0.366815  -0.012741   0.000954   0.001715  -0.001186  -0.000010
     8  H   -0.022412   0.000594  -0.000022   0.000019   0.000003   0.000000
     9  H   -0.022413   0.000594  -0.000022   0.000019   0.000003   0.000000
    10  H   -0.021406  -0.002380   0.000010  -0.000051   0.000533  -0.000001
    11  C    0.001483   0.000799  -0.009806   0.375798  -0.000007  -0.001216
    12  O   -0.000013  -0.000003   0.000182  -0.027714   0.000000   0.000004
    13  N   -0.000009   0.000000  -0.000777  -0.035071   0.000000   0.000936
    14  C    0.000000   0.000000   0.000001   0.000830   0.000000  -0.000027
    15  H    0.000000   0.000000  -0.000001  -0.000018   0.000000   0.000001
    16  H    0.000000   0.000000   0.000000  -0.000025   0.000000   0.000001
    17  H    0.000000   0.000000   0.000015   0.000346   0.000000  -0.000007
    18  C    0.000000   0.000000  -0.000001   0.000829   0.000000  -0.000028
    19  H    0.000000   0.000000   0.000000  -0.000026   0.000000   0.000001
    20  H    0.000000   0.000000  -0.000001  -0.000008   0.000000   0.000001
    21  H    0.000000   0.000000   0.000018   0.000334   0.000000  -0.000008
    22  S    0.495916  -0.073500  -0.074445   0.470758   0.002383   0.002246
               7          8          9         10         11         12
     1  C    0.366815  -0.022412  -0.022413  -0.021406   0.001483  -0.000013
     2  C   -0.012741   0.000594   0.000594  -0.002380   0.000799  -0.000003
     3  C    0.000954  -0.000022  -0.000022   0.000010  -0.009806   0.000182
     4  C    0.001715   0.000019   0.000019  -0.000051   0.375798  -0.027714
     5  H   -0.001186   0.000003   0.000003   0.000533  -0.000007   0.000000
     6  H   -0.000010   0.000000   0.000000  -0.000001  -0.001216   0.000004
     7  C    4.814576   0.382580   0.382578   0.380027  -0.000007   0.000000
     8  H    0.382580   0.570267  -0.023070  -0.021143   0.000000   0.000000
     9  H    0.382578  -0.023070   0.570279  -0.021143   0.000000   0.000000
    10  H    0.380027  -0.021143  -0.021143   0.573287   0.000000   0.000000
    11  C   -0.000007   0.000000   0.000000   0.000000   4.552121   0.448520
    12  O    0.000000   0.000000   0.000000   0.000000   0.448520   8.031960
    13  N    0.000000   0.000000   0.000000   0.000000   0.313507  -0.025684
    14  C    0.000000   0.000000   0.000000   0.000000  -0.029281  -0.001634
    15  H    0.000000   0.000000   0.000000   0.000000  -0.002523   0.001271
    16  H    0.000000   0.000000   0.000000   0.000000   0.002039   0.000005
    17  H    0.000000   0.000000   0.000000   0.000000  -0.003613  -0.000019
    18  C    0.000000   0.000000   0.000000   0.000000  -0.029206  -0.001795
    19  H    0.000000   0.000000   0.000000   0.000000   0.002057   0.000004
    20  H    0.000000   0.000000   0.000000   0.000000  -0.003280   0.001659
    21  H    0.000000   0.000000   0.000000   0.000000  -0.003038  -0.000034
    22  S   -0.044421  -0.003135  -0.003134   0.002186  -0.039927   0.001883
              13         14         15         16         17         18
     1  C   -0.000009   0.000000   0.000000   0.000000   0.000000   0.000000
     2  C    0.000000   0.000000   0.000000   0.000000   0.000000   0.000000
     3  C   -0.000777   0.000001  -0.000001   0.000000   0.000015  -0.000001
     4  C   -0.035071   0.000830  -0.000018  -0.000025   0.000346   0.000829
     5  H    0.000000   0.000000   0.000000   0.000000   0.000000   0.000000
     6  H    0.000936  -0.000027   0.000001   0.000001  -0.000007  -0.000028
     7  C    0.000000   0.000000   0.000000   0.000000   0.000000   0.000000
     8  H    0.000000   0.000000   0.000000   0.000000   0.000000   0.000000
     9  H    0.000000   0.000000   0.000000   0.000000   0.000000   0.000000
    10  H    0.000000   0.000000   0.000000   0.000000   0.000000   0.000000
    11  C    0.313507  -0.029281  -0.002523   0.002039  -0.003613  -0.029206
    12  O   -0.025684  -0.001634   0.001271   0.000005  -0.000019  -0.001795
    13  N    6.618589   0.321330  -0.024870  -0.023400  -0.020981   0.321943
    14  C    0.321330   4.765063   0.373501   0.383606   0.382681  -0.035669
    15  H   -0.024870   0.373501   0.609398  -0.027236  -0.023607  -0.006797
    16  H   -0.023400   0.383606  -0.027236   0.580530  -0.021692  -0.001061
    17  H   -0.020981   0.382681  -0.023607  -0.021692   0.578261   0.002197
    18  C    0.321943  -0.035669  -0.006797  -0.001061   0.002197   4.765496
    19  H   -0.022764  -0.001511  -0.000581   0.000985   0.000010   0.383668
    20  H   -0.025098  -0.006194   0.005471  -0.000461   0.000056   0.373128
    21  H   -0.021383   0.002213   0.000056  -0.000001  -0.000092   0.382696
    22  S    0.000651  -0.000021   0.000002   0.000000  -0.000014  -0.000021
              19         20         21         22
     1  C    0.000000   0.000000   0.000000   0.495916
     2  C    0.000000   0.000000   0.000000  -0.073500
     3  C    0.000000  -0.000001   0.000018  -0.074445
     4  C   -0.000026  -0.000008   0.000334   0.470758
     5  H    0.000000   0.000000   0.000000   0.002383
     6  H    0.000001   0.000001  -0.000008   0.002246
     7  C    0.000000   0.000000   0.000000  -0.044421
     8  H    0.000000   0.000000   0.000000  -0.003135
     9  H    0.000000   0.000000   0.000000  -0.003134
    10  H    0.000000   0.000000   0.000000   0.002186
    11  C    0.002057  -0.003280  -0.003038  -0.039927
    12  O    0.000004   0.001659  -0.000034   0.001883
    13  N   -0.022764  -0.025098  -0.021383   0.000651
    14  C   -0.001511  -0.006194   0.002213  -0.000021
    15  H   -0.000581   0.005471   0.000056   0.000002
    16  H    0.000985  -0.000461  -0.000001   0.000000
    17  H    0.000010   0.000056  -0.000092  -0.000014
    18  C    0.383668   0.373128   0.382696  -0.000021
    19  H    0.580044  -0.026843  -0.021595   0.000000
    20  H   -0.026843   0.608845  -0.024164   0.000003
    21  H   -0.021595  -0.024164   0.578950  -0.000013
    22  S    0.000000   0.000003  -0.000013  15.188239
 MBS Mulliken charges:
               1
     1  C    0.004705
     2  C   -0.148668
     3  C   -0.128144
     4  C   -0.044904
     5  H    0.113507
     6  H    0.128920
     7  C   -0.270880
     8  H    0.116317
     9  H    0.116308
    10  H    0.110080
    11  C    0.425580
    12  O   -0.428593
    13  N   -0.376919
    14  C   -0.154888
    15  H    0.095931
    16  H    0.106710
    17  H    0.106460
    18  C   -0.155382
    19  H    0.106550
    20  H    0.096888
    21  H    0.106060
    22  S    0.074363
 Sum of MBS Mulliken charges =   0.00000
 MBS Mulliken charges with hydrogens summed into heavy atoms:
               1
     1  C    0.004705
     2  C   -0.035161
     3  C    0.000776
     4  C   -0.044904
     7  C    0.071825
    11  C    0.425580
    12  O   -0.428593
    13  N   -0.376919
    14  C    0.154214
    18  C    0.154116
    22  S    0.074363
 Breneman (CHELPG) radii used.
 Generate Potential Derived Charges using the Breneman model, NDens= 1.
 Grid spacing= 0.300 Box extension= 2.800
 NStep X,Y,Z=   48     34     34   Total possible points=       55488
 Number of Points to Fit=   14770

 **********************************************************************

            Electrostatic Properties Using The SCF Density

 **********************************************************************

       Atomic Center    1 is at   2.450162  0.167149  0.000064
       Atomic Center    2 is at   2.103651  1.502506 -0.000009
       Atomic Center    3 is at   0.656591  1.555479  0.000006
       Atomic Center    4 is at   0.214598  0.248499 -0.000001
       Atomic Center    5 is at   2.767913  2.361401  0.000038
       Atomic Center    6 is at   0.056576  2.460368 -0.000042
       Atomic Center    7 is at   3.771339 -0.624110  0.000077
       Atomic Center    8 is at   3.818069 -1.240237  0.873635
       Atomic Center    9 is at   3.818253 -1.239958 -0.873668
       Atomic Center   10 is at   4.595655  0.058094  0.000273
       Atomic Center   11 is at  -1.160573 -0.444687 -0.000015
       Atomic Center   12 is at  -1.277641 -1.666408 -0.000020
       Atomic Center   13 is at  -2.323696  0.454225  0.000030
       Atomic Center   14 is at  -3.135168  0.205604 -1.200220
       Atomic Center   15 is at  -3.671727 -0.712822 -1.084041
       Atomic Center   16 is at  -3.828662  1.009279 -1.334658
       Atomic Center   17 is at  -2.495778  0.139387 -2.055612
       Atomic Center   18 is at  -3.135142  0.205518  1.200281
       Atomic Center   19 is at  -3.892617  0.956958  1.280713
       Atomic Center   20 is at  -3.594860 -0.757884  1.126678
       Atomic Center   21 is at  -2.508593  0.236446  2.067102
       Atomic Center   22 is at   1.301876 -0.625943 -0.000098
   14770 points will be used for fitting atomic charges
 Fitting point charges to electrostatic potential
 Charges from ESP fit, RMS=   0.00328 RRMS=   0.27941:
 ESP charges:
               1
     1  C    0.353448
     2  C   -0.312235
     3  C   -0.049722
     4  C   -0.151520
     5  H    0.134885
     6  H    0.075465
     7  C   -0.404358
     8  H    0.125174
     9  H    0.124944
    10  H    0.106965
    11  C    0.914164
    12  O   -0.546769
    13  N   -0.561197
    14  C   -0.050470
    15  H    0.059259
    16  H    0.093509
    17  H    0.041887
    18  C   -0.052456
    19  H    0.097960
    20  H    0.057111
    21  H    0.042245
    22  S   -0.098287
 Sum of ESP charges =   0.00000
 ESP charges with hydrogens summed into heavy atoms:
               1
     1  C    0.353448
     2  C   -0.177349
     3  C    0.025742
     4  C   -0.151520
     7  C   -0.047276
    11  C    0.914164
    12  O   -0.546769
    13  N   -0.561197
    14  C    0.144184
    18  C    0.144860
    22  S   -0.098287
 Charge=   0.00000 Dipole=     0.9937     1.6141    -0.0009 Tot=     1.8955
 -----------------------------------------------------------------

              Electrostatic Properties (Atomic Units)

 -----------------------------------------------------------------
    Center     Electric         -------- Electric Field --------
               Potential          X             Y             Z
 -----------------------------------------------------------------
    1 Atom    -14.777493
    2 Atom    -14.766543
    3 Atom    -14.763966
    4 Atom    -14.779492
    5 Atom     -1.094459
    6 Atom     -1.096652
    7 Atom    -14.764013
    8 Atom     -1.105236
    9 Atom     -1.105236
   10 Atom     -1.106943
   11 Atom    -14.649133
   12 Atom    -22.373657
   13 Atom    -18.395459
   14 Atom    -14.760168
   15 Atom     -1.127357
   16 Atom     -1.118478
   17 Atom     -1.115058
   18 Atom    -14.760194
   19 Atom     -1.117288
   20 Atom     -1.127873
   21 Atom     -1.115908
   22 Atom    -59.249205
 -----------------------------------------------------------------
 ******************************Gaussian NBO Version 3.1******************************
             N A T U R A L   A T O M I C   O R B I T A L   A N D
          N A T U R A L   B O N D   O R B I T A L   A N A L Y S I S
 ******************************Gaussian NBO Version 3.1******************************
       /RESON  / : Allow strongly delocalized NBO set

 Analyzing the SCF density

 Job title: Title Card Required                                             

 Storage needed:    301358 in NPA ( 536868272 available)


 NATURAL POPULATIONS:  Natural atomic orbital occupancies 
                                                          
   NAO  Atom  No  lang   Type(AO)    Occupancy      Energy
 ----------------------------------------------------------
     1    C    1  S      Cor( 1S)     1.99870     -10.02602
     2    C    1  S      Val( 2S)     0.92908      -0.21087
     3    C    1  S      Ryd( 3S)     0.00189       0.78378
     4    C    1  S      Ryd( 4S)     0.00028       1.21602
     5    C    1  S      Ryd( 5S)     0.00002      22.75636
     6    C    1  px     Val( 2p)     1.12101      -0.17197
     7    C    1  px     Ryd( 4p)     0.00592       1.17823
     8    C    1  px     Ryd( 3p)     0.00028       0.57318
     9    C    1  px     Ryd( 5p)     0.00014       3.23300
    10    C    1  py     Val( 2p)     1.15840      -0.15213
    11    C    1  py     Ryd( 4p)     0.00650       0.95171
    12    C    1  py     Ryd( 3p)     0.00030       0.60037
    13    C    1  py     Ryd( 5p)     0.00016       3.29588
    14    C    1  pz     Val( 2p)     1.18201      -0.15963
    15    C    1  pz     Ryd( 4p)     0.00355       0.57634
    16    C    1  pz     Ryd( 3p)     0.00056       0.48859
    17    C    1  pz     Ryd( 5p)     0.00009       2.60227
    18    C    1  dxy    Ryd( 3d)     0.00422       1.93549
    19    C    1  dxz    Ryd( 3d)     0.00302       1.47963
    20    C    1  dyz    Ryd( 3d)     0.00123       1.40739
    21    C    1  dx2y2  Ryd( 3d)     0.00179       1.84999
    22    C    1  dz2    Ryd( 3d)     0.00264       1.83186

    23    C    2  S      Cor( 1S)     1.99914     -10.04107
    24    C    2  S      Val( 2S)     0.96012      -0.17451
    25    C    2  S      Ryd( 4S)     0.00122       0.81211
    26    C    2  S      Ryd( 3S)     0.00029       0.58662
    27    C    2  S      Ryd( 5S)     0.00001      23.20221
    28    C    2  px     Val( 2p)     1.08210      -0.06499
    29    C    2  px     Ryd( 4p)     0.00487       0.87645
    30    C    2  px     Ryd( 3p)     0.00050       0.42503
    31    C    2  px     Ryd( 5p)     0.00010       3.05721
    32    C    2  py     Val( 2p)     1.10511      -0.05652
    33    C    2  py     Ryd( 4p)     0.00421       0.96802
    34    C    2  py     Ryd( 3p)     0.00040       0.43257
    35    C    2  py     Ryd( 5p)     0.00016       3.09072
    36    C    2  pz     Val( 2p)     1.06918      -0.12012
    37    C    2  pz     Ryd( 4p)     0.00221       0.52045
    38    C    2  pz     Ryd( 3p)     0.00056       0.28247
    39    C    2  pz     Ryd( 5p)     0.00002       2.69665
    40    C    2  dxy    Ryd( 3d)     0.00076       2.56844
    41    C    2  dxz    Ryd( 3d)     0.00068       1.63442
    42    C    2  dyz    Ryd( 3d)     0.00053       1.82895
    43    C    2  dx2y2  Ryd( 3d)     0.00070       2.74673
    44    C    2  dz2    Ryd( 3d)     0.00033       2.18585

    45    C    3  S      Cor( 1S)     1.99917     -10.04453
    46    C    3  S      Val( 2S)     0.96179      -0.17657
    47    C    3  S      Ryd( 4S)     0.00134       0.85612
    48    C    3  S      Ryd( 3S)     0.00019       0.49329
    49    C    3  S      Ryd( 5S)     0.00001      23.22591
    50    C    3  px     Val( 2p)     1.06564      -0.05962
    51    C    3  px     Ryd( 4p)     0.00547       0.89113
    52    C    3  px     Ryd( 3p)     0.00039       0.46238
    53    C    3  px     Ryd( 5p)     0.00015       3.12866
    54    C    3  py     Val( 2p)     1.11347      -0.05291
    55    C    3  py     Ryd( 4p)     0.00451       0.98876
    56    C    3  py     Ryd( 3p)     0.00042       0.37008
    57    C    3  py     Ryd( 5p)     0.00017       3.14768
    58    C    3  pz     Val( 2p)     1.02990      -0.11786
    59    C    3  pz     Ryd( 4p)     0.00195       0.53048
    60    C    3  pz     Ryd( 3p)     0.00039       0.30526
    61    C    3  pz     Ryd( 5p)     0.00003       2.72275
    62    C    3  dxy    Ryd( 3d)     0.00078       2.60511
    63    C    3  dxz    Ryd( 3d)     0.00072       1.63767
    64    C    3  dyz    Ryd( 3d)     0.00053       1.82583
    65    C    3  dx2y2  Ryd( 3d)     0.00069       2.74103
    66    C    3  dz2    Ryd( 3d)     0.00031       2.22400

    67    C    4  S      Cor( 1S)     1.99851     -10.02358
    68    C    4  S      Val( 2S)     0.94410      -0.21169
    69    C    4  S      Ryd( 3S)     0.00303       0.79141
    70    C    4  S      Ryd( 4S)     0.00015       1.54291
    71    C    4  S      Ryd( 5S)     0.00003      22.44108
    72    C    4  px     Val( 2p)     1.14650      -0.18372
    73    C    4  px     Ryd( 4p)     0.00686       1.24649
    74    C    4  px     Ryd( 3p)     0.00030       0.70519
    75    C    4  px     Ryd( 5p)     0.00019       3.31123
    76    C    4  py     Val( 2p)     1.17489      -0.16928
    77    C    4  py     Ryd( 4p)     0.00940       1.24788
    78    C    4  py     Ryd( 3p)     0.00016       0.59549
    79    C    4  py     Ryd( 5p)     0.00019       3.30483
    80    C    4  pz     Val( 2p)     1.25361      -0.16707
    81    C    4  pz     Ryd( 4p)     0.00258       0.58765
    82    C    4  pz     Ryd( 3p)     0.00044       0.39598
    83    C    4  pz     Ryd( 5p)     0.00006       2.75793
    84    C    4  dxy    Ryd( 3d)     0.00487       2.01068
    85    C    4  dxz    Ryd( 3d)     0.00219       1.45777
    86    C    4  dyz    Ryd( 3d)     0.00152       1.43039
    87    C    4  dx2y2  Ryd( 3d)     0.00147       1.83549
    88    C    4  dz2    Ryd( 3d)     0.00261       1.84027

    89    H    5  S      Val( 1S)     0.78015       0.04562
    90    H    5  S      Ryd( 2S)     0.00050       0.90912
    91    H    5  S      Ryd( 3S)     0.00024       1.71129
    92    H    5  px     Ryd( 2p)     0.00025       2.23633
    93    H    5  py     Ryd( 2p)     0.00038       2.46155
    94    H    5  pz     Ryd( 2p)     0.00022       1.60092

    95    H    6  S      Val( 1S)     0.76909       0.05681
    96    H    6  S      Ryd( 3S)     0.00133       1.34587
    97    H    6  S      Ryd( 2S)     0.00024       1.30897
    98    H    6  px     Ryd( 2p)     0.00023       2.20036
    99    H    6  py     Ryd( 2p)     0.00038       2.53695
   100    H    6  pz     Ryd( 2p)     0.00020       1.60855

   101    C    7  S      Cor( 1S)     1.99932     -10.03705
   102    C    7  S      Val( 2S)     1.07668      -0.25007
   103    C    7  S      Ryd( 4S)     0.00062       0.90548
   104    C    7  S      Ryd( 3S)     0.00015       0.53235
   105    C    7  S      Ryd( 5S)     0.00000      23.43857
   106    C    7  px     Val( 2p)     1.08204      -0.10209
   107    C    7  px     Ryd( 4p)     0.00244       0.58432
   108    C    7  px     Ryd( 3p)     0.00025       0.18923
   109    C    7  px     Ryd( 5p)     0.00010       3.06217
   110    C    7  py     Val( 2p)     1.17426      -0.10424
   111    C    7  py     Ryd( 4p)     0.00239       0.54689
   112    C    7  py     Ryd( 3p)     0.00009       0.20227
   113    C    7  py     Ryd( 5p)     0.00006       3.10196
   114    C    7  pz     Val( 2p)     1.21756      -0.10643
   115    C    7  pz     Ryd( 4p)     0.00120       0.52343
   116    C    7  pz     Ryd( 3p)     0.00006       0.17136
   117    C    7  pz     Ryd( 5p)     0.00005       3.12221
   118    C    7  dxy    Ryd( 3d)     0.00072       2.44258
   119    C    7  dxz    Ryd( 3d)     0.00039       1.84136
   120    C    7  dyz    Ryd( 3d)     0.00112       2.26131
   121    C    7  dx2y2  Ryd( 3d)     0.00041       2.07853
   122    C    7  dz2    Ryd( 3d)     0.00061       2.18949

   123    H    8  S      Val( 1S)     0.78704       0.03325
   124    H    8  S      Ryd( 2S)     0.00067       0.99747
   125    H    8  S      Ryd( 3S)     0.00013       1.74915
   126    H    8  px     Ryd( 2p)     0.00019       1.74439
   127    H    8  py     Ryd( 2p)     0.00018       2.11886
   128    H    8  pz     Ryd( 2p)     0.00024       2.41350

   129    H    9  S      Val( 1S)     0.78705       0.03324
   130    H    9  S      Ryd( 2S)     0.00067       0.99694
   131    H    9  S      Ryd( 3S)     0.00013       1.74973
   132    H    9  px     Ryd( 2p)     0.00019       1.74438
   133    H    9  py     Ryd( 2p)     0.00018       2.11856
   134    H    9  pz     Ryd( 2p)     0.00024       2.41375

   135    H   10  S      Val( 1S)     0.78661       0.03549
   136    H   10  S      Ryd( 2S)     0.00040       0.79803
   137    H   10  S      Ryd( 3S)     0.00009       1.91309
   138    H   10  px     Ryd( 2p)     0.00026       2.34744
   139    H   10  py     Ryd( 2p)     0.00020       2.14948
   140    H   10  pz     Ryd( 2p)     0.00009       1.75658

   141    C   11  S      Cor( 1S)     1.99941     -10.18602
   142    C   11  S      Val( 2S)     0.81680      -0.18714
   143    C   11  S      Ryd( 3S)     0.00499       0.84509
   144    C   11  S      Ryd( 4S)     0.00009       2.61990
   145    C   11  S      Ryd( 5S)     0.00004      21.21086
   146    C   11  px     Val( 2p)     0.89047      -0.05132
   147    C   11  px     Ryd( 4p)     0.00520       1.16924
   148    C   11  px     Ryd( 3p)     0.00050       0.60475
   149    C   11  px     Ryd( 5p)     0.00014       2.71476
   150    C   11  py     Val( 2p)     0.76214      -0.01112
   151    C   11  py     Ryd( 4p)     0.02363       0.92427
   152    C   11  py     Ryd( 3p)     0.00023       0.53176
   153    C   11  py     Ryd( 5p)     0.00006       2.85464
   154    C   11  pz     Val( 2p)     0.73240      -0.13633
   155    C   11  pz     Ryd( 4p)     0.00245       0.70487
   156    C   11  pz     Ryd( 3p)     0.00023       0.53454
   157    C   11  pz     Ryd( 5p)     0.00007       2.48417
   158    C   11  dxy    Ryd( 3d)     0.00445       2.50976
   159    C   11  dxz    Ryd( 3d)     0.00109       1.67280
   160    C   11  dyz    Ryd( 3d)     0.00341       1.68568
   161    C   11  dx2y2  Ryd( 3d)     0.00214       2.58690
   162    C   11  dz2    Ryd( 3d)     0.00059       2.05813

   163    O   12  S      Cor( 1S)     1.99975     -18.86096
   164    O   12  S      Val( 2S)     1.70504      -0.90998
   165    O   12  S      Ryd( 4S)     0.00138       1.40246
   166    O   12  S      Ryd( 3S)     0.00026       1.31880
   167    O   12  S      Ryd( 5S)     0.00000      49.69350
   168    O   12  px     Val( 2p)     1.85665      -0.27674
   169    O   12  px     Ryd( 3p)     0.00373       0.79261
   170    O   12  px     Ryd( 4p)     0.00014       1.19809
   171    O   12  px     Ryd( 5p)     0.00001       4.83486
   172    O   12  py     Val( 2p)     1.59975      -0.32270
   173    O   12  py     Ryd( 3p)     0.00093       0.72269
   174    O   12  py     Ryd( 4p)     0.00017       1.36977
   175    O   12  py     Ryd( 5p)     0.00012       4.75456
   176    O   12  pz     Val( 2p)     1.39902      -0.26221
   177    O   12  pz     Ryd( 3p)     0.00053       0.62653
   178    O   12  pz     Ryd( 4p)     0.00003       1.20404
   179    O   12  pz     Ryd( 5p)     0.00004       4.63643
   180    O   12  dxy    Ryd( 3d)     0.00133       3.25115
   181    O   12  dxz    Ryd( 3d)     0.00004       2.84467
   182    O   12  dyz    Ryd( 3d)     0.00164       3.08248
   183    O   12  dx2y2  Ryd( 3d)     0.00145       3.54899
   184    O   12  dz2    Ryd( 3d)     0.00042       3.09197

   185    N   13  S      Cor( 1S)     1.99945     -14.15775
   186    N   13  S      Val( 2S)     1.33127      -0.54359
   187    N   13  S      Ryd( 3S)     0.00423       0.87632
   188    N   13  S      Ryd( 4S)     0.00056       1.52252
   189    N   13  S      Ryd( 5S)     0.00000      35.27383
   190    N   13  px     Val( 2p)     1.29917      -0.20931
   191    N   13  px     Ryd( 4p)     0.00169       0.81703
   192    N   13  px     Ryd( 3p)     0.00165       0.61821
   193    N   13  px     Ryd( 5p)     0.00005       4.23107
   194    N   13  py     Val( 2p)     1.71615      -0.23123
   195    N   13  py     Ryd( 4p)     0.00783       0.66011
   196    N   13  py     Ryd( 3p)     0.00076       0.55666
   197    N   13  py     Ryd( 5p)     0.00008       3.97055
   198    N   13  pz     Val( 2p)     1.23513      -0.20225
   199    N   13  pz     Ryd( 4p)     0.00234       0.74931
   200    N   13  pz     Ryd( 3p)     0.00086       0.58359
   201    N   13  pz     Ryd( 5p)     0.00002       4.24756
   202    N   13  dxy    Ryd( 3d)     0.00150       2.64912
   203    N   13  dxz    Ryd( 3d)     0.00069       2.78044
   204    N   13  dyz    Ryd( 3d)     0.00090       2.34249
   205    N   13  dx2y2  Ryd( 3d)     0.00073       2.45173
   206    N   13  dz2    Ryd( 3d)     0.00075       2.59749

   207    C   14  S      Cor( 1S)     1.99929     -10.04502
   208    C   14  S      Val( 2S)     1.05776      -0.23114
   209    C   14  S      Ryd( 4S)     0.00099       0.97433
   210    C   14  S      Ryd( 3S)     0.00006       0.51061
   211    C   14  S      Ryd( 5S)     0.00001      23.49642
   212    C   14  px     Val( 2p)     1.10290      -0.08908
   213    C   14  px     Ryd( 3p)     0.00244       0.62005
   214    C   14  px     Ryd( 4p)     0.00020       0.69059
   215    C   14  px     Ryd( 5p)     0.00007       2.60160
   216    C   14  py     Val( 2p)     1.19295      -0.09244
   217    C   14  py     Ryd( 3p)     0.00208       0.61198
   218    C   14  py     Ryd( 4p)     0.00072       0.74951
   219    C   14  py     Ryd( 5p)     0.00004       2.58038
   220    C   14  pz     Val( 2p)     0.98175      -0.08130
   221    C   14  pz     Ryd( 3p)     0.00192       0.62569
   222    C   14  pz     Ryd( 4p)     0.00018       0.69706
   223    C   14  pz     Ryd( 5p)     0.00012       2.60159
   224    C   14  dxy    Ryd( 3d)     0.00123       2.26835
   225    C   14  dxz    Ryd( 3d)     0.00130       2.27035
   226    C   14  dyz    Ryd( 3d)     0.00070       1.82916
   227    C   14  dx2y2  Ryd( 3d)     0.00049       1.92340
   228    C   14  dz2    Ryd( 3d)     0.00117       2.16491

   229    H   15  S      Val( 1S)     0.82193       0.03863
   230    H   15  S      Ryd( 2S)     0.00223       0.72438
   231    H   15  S      Ryd( 3S)     0.00024       1.97841
   232    H   15  px     Ryd( 2p)     0.00014       2.08228
   233    H   15  py     Ryd( 2p)     0.00030       2.50834
   234    H   15  pz     Ryd( 2p)     0.00016       1.73716

   235    H   16  S      Val( 1S)     0.80725       0.03942
   236    H   16  S      Ryd( 2S)     0.00074       0.46113
   237    H   16  S      Ryd( 3S)     0.00021       2.21794
   238    H   16  px     Ryd( 2p)     0.00019       2.18972
   239    H   16  py     Ryd( 2p)     0.00025       2.33176
   240    H   16  pz     Ryd( 2p)     0.00009       1.79520

   241    H   17  S      Val( 1S)     0.80389       0.03807
   242    H   17  S      Ryd( 2S)     0.00040       0.70335
   243    H   17  S      Ryd( 3S)     0.00023       1.99407
   244    H   17  px     Ryd( 2p)     0.00018       2.08557
   245    H   17  py     Ryd( 2p)     0.00015       1.78716
   246    H   17  pz     Ryd( 2p)     0.00022       2.42031

   247    C   18  S      Cor( 1S)     1.99929     -10.04498
   248    C   18  S      Val( 2S)     1.05804      -0.23143
   249    C   18  S      Ryd( 4S)     0.00101       0.97177
   250    C   18  S      Ryd( 3S)     0.00006       0.51099
   251    C   18  S      Ryd( 5S)     0.00001      23.49529
   252    C   18  px     Val( 2p)     1.10280      -0.08903
   253    C   18  px     Ryd( 3p)     0.00235       0.63490
   254    C   18  px     Ryd( 4p)     0.00021       0.69548
   255    C   18  px     Ryd( 5p)     0.00007       2.59276
   256    C   18  py     Val( 2p)     1.19339      -0.09249
   257    C   18  py     Ryd( 3p)     0.00198       0.60635
   258    C   18  py     Ryd( 4p)     0.00070       0.74891
   259    C   18  py     Ryd( 5p)     0.00004       2.57902
   260    C   18  pz     Val( 2p)     0.98187      -0.08120
   261    C   18  pz     Ryd( 3p)     0.00194       0.62415
   262    C   18  pz     Ryd( 4p)     0.00017       0.69648
   263    C   18  pz     Ryd( 5p)     0.00012       2.60230
   264    C   18  dxy    Ryd( 3d)     0.00118       2.23730
   265    C   18  dxz    Ryd( 3d)     0.00129       2.26434
   266    C   18  dyz    Ryd( 3d)     0.00067       1.81468
   267    C   18  dx2y2  Ryd( 3d)     0.00055       1.95595
   268    C   18  dz2    Ryd( 3d)     0.00121       2.18076

   269    H   19  S      Val( 1S)     0.80680       0.03860
   270    H   19  S      Ryd( 2S)     0.00071       0.46255
   271    H   19  S      Ryd( 3S)     0.00021       2.21591
   272    H   19  px     Ryd( 2p)     0.00022       2.26428
   273    H   19  py     Ryd( 2p)     0.00024       2.26624
   274    H   19  pz     Ryd( 2p)     0.00009       1.76965

   275    H   20  S      Val( 1S)     0.82118       0.03975
   276    H   20  S      Ryd( 2S)     0.00225       0.73855
   277    H   20  S      Ryd( 3S)     0.00025       1.96430
   278    H   20  px     Ryd( 2p)     0.00013       2.01248
   279    H   20  py     Ryd( 2p)     0.00031       2.58691
   280    H   20  pz     Ryd( 2p)     0.00014       1.74471

   281    H   21  S      Val( 1S)     0.80440       0.03896
   282    H   21  S      Ryd( 2S)     0.00040       0.66323
   283    H   21  S      Ryd( 3S)     0.00023       2.03672
   284    H   21  px     Ryd( 2p)     0.00018       2.07213
   285    H   21  py     Ryd( 2p)     0.00014       1.79176
   286    H   21  pz     Ryd( 2p)     0.00022       2.43085

   287    S   22  S      Cor( 1S)     2.00000     -87.56193
   288    S   22  S      Cor( 2S)     1.99797      -8.75903
   289    S   22  S      Val( 3S)     1.29749      -0.57400
   290    S   22  S      Ryd( 4S)     0.02058       0.72070
   291    S   22  S      Ryd( 5S)     0.00029       1.41411
   292    S   22  S      Ryd( 6S)     0.00003      12.46588
   293    S   22  S      Ryd( 7S)     0.00000     183.98682
   294    S   22  px     Cor( 2p)     1.99942      -5.89304
   295    S   22  px     Val( 3p)     0.89254      -0.10863
   296    S   22  px     Ryd( 5p)     0.00640       0.89916
   297    S   22  px     Ryd( 6p)     0.00063       1.37749
   298    S   22  px     Ryd( 4p)     0.00031       0.60071
   299    S   22  px     Ryd( 7p)     0.00000      17.65788
   300    S   22  py     Cor( 2p)     1.99956      -5.89314
   301    S   22  py     Val( 3p)     1.53227      -0.20860
   302    S   22  py     Ryd( 5p)     0.00576       0.65844
   303    S   22  py     Ryd( 6p)     0.00051       1.42996
   304    S   22  py     Ryd( 4p)     0.00039       0.31719
   305    S   22  py     Ryd( 7p)     0.00000      17.46056
   306    S   22  pz     Cor( 2p)     1.99965      -5.89720
   307    S   22  pz     Val( 3p)     1.30894      -0.22661
   308    S   22  pz     Ryd( 5p)     0.00650       0.48087
   309    S   22  pz     Ryd( 6p)     0.00007       1.39491
   310    S   22  pz     Ryd( 4p)     0.00018       0.24123
   311    S   22  pz     Ryd( 7p)     0.00000      17.24889
   312    S   22  dxy    Ryd( 3d)     0.01342       1.65175
   313    S   22  dxz    Ryd( 3d)     0.01785       0.93315
   314    S   22  dyz    Ryd( 3d)     0.00759       0.89389
   315    S   22  dx2y2  Ryd( 3d)     0.00683       1.18573
   316    S   22  dz2    Ryd( 3d)     0.00680       1.17109

 WARNING:  1 low occupancy (<1.9990e) core orbital  found on  C    1
           1 low occupancy (<1.9990e) core orbital  found on  C    4
           1 low occupancy (<1.9990e) core orbital  found on  S   22

 WARNING:  Population inversion found on atom  C    1
           Population inversion found on atom  C    2
           Population inversion found on atom  C    3
           Population inversion found on atom  C    4
           Population inversion found on atom  H    6
           Population inversion found on atom  C    7
           Population inversion found on atom  C   11
           Population inversion found on atom  O   12
           Population inversion found on atom  N   13
           Population inversion found on atom  C   14
           Population inversion found on atom  C   18
           Population inversion found on atom  S   22


 Summary of Natural Population Analysis:                  
                                                          
                                       Natural Population 
                Natural  -----------------------------------------------
    Atom  No    Charge         Core      Valence    Rydberg      Total
 -----------------------------------------------------------------------
      C    1   -0.42180      1.99870     4.39049    0.03260     6.42180
      C    2   -0.23321      1.99914     4.21652    0.01755     6.23321
      C    3   -0.18803      1.99917     4.17081    0.01805     6.18803
      C    4   -0.55367      1.99851     4.51910    0.03605     6.55367
      H    5    0.21827      0.00000     0.78015    0.00158     0.78173
      H    6    0.22853      0.00000     0.76909    0.00238     0.77147
      C    7   -0.56053      1.99932     4.55054    0.01067     6.56053
      H    8    0.21156      0.00000     0.78704    0.00140     0.78844
      H    9    0.21155      0.00000     0.78705    0.00140     0.78845
      H   10    0.21235      0.00000     0.78661    0.00104     0.78765
      C   11    0.74948      1.99941     3.20180    0.04932     5.25052
      O   12   -0.57241      1.99975     6.56045    0.01220     8.57241
      N   13   -0.60582      1.99945     5.58172    0.02465     7.60582
      C   14   -0.34838      1.99929     4.33535    0.01374     6.34838
      H   15    0.17499      0.00000     0.82193    0.00308     0.82501
      H   16    0.19127      0.00000     0.80725    0.00148     0.80873
      H   17    0.19492      0.00000     0.80389    0.00119     0.80508
      C   18   -0.34895      1.99929     4.33610    0.01356     6.34895
      H   19    0.19174      0.00000     0.80680    0.00146     0.80826
      H   20    0.17573      0.00000     0.82118    0.00309     0.82427
      H   21    0.19442      0.00000     0.80440    0.00118     0.80558
      S   22    0.87800      9.99661     5.03124    0.09416    15.12200
 =======================================================================
   * Total *    0.00000     29.98865    59.66952    0.34183    90.00000

                                 Natural Population      
 --------------------------------------------------------
   Core                      29.98865 ( 99.9622% of  30)
   Valence                   59.66952 ( 99.4492% of  60)
[...]
 148,-0.00028197,0.00003023,0.00014651,-0.00039352,-0.00004010,-0.00004
 659,0.00010298,-0.00002041,-0.00002419,-0.00991258,-0.29929673,0.26321
 052,0.00453357,0.33434887,0.00071623,0.00300230,-0.00045293,0.00252827
 ,-0.00019726,-0.00062664,0.00284810,-0.00469482,0.00308855,0.02008377,
 0.03975428,-0.02069493,0.00069077,-0.00014522,-0.00035303,-0.00045790,
 -0.00027753,-0.00031980,-0.00005575,-0.00041765,0.00016660,0.00016487,
 -0.00001460,-0.00007693,0.00025157,-0.00002928,0.00004179,-0.00006056,
 0.00002368,-0.00001046,0.02166479,0.26119072,-0.38419133,-0.00869380,-
 0.34832684,0.43752124,-0.00090140,-0.00085258,0.00068915,-0.00299412,0
 .00096282,0.00112814,0.00189683,0.00333174,-0.00217818,-0.03913357,0.0
 0822707,-0.00560706,-0.00030562,-0.00020412,0.00014139,-0.00018108,-0.
 00085807,-0.00053443,0.00000542,-0.00047184,0.00004227,-0.00016332,0.0
 0007670,0.00008410,-0.00018569,0.00005363,-0.00004306,-0.00033676,-0.0
 0006315,0.00008399,-0.25251666,0.05192791,-0.03607085,0.00257231,0.028
 24181,-0.03655278,0.63768160,-0.00122282,0.00100108,-0.00018626,0.0014
 8803,0.00038539,0.00005640,-0.00018364,-0.00139281,0.00117342,-0.00272
 396,0.01035239,-0.00347054,0.00011674,0.00004100,-0.00005040,0.0001768
 5,0.00043162,-0.00071327,0.00000678,-0.00018854,0.00001856,0.00005875,
 -0.00000397,-0.00000781,0.00001865,0.00000677,-0.00000092,-0.00001588,
 0.00003223,-0.00000428,0.04194158,-0.08016347,0.04387710,0.03567466,-0
 .02268189,0.04934563,-0.05246741,0.24908754,0.00111389,-0.00072716,0.0
 0040293,-0.00043319,0.00013777,-0.00019703,-0.00001751,0.00031950,-0.0
 0068931,0.00458890,-0.00362312,0.01087466,-0.00005714,-0.00013072,-0.0
 0017199,-0.00013763,0.00021270,0.00013836,0.00003527,0.00030280,-0.000
 40143,-0.00002120,0.00000659,-0.00000208,-0.00010872,-0.00001274,0.000
 01782,0.00007942,-0.00003419,-0.00004265,-0.04051107,0.05374144,-0.120
 34657,-0.04385296,0.04636491,-0.03288483,0.02949333,-0.22965467,0.5054
 5089,-0.00011404,0.00037925,-0.00016216,0.00030783,-0.00035766,0.00006
 851,-0.00030767,-0.00044867,0.00037576,0.00085301,0.00292789,-0.001704
 39,0.00005095,0.00002922,-0.00002592,-0.00013673,-0.00031259,-0.000032
 30,-0.00002439,-0.00008336,0.00008075,0.00004746,-0.00001655,-0.000028
 02,0.00007334,-0.00001197,0.00001749,0.00001444,0.00003285,-0.00000806
 ,-0.04671685,0.00022210,0.00448663,0.00001833,-0.00468624,0.00814786,-
 0.18113826,-0.02253739,0.04281408,0.49943445,0.00013183,0.00058822,-0.
 00024563,0.00066626,-0.00028613,-0.00014305,-0.00014867,-0.00054649,-0
 .00021953,0.00240751,0.00339086,0.00329279,0.00005899,-0.00000079,-0.0
 0004175,0.00007912,0.00016380,0.00023383,-0.00005555,-0.00011121,-0.00
 017261,0.00008623,-0.00002321,-0.00003973,0.00001965,0.00000200,0.0000
 0652,0.00001015,0.00000030,-0.00001510,0.00753606,0.00512862,-0.009317
 10,0.00386625,-0.00339383,-0.00114228,-0.02263755,-0.08181301,0.031777
 36,-0.03419526,0.55743920,-0.00038099,0.00010520,0.00007189,-0.0003225
 9,0.00010233,0.00011940,0.00027865,0.00041673,-0.00027940,-0.00293777,
 0.00327595,0.00051131,-0.00006398,-0.00005678,0.00000355,0.00008510,-0
 .00008578,-0.00008780,-0.00000954,-0.00017543,-0.00001517,-0.00002073,
 0.00001851,0.00000773,-0.00004654,0.00002051,-0.00001549,-0.00009300,-
 0.00001896,0.00001757,-0.00052342,-0.01220004,0.01781241,0.00039739,0.
 00219601,-0.00668101,0.03074330,0.02815870,-0.11247654,0.05363448,-0.0
 1335940,0.58023765,-0.00016846,-0.00000583,0.00006274,-0.00012716,0.00
 011970,0.00003402,0.00013769,0.00021331,-0.00019869,-0.00065283,0.0009
 5962,0.00050180,-0.00003190,-0.00001893,0.00000378,0.00005017,0.000045
 65,-0.00002178,-0.00000166,-0.00005632,-0.00003783,-0.00001405,0.00000
 837,0.00000763,-0.00002942,0.00000786,-0.00000787,-0.00003410,-0.00000
 964,0.00000609,0.00294194,-0.00641005,0.00458186,0.00079212,0.00179724
 ,-0.00254068,-0.02999160,-0.02414438,-0.00788784,-0.08515180,-0.075677
 15,-0.04780190,0.10428812,-0.00001810,-0.00006731,0.00005813,-0.000117
 49,0.00006430,0.00002738,0.00008524,0.00012938,-0.00008686,-0.00033316
 ,-0.00019953,0.00001443,-0.00001751,-0.00001170,0.00000286,0.00002673,
 0.00000040,-0.00003359,0.00000910,-0.00000485,-0.00001085,-0.00001423,
 0.00000715,0.00000657,-0.00001580,0.00000303,-0.00000394,-0.00001196,-
 0.00000603,0.00000198,0.00283051,-0.00144370,0.00153827,-0.00089608,0.
 00050387,-0.00138366,-0.01109480,-0.00019322,0.00351401,-0.07709647,-0
 .19969117,-0.09249106,0.09206938,0.21429741,0.00000356,-0.00002902,-0.
 00002553,0.00000575,0.00001193,-0.00000225,-0.00003554,0.00005429,0.00
 000593,0.00005323,-0.00074018,-0.00049458,-0.00000211,0.00000748,0.000
 00925,0.00000156,-0.00000364,0.00000574,0.00000442,0.00002490,0.000017
 54,-0.00000640,0.00000099,0.00000494,-0.00000223,-0.00000453,-0.000000
 25,0.00000440,0.00000030,-0.00000145,0.00021583,0.00047726,-0.00064711
 ,0.00041183,0.00041798,0.00107517,0.01016486,0.01621119,0.00765690,-0.
 04938287,-0.09270418,-0.10597449,0.04901610,0.09981883,0.10747603,-0.0
 0012621,-0.00017671,0.00007314,-0.00032558,0.00011199,0.00008411,0.000
 11538,0.00033717,-0.00005070,-0.00096623,-0.00023455,-0.00074801,-0.00
 003968,-0.00001055,0.00002308,-0.00002021,-0.00005120,-0.00005516,0.00
 001352,-0.00001239,0.00004490,-0.00003067,0.00001034,0.00001322,-0.000
 01809,0.00000586,-0.00000588,-0.00002845,-0.00000532,0.00001084,0.0001
 2211,-0.00059716,0.00608931,-0.00004911,0.00062278,-0.00077290,-0.0315
 8474,0.02114189,-0.00077617,-0.13462663,0.11884098,-0.00938349,0.00939
 507,-0.00982146,0.00095030,0.15952086,-0.00004441,0.00002903,-0.000000
 30,0.00006474,-0.00001314,-0.00001120,-0.00004363,-0.00000161,0.000004
 41,-0.00024474,-0.00006196,-0.00059379,0.00000743,0.00000869,0.0000003
 3,-0.00000789,-0.00002013,0.00001027,-0.00000047,0.00000935,0.00002414
 ,-0.00000133,-0.00000275,0.00000025,0.00000761,-0.00000419,0.00000183,
 0.00000478,0.00000516,-0.00000109,-0.00215410,-0.00140631,0.00143770,0
 .00093818,0.00078703,-0.00044830,-0.00734635,0.01168512,0.00025379,0.1
 2495251,-0.21622276,0.01322006,0.01460158,-0.02030149,0.00254887,-0.13
 275586,0.22920410,0.00006857,0.00010006,-0.00002307,0.00006585,-0.0000
 7775,-0.00010286,0.00001660,-0.00012096,-0.00000918,0.00039712,0.00043
 948,0.00074266,0.00001151,-0.00000570,-0.00001032,0.00002644,0.0000504
 4,0.00010039,-0.00000250,-0.00001992,-0.00000314,0.00001225,-0.0000013
 5,-0.00000543,0.00000688,0.00000092,0.00000045,0.00000085,-0.00000004,
 -0.00000078,-0.00024766,0.00280803,-0.00494117,-0.00304365,-0.00115237
 ,0.00164518,0.01632532,-0.01119654,-0.00003764,-0.01211661,0.01499648,
 -0.05065171,0.00905366,-0.01337696,0.00087542,0.00631433,-0.01524134,0
 .04858292,0.00000419,0.00003872,-0.00001083,0.00012745,0.00004461,-0.0
 0000365,0.00003781,-0.00008740,0.00004652,0.00042071,-0.00011369,-0.00
 038508,0.00002118,0.00001803,0.00000511,-0.00000068,0.00005060,-0.0000
 1110,-0.00000666,0.00001884,-0.00001025,0.00000704,-0.00000736,-0.0000
 0246,0.00000506,-0.00000168,0.00000193,0.00001423,0.00000417,-0.000003
 08,0.00070917,-0.00279024,0.00485247,-0.00173659,0.00176951,-0.0030000
 5,0.00315374,-0.00820676,0.03298048,-0.05746798,0.01151841,-0.05472531
 ,-0.00186801,0.00410881,-0.01162821,-0.00239342,0.00219532,-0.01718533
 ,0.06445213,0.00001412,-0.00006663,0.00001326,-0.00007944,-0.00000609,
 -0.00002004,-0.00000175,0.00004929,-0.00006741,-0.00026758,-0.00020198
 ,0.00038194,-0.00001065,-0.00000690,0.00000271,0.00001820,0.00000623,0
 .00005252,0.00000881,0.00000512,0.00000548,-0.00000540,0.00000244,0.00
 000123,-0.00000550,0.00000373,-0.00000121,-0.00000283,-0.00000237,0.00
 000273,0.00089697,0.00147367,-0.00043033,0.00100551,-0.00140995,0.0000
 8834,-0.00010392,-0.00461238,0.00914525,0.00883255,-0.06269899,0.06089
 747,-0.00417877,0.00699996,-0.02537355,0.00316752,-0.00477219,0.024063
 85,-0.00792056,0.06454912,-0.00000225,0.00003660,-0.00001073,-0.000009
 98,-0.00004540,0.00001297,-0.00004173,-0.00000669,0.00005291,0.0001104
 4,0.00000474,-0.00003033,-0.00000433,-0.00000301,-0.00000161,-0.000001
 85,-0.00003837,-0.00001356,-0.00000429,-0.00001570,0.00000395,0.000003
 26,0.00000018,-0.00000257,0.00000355,-0.00000060,0.00000186,-0.0000041
 6,0.00000045,-0.00000037,-0.00185823,0.00280089,-0.00194923,-0.0032634
 8,-0.00086610,0.00148702,0.00192005,0.00482646,-0.01482830,-0.04212871
 ,0.06072841,-0.29981371,-0.00338599,0.00318407,-0.01285960,-0.00056147
 ,-0.00044316,0.00306997,0.04659359,-0.06983602,0.32530995,-0.00011320,
 0.00029586,-0.00005158,0.00025578,-0.00011276,-0.00037014,-0.00208508,
 0.00011710,-0.00151928,-0.00340537,0.00042005,-0.00074556,-0.00000680,
 -0.00004764,-0.00004534,-0.00037147,-0.00019490,0.00032424,0.00000059,
 0.00007933,0.00006537,-0.00005418,-0.00000210,0.00000146,0.00000628,-0
 .00001405,0.00000634,-0.00000003,-0.00000125,-0.00000328,0.01002892,0.
 00569742,-0.02215541,-0.00464119,0.00448389,-0.00266199,-0.10706174,0.
 01065725,-0.01171841,0.00324851,-0.01340734,0.02968982,-0.00035719,-0.
 00040331,0.00139306,0.00076328,-0.00032809,0.00042104,-0.00547625,-0.0
 0191158,0.00291445,0.60979991,-0.00013523,-0.00051596,0.00018949,-0.00
 076490,0.00015841,0.00003060,-0.00112734,0.00022844,-0.00069969,-0.001
 03449,-0.00084520,0.00086885,-0.00009589,-0.00003590,0.00003109,-0.001
 34856,0.00022440,-0.00033402,0.00004864,0.00001881,0.00003031,-0.00006
 728,0.00001987,0.00002304,-0.00004799,0.00001395,-0.00001425,-0.000048
 76,-0.00001914,0.00001520,0.00880066,-0.01812395,0.00942408,0.00185500
 ,0.00694520,0.00225190,0.00034159,-0.08171663,0.05388178,-0.00132695,-
 0.00352200,0.00724162,0.00075074,0.00021549,0.00074417,0.00079623,0.00
 169422,-0.00146152,0.00010447,0.00034971,-0.00086099,0.00176897,0.5385
 7217,0.00022806,0.00075398,-0.00021206,0.00122754,-0.00056944,-0.00119
 687,-0.00227156,-0.00135373,-0.00063245,0.00071779,0.00038923,-0.00042
 222,0.00013173,0.00006052,0.00001420,-0.00074831,0.00051539,0.00097559
 ,0.00003529,0.00014244,0.00012726,0.00001952,-0.00002226,-0.00001642,0
 .00007266,-0.00001867,0.00000296,0.00008202,0.00001925,-0.00001489,-0.
 01674001,0.00382900,-0.01698795,0.00316837,-0.00205764,0.00764652,0.00
 226835,0.06735879,-0.18502462,0.00453584,0.00543908,-0.02150131,-0.002
 81305,-0.00174363,0.00291049,-0.00211126,0.00051228,0.00072828,0.00105
 493,0.00039300,-0.00028606,-0.03042244,0.02660720,0.48044188,0.0000716
 6,-0.00007559,0.00000264,-0.00014375,-0.00022772,0.00012542,0.00013346
 ,0.00076967,0.00006750,0.00012516,0.00011653,-0.00026751,-0.00003453,0
 .00000192,0.00000959,-0.00027903,-0.00031775,-0.00017559,0.00000090,-0
 .00003531,0.00001121,0.00001023,-0.00000037,-0.00000016,0.00000274,-0.
 00000250,-0.00000046,-0.00001404,0.00000087,0.00000342,0.00144813,0.00
 123202,0.00031081,-0.00046187,0.00013057,-0.00081225,-0.00177944,0.002
 99050,-0.00314886,0.00078946,-0.00085510,-0.00014771,0.00018161,0.0003
 1366,-0.00020423,0.00003914,0.00049074,-0.00013536,0.00002687,0.000120
 75,-0.00004194,-0.07000730,0.06590070,0.00802249,0.06907233,0.00002860
 ,0.00011378,-0.00006312,0.00023341,0.00004013,-0.00014174,0.00018756,-
 0.00035212,0.00011231,0.00017689,0.00019833,-0.00006407,0.00004515,0.0
 0001341,-0.00000728,0.00014340,0.00014238,0.00016451,-0.00000656,0.000
 02533,0.00001954,0.00001026,-0.00000647,-0.00000701,0.00002104,-0.0000
 0417,0.00000431,0.00002338,0.00000699,-0.00000469,-0.00552659,-0.00065
 507,-0.00224696,0.00117328,-0.00086795,0.00191690,0.00747776,-0.008100
 01,0.01318768,0.00157573,-0.00011631,-0.00072372,-0.00019351,-0.000219
 77,-0.00030993,-0.00074713,-0.00009009,0.00036280,-0.00015394,0.000233
 36,0.00010271,0.06648869,-0.27473065,-0.02435331,-0.07540969,0.3010864
 1,-0.00003375,-0.00006253,0.00003446,-0.00016178,-0.00002627,0.0000257
 4,-0.00004710,0.00013193,-0.00015967,-0.00037807,-0.00013259,0.0001830
 0,-0.00001389,-0.00000920,0.00000657,-0.00011635,-0.00003392,0.0001353
 7,-0.00000159,-0.00001587,0.00000462,-0.00001360,0.00000312,0.00000141
 ,-0.00000626,0.00000140,-0.00000204,-0.00001195,-0.00000190,0.00000068
 ,0.00542252,0.00346587,0.00071458,-0.00210550,0.00040698,-0.00303472,-
 0.01426807,0.03569465,-0.00849820,-0.00269040,0.00058613,0.00126143,0.
 00052456,-0.00008893,-0.00024012,0.00067138,-0.00075172,0.00031814,-0.
 00011848,-0.00011454,0.00005158,0.00939452,-0.02628359,-0.04868430,-0.
 00364764,0.01695546,0.05916863,-0.00020235,0.00006717,0.00006312,0.000
 13369,0.00011002,-0.00027857,-0.00045749,0.00019329,-0.00069988,-0.000
 87125,-0.00068632,-0.00001948,-0.00004209,-0.00002139,0.00000144,-0.00
 014065,0.00033479,0.00023072,0.00002934,0.00005597,0.00002628,-0.00005
 970,0.00001633,0.00001697,-0.00003761,-0.00000087,-0.00000572,-0.00001
 734,-0.00001289,0.00000207,0.00138283,-0.00136496,-0.00015675,-0.00003
 138,0.00013921,-0.00011841,-0.00205658,0.00165122,-0.00413889,0.000671
 40,0.00148237,0.00215938,0.00075456,0.00011174,-0.00101169,0.00014111,
 -0.00020754,0.00027856,-0.00004074,0.00022816,-0.00004011,-0.16980986,
 -0.08998716,-0.08626241,0.00678530,0.00476116,0.00531072,0.18024944,-0
 .00000441,0.00002683,-0.00000966,0.00002733,0.00015204,-0.00009322,0.0
 0016650,-0.00039795,0.00010174,0.00022505,-0.00009217,-0.00011183,0.00
 000917,-0.00000494,-0.00000003,0.00010854,0.00025601,0.00007763,0.0000
 0309,0.00001335,0.00000473,-0.00000654,0.00000554,-0.00000042,-0.00000
 248,0.00000182,-0.00000117,0.00000094,-0.00000507,-0.00000025,-0.00123
 897,0.00071436,0.00206584,0.00062253,-0.00114549,-0.00017332,0.0134241
 0,0.00953214,0.01231589,0.00118034,0.00192503,0.00057137,0.00006264,-0
 .00024900,-0.00093236,-0.00006222,-0.00065696,-0.00025640,0.00022848,0
 .00001659,-0.00007398,-0.09267862,-0.11858352,-0.06746708,-0.02242030,
 -0.01679570,-0.01492893,0.09814322,0.12379930,0.00003583,-0.00025385,0
 .00004866,-0.00042805,0.00005366,0.00019207,0.00045587,0.00044819,0.00
 019561,-0.00022891,0.00002301,0.00047282,-0.00003009,-0.00001428,0.000
 00676,0.00008882,-0.00025798,-0.00010750,-0.00000466,-0.00003376,-0.00
 002061,-0.00000687,0.00000204,0.00000345,-0.00001558,0.00000611,-0.000
 00600,-0.00002067,-0.00000552,0.00000369,0.00665128,-0.00566451,-0.001
 56199,-0.00117675,0.00318971,-0.00169578,-0.02782067,-0.00403088,-0.02
 977516,-0.00254524,-0.00116748,0.00173243,0.00065581,0.00078388,0.0000
 6173,0.00037909,-0.00022348,-0.00045663,-0.00005494,0.00020797,0.00035
 567,-0.08224262,-0.06481909,-0.10704666,-0.00217707,-0.00367561,-0.000
 59083,0.09922381,0.06663158,0.12816997,-0.00010621,0.00014717,0.000008
 13,-0.00000851,-0.00018969,-0.00041259,-0.00295776,-0.00136611,-0.0013
 3317,-0.00105321,0.00068203,-0.00198067,0.00002970,0.00002159,0.000033
 05,-0.00085627,0.00003735,-0.00029925,-0.00000216,0.00001674,0.0000689
 7,0.,-0.00000101,-0.00000832,0.00002790,-0.00000548,-0.00000176,0.0000
 1255,0.00000745,-0.00000670,-0.00014021,0.00015297,-0.00076198,0.00018
 967,-0.00004151,-0.00013266,0.00483371,-0.00173625,-0.00166551,0.00055
 032,0.00075406,0.00013843,0.00008083,0.00018508,-0.00006895,0.00005403
 ,-0.00007631,-0.00023841,0.00004757,0.00013466,-0.00022532,-0.26075629
 ,0.01522155,0.12004314,-0.00612178,-0.00010008,0.00221317,-0.01637663,
 0.00233001,0.00908442,0.28227145,0.00005015,-0.00023929,0.00002298,-0.
 00036679,-0.00000159,0.00028384,-0.00002310,0.00057779,0.00002799,0.00
 012877,0.00015462,-0.00046623,-0.00002926,0.00000246,0.00000055,-0.000
 46566,-0.00068722,-0.00084433,-0.00000156,0.00000388,-0.00000879,0.000
 01076,-0.00000885,0.00000260,-0.00000517,-0.00000436,0.00000024,-0.000
 00540,0.00000226,0.00000085,-0.00074033,0.00084725,0.00042388,-0.00006
 087,-0.00011106,-0.00021309,-0.01518777,-0.00157142,0.00813635,0.00133
 218,-0.00070896,0.00316823,0.00014390,0.00021760,-0.00016381,-0.000288
 07,0.00017681,-0.00000548,-0.00086345,0.00006197,0.00055066,0.01930170
 ,-0.05007596,-0.00883134,0.02748030,-0.00013840,-0.01473090,-0.0148627
 0,0.00134236,0.00883080,-0.01596385,0.05049365,0.00021982,-0.00019446,
 -0.00004619,-0.00029797,-0.00011636,0.00025567,-0.00083267,-0.00032839
 ,0.00020795,-0.00071837,0.00049868,-0.00014325,0.00005066,0.00003044,0
 .00002129,-0.00009973,-0.00054145,-0.00023453,-0.00004287,-0.00006592,
 -0.00002878,0.00006022,-0.00002363,-0.00001571,0.00004140,0.00000162,0
 .00000058,0.00001420,0.00001618,-0.00000523,0.00394636,-0.00071707,0.0
 0141716,-0.00060957,0.00029353,-0.00046028,0.02896605,0.00152487,-0.01
 876184,-0.00329332,0.00093479,-0.00477316,0.00003730,0.00024402,0.0001
 5329,-0.00014857,-0.00026737,0.00016196,0.00161248,0.00060581,-0.00056
 542,0.10786091,-0.00684238,-0.11055542,0.00222738,-0.00118211,-0.00075
 344,-0.01461456,0.00227577,0.00994626,-0.12454173,0.00382969,0.1240120
 0,-0.09097141,-0.06457754,0.03148503,-0.00410290,-0.02037477,0.0085296
 1,-0.01133548,0.03073844,-0.00761901,-0.10669597,0.07385611,-0.0083176
 8,0.00037435,0.00118790,0.00111810,0.00100585,0.00040867,0.00116064,-0
 .01600497,-0.01979743,0.00940989,0.00107839,-0.00034873,0.00010824,0.0
 0078888,-0.00046181,-0.00003446,-0.00351609,0.00188143,0.00014463,-0.0
 2683736,0.01738046,-0.00348049,0.00123362,0.00038721,-0.00123648,0.000
 18698,-0.00268441,0.00336973,-0.00037513,-0.00048125,-0.00066958,-0.00
 019391,0.00010012,0.00011732,0.00004454,-0.00005218,-0.00002945,-0.000
 03684,0.00006073,0.00002851,0.00004267,0.00039601,-0.00023870,0.000154
 77,-0.00020880,0.00007753,-0.00000401,-0.00011840,0.00017721,0.0002813
 1,0.00041624,0.00016256,0.25488270,-0.03241516,-0.09600251,0.02533482,
 0.01828360,-0.05741984,0.01833007,-0.00509997,-0.05716350,0.02284010,0
 .04244462,-0.08140004,0.01043108,0.00365727,-0.00240399,0.00206091,-0.
 00260447,-0.00235171,0.00324618,-0.00234129,0.00734319,-0.00218627,-0.
 00023683,-0.00034363,-0.00024351,-0.00043176,0.00004971,0.00056860,0.0
 0244419,0.00063579,-0.00066391,-0.00116312,0.00727783,-0.00431144,-0.0
 0057391,-0.00138622,-0.00010991,-0.00277754,-0.00011793,0.00088477,-0.
 00039152,0.00049682,-0.00028152,-0.00008541,-0.00005081,-0.00005701,-0
 .00027215,-0.00004593,0.00009427,0.00004512,0.00002629,-0.00004514,-0.
 00020861,-0.00027175,0.00039694,-0.00020389,0.00021660,-0.00006464,-0.
 00015085,0.00014542,-0.00003049,-0.00021036,-0.00033355,0.00002375,-0.
 01770797,0.28309975,0.02258679,0.03381167,-0.05072380,-0.00331114,0.02
 370253,0.00150704,0.00390704,0.01447355,0.00284086,0.00128155,0.004909
 52,-0.03584753,-0.00008525,0.00228985,0.00541397,0.00185925,0.00254846
 ,0.00511731,0.00379583,0.00068565,-0.00231250,0.00066318,0.00028232,0.
 00016131,-0.00050182,0.00026772,0.00023996,-0.00021834,-0.00056761,0.0
 0035158,0.00310632,-0.00927038,0.00135760,0.00007261,0.00154875,-0.001
 18937,0.00102479,0.00106980,-0.00040337,-0.00004340,0.00057243,0.00049
 442,0.00021028,0.00002506,-0.00000704,-0.00004011,-0.00003216,0.000016
 55,-0.00000873,-0.00001846,0.00001562,-0.00013515,-0.00002379,-0.00026
 593,-0.00002169,-0.00004666,0.00005711,0.00003339,0.00000407,0.0000720
 7,0.00008772,-0.00001468,0.00016710,-0.03426314,-0.07621766,0.07293705
 \\0.00000290,-0.00000015,0.00000089,0.00000076,0.00000069,0.00000072,-
 0.00000430,-0.00000124,0.00000538,-0.00000204,-0.00000627,0.00000045,0
 .00000200,0.00000071,0.00000872,0.00000255,0.00000187,0.00000726,-0.00
 000023,-0.00000318,0.00000039,-0.00000170,0.00000052,-0.00000481,-0.00
 000093,-0.00000682,-0.00000252,0.00000050,-0.00000119,0.00000297,-0.00
 001198,0.00001109,-0.00001720,-0.00000652,-0.00001306,0.00000305,0.000
 01453,-0.00000556,0.00000926,-0.00000668,-0.00000419,0.00000181,0.0000
 0035,0.00000219,-0.00000578,0.00000333,-0.00000105,0.00000044,0.000000
 65,-0.00000639,-0.00000346,-0.00000860,0.00001831,-0.00001957,0.000004
 46,0.00000190,0.00000709,0.00000464,0.00000934,0.00000644,0.00000604,0
 .00000757,0.00000303,0.00000028,-0.00000507,-0.00000455\\\@


 The most important thing in communication is to hear what isn't being said.
 -- Peter F. Drucker
 Job cpu time:       0 days  1 hours  0 minutes 13.8 seconds.
 File lengths (MBytes):  RWF=    253 Int=      0 D2E=      0 Chk=      9 Scr=      1
 Normal termination of Gaussian 09 at Thu Feb  2 15:50:54 2023.
