 Entering Gaussian System, Link 0=g09
 Initial command:
 /cm/shared/apps/gaussian/g09revD.01/g09/l1.exe "//home/sweav003/HartwigDocs/DiverseFunctionalization_Hartwig/G09-Figure2_3.com.o9616165.tmp/Gau-8053.inp" -scrdir="//home/sweav003/HartwigDocs/DiverseFunctionalization_Hartwig/G09-Figure2_3.com.o9616165.tmp/"
 Entering Link 1 = /cm/shared/apps/gaussian/g09revD.01/g09/l1.exe PID=      8054.
  
 Copyright (c) 1988,1990,1992,1993,1995,1998,2003,2009,2013,
            Gaussian, Inc.  All Rights Reserved.
  
 This is part of the Gaussian(R) 09 program.  It is based on
 the Gaussian(R) 03 system (copyright 2003, Gaussian, Inc.),
 the Gaussian(R) 98 system (copyright 1998, Gaussian, Inc.),
 the Gaussian(R) 94 system (copyright 1995, Gaussian, Inc.),
 the Gaussian 92(TM) system (copyright 1992, Gaussian, Inc.),
 the Gaussian 90(TM) system (copyright 1990, Gaussian, Inc.),
 the Gaussian 88(TM) system (copyright 1988, Gaussian, Inc.),
 the Gaussian 86(TM) system (copyright 1986, Carnegie Mellon
 University), and the Gaussian 82(TM) system (copyright 1983,
 Carnegie Mellon University). Gaussian is a federally registered
 trademark of Gaussian, Inc.
  
 This software contains proprietary and confidential information,
 including trade secrets, belonging to Gaussian, Inc.
  
 This software is provided under written license and may be
 used, copied, transmitted, or stored only in accord with that
 written license.
  
 The following legend is applicable only to US Government
 contracts under FAR:
  
                    RESTRICTED RIGHTS LEGEND
  
 Use, reproduction and disclosure by the US Government is
 subject to restrictions as set forth in subparagraphs (a)
 and (c) of the Commercial Computer Software - Restricted
 Rights clause in FAR 52.227-19.
  
 Gaussian, Inc.
 340 Quinnipiac St., Bldg. 40, Wallingford CT 06492
  
  
 ---------------------------------------------------------------
 Warning -- This program may not be used in any manner that
 competes with the business of Gaussian, Inc. or will provide
 assistance to any competitor of Gaussian, Inc.  The licensee
 of this program is prohibited from giving any competitor of
 Gaussian, Inc. access to this program.  By using this program,
 the user acknowledges that Gaussian, Inc. is engaged in the
 business of creating and licensing software in the field of
 computational chemistry and represents and warrants to the
 licensee that it is not a competitor of Gaussian, Inc. and that
 it will not use this program in any manner prohibited above.
 ---------------------------------------------------------------
  

 Cite this work as:
 Gaussian 09, Revision D.01,
 M. J. Frisch, G. W. Trucks, H. B. Schlegel, G. E. Scuseria, 
 M. A. Robb, J. R. Cheeseman, G. Scalmani, V. Barone, B. Mennucci, 
 G. A. Petersson, H. Nakatsuji, M. Caricato, X. Li, H. P. Hratchian, 
 A. F. Izmaylov, J. Bloino, G. Zheng, J. L. Sonnenberg, M. Hada, 
 M. Ehara, K. Toyota, R. Fukuda, J. Hasegawa, M. Ishida, T. Nakajima, 
 Y. Honda, O. Kitao, H. Nakai, T. Vreven, J. A. Montgomery, Jr., 
 J. E. Peralta, F. Ogliaro, M. Bearpark, J. J. Heyd, E. Brothers, 
 K. N. Kudin, V. N. Staroverov, T. Keith, R. Kobayashi, J. Normand, 
 K. Raghavachari, A. Rendell, J. C. Burant, S. S. Iyengar, J. Tomasi, 
 M. Cossi, N. Rega, J. M. Millam, M. Klene, J. E. Knox, J. B. Cross, 
 V. Bakken, C. Adamo, J. Jaramillo, R. Gomperts, R. E. Stratmann, 
 O. Yazyev, A. J. Austin, R. Cammi, C. Pomelli, J. W. Ochterski, 
 R. L. Martin, K. Morokuma, V. G. Zakrzewski, G. A. Voth, 
 P. Salvador, J. J. Dannenberg, S. Dapprich, A. D. Daniels, 
 O. Farkas, J. B. Foresman, J. V. Ortiz, J. Cioslowski, 
 and D. J. Fox, Gaussian, Inc., Wallingford CT, 2013.
 
 ******************************************
 Gaussian 09:  ES64L-G09RevD.01 24-Apr-2013
                14-Oct-2021 
 ******************************************
 %mem=100MW
 %nprocshared=20
 Will use up to   20 processors via shared memory.
 %chk=Figure2_3.chk
 ----------------------------------------------------------------------
 # opt freq b3lyp/6-311+g(d,p) pop=(npa,hirshfeld,chelpg,mbs) geom=conn
 ectivity
 ----------------------------------------------------------------------
 1/14=-1,18=20,19=15,26=3,38=1,57=2/1,3;
 2/9=110,12=2,17=6,18=5,40=1/2;
 3/5=4,6=6,7=111,11=2,16=1,25=1,30=1,71=1,74=-5/1,2,3;
 4//1;
 5/5=2,38=5/2;
 6/7=2,8=2,9=2,10=2,15=8,20=3,27=100,28=1,40=-1,79=1/1,2,7;
 7//1,2,3,16;
 1/14=-1,18=20,19=15,26=3/3(2);
 2/9=110/2;
 99//99;
 2/9=110/2;
 3/5=4,6=6,7=111,11=2,16=1,25=1,30=1,71=1,74=-5/1,2,3;
 4/5=5,16=3,69=1/1;
 5/5=2,38=5/2;
 7//1,2,3,16;
 1/14=-1,18=20,19=15,26=3/3(-5);
 2/9=110/2;
 6/7=2,8=2,9=2,10=2,15=8,19=2,20=3,27=100,28=1,40=-1,79=1/1,2,7;
 99/9=1/99;
 ---------
 Figure2_3
 ---------
 Symbolic Z-matrix:
 Charge =  0 Multiplicity = 1
 C                    -0.27562   2.00043   0.03705 
 C                     0.10419   3.00986   1.13632 
 H                     0.15387   3.99272   0.71629 
 H                    -0.63472   2.98953   1.90994 
 H                     1.05731   2.74869   1.5465 
 C                    -1.64827   2.39106  -0.54159 
 H                    -1.59324   3.37577  -0.9566 
 H                    -1.9234    1.69616  -1.3073 
 H                    -2.3819    2.37268   0.2371 
 C                     0.80268   1.98984  -1.01745 
 H                     0.53025   1.37156  -1.84716 
 H                     0.97541   2.98579  -1.36837 
 C                    -0.28119   0.61201   0.62321 
 H                    -0.91123   0.58518   1.48764 
 H                    -0.63154  -0.11145  -0.08302 
 O                     1.08862   0.33887   0.95112 
 O                     1.9669    1.44137  -0.37494 
 C                     1.80454  -0.003    -0.2706 
 H                     1.66398   0.06518  -1.32913 
 C                     0.71156  -1.08751  -0.24179 
 C                     1.21967  -2.34777  -0.96647 
 H                    -0.16593  -0.72269  -0.73355 
 H                     0.4766   -1.33021   0.77348 
 C                     0.12669  -3.43228  -0.93767 
 H                     1.45463  -2.10507  -1.98175 
 H                     2.09716  -2.71259  -0.47472 
 H                    -0.10827  -3.67499   0.07761 
 H                    -0.7508   -3.06746  -1.42942 
 C                     0.6348   -4.69254  -1.66235 
 H                     1.51229  -5.05736  -1.1706 
 H                     0.86976  -4.44984  -2.67763 
 C                    -0.45819  -5.77705  -1.63355 
 H                    -1.33568  -5.41223  -2.1253 
 H                    -0.69315  -6.01976  -0.61827 
 C                     0.04992  -7.03731  -2.35823 
 H                     0.92741  -7.40213  -1.86648 
 H                     0.28488  -6.79461  -3.3735 
 C                    -1.04306  -8.12182  -2.32942 
 C                    -0.55722  -9.38227  -2.98209 
 H                    -1.94299  -7.72415  -2.85858 
 H                    -1.31987  -8.30981  -1.26357 
 H                    -1.34972  -10.16922  -2.96136 
 H                    -0.28044  -9.19387  -4.04791 
 H                     0.34286  -9.77957  -2.45286 
 

 GradGradGradGradGradGradGradGradGradGradGradGradGradGradGradGradGradGrad
 Berny optimization.
 Initialization pass.
                           ----------------------------
                           !    Initial Parameters    !
                           ! (Angstroms and Degrees)  !
 --------------------------                            --------------------------
 ! Name  Definition              Value          Derivative Info.                !
 --------------------------------------------------------------------------------
 ! R1    R(1,2)                  1.54           estimate D2E/DX2                !
 ! R2    R(1,6)                  1.54           estimate D2E/DX2                !
 ! R3    R(1,10)                 1.5082         estimate D2E/DX2                !
 ! R4    R(1,13)                 1.5071         estimate D2E/DX2                !
 ! R5    R(2,3)                  1.07           estimate D2E/DX2                !
 ! R6    R(2,4)                  1.07           estimate D2E/DX2                !
 ! R7    R(2,5)                  1.07           estimate D2E/DX2                !
 ! R8    R(6,7)                  1.07           estimate D2E/DX2                !
 ! R9    R(6,8)                  1.07           estimate D2E/DX2                !
 ! R10   R(6,9)                  1.07           estimate D2E/DX2                !
 ! R11   R(10,11)                1.07           estimate D2E/DX2                !
 ! R12   R(10,12)                1.07           estimate D2E/DX2                !
 ! R13   R(10,17)                1.4384         estimate D2E/DX2                !
 ! R14   R(13,14)                1.07           estimate D2E/DX2                !
 ! R15   R(13,15)                1.07           estimate D2E/DX2                !
 ! R16   R(13,16)                1.4347         estimate D2E/DX2                !
 ! R17   R(16,18)                1.4567         estimate D2E/DX2                !
 ! R18   R(17,18)                1.4572         estimate D2E/DX2                !
 ! R19   R(18,19)                1.07           estimate D2E/DX2                !
 ! R20   R(18,20)                1.54           estimate D2E/DX2                !
 ! R21   R(20,21)                1.54           estimate D2E/DX2                !
 ! R22   R(20,22)                1.07           estimate D2E/DX2                !
 ! R23   R(20,23)                1.07           estimate D2E/DX2                !
 ! R24   R(21,24)                1.54           estimate D2E/DX2                !
 ! R25   R(21,25)                1.07           estimate D2E/DX2                !
 ! R26   R(21,26)                1.07           estimate D2E/DX2                !
 ! R27   R(24,27)                1.07           estimate D2E/DX2                !
 ! R28   R(24,28)                1.07           estimate D2E/DX2                !
 ! R29   R(24,29)                1.54           estimate D2E/DX2                !
 ! R30   R(29,30)                1.07           estimate D2E/DX2                !
 ! R31   R(29,31)                1.07           estimate D2E/DX2                !
 ! R32   R(29,32)                1.54           estimate D2E/DX2                !
 ! R33   R(32,33)                1.07           estimate D2E/DX2                !
 ! R34   R(32,34)                1.07           estimate D2E/DX2                !
 ! R35   R(32,35)                1.54           estimate D2E/DX2                !
 ! R36   R(35,36)                1.07           estimate D2E/DX2                !
 ! R37   R(35,37)                1.07           estimate D2E/DX2                !
 ! R38   R(35,38)                1.54           estimate D2E/DX2                !
 ! R39   R(38,39)                1.5002         estimate D2E/DX2                !
 ! R40   R(38,40)                1.1171         estimate D2E/DX2                !
 ! R41   R(38,41)                1.1171         estimate D2E/DX2                !
 ! R42   R(39,42)                1.117          estimate D2E/DX2                !
 ! R43   R(39,43)                1.1172         estimate D2E/DX2                !
 ! R44   R(39,44)                1.1172         estimate D2E/DX2                !
 ! A1    A(2,1,6)              108.7696         estimate D2E/DX2                !
 ! A2    A(2,1,10)             109.1079         estimate D2E/DX2                !
 ! A3    A(2,1,13)             109.0956         estimate D2E/DX2                !
 ! A4    A(6,1,10)             112.1065         estimate D2E/DX2                !
 ! A5    A(6,1,13)             112.1188         estimate D2E/DX2                !
 ! A6    A(10,1,13)            105.5514         estimate D2E/DX2                !
 ! A7    A(1,2,3)              109.4712         estimate D2E/DX2                !
 ! A8    A(1,2,4)              109.4712         estimate D2E/DX2                !
 ! A9    A(1,2,5)              109.4712         estimate D2E/DX2                !
 ! A10   A(3,2,4)              109.4712         estimate D2E/DX2                !
 ! A11   A(3,2,5)              109.4712         estimate D2E/DX2                !
 ! A12   A(4,2,5)              109.4712         estimate D2E/DX2                !
 ! A13   A(1,6,7)              109.4712         estimate D2E/DX2                !
 ! A14   A(1,6,8)              109.4712         estimate D2E/DX2                !
 ! A15   A(1,6,9)              109.4712         estimate D2E/DX2                !
 ! A16   A(7,6,8)              109.4712         estimate D2E/DX2                !
 ! A17   A(7,6,9)              109.4712         estimate D2E/DX2                !
 ! A18   A(8,6,9)              109.4712         estimate D2E/DX2                !
 ! A19   A(1,10,11)            111.3566         estimate D2E/DX2                !
 ! A20   A(1,10,12)            109.7657         estimate D2E/DX2                !
 ! A21   A(1,10,17)            105.6064         estimate D2E/DX2                !
 ! A22   A(11,10,12)           108.9433         estimate D2E/DX2                !
 ! A23   A(11,10,17)           109.3972         estimate D2E/DX2                !
 ! A24   A(12,10,17)           111.7619         estimate D2E/DX2                !
 ! A25   A(1,13,14)            109.8459         estimate D2E/DX2                !
 ! A26   A(1,13,15)            111.5545         estimate D2E/DX2                !
 ! A27   A(1,13,16)            105.1142         estimate D2E/DX2                !
 ! A28   A(14,13,15)           108.8732         estimate D2E/DX2                !
 ! A29   A(14,13,16)           111.8857         estimate D2E/DX2                !
 ! A30   A(15,13,16)           109.5567         estimate D2E/DX2                !
 ! A31   A(13,16,18)           108.7972         estimate D2E/DX2                !
 ! A32   A(10,17,18)           108.6475         estimate D2E/DX2                !
 ! A33   A(16,18,17)            83.2343         estimate D2E/DX2                !
 ! A34   A(16,18,19)           138.6057         estimate D2E/DX2                !
 ! A35   A(16,18,20)            78.5085         estimate D2E/DX2                !
 ! A36   A(17,18,19)            83.145          estimate D2E/DX2                !
 ! A37   A(17,18,20)           141.1178         estimate D2E/DX2                !
 ! A38   A(19,18,20)            88.2891         estimate D2E/DX2                !
 ! A39   A(18,20,21)           109.4712         estimate D2E/DX2                !
 ! A40   A(18,20,22)           109.4712         estimate D2E/DX2                !
 ! A41   A(18,20,23)           109.4712         estimate D2E/DX2                !
 ! A42   A(21,20,22)           109.4712         estimate D2E/DX2                !
 ! A43   A(21,20,23)           109.4712         estimate D2E/DX2                !
 ! A44   A(22,20,23)           109.4712         estimate D2E/DX2                !
 ! A45   A(20,21,24)           109.4712         estimate D2E/DX2                !
 ! A46   A(20,21,25)           109.4712         estimate D2E/DX2                !
 ! A47   A(20,21,26)           109.4712         estimate D2E/DX2                !
 ! A48   A(24,21,25)           109.4712         estimate D2E/DX2                !
 ! A49   A(24,21,26)           109.4712         estimate D2E/DX2                !
 ! A50   A(25,21,26)           109.4712         estimate D2E/DX2                !
 ! A51   A(21,24,27)           109.4712         estimate D2E/DX2                !
 ! A52   A(21,24,28)           109.4712         estimate D2E/DX2                !
 ! A53   A(21,24,29)           109.4712         estimate D2E/DX2                !
 ! A54   A(27,24,28)           109.4712         estimate D2E/DX2                !
 ! A55   A(27,24,29)           109.4712         estimate D2E/DX2                !
 ! A56   A(28,24,29)           109.4712         estimate D2E/DX2                !
 ! A57   A(24,29,30)           109.4712         estimate D2E/DX2                !
 ! A58   A(24,29,31)           109.4712         estimate D2E/DX2                !
 ! A59   A(24,29,32)           109.4712         estimate D2E/DX2                !
 ! A60   A(30,29,31)           109.4712         estimate D2E/DX2                !
 ! A61   A(30,29,32)           109.4712         estimate D2E/DX2                !
 ! A62   A(31,29,32)           109.4712         estimate D2E/DX2                !
 ! A63   A(29,32,33)           109.4712         estimate D2E/DX2                !
 ! A64   A(29,32,34)           109.4712         estimate D2E/DX2                !
 ! A65   A(29,32,35)           109.4712         estimate D2E/DX2                !
 ! A66   A(33,32,34)           109.4712         estimate D2E/DX2                !
 ! A67   A(33,32,35)           109.4712         estimate D2E/DX2                !
 ! A68   A(34,32,35)           109.4712         estimate D2E/DX2                !
 ! A69   A(32,35,36)           109.4712         estimate D2E/DX2                !
 ! A70   A(32,35,37)           109.4712         estimate D2E/DX2                !
 ! A71   A(32,35,38)           109.4712         estimate D2E/DX2                !
 ! A72   A(36,35,37)           109.4712         estimate D2E/DX2                !
 ! A73   A(36,35,38)           109.4712         estimate D2E/DX2                !
 ! A74   A(37,35,38)           109.4712         estimate D2E/DX2                !
 ! A75   A(35,38,39)           110.7128         estimate D2E/DX2                !
 ! A76   A(35,38,40)           108.191          estimate D2E/DX2                !
 ! A77   A(35,38,41)           108.1922         estimate D2E/DX2                !
 ! A78   A(39,38,40)           110.7248         estimate D2E/DX2                !
 ! A79   A(39,38,41)           110.7282         estimate D2E/DX2                !
 ! A80   A(40,38,41)           108.193          estimate D2E/DX2                !
 ! A81   A(38,39,42)           110.7359         estimate D2E/DX2                !
 ! A82   A(38,39,43)           110.7071         estimate D2E/DX2                !
 ! A83   A(38,39,44)           110.7081         estimate D2E/DX2                !
 ! A84   A(42,39,43)           108.1971         estimate D2E/DX2                !
 ! A85   A(42,39,44)           108.1957         estimate D2E/DX2                !
 ! A86   A(43,39,44)           108.1987         estimate D2E/DX2                !
 ! D1    D(6,1,2,3)            -59.9975         estimate D2E/DX2                !
 ! D2    D(6,1,2,4)             60.0025         estimate D2E/DX2                !
 ! D3    D(6,1,2,5)           -179.9975         estimate D2E/DX2                !
 ! D4    D(10,1,2,3)            62.5754         estimate D2E/DX2                !
 ! D5    D(10,1,2,4)          -177.4246         estimate D2E/DX2                !
 ! D6    D(10,1,2,5)           -57.4246         estimate D2E/DX2                !
 ! D7    D(13,1,2,3)           177.4221         estimate D2E/DX2                !
 ! D8    D(13,1,2,4)           -62.5779         estimate D2E/DX2                !
 ! D9    D(13,1,2,5)            57.4221         estimate D2E/DX2                !
 ! D10   D(2,1,6,7)             60.0025         estimate D2E/DX2                !
 ! D11   D(2,1,6,8)           -179.9975         estimate D2E/DX2                !
 ! D12   D(2,1,6,9)            -59.9975         estimate D2E/DX2                !
 ! D13   D(10,1,6,7)           -60.7416         estimate D2E/DX2                !
 ! D14   D(10,1,6,8)            59.2584         estimate D2E/DX2                !
 ! D15   D(10,1,6,9)           179.2584         estimate D2E/DX2                !
 ! D16   D(13,1,6,7)          -179.2609         estimate D2E/DX2                !
 ! D17   D(13,1,6,8)           -59.2609         estimate D2E/DX2                !
 ! D18   D(13,1,6,9)            60.7391         estimate D2E/DX2                !
 ! D19   D(2,1,10,11)         -174.4174         estimate D2E/DX2                !
 ! D20   D(2,1,10,12)          -53.6934         estimate D2E/DX2                !
 ! D21   D(2,1,10,17)           66.9316         estimate D2E/DX2                !
 ! D22   D(6,1,10,11)          -53.8692         estimate D2E/DX2                !
 ! D23   D(6,1,10,12)           66.8548         estimate D2E/DX2                !
 ! D24   D(6,1,10,17)         -172.5203         estimate D2E/DX2                !
 ! D25   D(13,1,10,11)          68.467          estimate D2E/DX2                !
 ! D26   D(13,1,10,12)        -170.809          estimate D2E/DX2                !
 ! D27   D(13,1,10,17)         -50.184          estimate D2E/DX2                !
 ! D28   D(2,1,13,14)           53.7105         estimate D2E/DX2                !
 ! D29   D(2,1,13,15)          174.5294         estimate D2E/DX2                !
 ! D30   D(2,1,13,16)          -66.8185         estimate D2E/DX2                !
 ! D31   D(6,1,13,14)          -66.8373         estimate D2E/DX2                !
 ! D32   D(6,1,13,15)           53.9816         estimate D2E/DX2                !
 ! D33   D(6,1,13,16)          172.6338         estimate D2E/DX2                !
 ! D34   D(10,1,13,14)         170.8344         estimate D2E/DX2                !
 ! D35   D(10,1,13,15)         -68.3467         estimate D2E/DX2                !
 ! D36   D(10,1,13,16)          50.3055         estimate D2E/DX2                !
 ! D37   D(1,10,17,18)          76.7748         estimate D2E/DX2                !
 ! D38   D(11,10,17,18)        -43.1733         estimate D2E/DX2                !
 ! D39   D(12,10,17,18)       -163.9129         estimate D2E/DX2                !
 ! D40   D(1,13,16,18)         -77.6275         estimate D2E/DX2                !
 ! D41   D(14,13,16,18)        163.1985         estimate D2E/DX2                !
 ! D42   D(15,13,16,18)         42.3587         estimate D2E/DX2                !
 ! D43   D(13,16,18,17)         86.2962         estimate D2E/DX2                !
 ! D44   D(13,16,18,19)         14.7395         estimate D2E/DX2                !
 ! D45   D(13,16,18,20)        -59.1961         estimate D2E/DX2                !
 ! D46   D(10,17,18,16)        -85.4298         estimate D2E/DX2                !
 ! D47   D(10,17,18,19)         55.3878         estimate D2E/DX2                !
 ! D48   D(10,17,18,20)        -23.2513         estimate D2E/DX2                !
 ! D49   D(16,18,20,21)       -151.9358         estimate D2E/DX2                !
 ! D50   D(16,18,20,22)         88.0642         estimate D2E/DX2                !
 ! D51   D(16,18,20,23)        -31.9358         estimate D2E/DX2                !
 ! D52   D(17,18,20,21)        144.3997         estimate D2E/DX2                !
 ! D53   D(17,18,20,22)         24.3997         estimate D2E/DX2                !
 ! D54   D(17,18,20,23)        -95.6003         estimate D2E/DX2                !
 ! D55   D(19,18,20,21)         67.5361         estimate D2E/DX2                !
 ! D56   D(19,18,20,22)        -52.4639         estimate D2E/DX2                !
 ! D57   D(19,18,20,23)       -172.4639         estimate D2E/DX2                !
 ! D58   D(18,20,21,24)        180.0            estimate D2E/DX2                !
 ! D59   D(18,20,21,25)        -60.0            estimate D2E/DX2                !
 ! D60   D(18,20,21,26)         60.0            estimate D2E/DX2                !
 ! D61   D(22,20,21,24)        -60.0            estimate D2E/DX2                !
 ! D62   D(22,20,21,25)         60.0            estimate D2E/DX2                !
 ! D63   D(22,20,21,26)        180.0            estimate D2E/DX2                !
 ! D64   D(23,20,21,24)         60.0            estimate D2E/DX2                !
 ! D65   D(23,20,21,25)        180.0            estimate D2E/DX2                !
 ! D66   D(23,20,21,26)        -60.0            estimate D2E/DX2                !
 ! D67   D(20,21,24,27)        -60.0            estimate D2E/DX2                !
 ! D68   D(20,21,24,28)         60.0            estimate D2E/DX2                !
 ! D69   D(20,21,24,29)        180.0            estimate D2E/DX2                !
 ! D70   D(25,21,24,27)        180.0            estimate D2E/DX2                !
 ! D71   D(25,21,24,28)        -60.0            estimate D2E/DX2                !
 ! D72   D(25,21,24,29)         60.0            estimate D2E/DX2                !
 ! D73   D(26,21,24,27)         60.0            estimate D2E/DX2                !
 ! D74   D(26,21,24,28)        180.0            estimate D2E/DX2                !
 ! D75   D(26,21,24,29)        -60.0            estimate D2E/DX2                !
 ! D76   D(21,24,29,30)         60.0            estimate D2E/DX2                !
 ! D77   D(21,24,29,31)        -60.0            estimate D2E/DX2                !
 ! D78   D(21,24,29,32)        180.0            estimate D2E/DX2                !
 ! D79   D(27,24,29,30)        -60.0            estimate D2E/DX2                !
 ! D80   D(27,24,29,31)        180.0            estimate D2E/DX2                !
 ! D81   D(27,24,29,32)         60.0            estimate D2E/DX2                !
 ! D82   D(28,24,29,30)        180.0            estimate D2E/DX2                !
 ! D83   D(28,24,29,31)         60.0            estimate D2E/DX2                !
 ! D84   D(28,24,29,32)        -60.0            estimate D2E/DX2                !
 ! D85   D(24,29,32,33)         60.0            estimate D2E/DX2                !
 ! D86   D(24,29,32,34)        -60.0            estimate D2E/DX2                !
 ! D87   D(24,29,32,35)        180.0            estimate D2E/DX2                !
 ! D88   D(30,29,32,33)        180.0            estimate D2E/DX2                !
 ! D89   D(30,29,32,34)         60.0            estimate D2E/DX2                !
 ! D90   D(30,29,32,35)        -60.0            estimate D2E/DX2                !
 ! D91   D(31,29,32,33)        -60.0            estimate D2E/DX2                !
 ! D92   D(31,29,32,34)        180.0            estimate D2E/DX2                !
 ! D93   D(31,29,32,35)         60.0            estimate D2E/DX2                !
 ! D94   D(29,32,35,36)         60.0            estimate D2E/DX2                !
 ! D95   D(29,32,35,37)        -60.0            estimate D2E/DX2                !
 ! D96   D(29,32,35,38)        180.0            estimate D2E/DX2                !
 ! D97   D(33,32,35,36)       -180.0            estimate D2E/DX2                !
 ! D98   D(33,32,35,37)         60.0            estimate D2E/DX2                !
 ! D99   D(33,32,35,38)        -60.0            estimate D2E/DX2                !
 ! D100  D(34,32,35,36)        -60.0            estimate D2E/DX2                !
 ! D101  D(34,32,35,37)        180.0            estimate D2E/DX2                !
 ! D102  D(34,32,35,38)         60.0            estimate D2E/DX2                !
 ! D103  D(32,35,38,39)       -177.7953         estimate D2E/DX2                !
 ! D104  D(32,35,38,40)         60.7051         estimate D2E/DX2                !
 ! D105  D(32,35,38,41)        -56.2908         estimate D2E/DX2                !
 ! D106  D(36,35,38,39)        -57.7953         estimate D2E/DX2                !
 ! D107  D(36,35,38,40)       -179.2949         estimate D2E/DX2                !
 ! D108  D(36,35,38,41)         63.7092         estimate D2E/DX2                !
 ! D109  D(37,35,38,39)         62.2047         estimate D2E/DX2                !
 ! D110  D(37,35,38,40)        -59.2949         estimate D2E/DX2                !
 ! D111  D(37,35,38,41)       -176.2908         estimate D2E/DX2                !
 ! D112  D(35,38,39,42)        179.9967         estimate D2E/DX2                !
 ! D113  D(35,38,39,43)        -59.9975         estimate D2E/DX2                !
 ! D114  D(35,38,39,44)         59.992          estimate D2E/DX2                !
 ! D115  D(40,38,39,42)        -60.0087         estimate D2E/DX2                !
 ! D116  D(40,38,39,43)         59.997          estimate D2E/DX2                !
 ! D117  D(40,38,39,44)        179.9866         estimate D2E/DX2                !
 ! D118  D(41,38,39,42)         59.9984         estimate D2E/DX2                !
 ! D119  D(41,38,39,43)       -179.9958         estimate D2E/DX2                !
 ! D120  D(41,38,39,44)        -60.0063         estimate D2E/DX2                !
 --------------------------------------------------------------------------------
 Trust Radius=3.00D-01 FncErr=1.00D-07 GrdErr=1.00D-06
 Number of steps in this run=    260 maximum allowed number of steps=    264.
 GradGradGradGradGradGradGradGradGradGradGradGradGradGradGradGradGradGrad

                          Input orientation:                          
 ---------------------------------------------------------------------
 Center     Atomic      Atomic             Coordinates (Angstroms)
 Number     Number       Type             X           Y           Z
 ---------------------------------------------------------------------
      1          6           0       -0.275615    2.000428    0.037047
      2          6           0        0.104187    3.009861    1.136318
      3          1           0        0.153865    3.992717    0.716287
      4          1           0       -0.634724    2.989534    1.909945
      5          1           0        1.057308    2.748690    1.546502
      6          6           0       -1.648271    2.391065   -0.541588
      7          1           0       -1.593244    3.375767   -0.956597
      8          1           0       -1.923397    1.696162   -1.307301
      9          1           0       -2.381901    2.372681    0.237096
     10          6           0        0.802682    1.989838   -1.017451
     11          1           0        0.530251    1.371556   -1.847155
     12          1           0        0.975411    2.985788   -1.368375
     13          6           0       -0.281189    0.612006    0.623212
     14          1           0       -0.911226    0.585175    1.487639
     15          1           0       -0.631537   -0.111449   -0.083024
     16          8           0        1.088617    0.338867    0.951120
     17          8           0        1.966900    1.441371   -0.374937
     18          6           0        1.804541   -0.003003   -0.270598
     19          1           0        1.663979    0.065179   -1.329132
     20          6           0        0.711558   -1.087511   -0.241793
     21          6           0        1.219669   -2.347773   -0.966474
     22          1           0       -0.165931   -0.722691   -0.733545
     23          1           0        0.476598   -1.330215    0.773484
     24          6           0        0.126685   -3.432281   -0.937670
     25          1           0        1.454628   -2.105068   -1.981752
     26          1           0        2.097158   -2.712592   -0.474722
     27          1           0       -0.108275   -3.674985    0.077608
     28          1           0       -0.750804   -3.067461   -1.429422
     29          6           0        0.634796   -4.692543   -1.662351
     30          1           0        1.512285   -5.057362   -1.170599
     31          1           0        0.869756   -4.449838   -2.677628
     32          6           0       -0.458187   -5.777051   -1.633546
     33          1           0       -1.335676   -5.412231   -2.125298
     34          1           0       -0.693147   -6.019755   -0.618268
     35          6           0        0.049924   -7.037313   -2.358227
     36          1           0        0.927412   -7.402132   -1.866475
     37          1           0        0.284883   -6.794609   -3.373504
     38          6           0       -1.043060   -8.121821   -2.329422
     39          6           0       -0.557218   -9.382268   -2.982094
     40          1           0       -1.942987   -7.724149   -2.858577
     41          1           0       -1.319866   -8.309806   -1.263569
     42          1           0       -1.349715  -10.169219   -2.961360
     43          1           0       -0.280435   -9.193865   -4.047915
     44          1           0        0.342861   -9.779568   -2.452864
 ---------------------------------------------------------------------
                    Distance matrix (angstroms):
                    1          2          3          4          5
     1  C    0.000000
     2  C    1.540000   0.000000
     3  H    2.148263   1.070000   0.000000
     4  H    2.148263   1.070000   1.747303   0.000000
     5  H    2.148263   1.070000   1.747303   1.747303   0.000000
     6  C    1.540000   2.503874   2.719418   2.719458   3.436302
     7  H    2.148263   2.719459   2.496309   3.047130   3.699210
     8  H    2.148263   3.436302   3.699201   3.699210   4.258709
     9  H    2.148263   2.719417   3.047007   2.496309   3.699200
    10  C    1.508245   2.483358   2.727331   3.411037   2.685991
    11  H    2.143623   3.430261   3.685565   4.253330   3.700162
    12  H    2.123961   2.651999   2.456554   3.652386   2.925650
    13  C    1.507095   2.482236   3.409859   2.726409   2.685043
    14  H    2.123949   2.652091   3.652498   2.456773   2.925643
    15  H    2.145022   3.430839   4.254401   3.686194   3.699722
    16  O    2.336117   2.852649   3.778826   3.303828   2.482480
    17  O    2.347584   2.865964   3.314699   3.792880   2.495670
    18  C    2.904381   3.734697   4.434461   4.433966   3.381128
    19  H    3.061644   4.145184   4.678647   4.932292   3.979768
    20  C    3.253864   4.365380   5.199774   4.802577   4.246644
    21  C    4.706355   5.862617   6.646009   6.340300   5.684659
    22  H    2.832176   4.183455   4.943618   4.581312   4.329598
    23  H    3.493043   4.371109   5.333013   4.602913   4.191927
    24  C    5.534098   6.767800   7.607030   7.066000   6.726186
    25  H    4.891257   6.140729   6.793702   6.742823   6.013769
    26  H    5.301370   6.270076   7.082094   6.757518   5.915424
    27  H    5.678025   6.771497   7.698719   6.931841   6.691774
    28  H    5.297154   6.651907   7.434286   6.917516   6.778865
    29  C    6.965103   8.212254   9.017924   8.566637   8.114629
    30  H    7.380204   8.507919   9.343959   8.879861   8.277929
    31  H    7.091352   8.413049   9.127316   8.868683   8.348489
    32  C    7.956972   9.230289  10.067010   9.457299   9.224841
    33  H    7.794036   9.145654   9.937122   9.346880   9.263322
    34  H    8.057736   9.232999  10.136472   9.357487   9.199781
    35  C    9.355431  10.637692  11.450982  10.918960  10.584309
    36  H    9.668445  10.867570  11.709467  11.166393  10.710018
    37  H    9.449799  10.793460  11.537329  11.157507  10.764649
    38  C   10.423487  11.715027  12.548745  11.899629  11.730403
    39  C   11.779656  13.075306  13.895103  13.304117  13.048947
    40  H   10.282615  11.634821  12.428249  11.799718  11.751036
    41  H   10.444280  11.658569  12.547660  11.756517  11.654947
    42  H   12.579525  13.877786  14.708714  14.049683  13.891975
    43  H   11.916339  13.264808  14.027551  13.566754  13.255628
    44  H   12.056139  13.285657  14.133473  13.529218  13.170521
                    6          7          8          9         10
     6  C    0.000000
     7  H    1.070000   0.000000
     8  H    1.070000   1.747303   0.000000
     9  H    1.070000   1.747303   1.747303   0.000000
    10  C    2.528755   2.768567   2.757129   3.444130   0.000000
    11  H    2.736761   3.052734   2.533219   3.718466   1.070000
    12  H    2.814424   2.630520   3.173319   3.771602   1.070000
    13  C    2.527988   3.443205   2.756650   2.768042   2.401035
    14  H    2.814646   3.771849   3.173400   2.630954   3.344553
    15  H    2.739818   3.721382   2.536772   3.055676   2.710266
    16  O    3.732325   4.478228   4.001867   4.085429   2.585099
    17  O    3.741544   4.093268   4.008570   4.489320   1.438418
    18  C    4.210334   4.840623   4.226043   4.840241   2.352217
    19  H    4.123224   4.659215   3.940793   4.913938   2.131500
    20  C    4.214161   5.073845   3.978332   4.666021   3.174905
    21  C    5.555375   6.377420   5.133073   6.058265   4.357906
    22  H    3.453933   4.345611   3.044459   3.928613   2.894240
    23  H    4.482455   5.424362   4.387323   4.708521   3.786361
    24  C    6.100713   7.021968   5.535376   6.432003   5.464678
    25  H    5.649537   6.354528   5.129843   6.300198   4.257131
    26  H    6.330879   7.135782   6.024546   6.813858   4.907450
    27  H    6.289035   7.279274   5.836254   6.462901   5.841166
    28  H    5.602607   6.515249   4.907341   5.918861   5.306535
    29  C    7.526354   8.399993   6.891006   7.913644   6.715526
    30  H    8.115654   8.989315   7.578436   8.505989   7.084492
    31  H    7.596123   8.382626   6.888601   8.100350   6.650573
    32  C    8.326271   9.247740   7.622479   8.580100   7.892650
    33  H    7.968518   8.869111   7.179401   8.202461   7.783992
    34  H    8.465225   9.444601   7.843702   8.603286   8.157845
    35  C    9.750813  10.634698   9.015100  10.059695   9.157171
    36  H   10.212551  11.106066   9.550851  10.532025   9.431092
    37  H    9.804766  10.620986   9.013262  10.207222   9.109643
    38  C   10.680983  11.592320   9.910223  10.886418  10.362127
    39  C   12.073021  12.959300  11.287294  12.323615  11.620410
    40  H   10.381370  11.267120   9.547204  10.569854  10.261091
    41  H   10.730226  11.692801  10.024249  10.839532  10.518956
    42  H   12.794732  13.694708  11.993844  12.984406  12.500170
    43  H   12.180965  13.010587  11.349140  12.512493  11.637528
    44  H   12.479659  13.380963  11.753324  12.741169  11.865528
                   11         12         13         14         15
    11  H    0.000000
    12  H    1.741592   0.000000
    13  C    2.708886   3.343696   0.000000
    14  H    3.717136   4.180808   1.070000   0.000000
    15  H    2.580933   3.718506   1.070000   1.740831   0.000000
    16  O    3.034562   3.521230   1.434746   2.085160   2.056980
    17  O    2.058219   2.086910   2.595776   3.533535   3.041108
    18  C    2.449237   3.290204   2.351043   3.288273   2.445694
    19  H    1.805633   3.000938   2.809688   3.851788   2.617895
    20  C    2.942290   4.234450   2.149916   2.902110   1.667875
    21  C    3.883852   5.354256   3.679670   4.377850   3.034566
    22  H    2.471977   3.931729   1.906697   2.683214   1.006769
    23  H    3.764332   4.843992   2.090226   2.470788   1.856599
    24  C    4.905800   6.488255   4.354190   4.806177   3.511872
    25  H    3.599932   5.150020   4.145045   4.987118   3.454240
    26  H    4.584652   5.876093   4.232605   4.876116   3.790138
    27  H    5.438750   6.901532   4.325029   4.558715   3.605329
    28  H    4.639017   6.294869   4.239378   4.677257   3.250388
    29  C    6.067815   7.691502   5.848168   6.337738   5.008423
    30  H    6.538586   8.063474   6.210962   6.691626   5.499168
    31  H    5.890126   7.550752   6.151625   6.772939   5.273280
    32  C    7.219780   8.883292   6.778225   7.101053   5.876497
    33  H    7.041223   8.743042   6.705050   7.014439   5.724072
    34  H    7.591992   9.189481   6.759530   6.935958   5.932821
    35  C    8.438068  10.114292   8.216490   8.591672   7.321785
    36  H    8.782694  10.399967   8.478542   8.855945   7.665839
    37  H    8.311209  10.007674   8.435172   8.917545   7.505446
    38  C    9.634941  11.330349   9.250851   9.507845   8.329569
    39  C   10.868091  12.566696  10.628262  10.929490   9.713816
    40  H    9.480070  11.200022   9.185636   9.433928   8.208337
    41  H    9.873818  11.526913   9.178100   9.319701   8.311471
    42  H   11.745860  13.453551  11.411649  11.646582  10.486150
    43  H   10.822600  12.533995  10.861609  11.254771   9.916346
    44  H   11.169135  12.826947  10.855252  11.159221  10.001906
                   16         17         18         19         20
    16  O    0.000000
    17  O    1.935283   0.000000
    18  C    1.456715   1.457211   0.000000
    19  H    2.367593   1.701809   1.070000   0.000000
    20  C    1.897306   2.826456   1.540000   1.848812   0.000000
    21  C    3.303389   3.907158   2.514809   2.480175   1.540000
    22  H    2.353486   3.059532   2.148263   2.079431   1.070000
    23  H    1.786605   3.349860   2.148263   2.788905   1.070000
    24  C    4.326014   5.239804   3.875582   3.840409   2.514809
    25  H    3.835169   3.927023   2.732978   2.275898   2.148263
    26  H    3.515905   4.157203   2.732978   2.938311   2.148263
    27  H    4.278620   5.539697   4.154945   4.371341   2.732978
    28  H    4.544615   5.369117   4.154945   3.956598   2.732978
    29  C    5.687818   6.407561   5.029619   4.879156   3.875582
    30  H    5.813818   6.563024   5.142175   5.127238   4.154945
    31  H    6.012272   6.419693   5.142175   4.778558   4.154945
    32  C    6.817445   7.718210   6.349583   6.223175   5.029619
    33  H    6.958210   7.806577   6.523851   6.295541   5.142175
    34  H    6.787470   7.924864   6.523851   6.564129   5.142175
    35  C    8.150994   8.916071   7.544428   7.355923   6.349583
    36  H    8.239412   9.028443   7.619928   7.522766   6.523851
    37  H    8.380623   8.924794   7.619928   7.289585   6.523851
    38  C    9.321441  10.214427   8.846626   8.680761   7.544428
    39  C   10.615056  11.415761  10.044936   9.844808   8.827346
    40  H    9.418951  10.269491   8.964246   8.719119   7.611776
    41  H    9.246902  10.328502   8.930335   8.890894   7.571807
    42  H   11.474879  12.348900  10.979139  10.793027   9.701666
    43  H   10.850698  11.473863  10.153187   9.843903   9.010194
    44  H   10.701682  11.526698  10.123242   9.996358   8.976449
                   21         22         23         24         25
    21  C    0.000000
    22  H    2.148263   0.000000
    23  H    2.148263   1.747303   0.000000
    24  C    1.540000   2.732978   2.732978   0.000000
    25  H    1.070000   2.468846   3.024610   2.148263   0.000000
    26  H    1.070000   3.024610   2.468846   2.148263   1.747303
    27  H    2.148263   3.062243   2.514809   1.070000   3.024610
    28  H    2.148263   2.514809   3.062243   1.070000   2.468846
    29  C    2.514809   4.154945   4.154945   1.540000   2.732978
    30  H    2.732978   4.668704   4.329403   2.148263   3.062243
    31  H    2.732978   4.329403   4.668704   2.148263   2.514809
    32  C    3.875582   5.142175   5.142175   2.514809   4.154945
    33  H    4.154945   5.029619   5.324484   2.732978   4.329403
    34  H    4.154945   5.324484   5.029619   2.732978   4.668704
    35  C    5.029619   6.523851   6.523851   3.875582   5.142175
    36  H    5.142175   6.862497   6.636324   4.154945   5.324484
    37  H    5.142175   6.636324   6.862497   4.154945   5.029619
    38  C    6.349583   7.619928   7.619928   5.029619   6.523851
    39  C    7.530217   8.955297   8.944758   6.328487   7.616157
    40  H    6.518271   7.529548   7.741360   5.137466   6.624702
    41  H    6.487167   7.692646   7.489430   5.097938   6.834645
    42  H    8.470911   9.777597   9.767931   7.187588   8.593864
    43  H    7.656015   9.097194   9.255051   6.560124   7.584887
    44  H    7.629530   9.232657   9.045373   6.529212   7.768907
                   26         27         28         29         30
    26  H    0.000000
    27  H    2.468846   0.000000
    28  H    3.024610   1.747303   0.000000
    29  C    2.732978   2.148263   2.148263   0.000000
    30  H    2.514809   2.468846   3.024610   1.070000   0.000000
    31  H    3.062243   3.024610   2.468846   1.070000   1.747303
    32  C    4.154945   2.732978   2.732978   1.540000   2.148263
    33  H    4.668704   3.062243   2.514809   2.148263   3.024610
    34  H    4.329403   2.514809   3.062243   2.148263   2.468846
    35  C    5.142175   4.154945   4.154945   2.514809   2.732978
    36  H    5.029619   4.329403   4.668704   2.732978   2.514809
    37  H    5.324484   4.668704   4.329403   2.732978   3.062243
    38  C    6.523851   5.142175   5.142175   3.875582   4.154945
    39  C    7.603762   6.491256   6.505771   5.015590   5.125345
    40  H    6.864490   5.327577   5.014831   4.155305   4.679735
    41  H    6.605084   4.974764   5.275748   4.130898   4.313712
    42  H    8.582866   7.276783   7.289753   5.968224   6.126088
    43  H    7.773516   6.892577   6.679115   5.175951   5.348219
    44  H    7.545379   6.623650   6.877203   5.156352   5.031002
                   31         32         33         34         35
    31  H    0.000000
    32  C    2.148263   0.000000
    33  H    2.468846   1.070000   0.000000
    34  H    3.024610   1.070000   1.747303   0.000000
    35  C    2.732978   1.540000   2.148263   2.148263   0.000000
    36  H    3.062243   2.148263   3.024610   2.468846   1.070000
    37  H    2.514809   2.148263   2.468846   3.024610   1.070000
    38  C    4.154945   2.514809   2.732978   2.732978   1.540000
    39  C    5.143716   3.850452   4.135370   4.112498   2.501328
    40  H    4.320344   2.737977   2.500297   3.079941   2.166514
    41  H    4.657613   2.700781   3.023039   2.460391   2.166526
    42  H    6.141488   4.674297   4.829920   4.810323   3.483044
    43  H    5.070149   4.187528   4.371584   4.691245   2.759510
    44  H    5.360425   4.163305   4.690247   4.309901   2.759480
                   36         37         38         39         40
    36  H    0.000000
    37  H    1.747303   0.000000
    38  C    2.148263   2.148263   0.000000
    39  C    2.714713   2.749239   1.500250   0.000000
    40  H    3.054039   2.468319   1.117146   2.164479   0.000000
    41  H    2.497524   3.053337   1.117140   2.164517   1.809785
    42  H    3.747113   3.772237   2.164537   1.117038   2.518115
    43  H    3.070485   2.555552   2.164276   1.117174   2.517671
    44  H    2.517489   3.124248   2.164288   1.117173   3.100718
                   41         42         43         44
    41  H    0.000000
    42  H    2.518095   0.000000
    43  H    3.100735   1.809772   0.000000
    44  H    2.517794   1.809755   1.809899   0.000000
 Stoichiometry    C14H28O2
 Framework group  C1[X(C14H28O2)]
 Deg. of freedom   126
 Full point group                 C1      NOp   1
 Largest Abelian subgroup         C1      NOp   1
 Largest concise Abelian subgroup C1      NOp   1
                         Standard orientation:                         
 ---------------------------------------------------------------------
 Center     Atomic      Atomic             Coordinates (Angstroms)
 Number     Number       Type             X           Y           Z
 ---------------------------------------------------------------------
      1          6           0       -3.990902    0.769229    0.117632
      2          6           0       -5.267987    0.415267   -0.666820
      3          1           0       -6.113996    0.468895   -0.013909
      4          1           0       -5.394951    1.107597   -1.472710
      5          1           0       -5.182339   -0.576627   -1.058881
      6          6           0       -4.131308    2.198267    0.674172
      7          1           0       -4.980721    2.246455    1.323076
      8          1           0       -3.248986    2.456018    1.221868
      9          1           0       -4.261774    2.885231   -0.135741
     10          6           0       -3.785565   -0.248375    1.211762
     11          1           0       -2.961228    0.016400    1.840461
     12          1           0       -4.669786   -0.319828    1.810051
     13          6           0       -2.798243    0.629562   -0.793080
     14          1           0       -2.949041    1.208154   -1.680431
     15          1           0       -1.898412    0.956653   -0.315360
     16          8           0       -2.707763   -0.773597   -1.078482
     17          8           0       -3.495174   -1.486337    0.539327
     18          6           0       -2.116492   -1.448799    0.068914
     19          1           0       -1.905746   -1.246723    1.098308
     20          6           0       -1.004719   -0.451553   -0.306668
     21          6           0        0.361323   -1.021838    0.117956
     22          1           0       -1.174817    0.477934    0.195348
     23          1           0       -1.011287   -0.291912   -1.364671
     24          6           0        1.473096   -0.024593   -0.257626
     25          1           0        0.367891   -1.181480    1.175959
     26          1           0        0.531422   -1.951325   -0.384061
     27          1           0        1.466528    0.135049   -1.315630
     28          1           0        1.302997    0.904894    0.244390
     29          6           0        2.839138   -0.594878    0.166997
     30          1           0        3.009237   -1.524365   -0.335019
     31          1           0        2.845706   -0.754519    1.225001
     32          6           0        3.950911    0.402367   -0.208585
     33          1           0        3.780812    1.331854    0.293432
     34          1           0        3.944343    0.562009   -1.266588
     35          6           0        5.316953   -0.167918    0.216039
     36          1           0        5.487052   -1.097405   -0.285978
     37          1           0        5.323521   -0.327559    1.274042
     38          6           0        6.428726    0.829328   -0.159543
     39          6           0        7.778233    0.277339    0.193855
     40          1           0        6.237838    1.785839    0.385126
     41          1           0        6.359326    1.032398   -1.255877
     42          1           0        8.584971    1.000378   -0.078473
     43          1           0        7.847223    0.074324    1.290259
     44          1           0        7.968732   -0.679297   -0.350784
 ---------------------------------------------------------------------
 Rotational constants (GHZ):      1.6203182      0.1286591      0.1247874
 Standard basis: 6-311+G(d,p) (5D, 7F)
 There are   536 symmetry adapted cartesian basis functions of A   symmetry.
 There are   520 symmetry adapted basis functions of A   symmetry.
   520 basis functions,   800 primitive gaussians,   536 cartesian basis functions
    64 alpha electrons       64 beta electrons
       nuclear repulsion energy      1167.4360413988 Hartrees.
 NAtoms=   44 NActive=   44 NUniq=   44 SFac= 1.00D+00 NAtFMM=   60 NAOKFM=F Big=F
 Integral buffers will be    131072 words long.
 Raffenetti 2 integral format.
 Two-electron integral symmetry is turned on.
 One-electron integrals computed using PRISM.
 NBasis=   520 RedAO= T EigKep=  1.60D-06  NBF=   520
 NBsUse=   520 1.00D-06 EigRej= -1.00D+00 NBFU=   520
 ExpMin= 4.38D-02 ExpMax= 8.59D+03 ExpMxC= 1.30D+03 IAcc=2 IRadAn=         4 AccDes= 0.00D+00
 Harris functional with IExCor=  402 and IRadAn=       4 diagonalized for initial guess.
 HarFok:  IExCor=  402 AccDes= 0.00D+00 IRadAn=         4 IDoV= 1 UseB2=F ITyADJ=14
 ICtDFT=  3500011 ScaDFX=  1.000000  1.000000  1.000000  1.000000
 FoFCou: FMM=F IPFlag=           0 FMFlag=      100000 FMFlg1=           0
         NFxFlg=           0 DoJE=T BraDBF=F KetDBF=T FulRan=T
         wScrn=  0.000000 ICntrl=     500 IOpCl=  0 I1Cent=   200000004 NGrid=           0
         NMat0=    1 NMatS0=      1 NMatT0=    0 NMatD0=    1 NMtDS0=    0 NMtDT0=    0
 Petite list used in FoFCou.
 Requested convergence on RMS density matrix=1.00D-08 within 128 cycles.
 Requested convergence on MAX density matrix=1.00D-06.
 Requested convergence on             energy=1.00D-06.
 No special actions if energy rises.
 SCF Done:  E(RB3LYP) =  -700.504715339     A.U. after   18 cycles
            NFock= 18  Conv=0.59D-08     -V/T= 2.0014

 **********************************************************************

            Population analysis using the SCF density.

 **********************************************************************

 Orbital symmetries:
       Occupied  (A) (A) (A) (A) (A) (A) (A) (A) (A) (A) (A) (A)
                 (A) (A) (A) (A) (A) (A) (A) (A) (A) (A) (A) (A)
                 (A) (A) (A) (A) (A) (A) (A) (A) (A) (A) (A) (A)
                 (A) (A) (A) (A) (A) (A) (A) (A) (A) (A) (A) (A)
                 (A) (A) (A) (A) (A) (A) (A) (A) (A) (A) (A) (A)
                 (A) (A) (A) (A)
       Virtual   (A) (A) (A) (A) (A) (A) (A) (A) (A) (A) (A) (A)
                 (A) (A) (A) (A) (A) (A) (A) (A) (A) (A) (A) (A)
                 (A) (A) (A) (A) (A) (A) (A) (A) (A) (A) (A) (A)
                 (A) (A) (A) (A) (A) (A) (A) (A) (A) (A) (A) (A)
                 (A) (A) (A) (A) (A) (A) (A) (A) (A) (A) (A) (A)
                 (A) (A) (A) (A) (A) (A) (A) (A) (A) (A) (A) (A)
                 (A) (A) (A) (A) (A) (A) (A) (A) (A) (A) (A) (A)
                 (A) (A) (A) (A) (A) (A) (A) (A) (A) (A) (A) (A)
                 (A) (A) (A) (A) (A) (A) (A) (A) (A) (A) (A) (A)
                 (A) (A) (A) (A) (A) (A) (A) (A) (A) (A) (A) (A)
                 (A) (A) (A) (A) (A) (A) (A) (A) (A) (A) (A) (A)
                 (A) (A) (A) (A) (A) (A) (A) (A) (A) (A) (A) (A)
                 (A) (A) (A) (A) (A) (A) (A) (A) (A) (A) (A) (A)
                 (A) (A) (A) (A) (A) (A) (A) (A) (A) (A) (A) (A)
                 (A) (A) (A) (A) (A) (A) (A) (A) (A) (A) (A) (A)
                 (A) (A) (A) (A) (A) (A) (A) (A) (A) (A) (A) (A)
                 (A) (A) (A) (A) (A) (A) (A) (A) (A) (A) (A) (A)
                 (A) (A) (A) (A) (A) (A) (A) (A) (A) (A) (A) (A)
                 (A) (A) (A) (A) (A) (A) (A) (A) (A) (A) (A) (A)
                 (A) (A) (A) (A) (A) (A) (A) (A) (A) (A) (A) (A)
                 (A) (A) (A) (A) (A) (A) (A) (A) (A) (A) (A) (A)
                 (A) (A) (A) (A) (A) (A) (A) (A) (A) (A) (A) (A)
                 (A) (A) (A) (A) (A) (A) (A) (A) (A) (A) (A) (A)
                 (A) (A) (A) (A) (A) (A) (A) (A) (A) (A) (A) (A)
                 (A) (A) (A) (A) (A) (A) (A) (A) (A) (A) (A) (A)
                 (A) (A) (A) (A) (A) (A) (A) (A) (A) (A) (A) (A)
                 (A) (A) (A) (A) (A) (A) (A) (A) (A) (A) (A) (A)
                 (A) (A) (A) (A) (A) (A) (A) (A) (A) (A) (A) (A)
                 (A) (A) (A) (A) (A) (A) (A) (A) (A) (A) (A) (A)
                 (A) (A) (A) (A) (A) (A) (A) (A) (A) (A) (A) (A)
                 (A) (A) (A) (A) (A) (A) (A) (A) (A) (A) (A) (A)
                 (A) (A) (A) (A) (A) (A) (A) (A) (A) (A) (A) (A)
                 (A) (A) (A) (A) (A) (A) (A) (A) (A) (A) (A) (A)
                 (A) (A) (A) (A) (A) (A) (A) (A) (A) (A) (A) (A)
                 (A) (A) (A) (A) (A) (A) (A) (A) (A) (A) (A) (A)
                 (A) (A) (A) (A) (A) (A) (A) (A) (A) (A) (A) (A)
                 (A) (A) (A) (A) (A) (A) (A) (A) (A) (A) (A) (A)
                 (A) (A) (A) (A) (A) (A) (A) (A) (A) (A) (A) (A)
 The electronic state is 1-A.
 Alpha  occ. eigenvalues --  -19.14366 -19.13315 -10.22144 -10.21725 -10.21553
 Alpha  occ. eigenvalues --  -10.20233 -10.18327 -10.16676 -10.16642 -10.16272
 Alpha  occ. eigenvalues --  -10.16249 -10.15975 -10.15777 -10.15701 -10.15691
 Alpha  occ. eigenvalues --  -10.14731  -1.11529  -1.00405  -0.84248  -0.82808
 Alpha  occ. eigenvalues --   -0.80921  -0.77671  -0.73145  -0.72556  -0.69914
 Alpha  occ. eigenvalues --   -0.68936  -0.66994  -0.62922  -0.61428  -0.59104
 Alpha  occ. eigenvalues --   -0.57892  -0.56557  -0.53406  -0.51565  -0.49844
 Alpha  occ. eigenvalues --   -0.49201  -0.48080  -0.47517  -0.45827  -0.45260
 Alpha  occ. eigenvalues --   -0.43500  -0.42913  -0.42184  -0.41819  -0.41363
 Alpha  occ. eigenvalues --   -0.40301  -0.39980  -0.38443  -0.37936  -0.37560
 Alpha  occ. eigenvalues --   -0.36977  -0.35707  -0.35500  -0.34465  -0.34287
 Alpha  occ. eigenvalues --   -0.34186  -0.33690  -0.33392  -0.33164  -0.31058
 Alpha  occ. eigenvalues --   -0.28877  -0.27847  -0.22333  -0.17786
 Alpha virt. eigenvalues --   -0.11575  -0.01200   0.00589   0.01067   0.01219
 Alpha virt. eigenvalues --    0.01847   0.02272   0.02593   0.02827   0.03579
 Alpha virt. eigenvalues --    0.03897   0.04315   0.04769   0.05102   0.05221
 Alpha virt. eigenvalues --    0.05769   0.05996   0.06258   0.06597   0.06788
 Alpha virt. eigenvalues --    0.07188   0.08093   0.08369   0.08709   0.09150
 Alpha virt. eigenvalues --    0.09181   0.09665   0.09786   0.10253   0.10558
 Alpha virt. eigenvalues --    0.10858   0.11325   0.12231   0.12347   0.12677
 Alpha virt. eigenvalues --    0.13165   0.13794   0.13994   0.14304   0.15252
 Alpha virt. eigenvalues --    0.15411   0.15790   0.16381   0.16560   0.16758
 Alpha virt. eigenvalues --    0.16966   0.17691   0.18221   0.18408   0.18793
 Alpha virt. eigenvalues --    0.18931   0.19297   0.19575   0.19903   0.19940
 Alpha virt. eigenvalues --    0.20394   0.20760   0.20787   0.20972   0.21260
 Alpha virt. eigenvalues --    0.21743   0.22175   0.22277   0.22459   0.22748
 Alpha virt. eigenvalues --    0.23083   0.23448   0.23769   0.23927   0.24456
 Alpha virt. eigenvalues --    0.24595   0.25024   0.25234   0.25595   0.26053
 Alpha virt. eigenvalues --    0.26193   0.26463   0.26673   0.27209   0.27358
 Alpha virt. eigenvalues --    0.28165   0.28522   0.28911   0.29463   0.29778
 Alpha virt. eigenvalues --    0.30109   0.30510   0.30777   0.31276   0.31934
 Alpha virt. eigenvalues --    0.32812   0.33099   0.33584   0.34197   0.34811
 Alpha virt. eigenvalues --    0.35370   0.35447   0.36354   0.36655   0.37440
 Alpha virt. eigenvalues --    0.38741   0.38879   0.39464   0.39867   0.40526
 Alpha virt. eigenvalues --    0.41088   0.41471   0.41900   0.42531   0.43280
 Alpha virt. eigenvalues --    0.44447   0.44911   0.45260   0.46781   0.47139
 Alpha virt. eigenvalues --    0.48429   0.49818   0.50344   0.50774   0.52571
 Alpha virt. eigenvalues --    0.53291   0.53860   0.54393   0.54812   0.55428
 Alpha virt. eigenvalues --    0.56272   0.57912   0.58568   0.58925   0.59801
 Alpha virt. eigenvalues --    0.60206   0.60886   0.61403   0.62112   0.62544
 Alpha virt. eigenvalues --    0.62996   0.63849   0.64120   0.64705   0.65352
 Alpha virt. eigenvalues --    0.65419   0.65732   0.66487   0.66609   0.67162
 Alpha virt. eigenvalues --    0.67386   0.67779   0.68010   0.68412   0.68700
 Alpha virt. eigenvalues --    0.68910   0.69384   0.69857   0.70734   0.70871
 Alpha virt. eigenvalues --    0.71666   0.71735   0.72173   0.72460   0.73840
 Alpha virt. eigenvalues --    0.75326   0.75851   0.76325   0.76528   0.77087
 Alpha virt. eigenvalues --    0.77529   0.78294   0.78546   0.78986   0.79470
 Alpha virt. eigenvalues --    0.80055   0.81074   0.81343   0.81489   0.82734
 Alpha virt. eigenvalues --    0.83213   0.84975   0.87217   0.90166   0.92840
 Alpha virt. eigenvalues --    0.94929   0.96695   0.98098   0.99799   1.00158
 Alpha virt. eigenvalues --    1.00694   1.01647   1.02895   1.03456   1.04358
 Alpha virt. eigenvalues --    1.05606   1.07140   1.07901   1.09520   1.12371
 Alpha virt. eigenvalues --    1.14514   1.16589   1.17599   1.19029   1.20700
 Alpha virt. eigenvalues --    1.21118   1.23464   1.24366   1.24973   1.25973
 Alpha virt. eigenvalues --    1.26448   1.27175   1.28350   1.29017   1.30403
 Alpha virt. eigenvalues --    1.32374   1.34247   1.35639   1.37873   1.39277
 Alpha virt. eigenvalues --    1.41275   1.43706   1.44200   1.45262   1.45662
 Alpha virt. eigenvalues --    1.46880   1.47675   1.48574   1.49271   1.49943
 Alpha virt. eigenvalues --    1.50983   1.51536   1.52126   1.52629   1.53307
 Alpha virt. eigenvalues --    1.53910   1.54695   1.55654   1.56340   1.56634
 Alpha virt. eigenvalues --    1.57292   1.57759   1.58123   1.58885   1.60081
 Alpha virt. eigenvalues --    1.60726   1.61534   1.62023   1.62868   1.63833
 Alpha virt. eigenvalues --    1.64863   1.65372   1.65998   1.66618   1.66739
 Alpha virt. eigenvalues --    1.67402   1.68196   1.69368   1.69872   1.70349
 Alpha virt. eigenvalues --    1.71442   1.72275   1.73314   1.73998   1.74515
 Alpha virt. eigenvalues --    1.74697   1.74974   1.75195   1.75691   1.76600
 Alpha virt. eigenvalues --    1.77828   1.78295   1.78660   1.79493   1.81706
 Alpha virt. eigenvalues --    1.81979   1.83184   1.83963   1.86029   1.87159
 Alpha virt. eigenvalues --    1.87854   1.89205   1.90025   1.93098   1.93740
 Alpha virt. eigenvalues --    1.95184   1.95505   1.96704   1.98478   2.00623
 Alpha virt. eigenvalues --    2.01301   2.02827   2.04058   2.04547   2.06601
 Alpha virt. eigenvalues --    2.07458   2.08446   2.09119   2.11248   2.12648
 Alpha virt. eigenvalues --    2.13410   2.14738   2.15793   2.16418   2.16761
 Alpha virt. eigenvalues --    2.17701   2.19495   2.19912   2.21164   2.22423
 Alpha virt. eigenvalues --    2.24081   2.25048   2.25550   2.27918   2.29158
 Alpha virt. eigenvalues --    2.31762   2.32531   2.33230   2.34526   2.36062
 Alpha virt. eigenvalues --    2.37982   2.38145   2.38719   2.40390   2.41151
 Alpha virt. eigenvalues --    2.42412   2.43428   2.44962   2.45345   2.48210
 Alpha virt. eigenvalues --    2.49096   2.50748   2.51490   2.51791   2.52296
 Alpha virt. eigenvalues --    2.53884   2.54189   2.54549   2.54922   2.55298
 Alpha virt. eigenvalues --    2.56682   2.57570   2.57762   2.58438   2.59390
 Alpha virt. eigenvalues --    2.59767   2.60326   2.60811   2.61614   2.62048
 Alpha virt. eigenvalues --    2.63616   2.64459   2.64942   2.65685   2.66495
 Alpha virt. eigenvalues --    2.66897   2.68730   2.69312   2.69625   2.70934
 Alpha virt. eigenvalues --    2.71074   2.71576   2.72165   2.73988   2.74279
 Alpha virt. eigenvalues --    2.75322   2.76479   2.77002   2.78732   2.81416
 Alpha virt. eigenvalues --    2.82753   2.83010   2.83886   2.85534   2.86860
 Alpha virt. eigenvalues --    2.87991   2.89510   2.91247   2.92150   2.92474
 Alpha virt. eigenvalues --    2.92988   2.93831   2.96995   2.97654   2.99419
 Alpha virt. eigenvalues --    3.00640   3.01345   3.04534   3.06665   3.07178
 Alpha virt. eigenvalues --    3.09069   3.11588   3.12471   3.14553   3.16571
 Alpha virt. eigenvalues --    3.19290   3.23483   3.24938   3.26693   3.30002
 Alpha virt. eigenvalues --    3.32318   3.34037   3.34443   3.38722   3.42532
 Alpha virt. eigenvalues --    3.44755   3.45212   3.50918   3.69762   3.76371
 Alpha virt. eigenvalues --    3.77310   3.79278   3.79377   3.83859   3.84134
 Alpha virt. eigenvalues --    3.86310   3.86465   3.86765   3.88714   3.90785
 Alpha virt. eigenvalues --    3.91202   3.91920   3.93372   3.94150   3.97691
 Alpha virt. eigenvalues --    4.07659   4.07906   4.09502   4.13193   4.15864
 Alpha virt. eigenvalues --    4.17497   4.19882   4.26133   4.30347   4.30522
 Alpha virt. eigenvalues --    4.32613   4.34641   4.35946   4.40926   5.11085
 Alpha virt. eigenvalues --    5.31087   5.44301   5.46636   5.59548   5.70133
 Alpha virt. eigenvalues --   23.83587  23.87117  23.88259  23.91008  23.92067
 Alpha virt. eigenvalues --   23.92551  23.94297  23.96620  23.97101  23.97788
 Alpha virt. eigenvalues --   23.99944  24.02109  24.03839  24.06648  49.94204
 Alpha virt. eigenvalues --   50.07534
          Condensed to atoms (all electrons):
               1          2          3          4          5          6
     1  C    8.151169   0.394871  -0.037614  -0.006868  -0.050310   0.019853
     2  C    0.394871   6.201033   0.356773   0.357186   0.436955  -0.539513
     3  H   -0.037614   0.356773   0.544576  -0.026895  -0.023619   0.020672
     4  H   -0.006868   0.357186  -0.026895   0.544431  -0.025548   0.006356
     5  H   -0.050310   0.436955  -0.023619  -0.025548   0.493106  -0.001353
     6  C    0.019853  -0.539513   0.020672   0.006356  -0.001353   6.327949
     7  H   -0.055514  -0.024706   0.001447  -0.000380   0.000012   0.419833
     8  H    0.070676   0.029911  -0.000131  -0.000101  -0.000543   0.391221
     9  H   -0.035720  -0.027175  -0.000346   0.002786   0.000164   0.421660
    10  C   -1.647040  -0.429669  -0.024674   0.044130   0.016817  -0.507069
    11  H    0.094434   0.040445  -0.000123  -0.000618  -0.000441   0.041034
    12  H   -0.039089  -0.001089   0.001002  -0.000229  -0.001076   0.001430
    13  C   -2.053249  -0.567180   0.064503  -0.029888   0.014883  -0.480388
    14  H    0.020617  -0.006072   0.000171   0.003384  -0.000301  -0.015149
    15  H    0.071436   0.017686  -0.000865   0.000528   0.000321   0.016834
    16  O    0.153049  -0.071842   0.001261  -0.004000  -0.000844   0.070128
    17  O   -0.192792   0.023995  -0.007127   0.001517   0.002736  -0.032562
    18  C    0.532731   0.158339   0.005784  -0.003268   0.019203  -0.108744
    19  H   -0.008970  -0.018581  -0.000174   0.000064  -0.000689   0.026837
    20  C   -0.074665   0.130186  -0.009417   0.004781  -0.048110   0.011576
    21  C    0.475417  -0.191494   0.000177  -0.000428  -0.003382   0.226114
    22  H   -0.063357  -0.006390   0.000203  -0.000240   0.000520  -0.019754
    23  H    0.014316  -0.012901  -0.000014   0.000038  -0.000243   0.012470
    24  C    0.147610  -0.022187  -0.000604  -0.000243  -0.002261   0.136625
    25  H    0.001643   0.000018   0.000000   0.000000  -0.000003  -0.000349
    26  H   -0.004874   0.000123   0.000000   0.000000   0.000002  -0.000215
    27  H    0.001720  -0.000093   0.000000   0.000000   0.000000   0.000024
    28  H   -0.003580   0.000140   0.000000   0.000000   0.000000  -0.000189
    29  C    0.017250  -0.008755  -0.000011  -0.000006  -0.000005   0.021144
    30  H    0.000050   0.000007   0.000000   0.000000   0.000000   0.000000
    31  H    0.000063  -0.000001   0.000000   0.000000   0.000000   0.000007
    32  C    0.012803  -0.002030  -0.000003  -0.000004  -0.000019   0.013098
    33  H    0.000019   0.000002   0.000000   0.000000   0.000000  -0.000013
    34  H   -0.000017   0.000000   0.000000   0.000000   0.000000   0.000002
    35  C    0.001639  -0.000086   0.000000   0.000000   0.000000   0.000640
    36  H    0.000000   0.000000   0.000000   0.000000   0.000000   0.000000
    37  H   -0.000001   0.000000   0.000000   0.000000   0.000000   0.000000
    38  C    0.000029  -0.000008   0.000000   0.000000   0.000000   0.000088
    39  C    0.000009   0.000000   0.000000   0.000000   0.000000   0.000004
    40  H    0.000000   0.000000   0.000000   0.000000   0.000000   0.000000
    41  H    0.000000   0.000000   0.000000   0.000000   0.000000   0.000000
    42  H    0.000000   0.000000   0.000000   0.000000   0.000000   0.000000
    43  H    0.000000   0.000000   0.000000   0.000000   0.000000   0.000000
    44  H    0.000000   0.000000   0.000000   0.000000   0.000000   0.000000
               7          8          9         10         11         12
     1  C   -0.055514   0.070676  -0.035720  -1.647040   0.094434  -0.039089
     2  C   -0.024706   0.029911  -0.027175  -0.429669   0.040445  -0.001089
     3  H    0.001447  -0.000131  -0.000346  -0.024674  -0.000123   0.001002
     4  H   -0.000380  -0.000101   0.002786   0.044130  -0.000618  -0.000229
     5  H    0.000012  -0.000543   0.000164   0.016817  -0.000441  -0.001076
     6  C    0.419833   0.391221   0.421660  -0.507069   0.041034   0.001430
     7  H    0.531609  -0.027675  -0.025381  -0.007070  -0.000598   0.004449
     8  H   -0.027675   0.555201  -0.029317  -0.050421   0.003416  -0.000483
     9  H   -0.025381  -0.029317   0.527695   0.021796  -0.000009  -0.000689
    10  C   -0.007070  -0.050421   0.021796   7.831874   0.195203   0.379094
    11  H   -0.000598   0.003416  -0.000009   0.195203   0.587169  -0.022667
    12  H    0.004449  -0.000483  -0.000689   0.379094  -0.022667   0.533310
    13  C    0.034921  -0.073962  -0.002255   2.094264  -0.168964  -0.002966
    14  H   -0.000626  -0.000524   0.004369   0.015723  -0.000202  -0.000515
    15  H   -0.000666   0.005159  -0.001757  -0.048556   0.002929  -0.001676
    16  O   -0.000390  -0.002036   0.000705  -0.184527   0.009042  -0.004088
    17  O   -0.000399  -0.000501  -0.000837   0.422285  -0.052407  -0.054881
    18  C   -0.004200  -0.010886   0.008656  -0.207546  -0.044343  -0.012635
    19  H    0.000043  -0.000159   0.000089  -0.099946  -0.005686   0.001911
    20  C    0.011089   0.007512  -0.007540  -0.599726   0.117981   0.052561
    21  C    0.001102   0.002075   0.001181  -0.475118   0.036030  -0.003554
    22  H   -0.000123   0.000722  -0.000091   0.108010  -0.012059  -0.000800
    23  H    0.000013   0.000091   0.000004  -0.017225   0.000410   0.000079
    24  C    0.001095   0.004232  -0.002287  -0.357572   0.036813   0.005081
    25  H    0.000000   0.000008   0.000001   0.000316   0.000342   0.000012
    26  H    0.000000  -0.000001   0.000000   0.003668  -0.000187   0.000003
    27  H    0.000000   0.000000   0.000000   0.000266   0.000003  -0.000001
    28  H    0.000000  -0.000004   0.000001   0.001511  -0.000013   0.000000
    29  C    0.000006   0.000241  -0.000037  -0.014853   0.002741   0.000006
    30  H    0.000000   0.000000   0.000000  -0.000086   0.000001   0.000000
    31  H    0.000000   0.000000   0.000000   0.000028   0.000000   0.000000
    32  C    0.000013   0.000166  -0.000023  -0.023505   0.001343   0.000042
    33  H    0.000000   0.000000   0.000000   0.000004   0.000000   0.000000
    34  H    0.000000   0.000000   0.000000   0.000005   0.000000   0.000000
    35  C    0.000000   0.000002   0.000000  -0.001192   0.000033   0.000001
    36  H    0.000000   0.000000   0.000000   0.000001   0.000000   0.000000
    37  H    0.000000   0.000000   0.000000  -0.000001   0.000000   0.000000
    38  C    0.000000   0.000000   0.000000  -0.000125   0.000003   0.000000
    39  C    0.000000   0.000000   0.000000  -0.000009   0.000000   0.000000
    40  H    0.000000   0.000000   0.000000   0.000000   0.000000   0.000000
    41  H    0.000000   0.000000   0.000000   0.000000   0.000000   0.000000
    42  H    0.000000   0.000000   0.000000   0.000000   0.000000   0.000000
    43  H    0.000000   0.000000   0.000000   0.000000   0.000000   0.000000
    44  H    0.000000   0.000000   0.000000   0.000000   0.000000   0.000000
              13         14         15         16         17         18
     1  C   -2.053249   0.020617   0.071436   0.153049  -0.192792   0.532731
     2  C   -0.567180  -0.006072   0.017686  -0.071842   0.023995   0.158339
     3  H    0.064503   0.000171  -0.000865   0.001261  -0.007127   0.005784
     4  H   -0.029888   0.003384   0.000528  -0.004000   0.001517  -0.003268
     5  H    0.014883  -0.000301   0.000321  -0.000844   0.002736   0.019203
     6  C   -0.480388  -0.015149   0.016834   0.070128  -0.032562  -0.108744
     7  H    0.034921  -0.000626  -0.000666  -0.000390  -0.000399  -0.004200
     8  H   -0.073962  -0.000524   0.005159  -0.002036  -0.000501  -0.010886
     9  H   -0.002255   0.004369  -0.001757   0.000705  -0.000837   0.008656
    10  C    2.094264   0.015723  -0.048556  -0.184527   0.422285  -0.207546
    11  H   -0.168964  -0.000202   0.002929   0.009042  -0.052407  -0.044343
    12  H   -0.002966  -0.000515  -0.001676  -0.004088  -0.054881  -0.012635
    13  C   10.164573   0.370885   0.414313  -0.144029   0.192400   0.788623
    14  H    0.370885   0.540465  -0.043836  -0.049044  -0.007364   0.082120
    15  H    0.414313  -0.043836   0.704945  -0.030194  -0.003603   0.141172
    16  O   -0.144029  -0.049044  -0.030194   8.341500  -0.316229  -0.307892
    17  O    0.192400  -0.007364  -0.003603  -0.316229   8.114936   0.428797
    18  C    0.788623   0.082120   0.141172  -0.307892   0.428797  16.497286
    19  H   -0.131344   0.000024   0.002614   0.086684  -0.167953  -0.376982
    20  C   -1.459598   0.006291  -0.340996   0.288749  -0.031728  -3.343458
    21  C   -1.575626  -0.047141   0.019331   0.022887  -0.156582  -1.628166
    22  H    0.235918  -0.001826   0.003216  -0.078939   0.051429   0.156283
    23  H   -0.145005   0.000106  -0.021472  -0.052871  -0.014273  -0.406446
    24  C   -1.153687  -0.035430  -0.056196   0.121890  -0.103389  -4.686019
    25  H    0.007494   0.000041   0.000677  -0.000969  -0.003221  -0.077319
    26  H    0.008087   0.000067  -0.001317   0.000208   0.002374   0.013851
    27  H    0.000387   0.000030   0.000794  -0.001889  -0.000011  -0.008088
    28  H    0.000849   0.000017  -0.000950   0.000637   0.000062   0.012327
    29  C   -0.006997  -0.002636   0.008137  -0.011477  -0.002827  -0.724768
    30  H   -0.000846   0.000000  -0.000002   0.000093  -0.000020   0.002996
    31  H   -0.000120   0.000000   0.000007  -0.000031   0.000011  -0.000308
    32  C   -0.117956  -0.001446  -0.000281   0.002735  -0.004347  -0.572241
    33  H    0.000023   0.000000   0.000006   0.000000   0.000000   0.000110
    34  H    0.000012   0.000000  -0.000002  -0.000002   0.000000   0.000005
    35  C   -0.003864  -0.000013   0.000210   0.000210  -0.000022  -0.023820
    36  H    0.000004   0.000000   0.000000   0.000000   0.000000  -0.000015
    37  H   -0.000006   0.000000   0.000000   0.000000   0.000000   0.000014
    38  C   -0.000909  -0.000005   0.000002   0.000006  -0.000010  -0.007819
    39  C   -0.000079   0.000000   0.000000   0.000001   0.000000  -0.000307
    40  H   -0.000001   0.000000   0.000000   0.000000   0.000000  -0.000006
    41  H   -0.000001   0.000000   0.000000   0.000000   0.000000  -0.000002
    42  H    0.000000   0.000000   0.000000   0.000000   0.000000   0.000000
    43  H    0.000000   0.000000   0.000000   0.000000   0.000000   0.000000
    44  H    0.000000   0.000000   0.000000   0.000000   0.000000   0.000000
              19         20         21         22         23         24
     1  C   -0.008970  -0.074665   0.475417  -0.063357   0.014316   0.147610
     2  C   -0.018581   0.130186  -0.191494  -0.006390  -0.012901  -0.022187
     3  H   -0.000174  -0.009417   0.000177   0.000203  -0.000014  -0.000604
     4  H    0.000064   0.004781  -0.000428  -0.000240   0.000038  -0.000243
     5  H   -0.000689  -0.048110  -0.003382   0.000520  -0.000243  -0.002261
     6  C    0.026837   0.011576   0.226114  -0.019754   0.012470   0.136625
     7  H    0.000043   0.011089   0.001102  -0.000123   0.000013   0.001095
     8  H   -0.000159   0.007512   0.002075   0.000722   0.000091   0.004232
     9  H    0.000089  -0.007540   0.001181  -0.000091   0.000004  -0.002287
    10  C   -0.099946  -0.599726  -0.475118   0.108010  -0.017225  -0.357572
    11  H   -0.005686   0.117981   0.036030  -0.012059   0.000410   0.036813
    12  H    0.001911   0.052561  -0.003554  -0.000800   0.000079   0.005081
    13  C   -0.131344  -1.459598  -1.575626   0.235918  -0.145005  -1.153687
    14  H    0.000024   0.006291  -0.047141  -0.001826   0.000106  -0.035430
    15  H    0.002614  -0.340996   0.019331   0.003216  -0.021472  -0.056196
    16  O    0.086684   0.288749   0.022887  -0.078939  -0.052871   0.121890
    17  O   -0.167953  -0.031728  -0.156582   0.051429  -0.014273  -0.103389
    18  C   -0.376982  -3.343458  -1.628166   0.156283  -0.406446  -4.686019
    19  H    0.856689   0.434512   0.088958  -0.097708   0.025534   0.244435
    20  C    0.434512  21.122216  -4.260045   0.362159   0.555139  -2.386150
    21  C    0.088958  -4.260045  15.083069  -0.347659   0.053025   0.723980
    22  H   -0.097708   0.362159  -0.347659   0.802601  -0.065342  -0.219597
    23  H    0.025534   0.555139   0.053025  -0.065342   0.566574   0.288622
    24  C    0.244435  -2.386150   0.723980  -0.219597   0.288622  12.938406
    25  H    0.018680   0.117058   0.230997  -0.013800   0.010081   0.010115
    26  H   -0.005460  -0.079874   0.490942   0.012232  -0.007673  -0.071241
    27  H   -0.000050   0.003447  -0.146533  -0.001347   0.005223   0.495041
    28  H    0.000101  -0.020968  -0.006496   0.006458  -0.001520   0.446679
    29  C   -0.004480  -1.349103  -0.466277   0.031583   0.001519   0.402253
    30  H    0.000092  -0.001185   0.052059  -0.000160   0.000059  -0.072807
    31  H   -0.000131   0.003408  -0.015981   0.000065  -0.000055  -0.078825
    32  C    0.010598  -2.789761  -0.693642  -0.028168   0.028606  -0.154977
    33  H    0.000003   0.000906   0.008508  -0.000043   0.000017  -0.012928
    34  H   -0.000002  -0.001801   0.006741   0.000030  -0.000047  -0.002991
    35  C   -0.000188  -0.167015  -0.494709  -0.000032  -0.000086  -0.451432
    36  H    0.000000  -0.000156  -0.001485   0.000000   0.000000  -0.001281
    37  H    0.000000  -0.000685   0.002273   0.000001   0.000000   0.003996
    38  C    0.000038  -0.077459  -0.051568  -0.000186   0.000173  -0.325519
    39  C    0.000000  -0.006794  -0.014858  -0.000005   0.000002  -0.039818
    40  H    0.000000  -0.000135  -0.000613   0.000000   0.000000   0.000770
    41  H    0.000000  -0.000131  -0.000058   0.000000   0.000000   0.000684
    42  H    0.000000  -0.000001   0.000058   0.000000   0.000000   0.000430
    43  H    0.000000  -0.000001  -0.000069   0.000000   0.000000  -0.001079
    44  H    0.000000   0.000000  -0.000100   0.000000   0.000000  -0.000769
              25         26         27         28         29         30
     1  C    0.001643  -0.004874   0.001720  -0.003580   0.017250   0.000050
     2  C    0.000018   0.000123  -0.000093   0.000140  -0.008755   0.000007
     3  H    0.000000   0.000000   0.000000   0.000000  -0.000011   0.000000
     4  H    0.000000   0.000000   0.000000   0.000000  -0.000006   0.000000
     5  H   -0.000003   0.000002   0.000000   0.000000  -0.000005   0.000000
     6  C   -0.000349  -0.000215   0.000024  -0.000189   0.021144   0.000000
     7  H    0.000000   0.000000   0.000000   0.000000   0.000006   0.000000
     8  H    0.000008  -0.000001   0.000000  -0.000004   0.000241   0.000000
     9  H    0.000001   0.000000   0.000000   0.000001  -0.000037   0.000000
    10  C    0.000316   0.003668   0.000266   0.001511  -0.014853  -0.000086
    11  H    0.000342  -0.000187   0.000003  -0.000013   0.002741   0.000001
    12  H    0.000012   0.000003  -0.000001   0.000000   0.000006   0.000000
    13  C    0.007494   0.008087   0.000387   0.000849  -0.006997  -0.000846
    14  H    0.000041   0.000067   0.000030   0.000017  -0.002636   0.000000
    15  H    0.000677  -0.001317   0.000794  -0.000950   0.008137  -0.000002
    16  O   -0.000969   0.000208  -0.001889   0.000637  -0.011477   0.000093
    17  O   -0.003221   0.002374  -0.000011   0.000062  -0.002827  -0.000020
    18  C   -0.077319   0.013851  -0.008088   0.012327  -0.724768   0.002996
    19  H    0.018680  -0.005460  -0.000050   0.000101  -0.004480   0.000092
    20  C    0.117058  -0.079874   0.003447  -0.020968  -1.349103  -0.001185
    21  C    0.230997   0.490942  -0.146533  -0.006496  -0.466277   0.052059
    22  H   -0.013800   0.012232  -0.001347   0.006458   0.031583  -0.000160
    23  H    0.010081  -0.007673   0.005223  -0.001520   0.001519   0.000059
    24  C    0.010115  -0.071241   0.495041   0.446679   0.402253  -0.072807
    25  H    0.565794  -0.030395   0.008366  -0.008029   0.003453  -0.000739
    26  H   -0.030395   0.515389  -0.006540   0.007639  -0.026267   0.002559
    27  H    0.008366  -0.006540   0.555077  -0.040338  -0.039234  -0.007601
    28  H   -0.008029   0.007639  -0.040338   0.581865  -0.112119   0.008878
    29  C    0.003453  -0.026267  -0.039234  -0.112119   7.839909   0.456829
    30  H   -0.000739   0.002559  -0.007601   0.008878   0.456829   0.554627
    31  H    0.003027  -0.000351   0.008184  -0.007409   0.503500  -0.036980
    32  C    0.015586  -0.001461   0.016614   0.002263   0.144708  -0.092478
    33  H    0.000070  -0.000067  -0.000399   0.002516  -0.082097   0.008141
    34  H   -0.000059   0.000084   0.002935  -0.000493  -0.073469  -0.007442
    35  C    0.001471  -0.001174   0.008500   0.002406  -0.273633  -0.016748
    36  H    0.000008  -0.000034   0.000066  -0.000072  -0.017746   0.002694
    37  H   -0.000043   0.000009  -0.000069   0.000073  -0.000104  -0.000482
    38  C    0.000222  -0.000069   0.001052   0.000065  -0.055511   0.000218
    39  C   -0.000010  -0.000023   0.000078   0.000013  -0.157681  -0.000244
    40  H    0.000001   0.000000   0.000013  -0.000039  -0.005555  -0.000060
    41  H    0.000000   0.000000  -0.000042   0.000014   0.006706   0.000064
    42  H    0.000000   0.000000   0.000000   0.000000   0.004482   0.000002
[...]
 50,0.00057778,-0.00009157,-0.00000901,0.00005337,0.00832670,0.00365332
 ,-0.00550752,-0.00020846,0.00180265,0.00000329,0.00009462,-0.00029563,
 -0.00011700,0.10015048,0.03284314,-0.10948002,0.02238978,0.00553668,-0
 .01461905,-0.11331999,-0.03461655,0.12017677,-0.00000112,-0.00000035,-
 0.00000108,-0.00000017,0.00000132,-0.00000004,0.00000048,0.00000043,-0
 .00000044,-0.00000021,0.00000108,0.00000095,-0.00000085,-0.00000129,-0
 .00000085,0.00000035,0.00000028,0.00000050,0.00000003,0.00000006,-0.00
 000064,0.00000112,-0.00000058,0.00000072,-0.00000048,0.00000071,0.0000
 0059,-0.00000275,-0.00000463,-0.00000311,0.00000196,-0.00000023,0.0000
 0136,0.00000002,0.00000035,-0.00000092,-0.00000210,-0.00000292,-0.0000
 0055,-0.00000049,0.00000166,0.00000085,0.00000154,0.00000008,0.0000007
 4,0.00000243,0.00001278,0.00001108,0.00000592,0.00000752,0.00000696,-0
 .00000636,-0.00001040,-0.00000743,0.00000335,-0.00000280,0.00000341,-0
 .00000595,0.00001053,-0.00001450,-0.00000108,0.00000900,0.00003290,-0.
 00000235,0.00000022,-0.00000149,0.00000546,0.00000285,0.00000325,-0.00
 003470,0.00007381,-0.00005093,0.00000510,-0.00000801,0.00000438,-0.000
 00196,-0.00000224,-0.00000204,0.00002708,0.00002223,0.00001922,-0.0000
 0968,0.00000226,0.00000024,0.00028860,0.00014298,0.00039502,-0.0000281
 9,-0.00002895,0.00000109,0.00002700,-0.00022218,0.00004336,-0.00004632
 ,-0.00045747,-0.00029237,-0.00006353,0.00001648,-0.00008682,0.00036485
 ,0.00054771,0.00051236,-0.00227373,0.00067638,-0.00141214,0.00092381,0
 .00043053,0.00012595,0.00169568,0.00050904,0.00013817,-0.19945614,0.02
 015930,-0.11880701,0.00393003,-0.00056853,0.00354452,-0.02195462,0.002
 80681,-0.01640379,0.21413543,0.00000016,0.00000026,0.00000046,0.000000
 31,-0.00000069,-0.00000004,-0.00000041,-0.00000047,0.00000031,-0.00000
 013,-0.00000013,-0.00000033,0.00000060,0.00000047,0.00000002,-0.000000
 13,-0.00000007,-0.00000026,-0.00000015,-0.00000014,0.00000028,-0.00000
 044,0.00000028,-0.00000031,0.00000015,-0.00000023,-0.00000020,0.000002
 19,0.00000159,0.00000156,-0.00000113,0.00000038,-0.00000063,-0.0000002
 9,-0.00000055,0.00000046,0.00000127,0.00000195,0.00000020,0.00000011,-
 0.00000052,-0.00000030,-0.00000071,0.,-0.00000024,-0.00000224,-0.00000
 444,-0.00000418,-0.00000551,-0.00000351,-0.00000257,0.00000642,0.00000
 503,0.00000604,-0.00000238,0.00000150,-0.00000165,0.00000232,0.0000029
 2,0.00000027,0.00000010,0.00001727,0.00001233,-0.00000002,-0.00000034,
 0.00000039,-0.00000092,-0.00000215,-0.00000251,-0.00009359,0.00003541,
 -0.00007655,-0.00000671,0.00000835,-0.00000067,0.00000173,-0.00000144,
 0.00000285,-0.00000652,-0.00004689,-0.00005791,0.00000207,-0.00000116,
 -0.00000096,-0.00014202,-0.00015215,0.00004099,0.00001661,0.00000528,0
 .00002884,-0.00021748,0.00018109,-0.00018762,0.00078348,0.00173560,0.0
 0137286,-0.00002116,-0.00005338,-0.00009972,-0.00053286,-0.00028378,-0
 .00079136,0.02658811,-0.00620509,0.02017429,-0.00051137,0.00141280,-0.
 00028864,0.00045958,-0.00621550,0.00169895,0.01998738,-0.04953432,0.01
 714102,-0.01687075,0.00102560,-0.01419641,-0.00662581,0.00047292,-0.00
 554140,-0.02363078,0.05858593,-0.00000078,0.00000066,-0.00000145,-0.00
 000055,0.00000063,0.00000010,0.00000098,0.00000111,-0.00000081,0.00000
 003,0.00000051,0.00000069,-0.00000142,-0.00000103,-0.00000028,0.000000
 35,0.00000015,0.00000064,0.00000044,0.00000046,-0.00000074,0.00000079,
 -0.00000053,0.00000066,-0.00000043,0.00000054,0.00000038,-0.00000361,-
 0.00000730,-0.00000056,0.00000129,0.00000021,0.00000099,0.00000103,0.0
 0000145,-0.00000102,-0.00000216,-0.00000659,0.00000094,-0.00000028,0.0
 0000163,0.00000063,0.00000117,0.00000054,0.00000018,0.00000330,0.00001
 663,0.00000687,0.00001077,0.00001308,0.00000162,-0.00001112,-0.0000174
 3,-0.00000205,0.00000324,-0.00000101,0.00000215,-0.00000241,0.00000966
 ,-0.00001229,-0.00000991,-0.00000187,0.00001739,0.00000015,-0.00000057
 ,-0.00000093,0.00000175,0.00000056,0.00000334,0.00001940,0.00003770,-0
 .00001023,0.00000446,-0.00000158,-0.00000039,0.00000020,0.00000183,-0.
 00000405,0.00000065,0.00001413,0.00001888,-0.00000025,-0.00000216,0.00
 000260,0.00023086,0.00001372,0.00020143,-0.00000406,0.00002672,-0.0000
 4386,0.00004417,-0.00019080,-0.00002478,0.00048898,-0.00067142,0.00035
 885,0.00007697,0.00001049,0.00005240,0.00003863,0.00023409,0.00063454,
 -0.00807721,0.00214535,-0.00677469,0.00012652,-0.00022963,-0.00011621,
 0.00011469,0.00181556,0.00005166,-0.11779857,0.01709350,-0.14238540,-0
 .02053067,0.00131885,-0.01771683,0.01222489,-0.00205963,0.01058825,0.1
 3164739,-0.01687996,0.15706934,-0.00000026,0.00000090,-0.00000040,-0.0
 0000019,-0.00000025,-0.00000009,0.00000020,-0.00000008,-0.00000009,-0.
 00000016,0.00000040,0.00000045,-0.00000019,0.00000003,-0.00000053,0.00
 000032,-0.00000007,0.00000040,0.00000024,0.00000012,-0.00000019,-0.000
 00016,-0.00000020,-0.00000021,-0.00000011,0.00000046,0.00000041,0.0000
 0009,-0.00000625,0.00000155,-0.00000060,0.00000049,-0.00000034,0.00000
 046,0.00000048,-0.00000008,0.00000101,-0.00000513,0.00000154,0.0000000
 5,0.00000112,0.00000063,-0.00000034,0.00000050,-0.00000091,-0.00000173
 ,0.00001182,0.00000320,0.00000095,0.00000892,-0.00000057,0.00000093,-0
 .00001094,0.00000098,0.00000004,0.00000076,-0.00000026,0.00000010,0.00
 000774,-0.00000782,-0.00000670,0.00000150,0.00001736,-0.00000082,-0.00
 000041,0.00000016,0.00000015,-0.00000037,0.00000024,0.00000840,0.00003
 099,-0.00002918,-0.00000068,0.00000039,-0.00000126,0.00000065,-0.00000
 114,0.00000018,-0.00000025,-0.00000191,-0.00000165,-0.00000526,-0.0000
 0015,0.00000282,-0.00003279,0.00002261,0.00010231,0.00000756,-0.000001
 88,0.00000343,-0.00000062,-0.00000195,-0.00000682,0.00057152,0.0002577
 0,-0.00014530,-0.00002681,-0.00006133,-0.00006337,-0.00001789,0.000050
 83,0.00006694,0.00018696,0.00024470,0.00088406,0.00024120,0.00039022,-
 0.00018288,0.00023384,-0.00040842,0.00021520,-0.00167334,0.00359459,-0
 .00150700,-0.04826509,0.01687187,-0.00553224,-0.00004228,0.00019787,-0
 .00028828,0.00014683,-0.00042128,0.00014361,0.04760257,0.00000376,-0.0
 0000667,0.00000554,0.00000198,0.00000061,0.00000036,-0.00000320,-0.000
 00076,0.00000234,0.00000174,-0.00000366,-0.00000442,0.00000353,0.00000
 131,0.00000460,-0.00000315,0.00000028,-0.00000427,-0.00000275,-0.00000
 143,0.00000267,0.00000020,0.00000213,0.00000050,0.00000181,-0.00000393
 ,-0.00000346,0.00000172,0.00005688,-0.00001162,0.00000320,-0.00000439,
 0.00000150,-0.00000437,-0.00000442,0.00000238,-0.00000406,0.00004713,-
 0.00001294,0.00000061,-0.00000932,-0.00000512,0.00000093,-0.00000415,0
 .00000587,0.00000687,-0.00010360,-0.00002859,-0.00001817,-0.00008392,0
 .00000257,0.00000920,0.00009972,-0.00000089,-0.00000299,-0.00000449,-0
 .00000063,0.00000200,-0.00005400,0.00005909,0.00000708,-0.00000655,-0.
 00011876,0.00000394,0.00000304,-0.00000124,-0.00000319,0.00000184,-0.0
 0000320,0.00000101,-0.00018183,0.00020387,0.00000558,0.00000051,0.0000
 0549,-0.00000068,0.00000522,0.00000397,-0.00001469,0.00000459,-0.00000
 887,0.00001518,0.00000655,-0.00000699,0.00005638,-0.00010127,-0.000618
 59,-0.00002556,0.00000862,0.00001627,0.00002232,0.00001288,0.00001938,
 0.00005346,-0.00091853,0.00120429,0.00010258,-0.00000960,-0.00006819,-
 0.00009357,-0.00001691,-0.00006965,0.00050053,-0.00084346,-0.00517982,
 -0.00005347,0.00039609,-0.00000964,0.00002849,0.00032622,0.00003651,0.
 00102678,-0.01762024,0.00727413,0.01696187,-0.27980555,0.07556174,0.00
 058019,0.00070208,-0.00002976,-0.00068260,0.00051753,-0.00008419,-0.01
 914103,0.30569676,0.00000114,-0.00000216,0.00000148,0.00000029,0.00000
 029,0.00000013,-0.00000070,-0.00000049,0.00000036,0.00000014,-0.000000
 45,-0.00000038,0.00000094,0.00000030,0.00000072,-0.00000091,-0.0000000
 5,-0.00000108,-0.00000060,-0.00000058,0.00000042,0.00000030,0.00000029
 ,0.,0.00000025,-0.00000061,-0.00000017,0.00000002,0.00001224,-0.000004
 82,0.00000156,-0.00000141,0.00000063,-0.00000156,-0.00000181,0.0000004
 0,-0.00000077,0.00000964,-0.00000429,0.00000006,-0.00000244,-0.0000005
 0,0.00000043,-0.00000104,0.00000129,0.00000149,-0.00002603,-0.00000348
 ,-0.00000634,-0.00001933,0.00000447,0.00000374,0.00002488,-0.00001394,
 0.00000005,-0.00000165,0.00000076,0.00000129,-0.00003230,0.00002764,0.
 00000704,-0.00001766,-0.00008366,0.00000117,0.00000158,0.00000031,-0.0
 0000122,0.00000105,-0.00000028,0.00000528,-0.00016722,0.00013637,0.000
 00536,0.00000079,0.00000255,-0.00000338,0.00000158,0.00000120,-0.00000
 970,0.00000319,-0.00000199,0.00000904,0.00000472,-0.00000060,0.0000626
 4,-0.00019761,-0.00058316,-0.00002840,0.00001259,0.00000238,0.00002595
 ,0.00001790,0.00000605,0.00011525,-0.00149920,0.00096380,0.00005895,0.
 00005948,0.00003824,-0.00007933,0.00005524,0.00003794,0.00056213,-0.00
 183664,-0.00481779,-0.00028650,-0.00003471,-0.00003279,0.00032916,-0.0
 0003497,0.00004500,0.00182366,-0.02697870,0.00920778,-0.00564135,0.076
 83166,-0.07135424,0.00009667,0.00077314,0.00110276,-0.00039487,0.00067
 343,0.00109981,0.00562700,-0.08125610,0.07657332,0.00000046,-0.0000016
 0,0.00000053,0.00000003,0.00000079,0.00000024,-0.00000029,0.00000034,0
 .00000002,0.00000031,-0.00000010,-0.00000025,0.00000015,-0.00000066,0.
 00000065,-0.00000074,0.00000014,-0.00000081,-0.00000067,-0.00000032,0.
 00000009,0.00000105,0.00000010,0.00000063,0.00000009,-0.00000040,-0.00
 000025,-0.00000266,0.00001030,-0.00000558,0.00000271,-0.00000135,0.000
 00146,-0.00000109,-0.00000069,-0.00000019,-0.00000242,0.00000841,-0.00
 000383,-0.00000014,-0.00000107,-0.00000039,0.00000141,-0.00000078,0.00
 000173,0.00000304,-0.00001581,0.00000123,0.00000022,-0.00001464,0.0000
 0585,-0.00000288,0.00001546,-0.00000790,0.00000190,-0.00000246,0.00000
 197,0.00000012,-0.00000972,0.00000691,-0.00000351,-0.00000023,-0.00001
 925,-0.00000033,0.00000089,-0.00000049,0.00000125,0.00000168,0.0000018
 6,0.00000328,-0.00003012,0.00002421,0.00000700,-0.00000222,0.00000293,
 -0.00000177,0.00000067,-0.00000056,0.00000210,0.00000248,0.00000595,-0
 .00000065,0.00000180,-0.00000037,-0.00004023,-0.00003289,-0.00010340,-
 0.00000878,-0.00000321,-0.00000163,0.00002485,-0.00000463,0.00000042,0
 .00027120,-0.00021877,0.00026600,-0.00002366,0.00001089,0.00001726,-0.
 00006037,0.00013017,0.00008569,0.00023160,0.00001395,0.00020002,-0.000
 08986,0.00002844,-0.00008899,0.00024427,-0.00051922,-0.00004743,0.0038
 4781,-0.00045568,0.00302572,-0.20291209,0.01466119,-0.12396544,0.00087
 447,-0.00048269,-0.00033586,0.00147483,0.00084300,0.00105380,-0.001514
 07,0.00049250,-0.00017297,0.21856252,-0.00000062,0.00000078,-0.0000008
 8,-0.00000044,0.00000010,-0.00000008,0.00000050,0.00000003,-0.00000041
 ,-0.00000032,0.00000080,0.00000100,-0.00000058,-0.00000028,-0.00000093
 ,0.00000052,0.,0.00000076,0.00000039,0.00000013,-0.00000052,0.00000012
 ,-0.00000047,-0.00000010,-0.00000034,0.00000082,0.00000082,-0.00000063
 ,-0.00000980,0.00000072,-0.00000003,0.00000047,-0.00000008,0.00000048,
 0.00000057,-0.00000049,0.00000077,-0.00000825,0.00000179,-0.00000014,0
 .00000173,0.00000118,0.,0.00000067,-0.00000105,-0.00000141,0.00001821,
 0.00000717,0.00000260,0.00001398,0.00000190,-0.00000114,-0.00001690,-0
 .00000451,0.00000114,0.00000016,0.00000071,-0.00000006,0.00000648,-0.0
 0000847,-0.00000378,-0.00000006,0.00001283,-0.00000113,-0.00000031,0.0
 0000018,0.00000113,0.00000053,0.00000131,0.00000579,0.00002412,-0.0000
 1673,0.00000160,-0.00000175,-0.00000056,-0.00000098,-0.00000156,-0.000
 00073,0.00000355,0.00000572,0.00000752,-0.00000486,0.00000011,0.000001
 73,0.00005036,0.00000858,0.00009093,-0.00000334,-0.00000416,-0.0000031
 2,0.00002294,-0.00004899,0.00001276,0.00011388,-0.00008119,-0.00015023
 ,-0.00003273,0.00001722,0.00001744,0.00013966,0.00001311,0.00020765,-0
 .00142567,0.00157431,-0.00046836,-0.00001516,-0.00009753,0.00000111,0.
 00054508,-0.00025676,0.00028242,-0.01675385,0.00070537,-0.01287936,0.0
 1526598,-0.04859267,0.01281598,0.00023855,0.00066321,0.00092263,0.0005
 3135,-0.00220249,-0.00352404,0.02497765,-0.00150389,0.01885483,-0.0172
 7524,0.04997089,0.00000063,-0.00000190,0.00000098,0.00000036,0.0000008
 4,0.00000005,-0.00000034,0.00000030,0.00000026,0.00000040,-0.00000058,
 -0.00000080,0.00000033,-0.00000040,0.00000102,-0.00000077,0.00000012,-
 0.00000103,-0.00000053,-0.00000022,0.00000035,0.00000067,0.00000029,0.
 00000070,0.00000022,-0.00000082,-0.00000074,-0.00000174,0.00001322,-0.
 00000465,0.00000190,-0.00000127,0.00000134,-0.00000081,-0.00000068,0.0
 0000016,-0.00000317,0.00001087,-0.00000414,-0.00000010,-0.00000182,-0.
 00000109,0.00000126,-0.00000112,0.00000230,0.00000481,-0.00002223,-0.0
 0000321,0.00000103,-0.00001864,0.00000284,-0.00000518,0.00002155,-0.00
 000335,0.00000141,-0.00000285,0.00000197,-0.00000190,-0.00000961,0.000
 00966,-0.00000271,0.00000233,-0.00001650,0.00000057,0.00000071,-0.0000
 0184,0.00000162,0.00000184,0.00000116,-0.00000823,-0.00000080,0.000021
 03,0.00000440,-0.00000326,0.00000435,0.00000052,0.00000145,0.00000003,
 0.00000548,0.00000572,0.00000272,0.00000229,0.00000036,-0.00000730,0.0
 0007277,-0.00000578,0.00001807,-0.00000185,-0.00000061,0.00000245,0.00
 001570,-0.00005707,0.00001775,0.00026082,-0.00007550,0.00009453,-0.000
 00789,0.00001098,-0.00005503,0.00009802,0.00019091,0.00022148,-0.00027
 482,0.00154306,0.00069765,0.00007277,-0.00007767,0.00005806,0.00044795
 ,-0.00077170,0.00058698,-0.02126868,0.00168589,-0.01781058,-0.12339906
 ,0.01237937,-0.14524378,0.00026939,0.00077960,0.00056544,0.00135851,-0
 .00381651,-0.00355659,-0.00743477,0.00082569,-0.00667516,0.13698216,-0
 .01070768,0.15994082,-0.00000021,0.00000188,-0.00000083,-0.00000028,-0
 .00000071,-0.00000012,0.00000121,0.00000090,-0.00000057,-0.00000002,-0
 .00000032,-0.00000007,-0.00000111,0.00000011,-0.00000004,0.00000037,-0
 .00000014,0.00000059,0.00000128,0.00000089,-0.00000044,-0.00000060,-0.
 00000019,0.00000023,-0.00000025,0.00000016,-0.00000013,-0.00000129,-0.
 00000998,0.00000548,-0.00000197,0.00000135,-0.00000045,0.00000256,0.00
 000214,-0.00000016,-0.00000146,-0.00000946,0.00000293,0.00000005,0.000
 00086,-0.00000018,-0.00000024,0.00000065,-0.00000042,0.00000366,0.0000
 1597,-0.00000266,0.00001189,0.00001695,-0.00000899,-0.00001199,-0.0000
 1860,0.00001033,0.00000070,0.00000115,-0.00000015,-0.00000179,0.000009
 92,-0.00000680,-0.00000576,-0.00000106,0.00001649,0.00000237,-0.000001
 46,-0.00000190,-0.00000071,-0.00000098,0.00000060,0.00000128,0.0000250
 1,-0.00002250,-0.00000299,-0.00000011,0.00000006,0.00000541,0.00000260
 ,-0.00000116,-0.00000111,-0.00000223,0.00000062,0.00000568,-0.00000338
 ,-0.00000682,-0.00003472,0.00002593,0.00007564,0.00002592,0.00002723,-
 0.00000057,-0.00001067,0.00000223,0.00000013,0.00030422,0.00029947,-0.
 00019530,0.00003611,-0.00015460,-0.00015380,-0.00002487,-0.00002158,-0
 .00001738,0.00005656,-0.00051418,-0.00020927,0.00025839,0.00068669,-0.
 00006489,-0.00009662,-0.00001331,0.00006836,-0.00286979,-0.00048056,0.
 00178111,-0.22509081,-0.04938453,0.10655985,0.00162128,0.00049210,0.00
 043200,0.00085088,0.00039921,0.00020293,0.00258626,0.00015804,-0.00211
 241,-0.02089047,-0.00638159,0.01280653,0.24327369,-0.00000075,0.000001
 04,-0.00000131,-0.00000055,-0.00000004,0.00000003,0.00000081,0.0000001
 9,-0.00000064,-0.00000042,0.00000081,0.00000106,-0.00000082,-0.0000003
 2,-0.00000103,0.00000055,-0.00000007,0.00000105,0.00000065,0.00000027,
 -0.00000068,0.00000002,-0.00000049,0.00000002,-0.00000045,0.00000087,0
 .00000077,-0.00000086,-0.00001256,0.00000194,-0.00000044,0.00000084,-0
 .00000018,0.00000091,0.00000075,-0.00000060,0.00000052,-0.00000995,0.0
 0000244,-0.00000019,0.00000188,0.00000114,0.,0.00000085,-0.00000107,-0
 .00000111,0.00002154,0.00000671,0.00000396,0.00001776,0.00000058,-0.00
 000229,-0.00002034,-0.00000249,0.00000096,0.00000056,0.00000051,-0.000
 00051,0.00000853,-0.00000997,0.00000019,0.00000019,0.00001671,-0.00000
 108,-0.00000010,0.00000041,0.00000081,-0.00000012,0.00000067,-0.000006
 58,0.00002827,-0.00002236,-0.00000003,-0.00000057,-0.00000046,-0.00000
 050,-0.00000227,-0.00000121,0.00000417,0.00000060,0.00000247,-0.000005
 09,0.00000439,0.00000572,-0.00007267,0.00000253,0.00009954,-0.00000999
 ,-0.00004927,0.00000952,0.00000275,-0.00000331,-0.00000251,-0.00001792
 ,-0.00004544,-0.00020369,-0.00016753,-0.00004383,0.00015987,0.00002201
 ,0.00002059,0.00001871,0.00117308,0.00175843,-0.00029137,-0.00054714,-
 0.00028154,0.00019792,0.00000465,-0.00008037,0.00002259,0.01814875,0.0
 0419708,-0.01035271,-0.05000690,-0.06105693,0.03055805,0.00075587,-0.0
 0221747,-0.00357253,-0.00034377,0.00069725,0.00091998,-0.02661188,-0.0
 0659739,0.01477434,0.00285129,-0.00020104,-0.00189636,0.05482751,0.063
 85818,0.00000072,-0.00000155,0.00000143,0.00000052,0.00000013,-0.00000
 001,-0.00000122,-0.00000098,0.00000086,0.00000012,-0.00000024,-0.00000
 059,0.00000142,0.00000044,0.00000039,-0.00000061,0.00000003,-0.0000008
 6,-0.00000095,-0.00000069,0.00000072,-0.00000004,0.00000045,-0.0000002
 8,0.00000043,-0.00000057,-0.00000040,0.00000206,0.00001141,-0.00000314
 ,0.00000051,-0.00000099,0.,-0.00000181,-0.00000190,0.00000078,0.000001
 00,0.00001092,-0.00000276,0.00000015,-0.00000155,-0.00000058,-0.000000
 20,-0.00000084,0.00000069,-0.00000246,-0.00002091,-0.00000280,-0.00001
 095,-0.00001937,0.00000391,0.00001007,0.00002320,-0.00000328,-0.000001
 66,-0.00000075,-0.00000055,0.00000292,-0.00000825,0.00000891,0.0000019
 1,0.00000272,-0.00001226,-0.00000179,0.00000125,0.00000075,0.00000012,
 0.00000036,-0.00000194,0.00000466,0.00000463,0.00001803,-0.00000003,0.
 00000029,0.00000013,-0.00000130,-0.00000185,0.00000274,-0.00000080,0.0
 0000003,-0.00000734,-0.00000635,0.00000397,0.00000070,-0.00007781,-0.0
 0001547,0.00002006,-0.00000313,-0.00005624,0.00001589,0.00000018,-0.00
 000044,0.00000292,-0.00021194,-0.00008258,0.00002529,-0.00016344,0.000
 14427,0.00018205,0.00001154,0.00001143,-0.00005568,-0.00010196,0.00148
 844,0.00067563,-0.00034513,-0.00072369,0.00054786,-0.00007882,-0.00009
 609,0.00005848,0.02300016,0.00604951,-0.01454934,0.10610860,0.03007001
 ,-0.11076655,0.00019363,-0.00395345,-0.00369529,-0.00037247,0.00079538
 ,0.00053882,0.00813178,0.00228819,-0.00567750,-0.01693175,-0.00547706,
 0.01113163,-0.11915588,-0.03044159,0.12154251\\0.00000543,-0.00000739,
 -0.00001124,0.00000075,0.00000108,0.00000372,0.00000107,-0.00000227,0.
 00000441,-0.00000156,-0.00000059,-0.00000054,-0.00000230,-0.00000171,0
 .00000087,0.00000346,-0.00000005,-0.00000008,0.00000244,-0.00000025,0.
 00000189,0.00000385,0.00000048,-0.00000024,0.00000125,-0.00000072,-0.0
 0000059,0.00000139,0.00000854,0.00001523,0.00000349,0.00000283,-0.0000
 0514,0.00000430,-0.00000164,-0.00000010,0.00000567,-0.00001683,0.00000
 227,-0.00000323,0.00000226,-0.00000311,-0.00000015,0.00000487,-0.00000
 254,-0.00000007,0.00001996,0.00000503,-0.00000211,0.00000968,0.0000101
 9,-0.00000236,-0.00000721,-0.00002699,0.00000458,-0.00000295,0.0000084
 1,-0.00000368,-0.00000585,0.00000987,0.00000077,-0.00001458,-0.0000022
 5,-0.00000239,0.00000217,-0.00000277,-0.00000443,-0.00000124,-0.000005
 03,-0.00000230,0.00001050,-0.00000436,0.00000185,0.00000143,-0.0000014
 9,0.00000272,0.00000209,0.00000017,-0.00000271,-0.00000023,0.00000170,
 -0.00000126,-0.00000064,-0.00000031,0.00000042,-0.00000443,0.00000299,
 0.00000079,0.00000056,0.00000068,0.00000193,0.00000043,-0.00000231,-0.
 00000402,0.00000239,-0.00000392,-0.00000164,-0.00000015,-0.00000030,-0
 .00000313,-0.00000017,0.00000172,0.00000038,-0.00000113,0.00000296,0.0
 0000011,-0.00000047,0.00000075,0.00000155,0.00000029,-0.00000188,-0.00
 000378,0.00000358,-0.00000018,-0.00000057,-0.00000042,-0.00000056,-0.0
 0000336,-0.00000056,-0.00000050,-0.00000236,-0.00000109,0.00000166,-0.
 00000148,-0.00000062,0.00000140,-0.00000011,0.00000027,-0.00000096,0.0
 0000081,-0.00000020,0.00000145\\\@


 NOTHING MAKES A PERSON MORE PRODUCTIVE THAN THE LAST MINUTE.
 Job cpu time:       0 days  9 hours 48 minutes 53.8 seconds.
 File lengths (MBytes):  RWF=    984 Int=      0 D2E=      0 Chk=     23 Scr=      1
 Normal termination of Gaussian 09 at Thu Oct 14 15:36:37 2021.
