	You are loading a legacy vmd module, please load an up to date module instead.


	 module load container_env vmd

	Please run vmd command with crun.vmd prepend to it:
	
	 crun.vmd vmd

	 
module: Command not found.
module: Command not found.
 Entering Gaussian System, Link 0=g09
 Initial command:
 /opt/gaussian/g09/l1.exe "/tmp/G09-Table6_2_Fixed.com.o10670387.tmp/Gau-2472311.inp" -scrdir="/tmp/G09-Table6_2_Fixed.com.o10670387.tmp/"
 Entering Link 1 = /opt/gaussian/g09/l1.exe PID=   2472312.
  
 Copyright (c) 1988,1990,1992,1993,1995,1998,2003,2009,2013,
            Gaussian, Inc.  All Rights Reserved.
  
 This is part of the Gaussian(R) 09 program.  It is based on
 the Gaussian(R) 03 system (copyright 2003, Gaussian, Inc.),
 the Gaussian(R) 98 system (copyright 1998, Gaussian, Inc.),
 the Gaussian(R) 94 system (copyright 1995, Gaussian, Inc.),
 the Gaussian 92(TM) system (copyright 1992, Gaussian, Inc.),
 the Gaussian 90(TM) system (copyright 1990, Gaussian, Inc.),
 the Gaussian 88(TM) system (copyright 1988, Gaussian, Inc.),
 the Gaussian 86(TM) system (copyright 1986, Carnegie Mellon
 University), and the Gaussian 82(TM) system (copyright 1983,
 Carnegie Mellon University). Gaussian is a federally registered
 trademark of Gaussian, Inc.
  
 This software contains proprietary and confidential information,
 including trade secrets, belonging to Gaussian, Inc.
  
 This software is provided under written license and may be
 used, copied, transmitted, or stored only in accord with that
 written license.
  
 The following legend is applicable only to US Government
 contracts under FAR:
  
                    RESTRICTED RIGHTS LEGEND
  
 Use, reproduction and disclosure by the US Government is
 subject to restrictions as set forth in subparagraphs (a)
 and (c) of the Commercial Computer Software - Restricted
 Rights clause in FAR 52.227-19.
  
 Gaussian, Inc.
 340 Quinnipiac St., Bldg. 40, Wallingford CT 06492
  
  
 ---------------------------------------------------------------
 Warning -- This program may not be used in any manner that
 competes with the business of Gaussian, Inc. or will provide
 assistance to any competitor of Gaussian, Inc.  The licensee
 of this program is prohibited from giving any competitor of
 Gaussian, Inc. access to this program.  By using this program,
 the user acknowledges that Gaussian, Inc. is engaged in the
 business of creating and licensing software in the field of
 computational chemistry and represents and warrants to the
 licensee that it is not a competitor of Gaussian, Inc. and that
 it will not use this program in any manner prohibited above.
 ---------------------------------------------------------------
  

 Cite this work as:
 Gaussian 09, Revision D.01,
 M. J. Frisch, G. W. Trucks, H. B. Schlegel, G. E. Scuseria, 
 M. A. Robb, J. R. Cheeseman, G. Scalmani, V. Barone, B. Mennucci, 
 G. A. Petersson, H. Nakatsuji, M. Caricato, X. Li, H. P. Hratchian, 
 A. F. Izmaylov, J. Bloino, G. Zheng, J. L. Sonnenberg, M. Hada, 
 M. Ehara, K. Toyota, R. Fukuda, J. Hasegawa, M. Ishida, T. Nakajima, 
 Y. Honda, O. Kitao, H. Nakai, T. Vreven, J. A. Montgomery, Jr., 
 J. E. Peralta, F. Ogliaro, M. Bearpark, J. J. Heyd, E. Brothers, 
 K. N. Kudin, V. N. Staroverov, T. Keith, R. Kobayashi, J. Normand, 
 K. Raghavachari, A. Rendell, J. C. Burant, S. S. Iyengar, J. Tomasi, 
 M. Cossi, N. Rega, J. M. Millam, M. Klene, J. E. Knox, J. B. Cross, 
 V. Bakken, C. Adamo, J. Jaramillo, R. Gomperts, R. E. Stratmann, 
 O. Yazyev, A. J. Austin, R. Cammi, C. Pomelli, J. W. Ochterski, 
 R. L. Martin, K. Morokuma, V. G. Zakrzewski, G. A. Voth, 
 P. Salvador, J. J. Dannenberg, S. Dapprich, A. D. Daniels, 
 O. Farkas, J. B. Foresman, J. V. Ortiz, J. Cioslowski, 
 and D. J. Fox, Gaussian, Inc., Wallingford CT, 2013.
 
 ******************************************
 Gaussian 09:  ES64L-G09RevD.01 24-Apr-2013
                29-Aug-2024 
 ******************************************
 %nprocshared=20
 Will use up to   20 processors via shared memory.
 %mem=4GB
 %chk=Table6_2_Fixed.chk
 ----------------------------------------------------------------------
 # opt freq=noraman b3lyp/6-311+g(d,p) pop=(npa,hirshfeld,mbs) geom=con
 nectivity
 ----------------------------------------------------------------------
 1/14=-1,18=20,19=15,26=3,38=1,57=2/1,3;
 2/9=110,12=2,17=6,18=5,40=1/2;
 3/5=4,6=6,7=111,11=2,16=1,25=1,30=1,71=1,74=-5/1,2,3;
 4//1;
 5/5=2,38=5/2;
 6/7=2,8=2,9=2,10=2,27=100,28=1,40=-1,79=1/1,7;
 7//1,2,3,16;
 1/14=-1,18=20,19=15,26=3/3(2);
 2/9=110/2;
 99//99;
 2/9=110/2;
 3/5=4,6=6,7=111,11=2,16=1,25=1,30=1,71=1,74=-5/1,2,3;
 4/5=5,16=3,69=1/1;
 5/5=2,38=5/2;
 7//1,2,3,16;
 1/14=-1,18=20,19=15,26=3/3(-5);
 2/9=110/2;
 6/7=2,8=2,9=2,10=2,19=2,27=100,28=1,40=-1,79=1/1,7;
 99/9=1/99;
 --------
 Table6_2
 --------
 Symbolic Z-matrix:
 Charge =  0 Multiplicity = 1
 C                    -2.58587  -0.19898   0.00042 
 C                    -2.2645    1.12722  -0.00043 
 C                    -0.85642   1.36392   0.00022 
 C                    -0.14454   0.19975  -0.00047 
 S                    -1.17046  -1.2039   -0.00005 
 H                    -3.56392  -0.65505   0.00064 
 H                    -3.0027    1.91814  -0.00042 
 H                    -0.39897   2.34317   0.00104 
 Br                    1.73717   0.02013   0.00003 
 

 GradGradGradGradGradGradGradGradGradGradGradGradGradGradGradGradGradGrad
 Berny optimization.
 Initialization pass.
                           ----------------------------
                           !    Initial Parameters    !
                           ! (Angstroms and Degrees)  !
 --------------------------                            --------------------------
 ! Name  Definition              Value          Derivative Info.                !
 --------------------------------------------------------------------------------
 ! R1    R(1,2)                  1.3646         estimate D2E/DX2                !
 ! R2    R(1,5)                  1.7359         estimate D2E/DX2                !
 ! R3    R(1,6)                  1.0792         estimate D2E/DX2                !
 ! R4    R(2,3)                  1.4278         estimate D2E/DX2                !
 ! R5    R(2,7)                  1.0819         estimate D2E/DX2                !
 ! R6    R(3,4)                  1.3646         estimate D2E/DX2                !
 ! R7    R(3,8)                  1.0808         estimate D2E/DX2                !
 ! R8    R(4,5)                  1.7386         estimate D2E/DX2                !
 ! R9    R(4,9)                  1.8903         estimate D2E/DX2                !
 ! A1    A(2,1,5)              111.7523         estimate D2E/DX2                !
 ! A2    A(2,1,6)              128.6217         estimate D2E/DX2                !
 ! A3    A(5,1,6)              119.626          estimate D2E/DX2                !
 ! A4    A(1,2,3)              113.164          estimate D2E/DX2                !
 ! A5    A(1,2,7)              123.3524         estimate D2E/DX2                !
 ! A6    A(3,2,7)              123.4836         estimate D2E/DX2                !
 ! A7    A(2,3,4)              111.9033         estimate D2E/DX2                !
 ! A8    A(2,3,8)              124.5817         estimate D2E/DX2                !
 ! A9    A(4,3,8)              123.515          estimate D2E/DX2                !
 ! A10   A(3,4,5)              112.3916         estimate D2E/DX2                !
 ! A11   A(3,4,9)              126.898          estimate D2E/DX2                !
 ! A12   A(5,4,9)              120.7103         estimate D2E/DX2                !
 ! A13   A(1,5,4)               90.7887         estimate D2E/DX2                !
 ! D1    D(5,1,2,3)             -0.0745         estimate D2E/DX2                !
 ! D2    D(5,1,2,7)            179.9934         estimate D2E/DX2                !
 ! D3    D(6,1,2,3)            179.97           estimate D2E/DX2                !
 ! D4    D(6,1,2,7)              0.0379         estimate D2E/DX2                !
 ! D5    D(2,1,5,4)              0.0311         estimate D2E/DX2                !
 ! D6    D(6,1,5,4)            179.9911         estimate D2E/DX2                !
 ! D7    D(1,2,3,4)              0.0914         estimate D2E/DX2                !
 ! D8    D(1,2,3,8)           -179.9152         estimate D2E/DX2                !
 ! D9    D(7,2,3,4)           -179.9765         estimate D2E/DX2                !
 ! D10   D(7,2,3,8)              0.0168         estimate D2E/DX2                !
 ! D11   D(2,3,4,5)             -0.0664         estimate D2E/DX2                !
 ! D12   D(2,3,4,9)           -179.9991         estimate D2E/DX2                !
 ! D13   D(8,3,4,5)            179.9402         estimate D2E/DX2                !
 ! D14   D(8,3,4,9)              0.0075         estimate D2E/DX2                !
 ! D15   D(3,4,5,1)              0.0215         estimate D2E/DX2                !
 ! D16   D(9,4,5,1)            179.9589         estimate D2E/DX2                !
 --------------------------------------------------------------------------------
 Trust Radius=3.00D-01 FncErr=1.00D-07 GrdErr=1.00D-06
 Number of steps in this run=     48 maximum allowed number of steps=    100.
 GradGradGradGradGradGradGradGradGradGradGradGradGradGradGradGradGradGrad

                          Input orientation:                          
 ---------------------------------------------------------------------
 Center     Atomic      Atomic             Coordinates (Angstroms)
 Number     Number       Type             X           Y           Z
 ---------------------------------------------------------------------
      1          6           0       -2.585873   -0.198978    0.000420
      2          6           0       -2.264496    1.127223   -0.000430
      3          6           0       -0.856418    1.363920    0.000218
      4          6           0       -0.144535    0.199748   -0.000468
      5         16           0       -1.170455   -1.203902   -0.000050
      6          1           0       -3.563924   -0.655047    0.000640
      7          1           0       -3.002701    1.918138   -0.000417
      8          1           0       -0.398966    2.343166    0.001038
      9         35           0        1.737166    0.020134    0.000031
 ---------------------------------------------------------------------
                    Distance matrix (angstroms):
                    1          2          3          4          5
     1  C    0.000000
     2  C    1.364585   0.000000
     3  C    2.331022   1.427834   0.000000
     4  C    2.473684   2.313967   1.364578   0.000000
     5  S    1.735880   2.575086   2.586954   1.738604   0.000000
     6  H    1.079158   2.205675   3.377398   3.524613   2.455593
     7  H    2.157760   1.081893   2.216684   3.334963   3.619981
     8  H    3.353365   2.226819   1.080826   2.158467   3.629998
     9  Br   4.328588   4.151981   2.921034   1.890254   3.154762
                    6          7          8          9
     6  H    0.000000
     7  H    2.633677   0.000000
     8  H    4.359615   2.638198   0.000000
     9  Br   5.343915   5.105757   3.155874   0.000000
 Stoichiometry    C4H3BrS
 Framework group  C1[X(C4H3BrS)]
 Deg. of freedom    21
 Full point group                 C1      NOp   1
 Largest Abelian subgroup         C1      NOp   1
 Largest concise Abelian subgroup C1      NOp   1
                         Standard orientation:                         
 ---------------------------------------------------------------------
 Center     Atomic      Atomic             Coordinates (Angstroms)
 Number     Number       Type             X           Y           Z
 ---------------------------------------------------------------------
      1          6           0       -2.585873   -0.198978    0.000420
      2          6           0       -2.264496    1.127223   -0.000430
      3          6           0       -0.856418    1.363920    0.000218
      4          6           0       -0.144535    0.199748   -0.000468
      5         16           0       -1.170455   -1.203902   -0.000050
      6          1           0       -3.563924   -0.655047    0.000640
      7          1           0       -3.002701    1.918138   -0.000417
      8          1           0       -0.398966    2.343166    0.001038
      9         35           0        1.737166    0.020134    0.000031
 ---------------------------------------------------------------------
 Rotational constants (GHZ):      5.3519666      1.1186018      0.9252231
 Standard basis: 6-311+G(d,p) (5D, 7F)
 There are   192 symmetry adapted cartesian basis functions of A   symmetry.
 There are   184 symmetry adapted basis functions of A   symmetry.
   184 basis functions,   312 primitive gaussians,   192 cartesian basis functions
    39 alpha electrons       39 beta electrons
       nuclear repulsion energy       447.8237365275 Hartrees.
 NAtoms=    9 NActive=    9 NUniq=    9 SFac= 1.00D+00 NAtFMM=   60 NAOKFM=F Big=F
 Integral buffers will be    131072 words long.
 Raffenetti 2 integral format.
 Two-electron integral symmetry is turned on.
 One-electron integrals computed using PRISM.
 NBasis=   184 RedAO= T EigKep=  1.21D-05  NBF=   184
 NBsUse=   184 1.00D-06 EigRej= -1.00D+00 NBFU=   184
 ExpMin= 3.50D-02 ExpMax= 4.40D+05 ExpMxC= 1.51D+04 IAcc=3 IRadAn=         5 AccDes= 0.00D+00
 Harris functional with IExCor=  402 and IRadAn=       5 diagonalized for initial guess.
 HarFok:  IExCor=  402 AccDes= 0.00D+00 IRadAn=         5 IDoV= 1 UseB2=F ITyADJ=14
 ICtDFT=  3500011 ScaDFX=  1.000000  1.000000  1.000000  1.000000
 FoFCou: FMM=F IPFlag=           0 FMFlag=      100000 FMFlg1=           0
         NFxFlg=           0 DoJE=T BraDBF=F KetDBF=T FulRan=T
         wScrn=  0.000000 ICntrl=     500 IOpCl=  0 I1Cent=   200000004 NGrid=           0
         NMat0=    1 NMatS0=      1 NMatT0=    0 NMatD0=    1 NMtDS0=    0 NMtDT0=    0
 Petite list used in FoFCou.
 Keep R1 ints in memory in canonical form, NReq=148577546.
 Requested convergence on RMS density matrix=1.00D-08 within 128 cycles.
 Requested convergence on MAX density matrix=1.00D-06.
 Requested convergence on             energy=1.00D-06.
 No special actions if energy rises.
 SCF Done:  E(RB3LYP) =  -3126.61028053     A.U. after   14 cycles
            NFock= 14  Conv=0.70D-08     -V/T= 2.0014

 **********************************************************************

            Population analysis using the SCF density.

 **********************************************************************

 Orbital symmetries:
       Occupied  (A) (A) (A) (A) (A) (A) (A) (A) (A) (A) (A) (A)
                 (A) (A) (A) (A) (A) (A) (A) (A) (A) (A) (A) (A)
                 (A) (A) (A) (A) (A) (A) (A) (A) (A) (A) (A) (A)
                 (A) (A) (A)
       Virtual   (A) (A) (A) (A) (A) (A) (A) (A) (A) (A) (A) (A)
                 (A) (A) (A) (A) (A) (A) (A) (A) (A) (A) (A) (A)
                 (A) (A) (A) (A) (A) (A) (A) (A) (A) (A) (A) (A)
                 (A) (A) (A) (A) (A) (A) (A) (A) (A) (A) (A) (A)
                 (A) (A) (A) (A) (A) (A) (A) (A) (A) (A) (A) (A)
                 (A) (A) (A) (A) (A) (A) (A) (A) (A) (A) (A) (A)
                 (A) (A) (A) (A) (A) (A) (A) (A) (A) (A) (A) (A)
                 (A) (A) (A) (A) (A) (A) (A) (A) (A) (A) (A) (A)
                 (A) (A) (A) (A) (A) (A) (A) (A) (A) (A) (A) (A)
                 (A) (A) (A) (A) (A) (A) (A) (A) (A) (A) (A) (A)
                 (A) (A) (A) (A) (A) (A) (A) (A) (A) (A) (A) (A)
                 (A) (A) (A) (A) (A) (A) (A) (A) (A) (A) (A) (A)
                 (A)
 The electronic state is 1-A.
 Alpha  occ. eigenvalues -- -482.84676 -88.89465 -62.49941 -56.31996 -56.31577
 Alpha  occ. eigenvalues --  -56.31576 -10.25644 -10.21333 -10.19428 -10.19330
 Alpha  occ. eigenvalues --   -8.70903  -7.98064  -6.54102  -6.52711  -6.52704
 Alpha  occ. eigenvalues --   -5.94370  -5.93983  -5.93641  -2.65185  -2.64782
 Alpha  occ. eigenvalues --   -2.64773  -2.63672  -2.63671  -0.90598  -0.81844
 Alpha  occ. eigenvalues --   -0.75539  -0.71934  -0.57960  -0.55731  -0.52116
 Alpha  occ. eigenvalues --   -0.42754  -0.41910  -0.40747  -0.40429  -0.36536
 Alpha  occ. eigenvalues --   -0.32613  -0.30503  -0.27172  -0.24224
 Alpha virt. eigenvalues --   -0.03872  -0.02667  -0.00320   0.00081   0.02528
 Alpha virt. eigenvalues --    0.02651   0.02739   0.04130   0.04711   0.04838
 Alpha virt. eigenvalues --    0.05794   0.07068   0.07115   0.08136   0.09364
 Alpha virt. eigenvalues --    0.10370   0.11158   0.11920   0.12654   0.13574
 Alpha virt. eigenvalues --    0.14246   0.15288   0.15474   0.15883   0.17527
 Alpha virt. eigenvalues --    0.18311   0.18748   0.20354   0.20643   0.22550
 Alpha virt. eigenvalues --    0.23104   0.23404   0.25457   0.29982   0.32493
 Alpha virt. eigenvalues --    0.35154   0.37332   0.37799   0.38838   0.41667
 Alpha virt. eigenvalues --    0.45965   0.46644   0.50098   0.51637   0.52652
 Alpha virt. eigenvalues --    0.53776   0.55301   0.58043   0.59264   0.61444
 Alpha virt. eigenvalues --    0.62465   0.62659   0.64454   0.66757   0.68391
 Alpha virt. eigenvalues --    0.70101   0.71427   0.73051   0.75236   0.77993
 Alpha virt. eigenvalues --    0.78704   0.80456   0.81564   0.82575   0.82920
 Alpha virt. eigenvalues --    0.87551   0.93340   0.93997   0.97656   1.00399
 Alpha virt. eigenvalues --    1.01422   1.05540   1.06665   1.11099   1.17691
 Alpha virt. eigenvalues --    1.33229   1.34192   1.42821   1.52063   1.54672
 Alpha virt. eigenvalues --    1.56753   1.57159   1.65604   1.67342   1.69346
 Alpha virt. eigenvalues --    1.73709   1.73751   1.78595   1.81304   1.86995
 Alpha virt. eigenvalues --    1.92309   1.94656   1.95893   1.99597   2.01128
 Alpha virt. eigenvalues --    2.03422   2.07215   2.09852   2.12132   2.21126
 Alpha virt. eigenvalues --    2.22035   2.33492   2.37077   2.41942   2.59784
 Alpha virt. eigenvalues --    2.66496   2.67898   2.68860   2.72092   2.73333
 Alpha virt. eigenvalues --    2.74329   2.83834   2.96080   3.05179   3.07884
 Alpha virt. eigenvalues --    3.24388   3.27291   3.32320   3.48772   3.80658
 Alpha virt. eigenvalues --    4.01405   4.12537   4.14431   4.20185   4.25668
 Alpha virt. eigenvalues --    4.32599   4.54480   6.70512   7.53868   7.61443
 Alpha virt. eigenvalues --    7.68228   7.91178  17.26855  17.42968  17.45941
 Alpha virt. eigenvalues --   23.50596  23.76926  24.09669  24.14460  47.96685
 Alpha virt. eigenvalues --  189.05922 289.73465 289.81259 289.905111020.76786
          Condensed to atoms (all electrons):
               1          2          3          4          5          6
     1  C    5.346730   0.447259  -0.040366  -0.179596   0.038171   0.402328
     2  C    0.447259   4.991859   0.444952  -0.060845   0.129715  -0.004202
     3  C   -0.040366   0.444952   4.962210   0.464235  -0.199828  -0.014875
     4  C   -0.179596  -0.060845   0.464235   5.403301   0.264461   0.013920
     5  S    0.038171   0.129715  -0.199828   0.264461  15.887845  -0.035445
     6  H    0.402328  -0.004202  -0.014875   0.013920  -0.035445   0.470185
     7  H   -0.006545   0.379353  -0.024887  -0.000453   0.003752  -0.005732
     8  H    0.004533  -0.031044   0.407948  -0.033849   0.006471  -0.000125
     9  Br   0.012265   0.031334  -0.001140   0.122685  -0.029519  -0.000603
               7          8          9
     1  C   -0.006545   0.004533   0.012265
     2  C    0.379353  -0.031044   0.031334
     3  C   -0.024887   0.407948  -0.001140
     4  C   -0.000453  -0.033849   0.122685
     5  S    0.003752   0.006471  -0.029519
     6  H   -0.005732  -0.000125  -0.000603
     7  H    0.522121  -0.004348  -0.000385
     8  H   -0.004348   0.510747  -0.007056
     9  Br  -0.000385  -0.007056  34.919919
 Mulliken charges:
               1
     1  C   -0.024779
     2  C   -0.328383
     3  C    0.001750
     4  C    0.006141
     5  S   -0.065624
     6  H    0.174548
     7  H    0.137123
     8  H    0.146723
     9  Br  -0.047501
 Sum of Mulliken charges =   0.00000
 Mulliken charges with hydrogens summed into heavy atoms:
               1
     1  C    0.149769
     2  C   -0.191260
     3  C    0.148474
     4  C    0.006141
     5  S   -0.065624
     9  Br  -0.047501
 Electronic spatial extent (au):  <R**2>=           1106.4757
 Charge=              0.0000 electrons
 Dipole moment (field-independent basis, Debye):
    X=             -1.4477    Y=              0.6039    Z=              0.0011  Tot=              1.5686
 Quadrupole moment (field-independent basis, Debye-Ang):
   XX=            -48.3765   YY=            -51.6354   ZZ=            -58.2425
   XY=             -0.2481   XZ=             -0.0010   YZ=              0.0014
 Traceless Quadrupole moment (field-independent basis, Debye-Ang):
   XX=              4.3749   YY=              1.1161   ZZ=             -5.4910
   XY=             -0.2481   XZ=             -0.0010   YZ=              0.0014
 Octapole moment (field-independent basis, Debye-Ang**2):
  XXX=             40.0518  YYY=              6.1924  ZZZ=              0.0024  XYY=             12.3258
  XXY=             -2.7937  XXZ=              0.0077  XZZ=             23.4175  YZZ=             -1.7609
  YYZ=              0.0069  XYZ=              0.0044
 Hexadecapole moment (field-independent basis, Debye-Ang**3):
 XXXX=           -869.2604 YYYY=           -297.4484 ZZZZ=            -73.9163 XXXY=              8.3633
 XXXZ=             -0.0111 YYYX=             -3.5453 YYYZ=              0.0129 ZZZX=              0.0019
 ZZZY=              0.0024 XXYY=           -200.4468 XXZZ=           -193.4374 YYZZ=            -70.0956
 XXYZ=             -0.0145 YYXZ=             -0.0027 ZZXY=              3.1283
 N-N= 4.478237365275D+02 E-N=-8.352828339505D+03  KE= 3.122287829764D+03
 There are a total of       76708 grid points.
 ElSum from          density=       78.0000615200
 ElSum from atomic densities=       78.0002009411

 Hirshfeld populations at iteration   1 (CX, CA, CB, DipXYZ):
               1          2          3          4          5          6
     1  C    0.000001   3.038468   3.038468  -0.050603  -0.064887   0.000077
     2  C    0.000001   3.031641   3.031641  -0.034925   0.111981  -0.000160
     3  C    0.000001   3.026832   3.026832   0.016427   0.118191   0.000148
     4  C    0.000002   3.007405   3.007405   0.021844  -0.041705  -0.000075
     5  S    0.000006   7.943105   7.943105   0.006290  -0.000443   0.000035
     6  H    0.000004   0.469542   0.469542  -0.168388  -0.069710   0.000061
     7  H    0.000002   0.471205   0.471205  -0.113329   0.125176  -0.000008
     8  H    0.000009   0.467769   0.467769   0.068746   0.154363   0.000171
     9  Br   0.000074  17.544065  17.544065   0.273589  -0.002042   0.000068
       Tot   0.000101  39.000031  39.000031   0.019651   0.330925   0.000316

 Dip from Atomic Chgs             -0.588987  -0.093221   0.000120
         Total Dipole             -0.569335   0.237704   0.000437

 Hirshfeld charges, spin densities, dipoles, and CM5 charges using IRadAn=      4:
              Q-H        S-H        Dx         Dy         Dz        Q-CM5   
     1  C   -0.076937   0.000000  -0.050603  -0.064887   0.000077  -0.143163
     2  C   -0.063281   0.000000  -0.034925   0.111981  -0.000160  -0.119571
     3  C   -0.053664   0.000000   0.016427   0.118191   0.000148  -0.106185
     4  C   -0.014809   0.000000   0.021844  -0.041705  -0.000075  -0.017706
     5  S    0.113791   0.000000   0.006290  -0.000443   0.000035   0.142119
     6  H    0.060915   0.000000  -0.168388  -0.069710   0.000061   0.117423
     7  H    0.057591   0.000000  -0.113329   0.125176  -0.000008   0.113093
     8  H    0.064462   0.000000   0.068746   0.154363   0.000171   0.119407
     9  Br  -0.088130   0.000000   0.273589  -0.002042   0.000068  -0.105478
       Tot  -0.000062   0.000000   0.019651   0.330925   0.000316  -0.000062
 Hirshfeld charges with hydrogens summed into heavy atoms:
              Q-H       Q-CM5   
     1  C   -0.016022  -0.025740
     2  C   -0.005690  -0.006478
     3  C    0.010799   0.013222
     4  C   -0.014809  -0.017706
     5  S    0.113791   0.142119
     9  Br  -0.088130  -0.105478
 
 EQQ= 0.000000000000E+00 EQD= 0.000000000000E+00 EDD= 0.618500649916E-02
 EQQ+QD+DD= 0.618500649916E-02
 
          MBS Condensed to atoms (all electrons):
               1          2          3          4          5          6
     1  C    4.956570   0.541845  -0.046006  -0.030372   0.360699   0.386006
     2  C    0.541845   4.841397   0.468515  -0.045312  -0.039410  -0.018686
     3  C   -0.046006   0.468515   4.844634   0.530274  -0.042158   0.001559
     4  C   -0.030372  -0.045312   0.530274   4.890238   0.350605   0.000828
     5  S    0.360699  -0.039410  -0.042158   0.350605  15.306284  -0.019675
     6  H    0.386006  -0.018686   0.001559   0.000828  -0.019675   0.511434
     7  H   -0.021980   0.387624  -0.021232   0.001548   0.001312  -0.002330
     8  H    0.001565  -0.019618   0.387529  -0.022266   0.001259  -0.000030
     9  Br   0.000097   0.000252  -0.014920   0.290829  -0.009465   0.000002
               7          8          9
     1  C   -0.021980   0.001565   0.000097
     2  C    0.387624  -0.019618   0.000252
     3  C   -0.021232   0.387529  -0.014920
     4  C    0.001548  -0.022266   0.290829
     5  S    0.001312   0.001259  -0.009465
     6  H   -0.002330  -0.000030   0.000002
     7  H    0.534335  -0.001791   0.000009
     8  H   -0.001791   0.524968  -0.001256
     9  Br   0.000009  -0.001256  34.878432
 MBS Mulliken charges:
               1
     1  C   -0.148426
     2  C   -0.116607
     3  C   -0.108195
     4  C    0.033627
     5  S    0.090548
     6  H    0.140891
     7  H    0.122504
     8  H    0.129640
     9  Br  -0.143981
 Sum of MBS Mulliken charges =   0.00000
 MBS Mulliken charges with hydrogens summed into heavy atoms:
               1
     1  C   -0.007535
     2  C    0.005896
     3  C    0.021445
     4  C    0.033627
     5  S    0.090548
     9  Br  -0.143981
 ******************************Gaussian NBO Version 3.1******************************
             N A T U R A L   A T O M I C   O R B I T A L   A N D
          N A T U R A L   B O N D   O R B I T A L   A N A L Y S I S
 ******************************Gaussian NBO Version 3.1******************************
       /RESON  / : Allow strongly delocalized NBO set

 Analyzing the SCF density

 Job title: Table6_2                                                        

 Storage needed:    102628 in NPA ( 536870435 available)


 NATURAL POPULATIONS:  Natural atomic orbital occupancies 
                                                          
   NAO  Atom  No  lang   Type(AO)    Occupancy      Energy
 ----------------------------------------------------------
     1    C    1  S      Cor( 1S)     1.99911     -10.08685
     2    C    1  S      Val( 2S)     1.04509      -0.28024
     3    C    1  S      Ryd( 4S)     0.00115       0.67413
     4    C    1  S      Ryd( 3S)     0.00088       0.50339
     5    C    1  S      Ryd( 5S)     0.00001      23.38400
     6    C    1  px     Val( 2p)     1.11325      -0.12433
     7    C    1  px     Ryd( 4p)     0.00433       0.81606
     8    C    1  px     Ryd( 3p)     0.00063       0.72045
     9    C    1  px     Ryd( 5p)     0.00008       2.69269
    10    C    1  py     Val( 2p)     1.07244      -0.11793
    11    C    1  py     Ryd( 3p)     0.00531       0.52780
    12    C    1  py     Ryd( 4p)     0.00034       0.57575
    13    C    1  py     Ryd( 5p)     0.00026       2.91880
    14    C    1  pz     Val( 2p)     1.13808      -0.15957
    15    C    1  pz     Ryd( 3p)     0.00250       0.44433
    16    C    1  pz     Ryd( 4p)     0.00037       0.45149
    17    C    1  pz     Ryd( 5p)     0.00001       2.52639
    18    C    1  dxy    Ryd( 3d)     0.00188       2.19751
    19    C    1  dxz    Ryd( 3d)     0.00087       1.48442
    20    C    1  dyz    Ryd( 3d)     0.00072       1.58834
    21    C    1  dx2y2  Ryd( 3d)     0.00073       2.28551
    22    C    1  dz2    Ryd( 3d)     0.00104       1.88013

    23    C    2  S      Cor( 1S)     1.99910     -10.04601
    24    C    2  S      Val( 2S)     0.95754      -0.18295
    25    C    2  S      Ryd( 3S)     0.00223       0.57519
    26    C    2  S      Ryd( 4S)     0.00027       0.73801
    27    C    2  S      Ryd( 5S)     0.00001      23.19581
    28    C    2  px     Val( 2p)     1.09528      -0.06691
    29    C    2  px     Ryd( 4p)     0.00502       0.81649
    30    C    2  px     Ryd( 3p)     0.00047       0.30668
    31    C    2  px     Ryd( 5p)     0.00013       3.14415
    32    C    2  py     Val( 2p)     1.13799      -0.08722
    33    C    2  py     Ryd( 4p)     0.00532       0.86238
    34    C    2  py     Ryd( 3p)     0.00048       0.29964
    35    C    2  py     Ryd( 5p)     0.00013       3.13862
    36    C    2  pz     Val( 2p)     1.03728      -0.12526
    37    C    2  pz     Ryd( 4p)     0.00132       0.52081
    38    C    2  pz     Ryd( 3p)     0.00037       0.30906
    39    C    2  pz     Ryd( 5p)     0.00003       2.63568
    40    C    2  dxy    Ryd( 3d)     0.00079       2.54150
    41    C    2  dxz    Ryd( 3d)     0.00052       1.76334
    42    C    2  dyz    Ryd( 3d)     0.00062       1.65623
    43    C    2  dx2y2  Ryd( 3d)     0.00063       2.72882
    44    C    2  dz2    Ryd( 3d)     0.00031       2.08657

    45    C    3  S      Cor( 1S)     1.99882     -10.04125
    46    C    3  S      Val( 2S)     0.95532      -0.17985
    47    C    3  S      Ryd( 3S)     0.00207       0.73668
    48    C    3  S      Ryd( 4S)     0.00041       0.78440
    49    C    3  S      Ryd( 5S)     0.00001      23.14750
    50    C    3  px     Val( 2p)     1.07619      -0.07860
    51    C    3  px     Ryd( 4p)     0.00565       0.72016
    52    C    3  px     Ryd( 3p)     0.00040       0.44369
    53    C    3  px     Ryd( 5p)     0.00014       3.19380
    54    C    3  py     Val( 2p)     1.19012      -0.10611
    55    C    3  py     Ryd( 4p)     0.00500       0.88320
    56    C    3  py     Ryd( 3p)     0.00038       0.48177
    57    C    3  py     Ryd( 5p)     0.00008       3.10452
    58    C    3  pz     Val( 2p)     1.03506      -0.12519
    59    C    3  pz     Ryd( 4p)     0.00185       0.50480
    60    C    3  pz     Ryd( 3p)     0.00045       0.28268
    61    C    3  pz     Ryd( 5p)     0.00002       2.67273
    62    C    3  dxy    Ryd( 3d)     0.00163       1.81375
    63    C    3  dxz    Ryd( 3d)     0.00031       1.36154
    64    C    3  dyz    Ryd( 3d)     0.00071       1.33364
    65    C    3  dx2y2  Ryd( 3d)     0.00115       1.80864
    66    C    3  dz2    Ryd( 3d)     0.00136       1.73252

    67    C    4  S      Cor( 1S)     1.99873     -10.14790
    68    C    4  S      Val( 2S)     1.05937      -0.33928
    69    C    4  S      Ryd( 4S)     0.00196       0.67132
    70    C    4  S      Ryd( 3S)     0.00039       0.54471
    71    C    4  S      Ryd( 5S)     0.00001      23.46648
    72    C    4  px     Val( 2p)     0.99920      -0.22848
    73    C    4  px     Ryd( 3p)     0.00529       0.76455
    74    C    4  px     Ryd( 4p)     0.00047       0.95441
    75    C    4  px     Ryd( 5p)     0.00021       2.88548
    76    C    4  py     Val( 2p)     1.06895      -0.16852
    77    C    4  py     Ryd( 3p)     0.00897       0.56491
    78    C    4  py     Ryd( 4p)     0.00031       0.56599
    79    C    4  py     Ryd( 5p)     0.00040       2.93647
    80    C    4  pz     Val( 2p)     1.20011      -0.18603
    81    C    4  pz     Ryd( 4p)     0.00162       0.51173
    82    C    4  pz     Ryd( 3p)     0.00067       0.32038
    83    C    4  pz     Ryd( 5p)     0.00000       2.64796
    84    C    4  dxy    Ryd( 3d)     0.00208       2.26420
    85    C    4  dxz    Ryd( 3d)     0.00121       1.50488
    86    C    4  dyz    Ryd( 3d)     0.00088       1.63611
    87    C    4  dx2y2  Ryd( 3d)     0.00178       2.09269
    88    C    4  dz2    Ryd( 3d)     0.00112       1.87057

    89    S    5  S      Cor( 1S)     2.00000     -87.69243
    90    S    5  S      Cor( 2S)     1.99906      -8.88187
    91    S    5  S      Val( 3S)     1.62661      -0.75474
    92    S    5  S      Ryd( 5S)     0.00666       0.82050
    93    S    5  S      Ryd( 4S)     0.00038       0.40816
    94    S    5  S      Ryd( 6S)     0.00001      14.50996
    95    S    5  S      Ryd( 7S)     0.00000     181.99028
    96    S    5  px     Cor( 2p)     1.99985      -5.93494
    97    S    5  px     Val( 3p)     0.92105      -0.18831
    98    S    5  px     Ryd( 4p)     0.00671       0.49162
    99    S    5  px     Ryd( 5p)     0.00032       0.78947
   100    S    5  px     Ryd( 6p)     0.00014       1.69304
   101    S    5  px     Ryd( 7p)     0.00000      16.61138
   102    S    5  py     Cor( 2p)     1.99982      -5.93211
   103    S    5  py     Val( 3p)     1.33838      -0.22266
   104    S    5  py     Ryd( 4p)     0.00190       0.40694
   105    S    5  py     Ryd( 5p)     0.00012       0.69163
   106    S    5  py     Ryd( 6p)     0.00022       1.81359
   107    S    5  py     Ryd( 7p)     0.00000      16.51175
   108    S    5  pz     Cor( 2p)     1.99995      -5.93082
   109    S    5  pz     Val( 3p)     1.61893      -0.25844
   110    S    5  pz     Ryd( 4p)     0.00599       0.35640
   111    S    5  pz     Ryd( 5p)     0.00012       0.76563
   112    S    5  pz     Ryd( 6p)     0.00009       1.56968
   113    S    5  pz     Ryd( 7p)     0.00000      16.64514
   114    S    5  dxy    Ryd( 3d)     0.00872       1.30704
   115    S    5  dxz    Ryd( 3d)     0.00518       0.83042
   116    S    5  dyz    Ryd( 3d)     0.00309       0.84278
   117    S    5  dx2y2  Ryd( 3d)     0.00298       1.06769
   118    S    5  dz2    Ryd( 3d)     0.00291       1.13518

   119    H    6  S      Val( 1S)     0.76672       0.03546
   120    H    6  S      Ryd( 2S)     0.00041       0.64231
   121    H    6  S      Ryd( 3S)     0.00039       2.01106
   122    H    6  px     Ryd( 2p)     0.00039       2.50862
   123    H    6  py     Ryd( 2p)     0.00014       1.98094
   124    H    6  pz     Ryd( 2p)     0.00016       1.55547

   125    H    7  S      Val( 1S)     0.77480       0.03885
   126    H    7  S      Ryd( 2S)     0.00053       0.49864
   127    H    7  S      Ryd( 3S)     0.00024       2.14634
   128    H    7  px     Ryd( 2p)     0.00031       2.29479
   129    H    7  py     Ryd( 2p)     0.00031       2.31439
   130    H    7  pz     Ryd( 2p)     0.00026       1.58214

   131    H    8  S      Val( 1S)     0.76637       0.03656
   132    H    8  S      Ryd( 2S)     0.00059       0.95957
   133    H    8  S      Ryd( 3S)     0.00023       1.73033
   134    H    8  px     Ryd( 2p)     0.00023       2.13648
   135    H    8  py     Ryd( 2p)     0.00020       2.74558
   136    H    8  pz     Ryd( 2p)     0.00036       1.71661

   137   Br    9  S      Cor( 1S)     2.00000    -481.85145
   138   Br    9  S      Cor( 2S)     2.00000     -60.15900
   139   Br    9  S      Cor( 3S)     1.99968     -11.62155
   140   Br    9  S      Val( 4S)     1.85463      -1.07600
   141   Br    9  S      Ryd( 6S)     0.00315       0.71947
   142   Br    9  S      Ryd( 5S)     0.00022       0.24821
   143   Br    9  S      Ryd( 7S)     0.00000      14.28257
   144   Br    9  S      Ryd( 8S)     0.00000      78.22865
   145   Br    9  S      Ryd( 9S)     0.00000     982.32042
   146   Br    9  px     Cor( 2p)     2.00000     -56.08350
   147   Br    9  px     Cor( 3p)     1.99982      -6.76552
   148   Br    9  px     Val( 4p)     1.10577      -0.25479
   149   Br    9  px     Ryd( 6p)     0.00567       0.35196
   150   Br    9  px     Ryd( 5p)     0.00010       0.23427
   151   Br    9  px     Ryd( 7p)     0.00004       2.68747
   152   Br    9  px     Ryd( 8p)     0.00000      11.49362
   153   Br    9  px     Ryd( 9p)     0.00000     285.27258
   154   Br    9  py     Cor( 2p)     2.00000     -56.07951
   155   Br    9  py     Cor( 3p)     1.99998      -6.75548
   156   Br    9  py     Val( 4p)     1.95616      -0.30919
   157   Br    9  py     Ryd( 6p)     0.00182       0.39201
   158   Br    9  py     Ryd( 5p)     0.00011       0.29266
   159   Br    9  py     Ryd( 7p)     0.00001       2.39594
   160   Br    9  py     Ryd( 8p)     0.00000      11.50132
   161   Br    9  py     Ryd( 9p)     0.00000     285.26939
   162   Br    9  pz     Cor( 2p)     2.00000     -56.07950
   163   Br    9  pz     Cor( 3p)     1.99999      -6.75540
   164   Br    9  pz     Val( 4p)     1.93527      -0.30765
   165   Br    9  pz     Ryd( 6p)     0.00222       0.39378
   166   Br    9  pz     Ryd( 5p)     0.00012       0.26675
   167   Br    9  pz     Ryd( 7p)     0.00001       2.31125
   168   Br    9  pz     Ryd( 8p)     0.00000      11.48800
   169   Br    9  pz     Ryd( 9p)     0.00000     285.26798
   170   Br    9  dxy    Cor( 3d)     1.99993      -2.64765
   171   Br    9  dxy    Ryd( 4d)     0.00101       0.96736
   172   Br    9  dxy    Ryd( 5d)     0.00000       4.30658
   173   Br    9  dxz    Cor( 3d)     1.99995      -2.64753
   174   Br    9  dxz    Ryd( 4d)     0.00256       0.74977
   175   Br    9  dxz    Ryd( 5d)     0.00002       4.15017
   176   Br    9  dyz    Cor( 3d)     2.00000      -2.63676
   177   Br    9  dyz    Ryd( 4d)     0.00013       0.67757
   178   Br    9  dyz    Ryd( 5d)     0.00001       4.06101
   179   Br    9  dx2y2  Cor( 3d)     1.99982      -2.64763
   180   Br    9  dx2y2  Ryd( 4d)     0.00312       1.03921
   181   Br    9  dx2y2  Ryd( 5d)     0.00002       4.38534
   182   Br    9  dz2    Cor( 3d)     1.99994      -2.64032
   183   Br    9  dz2    Ryd( 4d)     0.00110       0.79506
   184   Br    9  dz2    Ryd( 5d)     0.00001       4.17363

 WARNING:  1 low occupancy (<1.9990e) core orbital  found on  C    3
           1 low occupancy (<1.9990e) core orbital  found on  C    4

 WARNING:  Population inversion found on atom  C    1
           Population inversion found on atom  C    2
           Population inversion found on atom  C    3
           Population inversion found on atom  C    4
           Population inversion found on atom  S    5
           Population inversion found on atom Br    9


 Summary of Natural Population Analysis:                  
                                                          
                                       Natural Population 
                Natural  -----------------------------------------------
    Atom  No    Charge         Core      Valence    Rydberg      Total
 -----------------------------------------------------------------------
      C    1   -0.38907      1.99911     4.36886    0.02110     6.38907
      C    2   -0.24585      1.99910     4.22810    0.01865     6.24585
      C    3   -0.27715      1.99882     4.25669    0.02163     6.27715
      C    4   -0.35374      1.99873     4.32763    0.02738     6.35374
      S    5    0.45080      9.99869     5.50497    0.04554    15.54920
      H    6    0.23178      0.00000     0.76672    0.00150     0.76822
      H    7    0.22356      0.00000     0.77480    0.00164     0.77644
      H    8    0.23202      0.00000     0.76637    0.00161     0.76798
     Br    9    0.12764     27.99911     6.85183    0.02142    34.87236
 =======================================================================
   * Total *    0.00000     45.99355    31.84597    0.16047    78.00000

                                 Natural Population      
 --------------------------------------------------------
   Core                      45.99355 ( 99.9860% of  46)
   Valence                   31.84597 ( 99.5187% of  32)
   Natural Minimal Basis     77.83953 ( 99.7943% of  78)
   Natural Rydberg Basis      0.16047 (  0.2057% of  78)
 --------------------------------------------------------

    Atom  No          Natural Electron Configuration
 ----------------------------------------------------------------------------
      C    1      [core]2S( 1.05)2p( 3.32)3p( 0.01)3d( 0.01)4p( 0.01)
      C    2      [core]2S( 0.96)2p( 3.27)4p( 0.01)
      C    3      [core]2S( 0.96)2p( 3.30)3d( 0.01)4p( 0.01)
      C    4      [core]2S( 1.06)2p( 3.27)3p( 0.01)3d( 0.01)
      S    5      [core]3S( 1.63)3p( 3.88)3d( 0.02)4p( 0.01)5S( 0.01)
      H    6            1S( 0.77)
      H    7            1S( 0.77)
      H    8            1S( 0.77)
     Br    9      [core]4S( 1.85)4p( 5.00)4d( 0.01)6p( 0.01)


 NBO analysis skipped by request.
 Calling FoFJK, ICntrl=      2127 FMM=F ISym2X=0 I1Cent= 0 IOpClX= 0 NMat=1 NMatS=1 NMatT=0.
 ***** Axes restored to original set *****
 -------------------------------------------------------------------
 Center     Atomic                   Forces (Hartrees/Bohr)
 Number     Number              X              Y              Z
 -------------------------------------------------------------------
      1        6          -0.000004257   -0.000072187   -0.000082795
      2        6           0.000060385    0.000041605    0.000144862
      3        6          -0.000065421    0.000037268   -0.000095120
      4        6           0.000044423   -0.000071906    0.000077836
      5       16          -0.000021247    0.000074937    0.000002649
      6        1          -0.000012574    0.000012112   -0.000012542
      7        1          -0.000024413   -0.000009660    0.000000489
      8        1           0.000047502   -0.000013831   -0.000030583
      9       35          -0.000024398    0.000001662   -0.000004796
 -------------------------------------------------------------------
 Cartesian Forces:  Max     0.000144862 RMS     0.000053609

 GradGradGradGradGradGradGradGradGradGradGradGradGradGradGradGradGradGrad
 Berny optimization.
 FormGI is forming the generalized inverse of G from B-inverse, IUseBI=4.
 Internal  Forces:  Max     0.000062521 RMS     0.000026838
 Search for a local minimum.
 Step number   1 out of a maximum of   48
 All quantities printed in internal units (Hartrees-Bohrs-Radians)
 Mixed Optimization -- En-DIIS/RFO-DIIS
 Second derivative matrix not updated -- first step.
 ITU=  0
     Eigenvalues ---    0.01685   0.01907   0.02136   0.02155   0.02220
     Eigenvalues ---    0.02318   0.16000   0.16000   0.16000   0.18735
     Eigenvalues ---    0.22128   0.23806   0.25000   0.30864   0.31186
     Eigenvalues ---    0.35767   0.35895   0.36096   0.40142   0.48221
     Eigenvalues ---    0.51544
 RFO step:  Lambda=-7.15053943D-07 EMin= 1.68478734D-02
 Linear search not attempted -- first point.
 Iteration  1 RMS(Cart)=  0.00080570 RMS(Int)=  0.00000060
 Iteration  2 RMS(Cart)=  0.00000064 RMS(Int)=  0.00000037
 Variable       Old X    -DE/DX   Delta X   Delta X   Delta X     New X
                                 (Linear)    (Quad)   (Total)
    R1        2.57869   0.00004   0.00000   0.00008   0.00008   2.57877
    R2        3.28034  -0.00004   0.00000  -0.00012  -0.00012   3.28022
    R3        2.03931   0.00001   0.00000   0.00002   0.00002   2.03933
    R4        2.69821   0.00000   0.00000   0.00001   0.00001   2.69822
    R5        2.04448   0.00001   0.00000   0.00002   0.00002   2.04451
    R6        2.57868   0.00003   0.00000   0.00006   0.00006   2.57874
    R7        2.04247   0.00001   0.00000   0.00002   0.00002   2.04249
    R8        3.28549  -0.00003   0.00000  -0.00011  -0.00011   3.28538
    R9        3.57206  -0.00002   0.00000  -0.00013  -0.00013   3.57194
    A1        1.95045  -0.00002   0.00000  -0.00007  -0.00007   1.95037
    A2        2.24487   0.00000   0.00000  -0.00001  -0.00001   2.24486
    A3        2.08787   0.00002   0.00000   0.00009   0.00009   2.08796
    A4        1.97508   0.00000   0.00000   0.00003   0.00003   1.97511
    A5        2.15291  -0.00003   0.00000  -0.00021  -0.00021   2.15269
    A6        2.15519   0.00003   0.00000   0.00019   0.00019   2.15538
    A7        1.95308  -0.00001   0.00000  -0.00002  -0.00002   1.95306
    A8        2.17436   0.00005   0.00000   0.00028   0.00028   2.17464
    A9        2.15574  -0.00004   0.00000  -0.00026  -0.00026   2.15548
   A10        1.96160  -0.00001   0.00000  -0.00004  -0.00004   1.96156
   A11        2.21479  -0.00001   0.00000  -0.00004  -0.00005   2.21474
   A12        2.10679   0.00002   0.00000   0.00009   0.00009   2.10688
   A13        1.58456   0.00003   0.00000   0.00011   0.00011   1.58467
    D1       -0.00130   0.00005   0.00000   0.00254   0.00254   0.00124
    D2        3.14148   0.00001   0.00000   0.00034   0.00034  -3.14137
    D3        3.14107   0.00003   0.00000   0.00145   0.00145  -3.14067
    D4        0.00066  -0.00002   0.00000  -0.00075  -0.00075  -0.00009
    D5        0.00054  -0.00002   0.00000  -0.00117  -0.00117  -0.00063
    D6        3.14144   0.00000   0.00000  -0.00019  -0.00019   3.14125
    D7        0.00160  -0.00006   0.00000  -0.00296  -0.00296  -0.00136
    D8       -3.14011  -0.00004   0.00000  -0.00209  -0.00209   3.14098
    D9       -3.14118  -0.00002   0.00000  -0.00076  -0.00076   3.14124
   D10        0.00029   0.00000   0.00000   0.00011   0.00011   0.00040
   D11       -0.00116   0.00004   0.00000   0.00202   0.00202   0.00086
   D12       -3.14158   0.00001   0.00000   0.00037   0.00037  -3.14120
   D13        3.14055   0.00002   0.00000   0.00116   0.00117  -3.14147
   D14        0.00013  -0.00001   0.00000  -0.00048  -0.00048  -0.00035
   D15        0.00038  -0.00001   0.00000  -0.00053  -0.00053  -0.00015
   D16        3.14088   0.00002   0.00000   0.00100   0.00100  -3.14131
         Item               Value     Threshold  Converged?
 Maximum Force            0.000063     0.000450     YES
 RMS     Force            0.000027     0.000300     YES
 Maximum Displacement     0.002697     0.001800     NO 
 RMS     Displacement     0.000806     0.001200     YES
 Predicted change in Energy=-3.575350D-07
 GradGradGradGradGradGradGradGradGradGradGradGradGradGradGradGradGradGrad

                          Input orientation:                          
 ---------------------------------------------------------------------
 Center     Atomic      Atomic             Coordinates (Angstroms)
 Number     Number       Type             X           Y           Z
 ---------------------------------------------------------------------
      1          6           0       -2.585900   -0.199000   -0.000054
      2          6           0       -2.264491    1.127236    0.000611
      3          6           0       -0.856412    1.363950   -0.000186
      4          6           0       -0.144519    0.199748    0.000286
      5         16           0       -1.170476   -1.203805    0.000316
      6          1           0       -3.563973   -0.655041   -0.000474
      7          1           0       -3.002861    1.918014    0.000722
      8          1           0       -0.398693    2.343085   -0.000389
      9         35           0        1.737123    0.020215    0.000149
 ---------------------------------------------------------------------
                    Distance matrix (angstroms):
                    1          2          3          4          5
     1  C    0.000000
     2  C    1.364626   0.000000
     3  C    2.331082   1.427838   0.000000
     4  C    2.473730   2.313982   1.364609   0.000000
     5  S    1.735817   2.574999   2.586890   1.738548   0.000000
     6  H    1.079167   2.205712   3.377457   3.524675   2.455600
     7  H    2.157685   1.081906   2.216807   3.335050   3.619860
     8  H    3.353516   2.226991   1.080838   2.158355   3.629886
     9  Br   4.328577   4.151916   2.920966   1.890187   3.154735
                    6          7          8          9
     6  H    0.000000
     7  H    2.633527   0.000000
     8  H    4.359788   2.638631   0.000000
     9  Br   5.343930   5.105789   3.155540   0.000000
 Stoichiometry    C4H3BrS
 Framework group  C1[X(C4H3BrS)]
 Deg. of freedom    21
 Full point group                 C1      NOp   1
 Largest Abelian subgroup         C1      NOp   1
 Largest concise Abelian subgroup C1      NOp   1
                         Standard orientation:                         
 ---------------------------------------------------------------------
 Center     Atomic      Atomic             Coordinates (Angstroms)
 Number     Number       Type             X           Y           Z
 ---------------------------------------------------------------------
      1          6           0       -2.585882   -0.198990   -0.000234
      2          6           0       -2.264439    1.127237    0.000430
      3          6           0       -0.856354    1.363916   -0.000366
      4          6           0       -0.144491    0.199696    0.000105
      5         16           0       -1.170483   -1.203831    0.000135
      6          1           0       -3.563967   -0.655006   -0.000654
      7          1           0       -3.002789    1.918035    0.000542
      8          1           0       -0.398611    2.343039   -0.000570
      9         35           0        1.737146    0.020116   -0.000031
 ---------------------------------------------------------------------
 Rotational constants (GHZ):      5.3523350      1.1186184      0.9252455
 Standard basis: 6-311+G(d,p) (5D, 7F)
 There are   192 symmetry adapted cartesian basis functions of A   symmetry.
 There are   184 symmetry adapted basis functions of A   symmetry.
   184 basis functions,   312 primitive gaussians,   192 cartesian basis functions
    39 alpha electrons       39 beta electrons
       nuclear repulsion energy       447.8304332231 Hartrees.
 NAtoms=    9 NActive=    9 NUniq=    9 SFac= 1.00D+00 NAtFMM=   60 NAOKFM=F Big=F
 Integral buffers will be    131072 words long.
 Raffenetti 2 integral format.
 Two-electron integral symmetry is turned on.
 One-electron integrals computed using PRISM.
 NBasis=   184 RedAO= T EigKep=  1.21D-05  NBF=   184
 NBsUse=   184 1.00D-06 EigRej= -1.00D+00 NBFU=   184
 Initial guess from the checkpoint file:  "Table6_2_Fixed.chk"
 B after Tr=     0.000000    0.000000    0.000000
         Rot=    1.000000    0.000021   -0.000009    0.000008 Ang=   0.00 deg.
 Keep R1 ints in memory in canonical form, NReq=148577546.
 Requested convergence on RMS density matrix=1.00D-08 within 128 cycles.
 Requested convergence on MAX density matrix=1.00D-06.
 Requested convergence on             energy=1.00D-06.
 No special actions if energy rises.
 SCF Done:  E(RB3LYP) =  -3126.61028062     A.U. after    8 cycles
            NFock=  8  Conv=0.65D-08     -V/T= 2.0014
 Calling FoFJK, ICntrl=      2127 FMM=F ISym2X=0 I1Cent= 0 IOpClX= 0 NMat=1 NMatS=1 NMatT=0.
 ***** Axes restored to original set *****
 -------------------------------------------------------------------
 Center     Atomic                   Forces (Hartrees/Bohr)
 Number     Number              X              Y              Z
 -------------------------------------------------------------------
      1        6           0.000012089   -0.000024261    0.000064608
      2        6           0.000034235    0.000032316   -0.000130709
      3        6          -0.000048282    0.000020137    0.000114823
      4        6           0.000004515   -0.000040387   -0.000045180
      5       16          -0.000010516    0.000016038   -0.000024732
      6        1          -0.000004375    0.000012760    0.000022802
      7        1          -0.000003929   -0.000001833   -0.000005332
      8        1           0.000018656   -0.000009402    0.000003433
      9       35          -0.000002392   -0.000005369    0.000000286
 -------------------------------------------------------------------
 Cartesian Forces:  Max     0.000130709 RMS     0.000041292

 GradGradGradGradGradGradGradGradGradGradGradGradGradGradGradGradGradGrad
 Berny optimization.
 Using GEDIIS/GDIIS optimizer.
 FormGI is forming the generalized inverse of G from B-inverse, IUseBI=4.
 Internal  Forces:  Max     0.000055352 RMS     0.000019072
 Search for a local minimum.
 Step number   2 out of a maximum of   48
 All quantities printed in internal units (Hartrees-Bohrs-Radians)
 Mixed Optimization -- En-DIIS/RFO-DIIS
 Swapping is turned off.
 Update second derivatives using D2CorX and points    1    2
 DE= -9.55D-08 DEPred=-3.58D-07 R= 2.67D-01
 Trust test= 2.67D-01 RLast= 5.64D-03 DXMaxT set to 3.00D-01
 ITU=  0  0
     Eigenvalues ---    0.01702   0.01891   0.02124   0.02203   0.02298
     Eigenvalues ---    0.04074   0.15351   0.16000   0.16002   0.18704
     Eigenvalues ---    0.22141   0.23811   0.24938   0.30748   0.31001
     Eigenvalues ---    0.35762   0.35892   0.36096   0.40213   0.48228
     Eigenvalues ---    0.51261
 En-DIIS/RFO-DIIS IScMMF=        0 using points:     2    1
 RFO step:  Lambda=-5.84139873D-08.
 DidBck=T Rises=F RFO-DIIS coefs:    0.57226    0.42774
 Iteration  1 RMS(Cart)=  0.00036627 RMS(Int)=  0.00000015
 Iteration  2 RMS(Cart)=  0.00000013 RMS(Int)=  0.00000011
 Variable       Old X    -DE/DX   Delta X   Delta X   Delta X     New X
                                 (Linear)    (Quad)   (Total)
    R1        2.57877   0.00002  -0.00003   0.00006   0.00002   2.57879
    R2        3.28022  -0.00001   0.00005  -0.00008  -0.00003   3.28019
    R3        2.03933   0.00000  -0.00001   0.00000   0.00000   2.03933
    R4        2.69822  -0.00003   0.00000  -0.00003  -0.00003   2.69819
    R5        2.04451   0.00000  -0.00001   0.00001   0.00000   2.04451
    R6        2.57874   0.00002  -0.00002   0.00006   0.00003   2.57877
    R7        2.04249   0.00000  -0.00001   0.00001   0.00000   2.04249
    R8        3.28538  -0.00001   0.00005  -0.00008  -0.00003   3.28535
    R9        3.57194   0.00000   0.00005  -0.00007  -0.00001   3.57192
    A1        1.95037   0.00001   0.00003  -0.00002   0.00001   1.95038
    A2        2.24486  -0.00001   0.00001  -0.00004  -0.00003   2.24483
    A3        2.08796   0.00000  -0.00004   0.00005   0.00002   2.08797
    A4        1.97511  -0.00001  -0.00001   0.00000  -0.00001   1.97510
    A5        2.15269  -0.00001   0.00009  -0.00014  -0.00005   2.15265
    A6        2.15538   0.00001  -0.00008   0.00014   0.00006   2.15544
    A7        1.95306   0.00000   0.00001  -0.00001   0.00000   1.95306
    A8        2.17464   0.00002  -0.00012   0.00019   0.00007   2.17471
    A9        2.15548  -0.00001   0.00011  -0.00018  -0.00007   2.15542
   A10        1.96156   0.00000   0.00002  -0.00001   0.00000   1.96156
   A11        2.21474  -0.00001   0.00002  -0.00004  -0.00003   2.21472
   A12        2.10688   0.00001  -0.00004   0.00006   0.00002   2.10690
   A13        1.58467   0.00000  -0.00005   0.00004   0.00000   1.58467
    D1        0.00124  -0.00005  -0.00109  -0.00026  -0.00134  -0.00010
    D2       -3.14137  -0.00001  -0.00015  -0.00022  -0.00037   3.14145
    D3       -3.14067  -0.00003  -0.00062  -0.00018  -0.00080  -3.14147
    D4       -0.00009   0.00001   0.00032  -0.00015   0.00017   0.00009
    D5       -0.00063   0.00003   0.00050   0.00031   0.00081   0.00018
    D6        3.14125   0.00001   0.00008   0.00024   0.00032   3.14157
    D7       -0.00136   0.00006   0.00127   0.00004   0.00131  -0.00006
    D8        3.14098   0.00003   0.00090  -0.00024   0.00066  -3.14155
    D9        3.14124   0.00002   0.00033   0.00001   0.00033   3.14157
   D10        0.00040  -0.00001  -0.00005  -0.00028  -0.00032   0.00008
   D11        0.00086  -0.00003  -0.00086   0.00019  -0.00067   0.00019
   D12       -3.14120  -0.00002  -0.00016  -0.00024  -0.00040   3.14159
   D13       -3.14147   0.00000  -0.00050   0.00047  -0.00003  -3.14150
   D14       -0.00035   0.00001   0.00021   0.00004   0.00025  -0.00010
   D15       -0.00015   0.00000   0.00023  -0.00028  -0.00006  -0.00021
   D16       -3.14131  -0.00001  -0.00043   0.00012  -0.00031   3.14156
         Item               Value     Threshold  Converged?
 Maximum Force            0.000055     0.000450     YES
 RMS     Force            0.000019     0.000300     YES
 Maximum Displacement     0.001088     0.001800     YES
 RMS     Displacement     0.000366     0.001200     YES
 Predicted change in Energy=-1.359514D-07
 Optimization completed.
    -- Stationary point found.
                           ----------------------------
                           !   Optimized Parameters   !
                           ! (Angstroms and Degrees)  !
 --------------------------                            --------------------------
 ! Name  Definition              Value          Derivative Info.                !
 --------------------------------------------------------------------------------
 ! R1    R(1,2)                  1.3646         -DE/DX =    0.0                 !
 ! R2    R(1,5)                  1.7358         -DE/DX =    0.0                 !
 ! R3    R(1,6)                  1.0792         -DE/DX =    0.0                 !
 ! R4    R(2,3)                  1.4278         -DE/DX =    0.0                 !
 ! R5    R(2,7)                  1.0819         -DE/DX =    0.0                 !
 ! R6    R(3,4)                  1.3646         -DE/DX =    0.0                 !
 ! R7    R(3,8)                  1.0808         -DE/DX =    0.0                 !
 ! R8    R(4,5)                  1.7385         -DE/DX =    0.0                 !
 ! R9    R(4,9)                  1.8902         -DE/DX =    0.0                 !
 ! A1    A(2,1,5)              111.748          -DE/DX =    0.0                 !
 ! A2    A(2,1,6)              128.6208         -DE/DX =    0.0                 !
 ! A3    A(5,1,6)              119.6312         -DE/DX =    0.0                 !
 ! A4    A(1,2,3)              113.1656         -DE/DX =    0.0                 !
 ! A5    A(1,2,7)              123.3401         -DE/DX =    0.0                 !
 ! A6    A(3,2,7)              123.4942         -DE/DX =    0.0                 !
 ! A7    A(2,3,4)              111.9023         -DE/DX =    0.0                 !
 ! A8    A(2,3,8)              124.5976         -DE/DX =    0.0                 !
 ! A9    A(4,3,8)              123.5            -DE/DX =    0.0                 !
 ! A10   A(3,4,5)              112.3891         -DE/DX =    0.0                 !
 ! A11   A(3,4,9)              126.8954         -DE/DX =    0.0                 !
 ! A12   A(5,4,9)              120.7155         -DE/DX =    0.0                 !
 ! A13   A(1,5,4)               90.7949         -DE/DX =    0.0                 !
 ! D1    D(5,1,2,3)              0.071          -DE/DX =   -0.0001              !
 ! D2    D(5,1,2,7)            180.013          -DE/DX =    0.0                 !
 ! D3    D(6,1,2,3)           -179.947          -DE/DX =    0.0                 !
 ! D4    D(6,1,2,7)             -0.005          -DE/DX =    0.0                 !
 ! D5    D(2,1,5,4)             -0.0361         -DE/DX =    0.0                 !
 ! D6    D(6,1,5,4)            179.9801         -DE/DX =    0.0                 !
 ! D7    D(1,2,3,4)             -0.0782         -DE/DX =    0.0001              !
 ! D8    D(1,2,3,8)           -180.0351         -DE/DX =    0.0                 !
 ! D9    D(7,2,3,4)            179.9799         -DE/DX =    0.0                 !
 ! D10   D(7,2,3,8)              0.023          -DE/DX =    0.0                 !
 ! D11   D(2,3,4,5)              0.0495         -DE/DX =    0.0                 !
 ! D12   D(2,3,4,9)            180.0224         -DE/DX =    0.0                 !
 ! D13   D(8,3,4,5)           -179.9931         -DE/DX =    0.0                 !
 ! D14   D(8,3,4,9)             -0.0202         -DE/DX =    0.0                 !
 ! D15   D(3,4,5,1)             -0.0088         -DE/DX =    0.0                 !
 ! D16   D(9,4,5,1)            180.0164         -DE/DX =    0.0                 !
 --------------------------------------------------------------------------------
 GradGradGradGradGradGradGradGradGradGradGradGradGradGradGradGradGradGrad

                          Input orientation:                          
 ---------------------------------------------------------------------
 Center     Atomic      Atomic             Coordinates (Angstroms)
 Number     Number       Type             X           Y           Z
 ---------------------------------------------------------------------
      1          6           0       -2.585900   -0.199000   -0.000054
      2          6           0       -2.264491    1.127236    0.000611
      3          6           0       -0.856412    1.363950   -0.000186
      4          6           0       -0.144519    0.199748    0.000286
      5         16           0       -1.170476   -1.203805    0.000316
      6          1           0       -3.563973   -0.655041   -0.000474
      7          1           0       -3.002861    1.918014    0.000722
      8          1           0       -0.398693    2.343085   -0.000389
      9         35           0        1.737123    0.020215    0.000149
 ---------------------------------------------------------------------
                    Distance matrix (angstroms):
                    1          2          3          4          5
     1  C    0.000000
     2  C    1.364626   0.000000
     3  C    2.331082   1.427838   0.000000
     4  C    2.473730   2.313982   1.364609   0.000000
     5  S    1.735817   2.574999   2.586890   1.738548   0.000000
     6  H    1.079167   2.205712   3.377457   3.524675   2.455600
     7  H    2.157685   1.081906   2.216807   3.335050   3.619860
     8  H    3.353516   2.226991   1.080838   2.158355   3.629886
     9  Br   4.328577   4.151916   2.920966   1.890187   3.154735
                    6          7          8          9
     6  H    0.000000
     7  H    2.633527   0.000000
     8  H    4.359788   2.638631   0.000000
     9  Br   5.343930   5.105789   3.155540   0.000000
 Stoichiometry    C4H3BrS
 Framework group  C1[X(C4H3BrS)]
 Deg. of freedom    21
 Full point group                 C1      NOp   1
 Largest Abelian subgroup         C1      NOp   1
 Largest concise Abelian subgroup C1      NOp   1
                         Standard orientation:                         
 ---------------------------------------------------------------------
 Center     Atomic      Atomic             Coordinates (Angstroms)
 Number     Number       Type             X           Y           Z
 ---------------------------------------------------------------------
      1          6           0       -2.585882   -0.198990   -0.000234
      2          6           0       -2.264439    1.127237    0.000430
      3          6           0       -0.856354    1.363916   -0.000366
      4          6           0       -0.144491    0.199696    0.000105
      5         16           0       -1.170483   -1.203831    0.000135
      6          1           0       -3.563967   -0.655006   -0.000654
      7          1           0       -3.002789    1.918035    0.000542
      8          1           0       -0.398611    2.343039   -0.000570
      9         35           0        1.737146    0.020116   -0.000031
 ---------------------------------------------------------------------
 Rotational constants (GHZ):      5.3523350      1.1186184      0.9252455

 **********************************************************************

            Population analysis using the SCF density.

 **********************************************************************

 Orbital symmetries:
       Occupied  (A) (A) (A) (A) (A) (A) (A) (A) (A) (A) (A) (A)
                 (A) (A) (A) (A) (A) (A) (A) (A) (A) (A) (A) (A)
                 (A) (A) (A) (A) (A) (A) (A) (A) (A) (A) (A) (A)
                 (A) (A) (A)
       Virtual   (A) (A) (A) (A) (A) (A) (A) (A) (A) (A) (A) (A)
                 (A) (A) (A) (A) (A) (A) (A) (A) (A) (A) (A) (A)
                 (A) (A) (A) (A) (A) (A) (A) (A) (A) (A) (A) (A)
                 (A) (A) (A) (A) (A) (A) (A) (A) (A) (A) (A) (A)
                 (A) (A) (A) (A) (A) (A) (A) (A) (A) (A) (A) (A)
                 (A) (A) (A) (A) (A) (A) (A) (A) (A) (A) (A) (A)
                 (A) (A) (A) (A) (A) (A) (A) (A) (A) (A) (A) (A)
                 (A) (A) (A) (A) (A) (A) (A) (A) (A) (A) (A) (A)
                 (A) (A) (A) (A) (A) (A) (A) (A) (A) (A) (A) (A)
                 (A) (A) (A) (A) (A) (A) (A) (A) (A) (A) (A) (A)
                 (A) (A) (A) (A) (A) (A) (A) (A) (A) (A) (A) (A)
                 (A) (A) (A) (A) (A) (A) (A) (A) (A) (A) (A) (A)
                 (A)
 The electronic state is 1-A.
 Alpha  occ. eigenvalues -- -482.84677 -88.89464 -62.49941 -56.31996 -56.31577
 Alpha  occ. eigenvalues --  -56.31576 -10.25643 -10.21333 -10.19428 -10.19331
 Alpha  occ. eigenvalues --   -8.70904  -7.98064  -6.54103  -6.52712  -6.52704
 Alpha  occ. eigenvalues --   -5.94370  -5.93983  -5.93640  -2.65186  -2.64783
 Alpha  occ. eigenvalues --   -2.64774  -2.63672  -2.63672  -0.90599  -0.81846
 Alpha  occ. eigenvalues --   -0.75539  -0.71934  -0.57960  -0.55731  -0.52116
 Alpha  occ. eigenvalues --   -0.42754  -0.41910  -0.40747  -0.40431  -0.36535
 Alpha  occ. eigenvalues --   -0.32613  -0.30504  -0.27171  -0.24223
 Alpha virt. eigenvalues --   -0.03872  -0.02666  -0.00318   0.00081   0.02528
 Alpha virt. eigenvalues --    0.02651   0.02738   0.04130   0.04711   0.04838
 Alpha virt. eigenvalues --    0.05794   0.07068   0.07115   0.08136   0.09364
 Alpha virt. eigenvalues --    0.10370   0.11158   0.11920   0.12655   0.13574
 Alpha virt. eigenvalues --    0.14246   0.15288   0.15475   0.15883   0.17527
 Alpha virt. eigenvalues --    0.18311   0.18748   0.20354   0.20643   0.22551
 Alpha virt. eigenvalues --    0.23103   0.23405   0.25456   0.29982   0.32493
 Alpha virt. eigenvalues --    0.35153   0.37332   0.37801   0.38838   0.41667
 Alpha virt. eigenvalues --    0.45965   0.46644   0.50100   0.51636   0.52652
 Alpha virt. eigenvalues --    0.53777   0.55301   0.58043   0.59264   0.61445
 Alpha virt. eigenvalues --    0.62465   0.62658   0.64453   0.66756   0.68390
 Alpha virt. eigenvalues --    0.70101   0.71427   0.73049   0.75236   0.77994
 Alpha virt. eigenvalues --    0.78706   0.80455   0.81563   0.82575   0.82918
 Alpha virt. eigenvalues --    0.87551   0.93343   0.93996   0.97659   1.00400
 Alpha virt. eigenvalues --    1.01424   1.05540   1.06663   1.11098   1.17693
 Alpha virt. eigenvalues --    1.33230   1.34195   1.42824   1.52054   1.54673
 Alpha virt. eigenvalues --    1.56756   1.57155   1.65604   1.67344   1.69347
 Alpha virt. eigenvalues --    1.73705   1.73750   1.78595   1.81306   1.86999
 Alpha virt. eigenvalues --    1.92308   1.94653   1.95892   1.99597   2.01126
 Alpha virt. eigenvalues --    2.03421   2.07219   2.09854   2.12134   2.21125
 Alpha virt. eigenvalues --    2.22031   2.33494   2.37074   2.41940   2.59776
 Alpha virt. eigenvalues --    2.66493   2.67898   2.68857   2.72090   2.73331
 Alpha virt. eigenvalues --    2.74335   2.83835   2.96079   3.05183   3.07881
 Alpha virt. eigenvalues --    3.24384   3.27293   3.32323   3.48769   3.80660
 Alpha virt. eigenvalues --    4.01402   4.12537   4.14431   4.20185   4.25670
 Alpha virt. eigenvalues --    4.32599   4.54480   6.70514   7.53868   7.61442
 Alpha virt. eigenvalues --    7.68229   7.91184  17.26855  17.42972  17.45941
 Alpha virt. eigenvalues --   23.50597  23.76927  24.09658  24.14447  47.96686
 Alpha virt. eigenvalues --  189.05928 289.73465 289.81259 289.905111020.76788
          Condensed to atoms (all electrons):
               1          2          3          4          5          6
     1  C    5.346690   0.447295  -0.040451  -0.179492   0.038136   0.402348
     2  C    0.447295   4.991943   0.444987  -0.060962   0.129730  -0.004225
     3  C   -0.040451   0.444987   4.962134   0.464364  -0.199764  -0.014871
     4  C   -0.179492  -0.060962   0.464364   5.403253   0.264348   0.013917
     5  S    0.038136   0.129730  -0.199764   0.264348  15.887935  -0.035442
     6  H    0.402348  -0.004225  -0.014871   0.013917  -0.035442   0.470187
     7  H   -0.006562   0.379339  -0.024849  -0.000463   0.003755  -0.005734
     8  H    0.004523  -0.030993   0.407937  -0.033879   0.006475  -0.000125
     9  Br   0.012270   0.031343  -0.001173   0.122697  -0.029536  -0.000603
               7          8          9
     1  C   -0.006562   0.004523   0.012270
     2  C    0.379339  -0.030993   0.031343
     3  C   -0.024849   0.407937  -0.001173
     4  C   -0.000463  -0.033879   0.122697
     5  S    0.003755   0.006475  -0.029536
     6  H   -0.005734  -0.000125  -0.000603
     7  H    0.522115  -0.004344  -0.000386
     8  H   -0.004344   0.510732  -0.007059
     9  Br  -0.000386  -0.007059  34.919909
 Mulliken charges:
               1
     1  C   -0.024757
     2  C   -0.328454
     3  C    0.001686
     4  C    0.006218
     5  S   -0.065639
     6  H    0.174547
     7  H    0.137129
     8  H    0.146733
     9  Br  -0.047462
 Sum of Mulliken charges =   0.00000
 Mulliken charges with hydrogens summed into heavy atoms:
               1
     1  C    0.149790
     2  C   -0.191326
     3  C    0.148419
     4  C    0.006218
     5  S   -0.065639
     9  Br  -0.047462
 Electronic spatial extent (au):  <R**2>=           1106.4525
 Charge=              0.0000 electrons
 Dipole moment (field-independent basis, Debye):
    X=             -1.4474    Y=              0.6038    Z=             -0.0004  Tot=              1.5682
 Quadrupole moment (field-independent basis, Debye-Ang):
   XX=            -48.3754   YY=            -51.6371   ZZ=            -58.2424
   XY=             -0.2470   XZ=              0.0012   YZ=             -0.0001
 Traceless Quadrupole moment (field-independent basis, Debye-Ang):
   XX=              4.3762   YY=              1.1145   ZZ=             -5.4907
   XY=             -0.2470   XZ=              0.0012   YZ=             -0.0001
 Octapole moment (field-independent basis, Debye-Ang**2):
  XXX=             40.0468  YYY=              6.1887  ZZZ=             -0.0011  XYY=             12.3300
  XXY=             -2.7944  XXZ=             -0.0065  XZZ=             23.4177  YZZ=             -1.7616
  YYZ=             -0.0012  XYZ=             -0.0049
 Hexadecapole moment (field-independent basis, Debye-Ang**3):
 XXXX=           -869.2236 YYYY=           -297.4488 ZZZZ=            -73.9159 XXXY=              8.3634
 XXXZ=              0.0294 YYYX=             -3.5370 YYYZ=              0.0013 ZZZX=              0.0094
 ZZZY=              0.0053 XXYY=           -200.4474 XXZZ=           -193.4359 YYZZ=            -70.0931
 XXYZ=              0.0175 YYXZ=              0.0007 ZZXY=              3.1289
 N-N= 4.478304332231D+02 E-N=-8.352841578703D+03  KE= 3.122287860523D+03
 There are a total of       76708 grid points.
 ElSum from          density=       78.0000614496
 ElSum from atomic densities=       78.0002005204

 Hirshfeld populations at iteration   1 (CX, CA, CB, DipXYZ):
               1          2          3          4          5          6
     1  C    0.000001   3.038473   3.038473  -0.050625  -0.064886  -0.000089
     2  C    0.000001   3.031642   3.031642  -0.034901   0.111970   0.000145
     3  C    0.000001   3.026833   3.026833   0.016412   0.118189  -0.000125
     4  C    0.000002   3.007415   3.007415   0.021832  -0.041712   0.000048
     5  S    0.000006   7.943104   7.943104   0.006286  -0.000397   0.000026
     6  H    0.000004   0.469538   0.469538  -0.168397  -0.069701  -0.000099
     7  H    0.000002   0.471207   0.471207  -0.113362   0.125143   0.000032
     8  H    0.000009   0.467769   0.467769   0.068810   0.154333  -0.000043
     9  Br   0.000074  17.544049  17.544049   0.273581  -0.002036  -0.000020
       Tot   0.000101  39.000031  39.000031   0.019636   0.330903  -0.000123

 Dip from Atomic Chgs             -0.588838  -0.093275  -0.000035
         Total Dipole             -0.569202   0.237628  -0.000158

 Hirshfeld charges, spin densities, dipoles, and CM5 charges using IRadAn=      4:
              Q-H        S-H        Dx         Dy         Dz        Q-CM5   
     1  C   -0.076945   0.000000  -0.050625  -0.064886  -0.000089  -0.143173
     2  C   -0.063285   0.000000  -0.034901   0.111970   0.000145  -0.119572
     3  C   -0.053666   0.000000   0.016412   0.118189  -0.000125  -0.106185
     4  C   -0.014830   0.000000   0.021832  -0.041712   0.000048  -0.017727
     5  S    0.113792   0.000000   0.006286  -0.000397   0.000026   0.142124
     6  H    0.060924   0.000000  -0.168397  -0.069701  -0.000099   0.117431
     7  H    0.057585   0.000000  -0.113362   0.125143   0.000032   0.113086
     8  H    0.064462   0.000000   0.068810   0.154333  -0.000043   0.119404
     9  Br  -0.088099   0.000000   0.273581  -0.002036  -0.000020  -0.105450
       Tot  -0.000061   0.000000   0.019636   0.330903  -0.000123  -0.000061
 Hirshfeld charges with hydrogens summed into heavy atoms:
              Q-H       Q-CM5   
     1  C   -0.016021  -0.025743
     2  C   -0.005699  -0.006486
     3  C    0.010796   0.013220
     4  C   -0.014830  -0.017727
     5  S    0.113792   0.142124
     9  Br  -0.088099  -0.105450
 
 EQQ= 0.000000000000E+00 EQD= 0.000000000000E+00 EDD= 0.618373592536E-02
 EQQ+QD+DD= 0.618373592536E-02
 
          MBS Condensed to atoms (all electrons):
               1          2          3          4          5          6
     1  C    4.956584   0.541815  -0.045999  -0.030370   0.360726   0.386007
     2  C    0.541815   4.841408   0.468538  -0.045312  -0.039418  -0.018684
     3  C   -0.045999   0.468538   4.844648   0.530242  -0.042163   0.001559
     4  C   -0.030370  -0.045312   0.530242   4.890238   0.350630   0.000828
     5  S    0.360726  -0.039418  -0.042163   0.350630  15.306240  -0.019673
     6  H    0.386007  -0.018684   0.001559   0.000828  -0.019673   0.511423
     7  H   -0.021988   0.387619  -0.021225   0.001548   0.001313  -0.002331
     8  H    0.001565  -0.019607   0.387525  -0.022276   0.001259  -0.000030
     9  Br   0.000097   0.000252  -0.014923   0.290848  -0.009467   0.000002
               7          8          9
     1  C   -0.021988   0.001565   0.000097
     2  C    0.387619  -0.019607   0.000252
     3  C   -0.021225   0.387525  -0.014923
     4  C    0.001548  -0.022276   0.290848
     5  S    0.001313   0.001259  -0.009467
     6  H   -0.002331  -0.000030   0.000002
     7  H    0.534344  -0.001790   0.000009
     8  H   -0.001790   0.524972  -0.001257
     9  Br   0.000009  -0.001257  34.878402
 MBS Mulliken charges:
               1
     1  C   -0.148437
     2  C   -0.116611
     3  C   -0.108201
     4  C    0.033624
     5  S    0.090553
     6  H    0.140898
     7  H    0.122499
     8  H    0.129638
     9  Br  -0.143964
 Sum of MBS Mulliken charges =   0.00000
 MBS Mulliken charges with hydrogens summed into heavy atoms:
               1
     1  C   -0.007538
     2  C    0.005888
     3  C    0.021437
     4  C    0.033624
     5  S    0.090553
     9  Br  -0.143964
 ******************************Gaussian NBO Version 3.1******************************
             N A T U R A L   A T O M I C   O R B I T A L   A N D
          N A T U R A L   B O N D   O R B I T A L   A N A L Y S I S
 ******************************Gaussian NBO Version 3.1******************************
       /RESON  / : Allow strongly delocalized NBO set

 Analyzing the SCF density

 Job title: Table6_2                                                        

 Storage needed:    102628 in NPA ( 536870435 available)


 NATURAL POPULATIONS:  Natural atomic orbital occupancies 
                                                          
   NAO  Atom  No  lang   Type(AO)    Occupancy      Energy
 ----------------------------------------------------------
     1    C    1  S      Cor( 1S)     1.99911     -10.08685
     2    C    1  S      Val( 2S)     1.04510      -0.28026
     3    C    1  S      Ryd( 4S)     0.00115       0.67383
     4    C    1  S      Ryd( 3S)     0.00088       0.50366
     5    C    1  S      Ryd( 5S)     0.00001      23.38403
     6    C    1  px     Val( 2p)     1.11328      -0.12434
     7    C    1  px     Ryd( 4p)     0.00433       0.81607
     8    C    1  px     Ryd( 3p)     0.00063       0.72039
     9    C    1  px     Ryd( 5p)     0.00008       2.69279
    10    C    1  py     Val( 2p)     1.07243      -0.11794
    11    C    1  py     Ryd( 3p)     0.00531       0.52777
    12    C    1  py     Ryd( 4p)     0.00034       0.57568
    13    C    1  py     Ryd( 5p)     0.00026       2.91884
    14    C    1  pz     Val( 2p)     1.13810      -0.15958
    15    C    1  pz     Ryd( 3p)     0.00250       0.44432
    16    C    1  pz     Ryd( 4p)     0.00037       0.45146
    17    C    1  pz     Ryd( 5p)     0.00001       2.52643
    18    C    1  dxy    Ryd( 3d)     0.00188       2.19749
    19    C    1  dxz    Ryd( 3d)     0.00087       1.48443
    20    C    1  dyz    Ryd( 3d)     0.00072       1.58831
    21    C    1  dx2y2  Ryd( 3d)     0.00073       2.28548
    22    C    1  dz2    Ryd( 3d)     0.00104       1.88013

    23    C    2  S      Cor( 1S)     1.99910     -10.04602
    24    C    2  S      Val( 2S)     0.95755      -0.18297
    25    C    2  S      Ryd( 3S)     0.00223       0.57516
    26    C    2  S      Ryd( 4S)     0.00027       0.73817
    27    C    2  S      Ryd( 5S)     0.00001      23.19568
    28    C    2  px     Val( 2p)     1.09530      -0.06690
    29    C    2  px     Ryd( 4p)     0.00502       0.81659
    30    C    2  px     Ryd( 3p)     0.00047       0.30669
    31    C    2  px     Ryd( 5p)     0.00013       3.14424
    32    C    2  py     Val( 2p)     1.13795      -0.08722
    33    C    2  py     Ryd( 4p)     0.00532       0.86218
    34    C    2  py     Ryd( 3p)     0.00048       0.29965
    35    C    2  py     Ryd( 5p)     0.00013       3.13863
    36    C    2  pz     Val( 2p)     1.03729      -0.12526
    37    C    2  pz     Ryd( 4p)     0.00132       0.52079
    38    C    2  pz     Ryd( 3p)     0.00037       0.30907
    39    C    2  pz     Ryd( 5p)     0.00003       2.63568
    40    C    2  dxy    Ryd( 3d)     0.00079       2.54149
    41    C    2  dxz    Ryd( 3d)     0.00052       1.76336
    42    C    2  dyz    Ryd( 3d)     0.00062       1.65618
    43    C    2  dx2y2  Ryd( 3d)     0.00063       2.72872
    44    C    2  dz2    Ryd( 3d)     0.00031       2.08654

    45    C    3  S      Cor( 1S)     1.99882     -10.04126
    46    C    3  S      Val( 2S)     0.95533      -0.17987
    47    C    3  S      Ryd( 3S)     0.00207       0.73662
    48    C    3  S      Ryd( 4S)     0.00041       0.78458
    49    C    3  S      Ryd( 5S)     0.00001      23.14737
    50    C    3  px     Val( 2p)     1.07621      -0.07859
    51    C    3  px     Ryd( 4p)     0.00565       0.72029
    52    C    3  px     Ryd( 3p)     0.00040       0.44371
    53    C    3  px     Ryd( 5p)     0.00014       3.19381
    54    C    3  py     Val( 2p)     1.19007      -0.10611
    55    C    3  py     Ryd( 4p)     0.00500       0.88302
    56    C    3  py     Ryd( 3p)     0.00038       0.48169
    57    C    3  py     Ryd( 5p)     0.00008       3.10457
    58    C    3  pz     Val( 2p)     1.03507      -0.12519
    59    C    3  pz     Ryd( 4p)     0.00185       0.50480
    60    C    3  pz     Ryd( 3p)     0.00045       0.28266
    61    C    3  pz     Ryd( 5p)     0.00002       2.67274
    62    C    3  dxy    Ryd( 3d)     0.00163       1.81380
    63    C    3  dxz    Ryd( 3d)     0.00031       1.36154
    64    C    3  dyz    Ryd( 3d)     0.00071       1.33365
    65    C    3  dx2y2  Ryd( 3d)     0.00115       1.80856
    66    C    3  dz2    Ryd( 3d)     0.00136       1.73253

    67    C    4  S      Cor( 1S)     1.99873     -10.14790
    68    C    4  S      Val( 2S)     1.05937      -0.33929
    69    C    4  S      Ryd( 4S)     0.00196       0.67123
    70    C    4  S      Ryd( 3S)     0.00039       0.54476
    71    C    4  S      Ryd( 5S)     0.00001      23.46648
    72    C    4  px     Val( 2p)     0.99923      -0.22851
    73    C    4  px     Ryd( 3p)     0.00529       0.76454
    74    C    4  px     Ryd( 4p)     0.00047       0.95442
[...]
 Atom     1 has atomic number  6 and mass  12.00000
 Atom     2 has atomic number  6 and mass  12.00000
 Atom     3 has atomic number  6 and mass  12.00000
 Atom     4 has atomic number  6 and mass  12.00000
 Atom     5 has atomic number 16 and mass  31.97207
 Atom     6 has atomic number  1 and mass   1.00783
 Atom     7 has atomic number  1 and mass   1.00783
 Atom     8 has atomic number  1 and mass   1.00783
 Atom     9 has atomic number 35 and mass  78.91834
 Molecular mass:   161.91388 amu.
 Principal axes and moments of inertia in atomic units:
                           1         2         3
     Eigenvalues --   337.187641613.366271950.55386
           X            0.99990  -0.01417   0.00002
           Y            0.01417   0.99990   0.00005
           Z           -0.00002  -0.00005   1.00000
 This molecule is an asymmetric top.
 Rotational symmetry number  1.
 Rotational temperatures (Kelvin)      0.25687     0.05369     0.04440
 Rotational constants (GHZ):           5.35234     1.11862     0.92525
 Zero-point vibrational energy     148485.6 (Joules/Mol)
                                   35.48890 (Kcal/Mol)
 Warning -- explicit consideration of   5 degrees of freedom as
           vibrations may cause significant error
 Vibrational temperatures:    267.13   308.93   475.75   656.41   802.34
          (Kelvin)            917.88   998.98  1056.35  1194.54  1216.06
                             1310.28  1394.19  1530.97  1594.78  1789.99
                             1969.50  2077.34  2238.75  4609.33  4637.74
                             4670.13
 
 Zero-point correction=                           0.056555 (Hartree/Particle)
 Thermal correction to Energy=                    0.062006
 Thermal correction to Enthalpy=                  0.062950
 Thermal correction to Gibbs Free Energy=         0.025784
 Sum of electronic and zero-point Energies=          -3126.553725
 Sum of electronic and thermal Energies=             -3126.548275
 Sum of electronic and thermal Enthalpies=           -3126.547331
 Sum of electronic and thermal Free Energies=        -3126.584496
 
                     E (Thermal)             CV                S
                      KCal/Mol        Cal/Mol-Kelvin    Cal/Mol-Kelvin
 Total                   38.909             19.394             78.222
 Electronic               0.000              0.000              0.000
 Translational            0.889              2.981             41.154
 Rotational               0.889              2.981             28.453
 Vibrational             37.132             13.433              8.615
 Vibration     1          0.632              1.859              2.271
 Vibration     2          0.645              1.819              2.003
 Vibration     3          0.713              1.614              1.257
 Vibration     4          0.814              1.347              0.777
 Vibration     5          0.913              1.123              0.529
                       Q            Log10(Q)             Ln(Q)
 Total Bot       0.138064D-11        -11.859919        -27.308472
 Total V=0       0.142428D+15         14.153594         32.589854
 Vib (Bot)       0.462352D-25        -25.335028        -58.336057
 Vib (Bot)    1  0.107967D+01          0.033290          0.076654
 Vib (Bot)    2  0.923231D+00         -0.034690         -0.079876
 Vib (Bot)    3  0.564830D+00         -0.248082         -0.571230
 Vib (Bot)    4  0.373976D+00         -0.427156         -0.983563
 Vib (Bot)    5  0.279342D+00         -0.553864         -1.275318
 Vib (V=0)       0.476963D+01          0.678485          1.562269
 Vib (V=0)    1  0.168982D+01          0.227842          0.524625
 Vib (V=0)    2  0.154993D+01          0.190312          0.438211
 Vib (V=0)    3  0.125434D+01          0.098416          0.226612
 Vib (V=0)    4  0.112439D+01          0.050916          0.117237
 Vib (V=0)    5  0.107274D+01          0.030495          0.070217
 Electronic      0.100000D+01          0.000000          0.000000
 Translational   0.809807D+08          7.908381         18.209721
 Rotational      0.368746D+06          5.566728         12.817864
 ***** Axes restored to original set *****
 -------------------------------------------------------------------
 Center     Atomic                   Forces (Hartrees/Bohr)
 Number     Number              X              Y              Z
 -------------------------------------------------------------------
      1        6           0.000012108   -0.000024314    0.000064607
      2        6           0.000034184    0.000032302   -0.000130710
      3        6          -0.000048259    0.000020163    0.000114825
      4        6           0.000004550   -0.000040451   -0.000045180
      5       16          -0.000010531    0.000016067   -0.000024731
      6        1          -0.000004368    0.000012769    0.000022801
      7        1          -0.000003948   -0.000001806   -0.000005332
      8        1           0.000018668   -0.000009369    0.000003432
      9       35          -0.000002404   -0.000005360    0.000000288
 -------------------------------------------------------------------
 Cartesian Forces:  Max     0.000130710 RMS     0.000041294
 FormGI is forming the generalized inverse of G from B-inverse, IUseBI=4.

 GradGradGradGradGradGradGradGradGradGradGradGradGradGradGradGradGradGrad
 Berny optimization.
 Internal  Forces:  Max     0.000055351 RMS     0.000019072
 Search for a local minimum.
 Step number   1 out of a maximum of    2
 All quantities printed in internal units (Hartrees-Bohrs-Radians)
 Second derivative matrix not updated -- analytic derivatives used.
 ITU=  0
     Eigenvalues ---    0.01382   0.01448   0.01788   0.02667   0.03984
     Eigenvalues ---    0.04817   0.09373   0.10164   0.10798   0.14260
     Eigenvalues ---    0.15719   0.19559   0.20997   0.25119   0.26251
     Eigenvalues ---    0.36316   0.36650   0.36968   0.40178   0.45572
     Eigenvalues ---    0.49916
 Angle between quadratic step and forces=  21.30 degrees.
 Linear search not attempted -- first point.
 Iteration  1 RMS(Cart)=  0.00036849 RMS(Int)=  0.00000014
 Iteration  2 RMS(Cart)=  0.00000014 RMS(Int)=  0.00000009
 Variable       Old X    -DE/DX   Delta X   Delta X   Delta X     New X
                                 (Linear)    (Quad)   (Total)
    R1        2.57877   0.00002   0.00000   0.00006   0.00006   2.57883
    R2        3.28022  -0.00001   0.00000  -0.00009  -0.00009   3.28013
    R3        2.03933   0.00000   0.00000   0.00000   0.00000   2.03933
    R4        2.69822  -0.00003   0.00000  -0.00010  -0.00010   2.69812
    R5        2.04451   0.00000   0.00000   0.00000   0.00000   2.04451
    R6        2.57874   0.00002   0.00000   0.00008   0.00008   2.57882
    R7        2.04249   0.00000   0.00000   0.00000   0.00000   2.04249
    R8        3.28538  -0.00001   0.00000  -0.00008  -0.00008   3.28530
    R9        3.57194   0.00000   0.00000  -0.00001  -0.00001   3.57193
    A1        1.95037   0.00001   0.00000   0.00003   0.00003   1.95040
    A2        2.24486  -0.00001   0.00000  -0.00009  -0.00009   2.24477
    A3        2.08796   0.00000   0.00000   0.00006   0.00006   2.08802
    A4        1.97511  -0.00001   0.00000  -0.00003  -0.00003   1.97509
    A5        2.15269  -0.00001   0.00000  -0.00012  -0.00012   2.15257
    A6        2.15538   0.00001   0.00000   0.00014   0.00014   2.15552
    A7        1.95306   0.00000   0.00000   0.00000   0.00000   1.95306
    A8        2.17464   0.00002   0.00000   0.00017   0.00017   2.17481
    A9        2.15548  -0.00001   0.00000  -0.00016  -0.00016   2.15532
   A10        1.96156   0.00000   0.00000   0.00000   0.00000   1.96156
   A11        2.21474  -0.00001   0.00000  -0.00007  -0.00007   2.21467
   A12        2.10688   0.00001   0.00000   0.00007   0.00007   2.10695
   A13        1.58467   0.00000   0.00000   0.00000   0.00000   1.58467
    D1        0.00124  -0.00005   0.00000  -0.00124  -0.00124   0.00000
    D2       -3.14137  -0.00001   0.00000  -0.00023  -0.00023   3.14159
    D3       -3.14067  -0.00003   0.00000  -0.00092  -0.00092   3.14159
    D4       -0.00009   0.00001   0.00000   0.00009   0.00009   0.00000
    D5       -0.00063   0.00003   0.00000   0.00063   0.00063   0.00000
    D6        3.14125   0.00001   0.00000   0.00035   0.00035   3.14159
    D7       -0.00136   0.00006   0.00000   0.00136   0.00136   0.00000
    D8        3.14098   0.00003   0.00000   0.00061   0.00061   3.14159
    D9        3.14124   0.00002   0.00000   0.00035   0.00035  -3.14159
   D10        0.00040  -0.00001   0.00000  -0.00040  -0.00040   0.00000
   D11        0.00086  -0.00003   0.00000  -0.00086  -0.00086   0.00000
   D12       -3.14120  -0.00002   0.00000  -0.00039  -0.00039   3.14159
   D13       -3.14147   0.00000   0.00000  -0.00012  -0.00012  -3.14159
   D14       -0.00035   0.00001   0.00000   0.00035   0.00035   0.00000
   D15       -0.00015   0.00000   0.00000   0.00015   0.00015   0.00000
   D16       -3.14131  -0.00001   0.00000  -0.00029  -0.00029  -3.14159
         Item               Value     Threshold  Converged?
 Maximum Force            0.000055     0.000450     YES
 RMS     Force            0.000019     0.000300     YES
 Maximum Displacement     0.001073     0.001800     YES
 RMS     Displacement     0.000368     0.001200     YES
 Predicted change in Energy=-1.425513D-07
 Optimization completed.
    -- Stationary point found.
                           ----------------------------
                           !   Optimized Parameters   !
                           ! (Angstroms and Degrees)  !
 --------------------------                            --------------------------
 ! Name  Definition              Value          Derivative Info.                !
 --------------------------------------------------------------------------------
 ! R1    R(1,2)                  1.3646         -DE/DX =    0.0                 !
 ! R2    R(1,5)                  1.7358         -DE/DX =    0.0                 !
 ! R3    R(1,6)                  1.0792         -DE/DX =    0.0                 !
 ! R4    R(2,3)                  1.4278         -DE/DX =    0.0                 !
 ! R5    R(2,7)                  1.0819         -DE/DX =    0.0                 !
 ! R6    R(3,4)                  1.3646         -DE/DX =    0.0                 !
 ! R7    R(3,8)                  1.0808         -DE/DX =    0.0                 !
 ! R8    R(4,5)                  1.7385         -DE/DX =    0.0                 !
 ! R9    R(4,9)                  1.8902         -DE/DX =    0.0                 !
 ! A1    A(2,1,5)              111.748          -DE/DX =    0.0                 !
 ! A2    A(2,1,6)              128.6208         -DE/DX =    0.0                 !
 ! A3    A(5,1,6)              119.6312         -DE/DX =    0.0                 !
 ! A4    A(1,2,3)              113.1656         -DE/DX =    0.0                 !
 ! A5    A(1,2,7)              123.3401         -DE/DX =    0.0                 !
 ! A6    A(3,2,7)              123.4942         -DE/DX =    0.0                 !
 ! A7    A(2,3,4)              111.9023         -DE/DX =    0.0                 !
 ! A8    A(2,3,8)              124.5976         -DE/DX =    0.0                 !
 ! A9    A(4,3,8)              123.5            -DE/DX =    0.0                 !
 ! A10   A(3,4,5)              112.3891         -DE/DX =    0.0                 !
 ! A11   A(3,4,9)              126.8954         -DE/DX =    0.0                 !
 ! A12   A(5,4,9)              120.7155         -DE/DX =    0.0                 !
 ! A13   A(1,5,4)               90.7949         -DE/DX =    0.0                 !
 ! D1    D(5,1,2,3)              0.071          -DE/DX =   -0.0001              !
 ! D2    D(5,1,2,7)            180.013          -DE/DX =    0.0                 !
 ! D3    D(6,1,2,3)            180.053          -DE/DX =    0.0                 !
 ! D4    D(6,1,2,7)             -0.005          -DE/DX =    0.0                 !
 ! D5    D(2,1,5,4)             -0.0361         -DE/DX =    0.0                 !
 ! D6    D(6,1,5,4)            179.9801         -DE/DX =    0.0                 !
 ! D7    D(1,2,3,4)             -0.0782         -DE/DX =    0.0001              !
 ! D8    D(1,2,3,8)            179.9649         -DE/DX =    0.0                 !
 ! D9    D(7,2,3,4)           -180.0201         -DE/DX =    0.0                 !
 ! D10   D(7,2,3,8)              0.023          -DE/DX =    0.0                 !
 ! D11   D(2,3,4,5)              0.0495         -DE/DX =    0.0                 !
 ! D12   D(2,3,4,9)            180.0224         -DE/DX =    0.0                 !
 ! D13   D(8,3,4,5)           -179.9931         -DE/DX =    0.0                 !
 ! D14   D(8,3,4,9)             -0.0202         -DE/DX =    0.0                 !
 ! D15   D(3,4,5,1)             -0.0088         -DE/DX =    0.0                 !
 ! D16   D(9,4,5,1)           -179.9836         -DE/DX =    0.0                 !
 --------------------------------------------------------------------------------
 GradGradGradGradGradGradGradGradGradGradGradGradGradGradGradGradGradGrad

 1\1\GINC-COREV3-23-K40-004\Freq\RB3LYP\6-311+G(d,p)\C4H3Br1S1\SWEAV003
 \29-Aug-2024\0\\#N Geom=AllCheck Guess=TCheck SCRF=Check GenChk RB3LYP
 /6-311+G(d,p) Freq\\Table6_2\\0,1\C,-2.5859000777,-0.1989998079,-0.000
 0537163\C,-2.2644908334,1.1272356071,0.0006105718\C,-0.8564116314,1.36
 3949887,-0.0001855694\C,-0.1445190457,0.1997479816,0.0002858377\S,-1.1
 704758063,-1.2038047905,0.0003160455\H,-3.5639732383,-0.6550411426,-0.
 0004738304\H,-3.002860687,1.9180143988,0.0007224375\H,-0.3986931907,2.
 3430845695,-0.0003892608\Br,1.7371225105,0.0202152969,0.0001494843\\Ve
 rsion=ES64L-G09RevD.01\State=1-A\HF=-3126.6102806\RMSD=3.646e-09\RMSF=
 4.129e-05\ZeroPoint=0.0565552\Thermal=0.0620059\Dipole=-0.5694409,0.23
 75178,-0.0001597\DipoleDeriv=-0.1691396,-0.2437372,0.000073,-0.21638,0
 .2122146,0.0000272,0.0000419,-0.0000431,-0.2618112,0.0456181,-0.110463
 6,-0.0000617,0.0638911,-0.1966263,0.0000876,0.0000458,-0.0002223,-0.13
 76201,-0.2513264,0.2076378,0.000015,0.0247409,-0.1958093,-0.0001105,-0
 .000006,0.0002435,-0.1077645,0.8496573,0.0764896,-0.0000768,0.0036483,
 0.3201759,-0.0000564,-0.0003276,-0.0000456,-0.1919406,-0.0291244,0.064
 4588,0.0000793,0.0773939,-0.1842536,0.0000375,0.0000112,0.0000853,0.15
 39492,-0.0087934,-0.0281688,-0.0000189,0.0251092,0.0759029,-0.0000387,
 -0.0000135,-0.0000366,0.1892341,0.0034463,0.0637647,0.0000169,0.080036
 6,0.0040636,-0.0000018,-0.0000513,0.0001541,0.1721426,0.0714919,-0.042
 838,0.0000373,-0.0549929,0.0025064,0.0000264,0.0000932,-0.0001214,0.16
 75903,-0.5118296,0.0128566,-0.000064,-0.0034471,-0.0381741,0.0000288,0
 .0002064,-0.000014,0.0162202\Polar=108.0939425,-2.3064182,82.596915,-0
 .0047655,0.0028495,50.2791242\PG=C01 [X(C4H3Br1S1)]\NImag=0\\0.6163032
 0,0.17590929,0.62361171,0.00016731,0.00021769,0.08356175,-0.11401647,-
 0.04978578,-0.00005093,0.63308463,-0.08375737,-0.39084051,-0.00017178,
 -0.08093497,0.75449522,-0.00003661,-0.00015794,-0.05448464,-0.00009020
 ,0.00015763,0.12011374,-0.02311463,-0.06968525,0.00001474,-0.26462940,
 -0.00445908,0.00010651,0.59140628,-0.02510498,-0.00998493,0.00000661,-
 0.04889662,-0.11228576,0.00002399,0.04248757,0.79292377,-0.00001671,-0
 .00000400,0.00812588,0.00012020,0.00002675,-0.05843243,-0.00010196,-0.
 00016837,0.11665214,-0.04505665,0.00082166,-0.00000112,-0.04950897,0.0
 1026002,-0.00001274,-0.15545942,0.14400397,-0.00004520,0.47672539,-0.0
 1027151,-0.02291464,0.00000335,0.06257829,0.02094403,-0.00001308,0.107
 60938,-0.32530522,0.00010477,-0.11036326,0.50256631,-0.00000386,0.0000
 0260,0.01024409,0.00000807,-0.00001071,0.00913651,-0.00004918,0.000104
 97,-0.05231094,0.00004069,-0.00011477,0.07134522,-0.12941059,0.0718023
 4,-0.00001954,-0.01194197,0.03641059,0.00000311,-0.00726930,-0.0174799
 6,0.00000650,-0.07398692,-0.08402721,0.00000709,0.25167001,0.03928412,
 -0.07591635,0.00000497,-0.00333267,-0.06300326,0.00001220,0.02274413,-
 0.05989803,-0.00000248,-0.04363741,-0.12243918,0.00000545,-0.01138598,
 0.31442952,-0.00001776,0.00001234,-0.03194651,0.00001182,-0.00000986,0
 .00835346,-0.00001061,0.00001630,0.00653627,-0.00000096,-0.00000662,-0
 .03159836,0.00001180,-0.00001427,0.03974479,-0.30086525,-0.11972603,-0
 .00011265,0.00132563,0.00214597,0.00000256,0.00155516,-0.00089521,-0.0
 0000260,-0.00151312,0.00341301,-0.00000057,-0.01194353,-0.00728008,0.0
 0000049,0.31163734,-0.11663674,-0.10601247,-0.00006317,-0.02554010,-0.
 00061577,0.00000223,-0.00100424,-0.00514116,-0.00000620,0.00352985,-0.
 00458251,0.00000179,0.01573149,0.00797620,0.00000374,0.12345315,0.1061
 9439,-0.00010685,-0.00006016,-0.02148558,-0.00001186,0.00000417,0.0018
 8764,0.00000326,-0.00000319,0.00658816,0.00000472,-0.00000053,-0.00056
 678,-0.00000064,-0.00000147,-0.00281925,0.00011325,0.00005892,0.018369
 93,0.00851546,-0.00697978,-0.00000124,-0.19073676,0.14340390,0.0000333
 5,-0.01079232,0.02204677,-0.00000597,-0.00441003,-0.00142914,0.0000036
 8,0.00169945,-0.00303203,0.00000098,0.00021384,0.00060935,-0.00000040,
 0.19588959,0.02067681,-0.01495986,0.00000257,0.14374242,-0.20875050,-0
 .00002710,-0.00710245,0.00909266,0.00000030,-0.00221928,-0.00062550,0.
 00000133,0.00023973,-0.00371724,-0.00000405,-0.00053121,0.00085675,0.0
 0000103,-0.15495048,0.21759091,0.00001080,-0.00001479,0.00396686,0.000
 01442,-0.00000796,-0.03104620,0.00000728,-0.00000971,0.00118550,0.0000
 0289,0.00000283,0.00183540,-0.00000733,0.00000155,0.00712657,0.0000015
 0,0.00000248,-0.00458052,-0.00002982,0.00002639,0.02279890,-0.00620684
 ,-0.00093963,0.00000304,-0.00297220,-0.02568824,-0.00000323,-0.1069623
 7,-0.11329572,0.00003986,0.00823970,0.01678278,-0.00000341,-0.00030326
 ,0.00393446,0.00000058,0.00006204,-0.00134740,-0.00000068,0.00075692,0
 .00076119,-0.00000062,0.10648540,0.00123397,0.00027660,0.00000036,0.00
 235327,0.00311619,-0.00000179,-0.11158921,-0.29436628,0.00005682,-0.01
 197095,-0.01690388,0.00000090,0.00063241,-0.00247004,0.00000288,0.0000
 8547,0.00022044,0.00000081,-0.00050145,0.00002077,-0.00000043,0.119925
 20,0.30925223,0.00000393,0.00000100,0.00205007,-0.00000080,0.00001127,
 0.00099478,0.00003391,0.00003313,-0.03041795,0.00000071,0.00001741,0.0
 0300805,-0.00000242,-0.00000383,0.00597232,-0.00000079,0.00000088,0.00
 087925,-0.00000066,-0.00000010,-0.00182735,-0.00003483,-0.00005900,0.0
 2201413,-0.00614823,-0.00141681,0.00000039,-0.00060450,0.00261917,-0.0
 0000275,-0.02473399,-0.00286583,0.00000588,-0.15502997,0.01570766,-0.0
 0000250,-0.01851388,0.00270547,0.00000366,-0.00047210,0.00120464,-0.00
 000081,-0.00113616,-0.00061673,0.00000088,0.00090060,-0.00016872,0.000
 00094,0.20573823,-0.00133359,-0.00325954,-0.00000062,-0.00018384,-0.00
 305964,0.00000385,0.02099916,0.00496495,-0.00000759,0.00957541,-0.0307
 3941,0.00000845,-0.01192341,0.00503838,-0.00000046,-0.00066507,0.00110
 412,0.00000043,0.00083286,0.00049201,-0.00000035,-0.00013265,0.0008539
 6,-0.00000078,-0.01716886,0.02460518,-0.00000027,0.00000325,-0.0000319
 2,-0.00000072,0.00000050,0.00347714,-0.00000395,-0.00000372,0.00207336
 ,0.00001101,0.00000664,-0.01109318,0.00000144,-0.00000213,-0.00136927,
 -0.00000119,-0.00000068,0.00172715,0.00000009,-0.00000037,0.00054085,-
 0.00000071,-0.00000056,-0.00267330,-0.00000570,-0.00000294,0.00734917\
 \-0.00001211,0.00002431,-0.00006461,-0.00003418,-0.00003230,0.00013071
 ,0.00004826,-0.00002016,-0.00011483,-0.00000455,0.00004045,0.00004518,
 0.00001053,-0.00001607,0.00002473,0.00000437,-0.00001277,-0.00002280,0
 .00000395,0.00000181,0.00000533,-0.00001867,0.00000937,-0.00000343,0.0
 0000240,0.00000536,-0.00000029\\\@


    THE DOUGHNUT CREED
 AS YOU RAMBLE ON THROUGH LIFE, BROTHER
 WHATEVER BE YOUR GOAL
 KEEP YOUR EYE UPON THE DOUGHNUT
 AND NOT UPON THE HOLE.
 Job cpu time:       0 days  0 hours  8 minutes 31.2 seconds.
 File lengths (MBytes):  RWF=     44 Int=      0 D2E=      0 Chk=      4 Scr=      1
 Normal termination of Gaussian 09 at Thu Aug 29 12:14:31 2024.
