	You are loading a legacy vmd module, please load an up to date module instead.


	 module load container_env vmd

	Please run vmd command with crun.vmd prepend to it:
	
	 crun.vmd vmd

	 
module: Command not found.
module: Command not found.
 Entering Gaussian System, Link 0=g09
 Initial command:
 /opt/gaussian/g09/l1.exe "/tmp/G09-comp111.com.o10577668.tmp/Gau-1707321.inp" -scrdir="/tmp/G09-comp111.com.o10577668.tmp/"
 Entering Link 1 = /opt/gaussian/g09/l1.exe PID=   1707322.
  
 Copyright (c) 1988,1990,1992,1993,1995,1998,2003,2009,2013,
            Gaussian, Inc.  All Rights Reserved.
  
 This is part of the Gaussian(R) 09 program.  It is based on
 the Gaussian(R) 03 system (copyright 2003, Gaussian, Inc.),
 the Gaussian(R) 98 system (copyright 1998, Gaussian, Inc.),
 the Gaussian(R) 94 system (copyright 1995, Gaussian, Inc.),
 the Gaussian 92(TM) system (copyright 1992, Gaussian, Inc.),
 the Gaussian 90(TM) system (copyright 1990, Gaussian, Inc.),
 the Gaussian 88(TM) system (copyright 1988, Gaussian, Inc.),
 the Gaussian 86(TM) system (copyright 1986, Carnegie Mellon
 University), and the Gaussian 82(TM) system (copyright 1983,
 Carnegie Mellon University). Gaussian is a federally registered
 trademark of Gaussian, Inc.
  
 This software contains proprietary and confidential information,
 including trade secrets, belonging to Gaussian, Inc.
  
 This software is provided under written license and may be
 used, copied, transmitted, or stored only in accord with that
 written license.
  
 The following legend is applicable only to US Government
 contracts under FAR:
  
                    RESTRICTED RIGHTS LEGEND
  
 Use, reproduction and disclosure by the US Government is
 subject to restrictions as set forth in subparagraphs (a)
 and (c) of the Commercial Computer Software - Restricted
 Rights clause in FAR 52.227-19.
  
 Gaussian, Inc.
 340 Quinnipiac St., Bldg. 40, Wallingford CT 06492
  
  
 ---------------------------------------------------------------
 Warning -- This program may not be used in any manner that
 competes with the business of Gaussian, Inc. or will provide
 assistance to any competitor of Gaussian, Inc.  The licensee
 of this program is prohibited from giving any competitor of
 Gaussian, Inc. access to this program.  By using this program,
 the user acknowledges that Gaussian, Inc. is engaged in the
 business of creating and licensing software in the field of
 computational chemistry and represents and warrants to the
 licensee that it is not a competitor of Gaussian, Inc. and that
 it will not use this program in any manner prohibited above.
 ---------------------------------------------------------------
  

 Cite this work as:
 Gaussian 09, Revision D.01,
 M. J. Frisch, G. W. Trucks, H. B. Schlegel, G. E. Scuseria, 
 M. A. Robb, J. R. Cheeseman, G. Scalmani, V. Barone, B. Mennucci, 
 G. A. Petersson, H. Nakatsuji, M. Caricato, X. Li, H. P. Hratchian, 
 A. F. Izmaylov, J. Bloino, G. Zheng, J. L. Sonnenberg, M. Hada, 
 M. Ehara, K. Toyota, R. Fukuda, J. Hasegawa, M. Ishida, T. Nakajima, 
 Y. Honda, O. Kitao, H. Nakai, T. Vreven, J. A. Montgomery, Jr., 
 J. E. Peralta, F. Ogliaro, M. Bearpark, J. J. Heyd, E. Brothers, 
 K. N. Kudin, V. N. Staroverov, T. Keith, R. Kobayashi, J. Normand, 
 K. Raghavachari, A. Rendell, J. C. Burant, S. S. Iyengar, J. Tomasi, 
 M. Cossi, N. Rega, J. M. Millam, M. Klene, J. E. Knox, J. B. Cross, 
 V. Bakken, C. Adamo, J. Jaramillo, R. Gomperts, R. E. Stratmann, 
 O. Yazyev, A. J. Austin, R. Cammi, C. Pomelli, J. W. Ochterski, 
 R. L. Martin, K. Morokuma, V. G. Zakrzewski, G. A. Voth, 
 P. Salvador, J. J. Dannenberg, S. Dapprich, A. D. Daniels, 
 O. Farkas, J. B. Foresman, J. V. Ortiz, J. Cioslowski, 
 and D. J. Fox, Gaussian, Inc., Wallingford CT, 2013.
 
 ******************************************
 Gaussian 09:  ES64L-G09RevD.01 24-Apr-2013
                26-Apr-2024 
 ******************************************
 %nprocshared=20
 Will use up to   20 processors via shared memory.
 %mem=4GB
 %chk=comp111.chk
 ----------------------------------------------------------------------
 # opt freq=noraman b3lyp/6-311+g(d,p) pop=(npa,hirshfeld,chelpg,mbs) g
 eom=connectivity
 ----------------------------------------------------------------------
 1/14=-1,18=20,19=15,26=3,38=1,57=2/1,3;
 2/9=110,12=2,17=6,18=5,40=1/2;
 3/5=4,6=6,7=111,11=2,16=1,25=1,30=1,71=1,74=-5/1,2,3;
 4//1;
 5/5=2,38=5/2;
 6/7=2,8=2,9=2,10=2,15=8,20=3,27=100,28=1,40=-1,79=1/1,2,7;
 7//1,2,3,16;
 1/14=-1,18=20,19=15,26=3/3(2);
 2/9=110/2;
 99//99;
 2/9=110/2;
 3/5=4,6=6,7=111,11=2,16=1,25=1,30=1,71=1,74=-5/1,2,3;
 4/5=5,16=3,69=1/1;
 5/5=2,38=5/2;
 7//1,2,3,16;
 1/14=-1,18=20,19=15,26=3/3(-5);
 2/9=110/2;
 6/7=2,8=2,9=2,10=2,15=8,19=2,20=3,27=100,28=1,40=-1,79=1/1,2,7;
 99/9=1/99;
 -------------------
 Title Card Required
 -------------------
 Symbolic Z-matrix:
 Charge =  0 Multiplicity = 1
 C                     1.12716   0.0784    0.03116 
 C                     1.90047   1.22121   0.43101 
 C                     3.24625   1.0176    0.35658 
 S                     3.61787  -0.57661  -0.21041 
 H                     1.64198  -1.93236  -0.72069 
 H                     1.46157   2.14436   0.78572 
 H                     4.0424    1.69865   0.61516 
 C                    -0.34978   0.03672   0.02011 
 C                    -1.10244   1.17451  -0.30355 
 C                    -1.04835  -1.14013   0.3246 
 C                    -2.4932    1.1331   -0.32461 
 H                    -0.59459   2.09588  -0.566 
 C                    -2.43866  -1.17725   0.29747 
 H                    -0.49675  -2.0308    0.60437 
 C                    -3.18991  -0.0417   -0.02366 
 H                    -3.04635   2.02916  -0.5886 
 H                    -2.94923  -2.10405   0.54019 
 C                    -4.69881  -0.07467  -0.01439 
 H                    -5.09188   0.183     0.97549 
 H                    -5.1175    0.63971  -0.72728 
 H                    -5.07795  -1.06766  -0.26739 
 C                     1.93768  -0.96614  -0.34211 
 

 GradGradGradGradGradGradGradGradGradGradGradGradGradGradGradGradGradGrad
 Berny optimization.
 Initialization pass.
                           ----------------------------
                           !    Initial Parameters    !
                           ! (Angstroms and Degrees)  !
 --------------------------                            --------------------------
 ! Name  Definition              Value          Derivative Info.                !
 --------------------------------------------------------------------------------
 ! R1    R(1,2)                  1.4366         estimate D2E/DX2                !
 ! R2    R(1,8)                  1.4776         estimate D2E/DX2                !
 ! R3    R(1,22)                 1.3738         estimate D2E/DX2                !
 ! R4    R(2,3)                  1.3631         estimate D2E/DX2                !
 ! R5    R(2,6)                  1.082          estimate D2E/DX2                !
 ! R6    R(3,4)                  1.7324         estimate D2E/DX2                !
 ! R7    R(3,7)                  1.0791         estimate D2E/DX2                !
 ! R8    R(4,22)                 1.7298         estimate D2E/DX2                !
 ! R9    R(5,22)                 1.0791         estimate D2E/DX2                !
 ! R10   R(8,9)                  1.4021         estimate D2E/DX2                !
 ! R11   R(8,10)                 1.402          estimate D2E/DX2                !
 ! R12   R(9,11)                 1.3915         estimate D2E/DX2                !
 ! R13   R(9,12)                 1.0843         estimate D2E/DX2                !
 ! R14   R(10,13)                1.3911         estimate D2E/DX2                !
 ! R15   R(10,14)                1.0843         estimate D2E/DX2                !
 ! R16   R(11,15)                1.3986         estimate D2E/DX2                !
 ! R17   R(11,16)                1.0856         estimate D2E/DX2                !
 ! R18   R(13,15)                1.3989         estimate D2E/DX2                !
 ! R19   R(13,17)                1.0856         estimate D2E/DX2                !
 ! R20   R(15,18)                1.5093         estimate D2E/DX2                !
 ! R21   R(18,19)                1.0958         estimate D2E/DX2                !
 ! R22   R(18,20)                1.0926         estimate D2E/DX2                !
 ! R23   R(18,21)                1.0926         estimate D2E/DX2                !
 ! A1    A(2,1,8)              124.2335         estimate D2E/DX2                !
 ! A2    A(2,1,22)             111.2768         estimate D2E/DX2                !
 ! A3    A(8,1,22)             124.4894         estimate D2E/DX2                !
 ! A4    A(1,2,3)              113.4162         estimate D2E/DX2                !
 ! A5    A(1,2,6)              123.4775         estimate D2E/DX2                !
 ! A6    A(3,2,6)              123.0815         estimate D2E/DX2                !
 ! A7    A(2,3,4)              111.5375         estimate D2E/DX2                !
 ! A8    A(2,3,7)              128.3904         estimate D2E/DX2                !
 ! A9    A(4,3,7)              120.0625         estimate D2E/DX2                !
 ! A10   A(3,4,22)              91.3632         estimate D2E/DX2                !
 ! A11   A(1,8,9)              121.0259         estimate D2E/DX2                !
 ! A12   A(1,8,10)             121.3388         estimate D2E/DX2                !
 ! A13   A(9,8,10)             117.6344         estimate D2E/DX2                !
 ! A14   A(8,9,11)             121.0554         estimate D2E/DX2                !
 ! A15   A(8,9,12)             119.6044         estimate D2E/DX2                !
 ! A16   A(11,9,12)            119.3226         estimate D2E/DX2                !
 ! A17   A(8,10,13)            121.0741         estimate D2E/DX2                !
 ! A18   A(8,10,14)            119.4745         estimate D2E/DX2                !
 ! A19   A(13,10,14)           119.4408         estimate D2E/DX2                !
 ! A20   A(9,11,15)            121.3059         estimate D2E/DX2                !
 ! A21   A(9,11,16)            119.2327         estimate D2E/DX2                !
 ! A22   A(15,11,16)           119.4592         estimate D2E/DX2                !
 ! A23   A(10,13,15)           121.3015         estimate D2E/DX2                !
 ! A24   A(10,13,17)           119.2401         estimate D2E/DX2                !
 ! A25   A(15,13,17)           119.4556         estimate D2E/DX2                !
 ! A26   A(11,15,13)           117.6271         estimate D2E/DX2                !
 ! A27   A(11,15,18)           121.1774         estimate D2E/DX2                !
 ! A28   A(13,15,18)           121.1806         estimate D2E/DX2                !
 ! A29   A(15,18,19)           111.0405         estimate D2E/DX2                !
 ! A30   A(15,18,20)           111.3954         estimate D2E/DX2                !
 ! A31   A(15,18,21)           111.4289         estimate D2E/DX2                !
 ! A32   A(19,18,20)           107.3495         estimate D2E/DX2                !
 ! A33   A(19,18,21)           107.3615         estimate D2E/DX2                !
 ! A34   A(20,18,21)           108.0689         estimate D2E/DX2                !
 ! A35   A(1,22,4)             112.4059         estimate D2E/DX2                !
 ! A36   A(1,22,5)             127.9137         estimate D2E/DX2                !
 ! A37   A(4,22,5)             119.6395         estimate D2E/DX2                !
 ! D1    D(8,1,2,3)            179.9817         estimate D2E/DX2                !
 ! D2    D(8,1,2,6)              1.7437         estimate D2E/DX2                !
 ! D3    D(22,1,2,3)            -0.1914         estimate D2E/DX2                !
 ! D4    D(22,1,2,6)          -178.4293         estimate D2E/DX2                !
 ! D5    D(2,1,8,9)             34.7252         estimate D2E/DX2                !
 ! D6    D(2,1,8,10)          -145.6351         estimate D2E/DX2                !
 ! D7    D(22,1,8,9)          -145.0792         estimate D2E/DX2                !
 ! D8    D(22,1,8,10)           34.5606         estimate D2E/DX2                !
 ! D9    D(2,1,22,4)             0.0911         estimate D2E/DX2                !
 ! D10   D(2,1,22,5)          -177.5454         estimate D2E/DX2                !
 ! D11   D(8,1,22,4)           179.9176         estimate D2E/DX2                !
 ! D12   D(8,1,22,5)             2.2811         estimate D2E/DX2                !
 ! D13   D(1,2,3,4)              0.2035         estimate D2E/DX2                !
 ! D14   D(1,2,3,7)           -178.6565         estimate D2E/DX2                !
 ! D15   D(6,2,3,4)            178.4494         estimate D2E/DX2                !
 ! D16   D(6,2,3,7)             -0.4106         estimate D2E/DX2                !
 ! D17   D(2,3,4,22)            -0.1271         estimate D2E/DX2                !
 ! D18   D(7,3,4,22)           178.8405         estimate D2E/DX2                !
 ! D19   D(3,4,22,1)             0.0173         estimate D2E/DX2                !
 ! D20   D(3,4,22,5)           177.8721         estimate D2E/DX2                !
 ! D21   D(1,8,9,11)           179.4786         estimate D2E/DX2                !
 ! D22   D(1,8,9,12)             1.0172         estimate D2E/DX2                !
 ! D23   D(10,8,9,11)           -0.1741         estimate D2E/DX2                !
 ! D24   D(10,8,9,12)         -178.6355         estimate D2E/DX2                !
 ! D25   D(1,8,10,13)         -179.2492         estimate D2E/DX2                !
 ! D26   D(1,8,10,14)            1.9409         estimate D2E/DX2                !
 ! D27   D(9,8,10,13)            0.4024         estimate D2E/DX2                !
 ! D28   D(9,8,10,14)         -178.4076         estimate D2E/DX2                !
 ! D29   D(8,9,11,15)            0.041          estimate D2E/DX2                !
 ! D30   D(8,9,11,16)         -179.416          estimate D2E/DX2                !
 ! D31   D(12,9,11,15)         178.5067         estimate D2E/DX2                !
 ! D32   D(12,9,11,16)          -0.9503         estimate D2E/DX2                !
 ! D33   D(8,10,13,15)          -0.5052         estimate D2E/DX2                !
 ! D34   D(8,10,13,17)        -179.8906         estimate D2E/DX2                !
 ! D35   D(14,10,13,15)        178.3051         estimate D2E/DX2                !
 ! D36   D(14,10,13,17)         -1.0803         estimate D2E/DX2                !
 ! D37   D(9,11,15,13)          -0.1245         estimate D2E/DX2                !
 ! D38   D(9,11,15,18)         178.486          estimate D2E/DX2                !
 ! D39   D(16,11,15,13)        179.3313         estimate D2E/DX2                !
 ! D40   D(16,11,15,18)         -2.0583         estimate D2E/DX2                !
 ! D41   D(10,13,15,11)          0.3538         estimate D2E/DX2                !
 ! D42   D(10,13,15,18)       -178.2566         estimate D2E/DX2                !
 ! D43   D(17,13,15,11)        179.7379         estimate D2E/DX2                !
 ! D44   D(17,13,15,18)          1.1275         estimate D2E/DX2                !
 ! D45   D(11,15,18,19)        -89.2606         estimate D2E/DX2                !
 ! D46   D(11,15,18,20)         30.3345         estimate D2E/DX2                !
 ! D47   D(11,15,18,21)        151.1069         estimate D2E/DX2                !
 ! D48   D(13,15,18,19)         89.3005         estimate D2E/DX2                !
 ! D49   D(13,15,18,20)       -151.1045         estimate D2E/DX2                !
 ! D50   D(13,15,18,21)        -30.3321         estimate D2E/DX2                !
 --------------------------------------------------------------------------------
 Trust Radius=3.00D-01 FncErr=1.00D-07 GrdErr=1.00D-06
 Number of steps in this run=    120 maximum allowed number of steps=    132.
 GradGradGradGradGradGradGradGradGradGradGradGradGradGradGradGradGradGrad

                          Input orientation:                          
 ---------------------------------------------------------------------
 Center     Atomic      Atomic             Coordinates (Angstroms)
 Number     Number       Type             X           Y           Z
 ---------------------------------------------------------------------
      1          6           0        1.127162    0.078398    0.031159
      2          6           0        1.900465    1.221209    0.431013
      3          6           0        3.246253    1.017600    0.356575
      4         16           0        3.617865   -0.576609   -0.210409
      5          1           0        1.641983   -1.932364   -0.720693
      6          1           0        1.461566    2.144357    0.785715
      7          1           0        4.042398    1.698650    0.615162
      8          6           0       -0.349780    0.036718    0.020113
      9          6           0       -1.102442    1.174505   -0.303550
     10          6           0       -1.048349   -1.140134    0.324595
     11          6           0       -2.493197    1.133098   -0.324610
     12          1           0       -0.594589    2.095882   -0.565999
     13          6           0       -2.438664   -1.177253    0.297466
     14          1           0       -0.496754   -2.030797    0.604373
     15          6           0       -3.189911   -0.041695   -0.023663
     16          1           0       -3.046348    2.029156   -0.588595
     17          1           0       -2.949234   -2.104049    0.540191
     18          6           0       -4.698809   -0.074665   -0.014391
     19          1           0       -5.091877    0.182995    0.975489
     20          1           0       -5.117496    0.639714   -0.727276
     21          1           0       -5.077949   -1.067660   -0.267389
     22          6           0        1.937684   -0.966139   -0.342113
 ---------------------------------------------------------------------
                    Distance matrix (angstroms):
                    1          2          3          4          5
     1  C    0.000000
     2  C    1.436627   0.000000
     3  C    2.340629   1.363137   0.000000
     4  S    2.586695   2.567690   1.732359   0.000000
     5  H    2.207597   3.367234   3.526539   2.450015   0.000000
     6  H    2.224717   1.081965   2.153799   3.611862   4.349882
     7  H    3.385982   2.202212   1.079140   2.457356   4.553105
     8  C    1.477571   2.575939   3.742565   4.021383   2.897102
     9  C    2.506913   3.091798   4.401310   5.035511   4.166355
    10  C    2.510732   3.779255   4.806292   4.730470   2.993015
    11  C    3.787606   4.459035   5.780886   6.346749   5.162718
    12  H    2.718688   2.825665   4.094619   5.001342   4.610092
    13  C    3.789814   4.959687   6.094190   6.107393   4.272999
    14  H    2.722936   4.043792   4.833656   4.439439   2.517873
    15  C    4.319091   5.264369   6.533827   6.831312   5.235234
    16  H    4.648412   5.115011   6.443091   7.165527   6.139343
    17  H    4.651795   5.881228   6.939918   6.784045   4.764302
    18  C    5.828159   6.740036   8.028367   8.334113   6.644964
    19  H    6.291196   7.089936   8.402621   8.822866   7.259246
    20  H    6.315541   7.136634   8.442146   8.834768   7.232301
    21  H    6.317118   7.377327   8.604068   8.709854   6.790485
    22  C    1.373803   2.320259   2.477042   1.729765   1.079052
                    6          7          8          9         10
     6  H    0.000000
     7  H    2.624583   0.000000
     8  C    2.882579   4.733638   0.000000
     9  C    2.949788   5.252441   1.402076   0.000000
    10  C    4.159349   5.835994   1.402030   2.398968   0.000000
    11  C    4.230321   6.626992   2.432102   1.391531   2.770674
    12  H    2.461149   4.801519   2.154905   1.084311   3.386865
    13  C    5.146190   7.097599   2.431890   2.770826   1.391075
    14  H    4.615172   5.874759   2.153504   3.386022   1.084349
    15  C    5.202899   7.466136   2.841550   2.432079   2.431900
    16  H    4.714158   7.197818   3.407611   2.142533   3.856205
    17  H    6.128980   7.959212   3.407422   3.856353   2.142190
    18  C    6.596548   8.941459   4.350592   3.818101   3.817852
    19  H    6.843287   9.266176   4.839589   4.305186   4.304004
    20  H    6.916440   9.318108   4.863467   4.072616   4.564236
    21  H    7.361477   9.571421   4.863938   4.564347   4.073496
    22  C    3.342734   3.528073   2.523771   3.718361   3.064501
                   11         12         13         14         15
    11  C    0.000000
    12  H    2.142413   0.000000
    13  C    2.393256   3.854815   0.000000
    14  H    3.854741   4.290550   2.143302   0.000000
    15  C    1.398613   3.405739   1.398924   3.406472   0.000000
    16  H    1.085626   2.452771   3.381633   4.940326   2.151321
    17  H    3.381563   4.940388   1.085609   2.454413   2.151548
    18  C    2.533703   4.675486   2.534011   4.676172   1.509287
    19  H    3.057138   5.124541   3.057700   5.114074   2.160154
    20  H    2.700465   4.754274   3.395233   5.500561   2.162169
    21  H    3.395225   5.495242   2.701277   4.761822   2.162567
    22  C    4.903041   3.979762   4.427872   2.820606   5.219984
                   16         17         18         19         20
    16  H    0.000000
    17  H    4.285671   0.000000
    18  C    2.736129   2.736233   0.000000
    19  H    3.168416   3.164012   1.095789   0.000000
    20  H    2.497886   3.719687   1.092630   1.763138   0.000000
    21  H    3.717640   2.501543   1.092609   1.763258   1.768668
    22  C    5.820062   5.094631   6.704116   7.243708   7.245873
                   21         22
    21  H    0.000000
    22  C    7.016765   0.000000
 Stoichiometry    C11H10S
 Framework group  C1[X(C11H10S)]
 Deg. of freedom    60
 Full point group                 C1      NOp   1
 Largest Abelian subgroup         C1      NOp   1
 Largest concise Abelian subgroup C1      NOp   1
                         Standard orientation:                         
 ---------------------------------------------------------------------
 Center     Atomic      Atomic             Coordinates (Angstroms)
 Number     Number       Type             X           Y           Z
 ---------------------------------------------------------------------
      1          6           0        1.127162    0.078398    0.031159
      2          6           0        1.900465    1.221209    0.431013
      3          6           0        3.246253    1.017600    0.356575
      4         16           0        3.617865   -0.576609   -0.210409
      5          1           0        1.641983   -1.932364   -0.720693
      6          1           0        1.461566    2.144357    0.785715
      7          1           0        4.042398    1.698650    0.615162
      8          6           0       -0.349780    0.036718    0.020113
      9          6           0       -1.102442    1.174505   -0.303550
     10          6           0       -1.048349   -1.140134    0.324595
     11          6           0       -2.493197    1.133098   -0.324610
     12          1           0       -0.594589    2.095882   -0.565999
     13          6           0       -2.438664   -1.177253    0.297466
     14          1           0       -0.496754   -2.030797    0.604373
     15          6           0       -3.189911   -0.041695   -0.023663
     16          1           0       -3.046348    2.029156   -0.588595
     17          1           0       -2.949234   -2.104049    0.540191
     18          6           0       -4.698809   -0.074665   -0.014391
     19          1           0       -5.091877    0.182995    0.975489
     20          1           0       -5.117496    0.639714   -0.727276
     21          1           0       -5.077949   -1.067660   -0.267389
     22          6           0        1.937684   -0.966139   -0.342113
 ---------------------------------------------------------------------
 Rotational constants (GHZ):      3.1144766      0.3760603      0.3426945
 Standard basis: 6-311+G(d,p) (5D, 7F)
 There are   344 symmetry adapted cartesian basis functions of A   symmetry.
 There are   332 symmetry adapted basis functions of A   symmetry.
   332 basis functions,   526 primitive gaussians,   344 cartesian basis functions
    46 alpha electrons       46 beta electrons
       nuclear repulsion energy       694.6170173369 Hartrees.
 NAtoms=   22 NActive=   22 NUniq=   22 SFac= 1.00D+00 NAtFMM=   60 NAOKFM=F Big=F
 Integral buffers will be    131072 words long.
 Raffenetti 2 integral format.
 Two-electron integral symmetry is turned on.
 One-electron integrals computed using PRISM.
 NBasis=   332 RedAO= T EigKep=  1.32D-06  NBF=   332
 NBsUse=   331 1.00D-06 EigRej=  4.71D-07 NBFU=   331
 ExpMin= 4.05D-02 ExpMax= 9.34D+04 ExpMxC= 3.17D+03 IAcc=2 IRadAn=         4 AccDes= 0.00D+00
 Harris functional with IExCor=  402 and IRadAn=       4 diagonalized for initial guess.
 HarFok:  IExCor=  402 AccDes= 0.00D+00 IRadAn=         4 IDoV= 1 UseB2=F ITyADJ=14
 ICtDFT=  3500011 ScaDFX=  1.000000  1.000000  1.000000  1.000000
 FoFCou: FMM=F IPFlag=           0 FMFlag=      100000 FMFlg1=           0
         NFxFlg=           0 DoJE=T BraDBF=F KetDBF=T FulRan=T
         wScrn=  0.000000 ICntrl=     500 IOpCl=  0 I1Cent=   200000004 NGrid=           0
         NMat0=    1 NMatS0=      1 NMatT0=    0 NMatD0=    1 NMtDS0=    0 NMtDT0=    0
 Petite list used in FoFCou.
 Requested convergence on RMS density matrix=1.00D-08 within 128 cycles.
 Requested convergence on MAX density matrix=1.00D-06.
 Requested convergence on             energy=1.00D-06.
 No special actions if energy rises.
 SCF Done:  E(RB3LYP) =  -823.512923726     A.U. after   16 cycles
            NFock= 16  Conv=0.44D-08     -V/T= 2.0031

 **********************************************************************

            Population analysis using the SCF density.

 **********************************************************************

 Orbital symmetries:
       Occupied  (A) (A) (A) (A) (A) (A) (A) (A) (A) (A) (A) (A)
                 (A) (A) (A) (A) (A) (A) (A) (A) (A) (A) (A) (A)
                 (A) (A) (A) (A) (A) (A) (A) (A) (A) (A) (A) (A)
                 (A) (A) (A) (A) (A) (A) (A) (A) (A) (A)
       Virtual   (A) (A) (A) (A) (A) (A) (A) (A) (A) (A) (A) (A)
                 (A) (A) (A) (A) (A) (A) (A) (A) (A) (A) (A) (A)
                 (A) (A) (A) (A) (A) (A) (A) (A) (A) (A) (A) (A)
                 (A) (A) (A) (A) (A) (A) (A) (A) (A) (A) (A) (A)
                 (A) (A) (A) (A) (A) (A) (A) (A) (A) (A) (A) (A)
                 (A) (A) (A) (A) (A) (A) (A) (A) (A) (A) (A) (A)
                 (A) (A) (A) (A) (A) (A) (A) (A) (A) (A) (A) (A)
                 (A) (A) (A) (A) (A) (A) (A) (A) (A) (A) (A) (A)
                 (A) (A) (A) (A) (A) (A) (A) (A) (A) (A) (A) (A)
                 (A) (A) (A) (A) (A) (A) (A) (A) (A) (A) (A) (A)
                 (A) (A) (A) (A) (A) (A) (A) (A) (A) (A) (A) (A)
                 (A) (A) (A) (A) (A) (A) (A) (A) (A) (A) (A) (A)
                 (A) (A) (A) (A) (A) (A) (A) (A) (A) (A) (A) (A)
                 (A) (A) (A) (A) (A) (A) (A) (A) (A) (A) (A) (A)
                 (A) (A) (A) (A) (A) (A) (A) (A) (A) (A) (A) (A)
                 (A) (A) (A) (A) (A) (A) (A) (A) (A) (A) (A) (A)
                 (A) (A) (A) (A) (A) (A) (A) (A) (A) (A) (A) (A)
                 (A) (A) (A) (A) (A) (A) (A) (A) (A) (A) (A) (A)
                 (A) (A) (A) (A) (A) (A) (A) (A) (A) (A) (A) (A)
                 (A) (A) (A) (A) (A) (A) (A) (A) (A) (A) (A) (A)
                 (A) (A) (A) (A) (A) (A) (A) (A) (A) (A) (A) (A)
                 (A) (A) (A) (A) (A) (A) (A) (A) (A) (A) (A) (A)
                 (A) (A) (A) (A) (A) (A) (A) (A) (A) (A) (A) (A)
                 (A) (A) (A) (A) (A) (A) (A) (A) (A)
 The electronic state is 1-A.
 Alpha  occ. eigenvalues --  -88.88008 -10.20254 -10.19961 -10.18989 -10.18899
 Alpha  occ. eigenvalues --  -10.18647 -10.18055 -10.17751 -10.17728 -10.17544
 Alpha  occ. eigenvalues --  -10.17539 -10.17141  -7.96624  -5.92905  -5.92530
 Alpha  occ. eigenvalues --   -5.92243  -0.89074  -0.86320  -0.79283  -0.75200
 Alpha  occ. eigenvalues --   -0.73960  -0.73186  -0.68253  -0.61664  -0.59810
 Alpha  occ. eigenvalues --   -0.56918  -0.55268  -0.53063  -0.47522  -0.46962
 Alpha  occ. eigenvalues --   -0.45454  -0.42683  -0.42528  -0.41577  -0.40613
 Alpha  occ. eigenvalues --   -0.39600  -0.39548  -0.38230  -0.36353  -0.35806
 Alpha  occ. eigenvalues --   -0.34359  -0.34260  -0.27736  -0.25969  -0.25076
 Alpha  occ. eigenvalues --   -0.22368
 Alpha virt. eigenvalues --   -0.03768  -0.01972  -0.01014  -0.00001   0.00748
 Alpha virt. eigenvalues --    0.01036   0.01812   0.02769   0.03610   0.04126
 Alpha virt. eigenvalues --    0.04265   0.04494   0.04971   0.05577   0.05757
 Alpha virt. eigenvalues --    0.06133   0.07173   0.07535   0.08161   0.08689
 Alpha virt. eigenvalues --    0.09051   0.10110   0.10679   0.11022   0.11759
 Alpha virt. eigenvalues --    0.12026   0.12353   0.12932   0.13443   0.14358
 Alpha virt. eigenvalues --    0.14860   0.15006   0.15556   0.16054   0.16283
 Alpha virt. eigenvalues --    0.16537   0.16958   0.17272   0.17697   0.18218
 Alpha virt. eigenvalues --    0.19327   0.19522   0.20195   0.20542   0.20640
 Alpha virt. eigenvalues --    0.20830   0.21284   0.21841   0.22595   0.22748
 Alpha virt. eigenvalues --    0.23405   0.23677   0.24055   0.24787   0.24976
 Alpha virt. eigenvalues --    0.25685   0.25914   0.26459   0.26668   0.27203
 Alpha virt. eigenvalues --    0.27975   0.28321   0.29027   0.29392   0.30090
 Alpha virt. eigenvalues --    0.31556   0.31826   0.32362   0.33747   0.35162
 Alpha virt. eigenvalues --    0.35638   0.36683   0.40075   0.40675   0.41814
 Alpha virt. eigenvalues --    0.43157   0.44406   0.46669   0.46979   0.47796
 Alpha virt. eigenvalues --    0.51646   0.52552   0.53438   0.55200   0.55466
 Alpha virt. eigenvalues --    0.56001   0.56472   0.57014   0.57909   0.58856
 Alpha virt. eigenvalues --    0.58984   0.60553   0.60846   0.61947   0.63213
 Alpha virt. eigenvalues --    0.64145   0.64697   0.64865   0.65365   0.66778
 Alpha virt. eigenvalues --    0.67206   0.68852   0.69247   0.69607   0.70608
 Alpha virt. eigenvalues --    0.70739   0.71177   0.72533   0.72869   0.74844
 Alpha virt. eigenvalues --    0.75199   0.76278   0.76810   0.77535   0.78672
 Alpha virt. eigenvalues --    0.81294   0.82436   0.82795   0.84281   0.85414
 Alpha virt. eigenvalues --    0.86567   0.86919   0.87590   0.89972   0.90595
 Alpha virt. eigenvalues --    0.90946   0.92662   0.94805   0.96020   0.97034
 Alpha virt. eigenvalues --    0.97120   0.99582   1.00746   1.00991   1.03403
 Alpha virt. eigenvalues --    1.03948   1.05344   1.07359   1.09232   1.10604
 Alpha virt. eigenvalues --    1.12147   1.14083   1.14390   1.17563   1.26337
 Alpha virt. eigenvalues --    1.31568   1.34605   1.35341   1.36259   1.36545
 Alpha virt. eigenvalues --    1.38134   1.46844   1.48354   1.49498   1.50128
 Alpha virt. eigenvalues --    1.50905   1.51869   1.54624   1.54767   1.56016
 Alpha virt. eigenvalues --    1.57523   1.58219   1.59115   1.59846   1.60408
 Alpha virt. eigenvalues --    1.61892   1.64818   1.65851   1.66407   1.68581
 Alpha virt. eigenvalues --    1.69503   1.71357   1.72717   1.74897   1.75852
 Alpha virt. eigenvalues --    1.77676   1.78700   1.79404   1.81390   1.82104
 Alpha virt. eigenvalues --    1.82681   1.88171   1.89250   1.91886   1.92950
 Alpha virt. eigenvalues --    1.93390   1.94548   1.95111   1.97497   1.97927
 Alpha virt. eigenvalues --    2.00054   2.01531   2.02754   2.03449   2.04181
 Alpha virt. eigenvalues --    2.07795   2.08325   2.10731   2.12333   2.13446
 Alpha virt. eigenvalues --    2.16096   2.17229   2.21522   2.26176   2.28629
 Alpha virt. eigenvalues --    2.32433   2.34037   2.39713   2.39975   2.41541
 Alpha virt. eigenvalues --    2.42507   2.43309   2.43984   2.46434   2.53115
 Alpha virt. eigenvalues --    2.55155   2.59038   2.59244   2.60245   2.64934
 Alpha virt. eigenvalues --    2.67650   2.68227   2.69317   2.71542   2.71834
 Alpha virt. eigenvalues --    2.72723   2.73647   2.74492   2.76706   2.77333
 Alpha virt. eigenvalues --    2.79325   2.80507   2.81620   2.82333   2.83850
 Alpha virt. eigenvalues --    2.87278   2.89171   2.92094   2.92648   2.94708
 Alpha virt. eigenvalues --    2.95437   3.00512   3.04815   3.08366   3.10149
 Alpha virt. eigenvalues --    3.15949   3.20119   3.20878   3.29175   3.31444
 Alpha virt. eigenvalues --    3.35905   3.38469   3.44297   3.49469   3.51093
 Alpha virt. eigenvalues --    3.58374   3.63827   3.66356   3.78263   3.80292
 Alpha virt. eigenvalues --    3.82196   3.98673   4.03664   4.15017   4.17328
 Alpha virt. eigenvalues --    4.30260   4.32177   4.49815   4.84633   7.95559
 Alpha virt. eigenvalues --   17.28257  17.43695  17.48669  23.56061  23.71973
 Alpha virt. eigenvalues --   23.81742  23.92797  23.95064  23.97378  24.05448
 Alpha virt. eigenvalues --   24.10557  24.11184  24.15679  24.18620 189.10977
          Condensed to atoms (all electrons):
               1          2          3          4          5          6
     1  C    7.977002   0.274447  -0.203644   0.133737   0.056453  -0.013479
     2  C    0.274447   9.679331  -0.240787   0.970844  -0.003072   0.368550
     3  C   -0.203644  -0.240787   5.908210   0.001742  -0.004108  -0.012003
     4  S    0.133737   0.970844   0.001742  16.195804  -0.026301   0.003909
     5  H    0.056453  -0.003072  -0.004108  -0.026301   0.487198  -0.000076
     6  H   -0.013479   0.368550  -0.012003   0.003909  -0.000076   0.531971
     7  H    0.032249  -0.028563   0.390842  -0.019748  -0.000150  -0.004580
     8  C   -1.305675  -0.491665   0.131712  -0.139494  -0.009555  -0.027676
     9  C   -0.434084  -0.109108   0.088952  -0.091471  -0.016182   0.050169
    10  C    0.244495   0.434891  -0.041568   0.108712   0.033722  -0.029721
    11  C    0.368874  -0.438273  -0.026996  -0.007025  -0.002978   0.009180
    12  H   -0.010453   0.035937   0.003486   0.000750  -0.000011  -0.000368
    13  C    0.263757   0.293224  -0.015746   0.013950   0.003726   0.004409
    14  H   -0.017890  -0.011892  -0.003283   0.001982  -0.000051  -0.000013
    15  C   -0.155959   0.020507  -0.010522   0.007829  -0.002572  -0.001828
    16  H   -0.001257   0.000187  -0.000186   0.000046   0.000001   0.000019
    17  H    0.003790   0.000837  -0.000126   0.000067   0.000018   0.000000
    18  C    0.043490  -0.009147  -0.003475   0.002503  -0.000455  -0.000240
    19  H   -0.001141   0.000625   0.000013  -0.000003   0.000000   0.000000
    20  H    0.000359  -0.000266  -0.000013   0.000001   0.000000   0.000000
    21  H   -0.000347  -0.000047   0.000004   0.000005   0.000000   0.000000
    22  C   -1.425273  -4.084538   0.188824  -1.013292   0.324892  -0.005241
               7          8          9         10         11         12
     1  C    0.032249  -1.305675  -0.434084   0.244495   0.368874  -0.010453
     2  C   -0.028563  -0.491665  -0.109108   0.434891  -0.438273   0.035937
     3  C    0.390842   0.131712   0.088952  -0.041568  -0.026996   0.003486
     4  S   -0.019748  -0.139494  -0.091471   0.108712  -0.007025   0.000750
     5  H   -0.000150  -0.009555  -0.016182   0.033722  -0.002978  -0.000011
     6  H   -0.004580  -0.027676   0.050169  -0.029721   0.009180  -0.000368
     7  H    0.481807  -0.003947   0.003554  -0.002815   0.000188   0.000006
     8  C   -0.003947  12.838997  -1.661615  -4.352385   0.280152   0.057853
     9  C    0.003554  -1.661615  19.427227  -9.668730  -3.819369   0.264446
    10  C   -0.002815  -4.352385  -9.668730  23.214022   0.385902   0.003772
    11  C    0.000188   0.280152  -3.819369   0.385902  10.731470   0.028418
    12  H    0.000006   0.057853   0.264446   0.003772   0.028418   0.552433
    13  C   -0.000188   1.247117   1.669261  -6.120372  -0.933339  -0.011301
    14  H    0.000001   0.035075  -0.002282   0.277701  -0.003649  -0.000255
    15  C   -0.000116  -2.206522   0.898082   1.849043  -0.928655  -0.017773
    16  H    0.000000  -0.006293   0.026951  -0.013712   0.296488  -0.008593
    17  H    0.000000  -0.015679  -0.022199   0.040935   0.015013   0.000088
    18  C   -0.000008   0.045468  -0.396471  -0.144111   0.449252   0.002097
    19  H    0.000000  -0.001750   0.019785  -0.011478  -0.061020   0.000012
    20  H    0.000000  -0.000361   0.020066   0.011188   0.180130  -0.000017
    21  H    0.000000   0.002788   0.011748   0.045643  -0.131445   0.000015
    22  C   -0.015372   0.402355   0.119316   0.228912   0.369957  -0.020807
              13         14         15         16         17         18
     1  C    0.263757  -0.017890  -0.155959  -0.001257   0.003790   0.043490
     2  C    0.293224  -0.011892   0.020507   0.000187   0.000837  -0.009147
     3  C   -0.015746  -0.003283  -0.010522  -0.000186  -0.000126  -0.003475
     4  S    0.013950   0.001982   0.007829   0.000046   0.000067   0.002503
     5  H    0.003726  -0.000051  -0.002572   0.000001   0.000018  -0.000455
     6  H    0.004409  -0.000013  -0.001828   0.000019   0.000000  -0.000240
     7  H   -0.000188   0.000001  -0.000116   0.000000   0.000000  -0.000008
     8  C    1.247117   0.035075  -2.206522  -0.006293  -0.015679   0.045468
     9  C    1.669261  -0.002282   0.898082   0.026951  -0.022199  -0.396471
    10  C   -6.120372   0.277701   1.849043  -0.013712   0.040935  -0.144111
    11  C   -0.933339  -0.003649  -0.928655   0.296488   0.015013   0.449252
    12  H   -0.011301  -0.000255  -0.017773  -0.008593   0.000088   0.002097
    13  C   11.650255   0.035777  -1.252021   0.007802   0.287577   0.068426
    14  H    0.035777   0.550723  -0.009527   0.000086  -0.008651   0.002978
    15  C   -1.252021  -0.009527   8.107205   0.004941   0.008493  -0.956378
    16  H    0.007802   0.000086   0.004941   0.551589  -0.000322   0.023459
    17  H    0.287577  -0.008651   0.008493  -0.000322   0.551242   0.022382
    18  C    0.068426   0.002978  -0.956378   0.023459   0.022382   6.186259
    19  H   -0.014364   0.000002   0.089572   0.000327   0.000315   0.332803
    20  H   -0.134337   0.000015  -0.156047   0.000976   0.000276   0.443813
    21  H    0.147639  -0.000004  -0.125811   0.000267   0.000946   0.414635
    22  C   -0.539872   0.031839   0.029290  -0.000409  -0.002721   0.007311
              19         20         21         22
     1  C   -0.001141   0.000359  -0.000347  -1.425273
     2  C    0.000625  -0.000266  -0.000047  -4.084538
     3  C    0.000013  -0.000013   0.000004   0.188824
     4  S   -0.000003   0.000001   0.000005  -1.013292
     5  H    0.000000   0.000000   0.000000   0.324892
     6  H    0.000000   0.000000   0.000000  -0.005241
     7  H    0.000000   0.000000   0.000000  -0.015372
     8  C   -0.001750  -0.000361   0.002788   0.402355
     9  C    0.019785   0.020066   0.011748   0.119316
    10  C   -0.011478   0.011188   0.045643   0.228912
    11  C   -0.061020   0.180130  -0.131445   0.369957
    12  H    0.000012  -0.000017   0.000015  -0.020807
    13  C   -0.014364  -0.134337   0.147639  -0.539872
    14  H    0.000002   0.000015  -0.000004   0.031839
    15  C    0.089572  -0.156047  -0.125811   0.029290
    16  H    0.000327   0.000976   0.000267  -0.000409
    17  H    0.000315   0.000276   0.000946  -0.002721
    18  C    0.332803   0.443813   0.414635   0.007311
    19  H    0.535987  -0.028542  -0.028314  -0.000541
    20  H   -0.028542   0.550305  -0.028298   0.000228
    21  H   -0.028314  -0.028298   0.549177   0.000350
    22  C   -0.000541   0.000228   0.000350  11.146569
 Mulliken charges:
               1
     1  C    0.170552
     2  C   -0.662023
     3  C   -0.151328
     4  S   -0.144547
     5  H    0.159499
     6  H    0.127017
     7  H    0.166841
     8  C    1.181100
     9  C   -0.378045
    10  C   -0.494045
    11  C   -0.762275
    12  H    0.120267
    13  C   -0.671378
    14  H    0.121319
    15  C    0.808772
    16  H    0.117633
    17  H    0.117721
    18  C   -0.534593
    19  H    0.167713
    20  H    0.140528
    21  H    0.141051
    22  C    0.258223
 Sum of Mulliken charges =   0.00000
 Mulliken charges with hydrogens summed into heavy atoms:
               1
     1  C    0.170552
     2  C   -0.535006
     3  C    0.015513
     4  S   -0.144547
     8  C    1.181100
     9  C   -0.257778
    10  C   -0.372726
    11  C   -0.644642
    13  C   -0.553657
    15  C    0.808772
    18  C   -0.085302
    22  C    0.417722
 Electronic spatial extent (au):  <R**2>=           3101.8153
 Charge=              0.0000 electrons
 Dipole moment (field-independent basis, Debye):
    X=             -0.9181    Y=              0.2960    Z=              0.1434  Tot=              0.9753
 Quadrupole moment (field-independent basis, Debye-Ang):
   XX=            -71.8520   YY=            -71.5001   ZZ=            -83.2509
   XY=              2.1401   XZ=              0.7752   YZ=              0.6188
 Traceless Quadrupole moment (field-independent basis, Debye-Ang):
   XX=              3.6823   YY=              4.0342   ZZ=             -7.7165
   XY=              2.1401   XZ=              0.7752   YZ=              0.6188
 Octapole moment (field-independent basis, Debye-Ang**2):
  XXX=            -15.9302  YYY=             -1.8245  ZZZ=             -0.5789  XYY=              2.6871
  XXY=             12.0147  XXZ=              4.5763  XZZ=             -0.3899  YZZ=             -0.4575
  YYZ=             -0.0899  XYZ=              9.2440
 Hexadecapole moment (field-independent basis, Debye-Ang**3):
 XXXX=          -3523.8428 YYYY=           -487.4720 ZZZZ=           -156.6379 XXXY=             61.5713
 XXXZ=             22.5217 YYYX=              0.6144 YYYZ=              2.7447 ZZZX=             -5.6324
 ZZZY=              1.4100 XXYY=           -663.5216 XXZZ=           -668.6568 YYZZ=           -113.8249
 XXYZ=              9.1418 YYXZ=              4.2109 ZZXY=             -4.5982
 N-N= 6.946170173369D+02 E-N=-3.322286107214D+03  KE= 8.209864230287D+02
 There are a total of      181784 grid points.
 ElSum from          density=       92.0000107221
 ElSum from atomic densities=       92.0000932825

 Hirshfeld populations at iteration   1 (CX, CA, CB, DipXYZ):
               1          2          3          4          5          6
     1  C    0.000000   3.010399   3.010399  -0.099989   0.036844   0.013950
     2  C    0.000001   3.033721   3.033721  -0.085524   0.066030   0.022684
     3  C    0.000001   3.039757   3.039757   0.077434   0.021655   0.010057
     4  S    0.000003   7.960810   7.960810  -0.023366   0.012622   0.003713
     5  H    0.000002   0.472233   0.472233  -0.049012  -0.157120  -0.062640
     6  H    0.000002   0.473721   0.473721  -0.059224   0.140913   0.054918
     7  H    0.000004   0.471171   0.471171   0.126642   0.119271   0.045152
     8  C    0.000000   3.002445   3.002445   0.060706   0.001520   0.000174
     9  C    0.000000   3.023820   3.023820   0.029448   0.043721  -0.010894
    10  C    0.000000   3.023736   3.023736   0.031130  -0.042055   0.009753
    11  C    0.000000   3.025824   3.025824  -0.034178   0.044494  -0.012017
    12  H    0.000001   0.477631   0.477631   0.061906   0.135809  -0.039679
    13  C    0.000000   3.025777   3.025777  -0.032666  -0.045116   0.014854
    14  H    0.000002   0.477875   0.477875   0.066973  -0.132062   0.041592
    15  C    0.000000   2.999171   2.999171  -0.078024  -0.001517   0.002201
    16  H    0.000001   0.477733   0.477733  -0.075580   0.130949  -0.038561
    17  H    0.000001   0.477703   0.477703  -0.069426  -0.135013   0.036133
    18  C    0.000000   3.047860   3.047860   0.014563   0.000348   0.000167
    19  H    0.000001   0.478729   0.478729  -0.056664   0.035013   0.134871
    20  H    0.000001   0.479426   0.479426  -0.059901   0.095653  -0.097115
    21  H    0.000001   0.479466   0.479466  -0.054689  -0.133880  -0.035194
    22  C    0.000001   3.040995   3.040995   0.009611  -0.065562  -0.022273
       Tot   0.000022  46.000005  46.000005  -0.299833   0.172516   0.071846

 Dip from Atomic Chgs             -0.061381  -0.055962  -0.015418
         Total Dipole             -0.361214   0.116554   0.056428

 Hirshfeld charges, spin densities, dipoles, and CM5 charges using IRadAn=      4:
              Q-H        S-H        Dx         Dy         Dz        Q-CM5   
     1  C   -0.020797   0.000000  -0.099989   0.036844   0.013950  -0.030216
     2  C   -0.067443   0.000000  -0.085524   0.066030   0.022684  -0.121823
     3  C   -0.079515   0.000000   0.077434   0.021655   0.010057  -0.145902
     4  S    0.078381   0.000000  -0.023366   0.012622   0.003713   0.073054
     5  H    0.055534   0.000000  -0.049012  -0.157120  -0.062640   0.113127
     6  H    0.052558   0.000000  -0.059224   0.140913   0.054918   0.109127
     7  H    0.057657   0.000000   0.126642   0.119271   0.045152   0.114182
     8  C   -0.004890   0.000000   0.060706   0.001520   0.000174  -0.013151
     9  C   -0.047641   0.000000   0.029448   0.043721  -0.010894  -0.100399
    10  C   -0.047473   0.000000   0.031130  -0.042055   0.009753  -0.100176
    11  C   -0.051648   0.000000  -0.034178   0.044494  -0.012017  -0.105134
    12  H    0.044739   0.000000   0.061906   0.135809  -0.039679   0.102107
    13  C   -0.051554   0.000000  -0.032666  -0.045116   0.014854  -0.105030
    14  H    0.044251   0.000000   0.066973  -0.132062   0.041592   0.101612
    15  C    0.001657   0.000000  -0.078024  -0.001517   0.002201  -0.015686
    16  H    0.044534   0.000000  -0.075580   0.130949  -0.038561   0.101017
    17  H    0.044593   0.000000  -0.069426  -0.135013   0.036133   0.101079
    18  C   -0.095721   0.000000   0.014563   0.000348   0.000167  -0.239395
    19  H    0.042541   0.000000  -0.056664   0.035013   0.134871   0.093796
    20  H    0.041147   0.000000  -0.059901   0.095653  -0.097115   0.093072
    21  H    0.041069   0.000000  -0.054689  -0.133880  -0.035194   0.092991
    22  C   -0.081991   0.000000   0.009611  -0.065562  -0.022273  -0.118263
       Tot  -0.000011   0.000000  -0.299833   0.172516   0.071846  -0.000011
 Hirshfeld charges with hydrogens summed into heavy atoms:
              Q-H       Q-CM5   
     1  C   -0.020797  -0.030216
     2  C   -0.014885  -0.012696
     3  C   -0.021858  -0.031720
     4  S    0.078381   0.073054
     8  C   -0.004890  -0.013151
     9  C   -0.002902   0.001708
    10  C   -0.003222   0.001436
    11  C   -0.007114  -0.004116
    13  C   -0.006961  -0.003950
    15  C    0.001657  -0.015686
    18  C    0.029036   0.040464
    22  C   -0.026457  -0.005136
 
 EQQ= 0.000000000000E+00 EQD= 0.000000000000E+00 EDD= 0.907170461346E-02
 EQQ+QD+DD= 0.907170461346E-02
 
          MBS Condensed to atoms (all electrons):
               1          2          3          4          5          6
     1  C    4.787420   0.463687  -0.045031  -0.038976  -0.019525  -0.021763
     2  C    0.463687   4.863433   0.545049  -0.041330   0.001641   0.386322
     3  C   -0.045031   0.545049   4.956501   0.363652   0.000939  -0.022130
     4  S   -0.038976  -0.041330   0.363652  15.329688  -0.019726   0.001396
     5  H   -0.019525   0.001641   0.000939  -0.019726   0.519034  -0.000034
     6  H   -0.021763   0.386322  -0.022130   0.001396  -0.000034   0.541787
     7  H    0.001562  -0.019003   0.386081  -0.019802  -0.000016  -0.002306
     8  C    0.414905  -0.023290   0.000930   0.000727  -0.001861  -0.001517
     9  C   -0.028352  -0.003275   0.000020  -0.000005   0.000014   0.000108
    10  C   -0.028084   0.000525  -0.000007   0.000008   0.000158   0.000012
    11  C    0.000876   0.000017   0.000000   0.000000  -0.000001  -0.000006
    12  H   -0.003346   0.000410  -0.000010  -0.000002   0.000001   0.000307
    13  C    0.000879  -0.000006   0.000000   0.000000  -0.000008  -0.000001
    14  H   -0.003247   0.000027  -0.000003  -0.000009   0.000293   0.000001
    15  C    0.000021   0.000000   0.000000   0.000000   0.000000   0.000000
    16  H   -0.000019   0.000000   0.000000   0.000000   0.000000   0.000001
    17  H   -0.000018   0.000000   0.000000   0.000000   0.000001   0.000000
    18  C    0.000000   0.000000   0.000000   0.000000   0.000000   0.000000
    19  H    0.000000   0.000000   0.000000   0.000000   0.000000   0.000000
    20  H    0.000000   0.000000   0.000000   0.000000   0.000000   0.000000
    21  H    0.000000   0.000000   0.000000   0.000000   0.000000   0.000000
    22  C    0.531824  -0.048829  -0.032952   0.368117   0.384707   0.001629
               7          8          9         10         11         12
     1  C    0.001562   0.414905  -0.028352  -0.028084   0.000876  -0.003346
     2  C   -0.019003  -0.023290  -0.003275   0.000525   0.000017   0.000410
     3  C    0.386081   0.000930   0.000020  -0.000007   0.000000  -0.000010
     4  S   -0.019802   0.000727  -0.000005   0.000008   0.000000  -0.000002
     5  H   -0.000016  -0.001861   0.000014   0.000158  -0.000001   0.000001
     6  H   -0.002306  -0.001517   0.000108   0.000012  -0.000006   0.000307
     7  H    0.516607  -0.000014   0.000000   0.000000   0.000000   0.000001
     8  C   -0.000014   4.761343   0.497296   0.497792  -0.029053  -0.026416
     9  C    0.000000   0.497296   4.840766  -0.032967   0.510376   0.388442
    10  C    0.000000   0.497792  -0.032967   4.838757  -0.012186   0.001548
    11  C    0.000000  -0.029053   0.510376  -0.012186   4.840276  -0.025820
    12  H    0.000001  -0.026416   0.388442   0.001548  -0.025820   0.563190
    13  C    0.000000  -0.029139  -0.012128   0.510682  -0.033807   0.000054
    14  H    0.000000  -0.026563   0.001561   0.388004   0.000053  -0.000046
    15  C    0.000000  -0.010559  -0.028879  -0.028837   0.502376   0.001471
    16  H    0.000000   0.001473  -0.026263   0.000054   0.388567  -0.004185
    17  H    0.000000   0.001478   0.000053  -0.026246   0.001593   0.000002
    18  C    0.000000   0.000020   0.000874   0.000873  -0.028197  -0.000018
    19  H    0.000000   0.000004  -0.000018  -0.000018  -0.000570   0.000001
    20  H    0.000000   0.000001   0.000034  -0.000028  -0.003842  -0.000002
    21  H    0.000000   0.000001  -0.000028   0.000033   0.001281   0.000001
    22  C    0.000905  -0.024286   0.000470  -0.003596  -0.000007   0.000029
              13         14         15         16         17         18
     1  C    0.000879  -0.003247   0.000021  -0.000019  -0.000018   0.000000
     2  C   -0.000006   0.000027   0.000000   0.000000   0.000000   0.000000
     3  C    0.000000  -0.000003   0.000000   0.000000   0.000000   0.000000
     4  S    0.000000  -0.000009   0.000000   0.000000   0.000000   0.000000
     5  H   -0.000008   0.000293   0.000000   0.000000   0.000001   0.000000
     6  H   -0.000001   0.000001   0.000000   0.000001   0.000000   0.000000
     7  H    0.000000   0.000000   0.000000   0.000000   0.000000   0.000000
     8  C   -0.029139  -0.026563  -0.010559   0.001473   0.001478   0.000020
     9  C   -0.012128   0.001561  -0.028879  -0.026263   0.000053   0.000874
    10  C    0.510682   0.388004  -0.028837   0.000054  -0.026246   0.000873
    11  C   -0.033807   0.000053   0.502376   0.388567   0.001593  -0.028197
    12  H    0.000054  -0.000046   0.001471  -0.004185   0.000002  -0.000018
    13  C    4.840408  -0.025690   0.501869   0.001594   0.388546  -0.028183
    14  H   -0.025690   0.563084   0.001469   0.000002  -0.004181  -0.000018
    15  C    0.501869   0.001469   4.784054  -0.027001  -0.026988   0.388201
    16  H    0.001594   0.000002  -0.027001   0.568086  -0.000047  -0.003588
    17  H    0.388546  -0.004181  -0.026988  -0.000047   0.568004  -0.003580
    18  C   -0.028183  -0.000018   0.388201  -0.003588  -0.003580   4.808151
    19  H   -0.000563   0.000000  -0.021321   0.000141   0.000142   0.371636
    20  H    0.001281   0.000001  -0.021529   0.001145   0.000032   0.376912
    21  H   -0.003832  -0.000002  -0.021531   0.000031   0.001134   0.376939
    22  C    0.000019   0.000592   0.000000   0.000000   0.000000   0.000000
              19         20         21         22
     1  C    0.000000   0.000000   0.000000   0.531824
     2  C    0.000000   0.000000   0.000000  -0.048829
     3  C    0.000000   0.000000   0.000000  -0.032952
     4  S    0.000000   0.000000   0.000000   0.368117
     5  H    0.000000   0.000000   0.000000   0.384707
     6  H    0.000000   0.000000   0.000000   0.001629
     7  H    0.000000   0.000000   0.000000   0.000905
     8  C    0.000004   0.000001   0.000001  -0.024286
     9  C   -0.000018   0.000034  -0.000028   0.000470
    10  C   -0.000018  -0.000028   0.000033  -0.003596
    11  C   -0.000570  -0.003842   0.001281  -0.000007
    12  H    0.000001  -0.000002   0.000001   0.000029
    13  C   -0.000563   0.001281  -0.003832   0.000019
    14  H    0.000000   0.000001  -0.000002   0.000592
    15  C   -0.021321  -0.021529  -0.021531   0.000000
    16  H    0.000141   0.001145   0.000031   0.000000
    17  H    0.000142   0.000032   0.001134   0.000000
    18  C    0.371636   0.376912   0.376939   0.000000
    19  H    0.592505  -0.022144  -0.022165   0.000000
    20  H   -0.022144   0.594643  -0.021900   0.000000
    21  H   -0.022165  -0.021900   0.594710   0.000000
    22  C    0.000000   0.000000   0.000000   4.980616
 MBS Mulliken charges:
               1
     1  C   -0.012812
     2  C   -0.125378
     3  C   -0.153040
     4  S    0.056262
     5  H    0.134383
     6  H    0.116194
     7  H    0.135986
     8  C   -0.003270
     9  C   -0.108101
    10  C   -0.106478
    11  C   -0.111927
    12  H    0.104389
    13  C   -0.111976
    14  H    0.104672
    15  C    0.007184
    16  H    0.100007
    17  H    0.100075
    18  C   -0.260025
    19  H    0.102371
    20  H    0.095396
    21  H    0.095328
    22  C   -0.159240
 Sum of MBS Mulliken charges =   0.00000
 MBS Mulliken charges with hydrogens summed into heavy atoms:
               1
     1  C   -0.012812
     2  C   -0.009185
     3  C   -0.017054
     4  S    0.056262
     8  C   -0.003270
     9  C   -0.003712
    10  C   -0.001806
    11  C   -0.011920
    13  C   -0.011901
    15  C    0.007184
    18  C    0.033071
    22  C   -0.024857
 Breneman (CHELPG) radii used.
 Generate Potential Derived Charges using the Breneman model, NDens= 1.
 Grid spacing= 0.300 Box extension= 2.800
 NStep X,Y,Z=   51     34     26   Total possible points=       45084
 Number of Points to Fit=   14672

 **********************************************************************

            Electrostatic Properties Using The SCF Density

 **********************************************************************

       Atomic Center    1 is at   1.127162  0.078398  0.031159
       Atomic Center    2 is at   1.900465  1.221209  0.431013
       Atomic Center    3 is at   3.246253  1.017600  0.356575
       Atomic Center    4 is at   3.617865 -0.576609 -0.210409
       Atomic Center    5 is at   1.641983 -1.932364 -0.720693
       Atomic Center    6 is at   1.461566  2.144357  0.785715
       Atomic Center    7 is at   4.042398  1.698650  0.615162
       Atomic Center    8 is at  -0.349780  0.036718  0.020113
       Atomic Center    9 is at  -1.102442  1.174505 -0.303550
       Atomic Center   10 is at  -1.048349 -1.140134  0.324595
       Atomic Center   11 is at  -2.493197  1.133098 -0.324610
       Atomic Center   12 is at  -0.594589  2.095882 -0.565999
       Atomic Center   13 is at  -2.438664 -1.177253  0.297466
       Atomic Center   14 is at  -0.496754 -2.030797  0.604373
       Atomic Center   15 is at  -3.189911 -0.041695 -0.023663
       Atomic Center   16 is at  -3.046348  2.029156 -0.588595
       Atomic Center   17 is at  -2.949234 -2.104049  0.540191
       Atomic Center   18 is at  -4.698809 -0.074665 -0.014391
       Atomic Center   19 is at  -5.091877  0.182995  0.975489
       Atomic Center   20 is at  -5.117496  0.639714 -0.727276
       Atomic Center   21 is at  -5.077949 -1.067660 -0.267389
       Atomic Center   22 is at   1.937684 -0.966139 -0.342113
   14672 points will be used for fitting atomic charges
 Fitting point charges to electrostatic potential
 Charges from ESP fit, RMS=   0.00488 RRMS=   0.51216:
 ESP charges:
               1
     1  C    0.094451
     2  C   -0.119918
     3  C   -0.180286
     4  S    0.009195
     5  H    0.165945
     6  H    0.097438
     7  H    0.161596
     8  C    0.037052
     9  C   -0.086399
    10  C   -0.107876
    11  C   -0.189220
    12  H    0.078379
    13  C   -0.185855
    14  H    0.079480
    15  C    0.164706
    16  H    0.109587
    17  H    0.113064
    18  C   -0.157772
    19  H    0.049102
    20  H    0.044264
    21  H    0.044207
    22  C   -0.221141
 Sum of ESP charges =   0.00000
 ESP charges with hydrogens summed into heavy atoms:
               1
     1  C    0.094451
     2  C   -0.022480
     3  C   -0.018690
     4  S    0.009195
     8  C    0.037052
     9  C   -0.008020
    10  C   -0.028396
    11  C   -0.079633
    13  C   -0.072790
    15  C    0.164706
    18  C   -0.020199
    22  C   -0.055196
 Charge=   0.00000 Dipole=    -0.7295     0.2798     0.0848 Tot=     0.7859
 -----------------------------------------------------------------

              Electrostatic Properties (Atomic Units)

 -----------------------------------------------------------------
    Center     Electric         -------- Electric Field --------
               Potential          X             Y             Z
 -----------------------------------------------------------------
    1 Atom    -14.760482
    2 Atom    -14.770632
    3 Atom    -14.749062
    4 Atom    -59.214279
    5 Atom     -1.081449
    6 Atom     -1.095668
    7 Atom     -1.079757
    8 Atom    -14.761035
    9 Atom    -14.773987
   10 Atom    -14.774269
   11 Atom    -14.776032
   12 Atom     -1.107566
   13 Atom    -14.776090
   14 Atom     -1.108014
   15 Atom    -14.764073
   16 Atom     -1.108392
   17 Atom     -1.108393
   18 Atom    -14.774315
   19 Atom     -1.113380
   20 Atom     -1.115172
   21 Atom     -1.115258
   22 Atom    -14.751780
 -----------------------------------------------------------------
 ******************************Gaussian NBO Version 3.1******************************
             N A T U R A L   A T O M I C   O R B I T A L   A N D
          N A T U R A L   B O N D   O R B I T A L   A N A L Y S I S
 ******************************Gaussian NBO Version 3.1******************************
       /RESON  / : Allow strongly delocalized NBO set

 Analyzing the SCF density

 Job title: Title Card Required                                             

 Storage needed:    332478 in NPA ( 536868272 available)


 NATURAL POPULATIONS:  Natural atomic orbital occupancies 
                                                          
   NAO  Atom  No  lang   Type(AO)    Occupancy      Energy
 ----------------------------------------------------------
     1    C    1  S      Cor( 1S)     1.99895     -10.03861
     2    C    1  S      Val( 2S)     0.87536      -0.12639
     3    C    1  S      Ryd( 3S)     0.00132       0.69657
     4    C    1  S      Ryd( 4S)     0.00022       0.92418
     5    C    1  S      Ryd( 5S)     0.00002      23.18054
     6    C    1  px     Val( 2p)     1.08098      -0.05885
     7    C    1  px     Ryd( 4p)     0.00555       1.15038
     8    C    1  px     Ryd( 3p)     0.00024       0.71164
     9    C    1  px     Ryd( 5p)     0.00013       3.20667
    10    C    1  py     Val( 2p)     1.08207      -0.08054
    11    C    1  py     Ryd( 4p)     0.00617       0.96743
    12    C    1  py     Ryd( 3p)     0.00041       0.70267
    13    C    1  py     Ryd( 5p)     0.00010       3.02014
    14    C    1  pz     Val( 2p)     1.04312      -0.10160
    15    C    1  pz     Ryd( 4p)     0.00156       0.61481
    16    C    1  pz     Ryd( 3p)     0.00035       0.61347
    17    C    1  pz     Ryd( 5p)     0.00002       2.55850
    18    C    1  dxy    Ryd( 3d)     0.00080       2.55765
    19    C    1  dxz    Ryd( 3d)     0.00085       1.83755
    20    C    1  dyz    Ryd( 3d)     0.00049       1.83999
    21    C    1  dx2y2  Ryd( 3d)     0.00070       2.36772
    22    C    1  dz2    Ryd( 3d)     0.00047       1.92844

    23    C    2  S      Cor( 1S)     1.99902     -10.03044
    24    C    2  S      Val( 2S)     0.94842      -0.16277
    25    C    2  S      Ryd( 3S)     0.00218       0.69714
    26    C    2  S      Ryd( 4S)     0.00015       0.81857
    27    C    2  S      Ryd( 5S)     0.00001      23.11376
    28    C    2  px     Val( 2p)     1.08651      -0.07323
    29    C    2  px     Ryd( 4p)     0.00427       0.84982
    30    C    2  px     Ryd( 3p)     0.00070       0.45720
    31    C    2  px     Ryd( 5p)     0.00015       3.15548
    32    C    2  py     Val( 2p)     1.13698      -0.06490
    33    C    2  py     Ryd( 4p)     0.00447       0.83254
    34    C    2  py     Ryd( 3p)     0.00035       0.28966
    35    C    2  py     Ryd( 5p)     0.00008       3.14298
    36    C    2  pz     Val( 2p)     1.05239      -0.10678
    37    C    2  pz     Ryd( 4p)     0.00157       0.58860
    38    C    2  pz     Ryd( 3p)     0.00049       0.30128
    39    C    2  pz     Ryd( 5p)     0.00004       2.76554
    40    C    2  dxy    Ryd( 3d)     0.00065       2.38076
    41    C    2  dxz    Ryd( 3d)     0.00062       1.76204
    42    C    2  dyz    Ryd( 3d)     0.00056       1.85511
    43    C    2  dx2y2  Ryd( 3d)     0.00073       2.45991
    44    C    2  dz2    Ryd( 3d)     0.00044       1.92924

    45    C    3  S      Cor( 1S)     1.99911     -10.07500
    46    C    3  S      Val( 2S)     1.04175      -0.26677
    47    C    3  S      Ryd( 4S)     0.00133       0.65986
    48    C    3  S      Ryd( 3S)     0.00060       0.59792
    49    C    3  S      Ryd( 5S)     0.00001      23.34211
    50    C    3  px     Val( 2p)     1.14687      -0.08786
    51    C    3  px     Ryd( 3p)     0.00447       0.60803
    52    C    3  px     Ryd( 4p)     0.00026       0.62433
    53    C    3  px     Ryd( 5p)     0.00021       2.97599
    54    C    3  py     Val( 2p)     1.05466      -0.13567
    55    C    3  py     Ryd( 4p)     0.00492       0.71783
    56    C    3  py     Ryd( 3p)     0.00066       0.63821
    57    C    3  py     Ryd( 5p)     0.00012       2.68273
    58    C    3  pz     Val( 2p)     1.12316      -0.14687
    59    C    3  pz     Ryd( 3p)     0.00318       0.48287
    60    C    3  pz     Ryd( 4p)     0.00040       0.48567
    61    C    3  pz     Ryd( 5p)     0.00003       2.56741
    62    C    3  dxy    Ryd( 3d)     0.00109       2.14851
    63    C    3  dxz    Ryd( 3d)     0.00076       1.71108
    64    C    3  dyz    Ryd( 3d)     0.00119       1.61399
    65    C    3  dx2y2  Ryd( 3d)     0.00134       2.22929
    66    C    3  dz2    Ryd( 3d)     0.00085       1.80897

    67    S    4  S      Cor( 1S)     2.00000     -87.73227
    68    S    4  S      Cor( 2S)     1.99926      -8.83265
    69    S    4  S      Val( 3S)     1.62318      -0.72946
    70    S    4  S      Ryd( 5S)     0.00815       0.73500
    71    S    4  S      Ryd( 4S)     0.00033       0.47909
    72    S    4  S      Ryd( 6S)     0.00001      14.44443
    73    S    4  S      Ryd( 7S)     0.00000     182.07320
    74    S    4  px     Cor( 2p)     1.99986      -5.91827
    75    S    4  px     Val( 3p)     1.24285      -0.20006
    76    S    4  px     Ryd( 5p)     0.00310       0.43407
    77    S    4  px     Ryd( 4p)     0.00017       0.38816
    78    S    4  px     Ryd( 6p)     0.00020       2.09407
    79    S    4  px     Ryd( 7p)     0.00000      16.57079
    80    S    4  py     Cor( 2p)     1.99988      -5.91940
    81    S    4  py     Val( 3p)     1.11205      -0.19241
    82    S    4  py     Ryd( 5p)     0.00547       0.44582
    83    S    4  py     Ryd( 4p)     0.00033       0.39530
    84    S    4  py     Ryd( 6p)     0.00014       2.05559
    85    S    4  py     Ryd( 7p)     0.00000      16.61492
    86    S    4  pz     Cor( 2p)     1.99994      -5.91713
    87    S    4  pz     Val( 3p)     1.55452      -0.24036
    88    S    4  pz     Ryd( 4p)     0.00589       0.37155
    89    S    4  pz     Ryd( 5p)     0.00011       0.40367
    90    S    4  pz     Ryd( 6p)     0.00009       1.94325
    91    S    4  pz     Ryd( 7p)     0.00000      16.66660
    92    S    4  dxy    Ryd( 3d)     0.00378       1.09173
    93    S    4  dxz    Ryd( 3d)     0.00390       0.88662
    94    S    4  dyz    Ryd( 3d)     0.00449       0.97568
    95    S    4  dx2y2  Ryd( 3d)     0.00748       1.25915
    96    S    4  dz2    Ryd( 3d)     0.00345       1.07013

    97    H    5  S      Val( 1S)     0.76810       0.04372
    98    H    5  S      Ryd( 2S)     0.00072       1.08534
    99    H    5  S      Ryd( 3S)     0.00031       1.60086
   100    H    5  px     Ryd( 2p)     0.00006       1.91195
   101    H    5  py     Ryd( 2p)     0.00043       2.49670
   102    H    5  pz     Ryd( 2p)     0.00020       1.72736

   103    H    6  S      Val( 1S)     0.77710       0.04745
   104    H    6  S      Ryd( 2S)     0.00067       0.80657
   105    H    6  S      Ryd( 3S)     0.00021       1.86617
   106    H    6  px     Ryd( 2p)     0.00019       2.05386
   107    H    6  py     Ryd( 2p)     0.00039       2.47088
   108    H    6  pz     Ryd( 2p)     0.00029       1.73204

   109    H    7  S      Val( 1S)     0.76996       0.04306
   110    H    7  S      Ryd( 3S)     0.00039       1.76593
   111    H    7  S      Ryd( 2S)     0.00038       0.91543
   112    H    7  px     Ryd( 2p)     0.00031       2.31239
   113    H    7  py     Ryd( 2p)     0.00021       2.12656
   114    H    7  pz     Ryd( 2p)     0.00017       1.64729

   115    C    8  S      Cor( 1S)     1.99897     -10.03808
   116    C    8  S      Val( 2S)     0.86838      -0.11793
   117    C    8  S      Ryd( 3S)     0.00071       0.82308
   118    C    8  S      Ryd( 4S)     0.00025       0.87193
   119    C    8  S      Ryd( 5S)     0.00002      23.03161
   120    C    8  px     Val( 2p)     1.06269      -0.04664
   121    C    8  px     Ryd( 4p)     0.00592       1.22074
   122    C    8  px     Ryd( 3p)     0.00017       0.84795
   123    C    8  px     Ryd( 5p)     0.00012       3.15427
   124    C    8  py     Val( 2p)     1.09296      -0.06397
   125    C    8  py     Ryd( 4p)     0.00490       1.02230
   126    C    8  py     Ryd( 3p)     0.00033       0.75919
   127    C    8  py     Ryd( 5p)     0.00013       3.03908
   128    C    8  pz     Val( 2p)     1.01883      -0.09798
   129    C    8  pz     Ryd( 3p)     0.00153       0.60540
   130    C    8  pz     Ryd( 4p)     0.00028       0.65980
   131    C    8  pz     Ryd( 5p)     0.00002       2.53067
   132    C    8  dxy    Ryd( 3d)     0.00077       2.58415
   133    C    8  dxz    Ryd( 3d)     0.00074       1.78464
   134    C    8  dyz    Ryd( 3d)     0.00048       1.81589
   135    C    8  dx2y2  Ryd( 3d)     0.00077       2.45764
   136    C    8  dz2    Ryd( 3d)     0.00042       2.01358

   137    C    9  S      Cor( 1S)     1.99908     -10.02834
   138    C    9  S      Val( 2S)     0.93746      -0.15156
   139    C    9  S      Ryd( 3S)     0.00146       0.79749
   140    C    9  S      Ryd( 4S)     0.00018       0.95995
   141    C    9  S      Ryd( 5S)     0.00001      22.82599
   142    C    9  px     Val( 2p)     1.08850      -0.04722
   143    C    9  px     Ryd( 4p)     0.00348       0.94958
   144    C    9  px     Ryd( 3p)     0.00043       0.51238
   145    C    9  px     Ryd( 5p)     0.00013       3.17368
   146    C    9  py     Val( 2p)     1.13193      -0.05446
   147    C    9  py     Ryd( 4p)     0.00563       0.91998
   148    C    9  py     Ryd( 3p)     0.00031       0.34106
   149    C    9  py     Ryd( 5p)     0.00008       3.17134
   150    C    9  pz     Val( 2p)     1.00783      -0.10343
   151    C    9  pz     Ryd( 4p)     0.00120       0.57677
   152    C    9  pz     Ryd( 3p)     0.00040       0.36167
   153    C    9  pz     Ryd( 5p)     0.00002       2.73483
   154    C    9  dxy    Ryd( 3d)     0.00074       2.46527
   155    C    9  dxz    Ryd( 3d)     0.00053       1.73657
   156    C    9  dyz    Ryd( 3d)     0.00042       1.78510
   157    C    9  dx2y2  Ryd( 3d)     0.00067       2.51673
   158    C    9  dz2    Ryd( 3d)     0.00039       1.99719

   159    C   10  S      Cor( 1S)     1.99908     -10.02802
   160    C   10  S      Val( 2S)     0.93765      -0.15120
   161    C   10  S      Ryd( 3S)     0.00148       0.79472
   162    C   10  S      Ryd( 4S)     0.00021       0.84979
   163    C   10  S      Ryd( 5S)     0.00001      22.93144
   164    C   10  px     Val( 2p)     1.09332      -0.04744
   165    C   10  px     Ryd( 4p)     0.00374       0.94928
   166    C   10  px     Ryd( 3p)     0.00049       0.49255
   167    C   10  px     Ryd( 5p)     0.00013       3.16833
   168    C   10  py     Val( 2p)     1.12454      -0.05334
   169    C   10  py     Ryd( 4p)     0.00563       0.90288
   170    C   10  py     Ryd( 3p)     0.00034       0.33670
   171    C   10  py     Ryd( 5p)     0.00009       3.16719
   172    C   10  pz     Val( 2p)     1.00834      -0.10322
   173    C   10  pz     Ryd( 4p)     0.00112       0.57874
   174    C   10  pz     Ryd( 3p)     0.00047       0.35923
   175    C   10  pz     Ryd( 5p)     0.00002       2.73507
   176    C   10  dxy    Ryd( 3d)     0.00075       2.45897
   177    C   10  dxz    Ryd( 3d)     0.00052       1.73444
   178    C   10  dyz    Ryd( 3d)     0.00043       1.79119
   179    C   10  dx2y2  Ryd( 3d)     0.00066       2.52275
   180    C   10  dz2    Ryd( 3d)     0.00039       1.99163

   181    C   11  S      Cor( 1S)     1.99905     -10.02536
   182    C   11  S      Val( 2S)     0.93877      -0.14893
   183    C   11  S      Ryd( 3S)     0.00132       0.86775
   184    C   11  S      Ryd( 4S)     0.00015       1.03730
   185    C   11  S      Ryd( 5S)     0.00001      22.69606
   186    C   11  px     Val( 2p)     1.09367      -0.04675
   187    C   11  px     Ryd( 4p)     0.00470       0.90134
   188    C   11  px     Ryd( 3p)     0.00036       0.42706
   189    C   11  px     Ryd( 5p)     0.00013       3.18026
   190    C   11  py     Val( 2p)     1.13280      -0.05545
   191    C   11  py     Ryd( 4p)     0.00528       0.93741
   192    C   11  py     Ryd( 3p)     0.00031       0.33096
   193    C   11  py     Ryd( 5p)     0.00007       3.15449
   194    C   11  pz     Val( 2p)     1.01762      -0.10363
   195    C   11  pz     Ryd( 4p)     0.00132       0.55220
   196    C   11  pz     Ryd( 3p)     0.00034       0.31138
   197    C   11  pz     Ryd( 5p)     0.00002       2.74906
   198    C   11  dxy    Ryd( 3d)     0.00075       2.45815
   199    C   11  dxz    Ryd( 3d)     0.00050       1.72482
   200    C   11  dyz    Ryd( 3d)     0.00045       1.76955
   201    C   11  dx2y2  Ryd( 3d)     0.00069       2.52181
   202    C   11  dz2    Ryd( 3d)     0.00039       1.98790

   203    H   12  S      Val( 1S)     0.79189       0.04616
   204    H   12  S      Ryd( 2S)     0.00085       0.79766
   205    H   12  S      Ryd( 3S)     0.00017       1.92466
   206    H   12  px     Ryd( 2p)     0.00017       2.16803
   207    H   12  py     Ryd( 2p)     0.00036       2.49563
   208    H   12  pz     Ryd( 2p)     0.00023       1.69115

   209    C   13  S      Cor( 1S)     1.99905     -10.02530
   210    C   13  S      Val( 2S)     0.93886      -0.14893
   211    C   13  S      Ryd( 3S)     0.00132       0.86252
   212    C   13  S      Ryd( 4S)     0.00017       0.95966
   213    C   13  S      Ryd( 5S)     0.00001      22.77152
   214    C   13  px     Val( 2p)     1.09007      -0.04631
   215    C   13  px     Ryd( 4p)     0.00460       0.88737
   216    C   13  px     Ryd( 3p)     0.00038       0.43353
   217    C   13  px     Ryd( 5p)     0.00013       3.17693
   218    C   13  py     Val( 2p)     1.13951      -0.05604
   219    C   13  py     Ryd( 4p)     0.00532       0.95209
   220    C   13  py     Ryd( 3p)     0.00030       0.32719
   221    C   13  py     Ryd( 5p)     0.00007       3.15845
   222    C   13  pz     Val( 2p)     1.01433      -0.10336
   223    C   13  pz     Ryd( 4p)     0.00138       0.54996
   224    C   13  pz     Ryd( 3p)     0.00036       0.31089
   225    C   13  pz     Ryd( 5p)     0.00002       2.74662
   226    C   13  dxy    Ryd( 3d)     0.00073       2.46307
   227    C   13  dxz    Ryd( 3d)     0.00051       1.72905
   228    C   13  dyz    Ryd( 3d)     0.00042       1.76586
   229    C   13  dx2y2  Ryd( 3d)     0.00071       2.51417
   230    C   13  dz2    Ryd( 3d)     0.00040       1.98951

   231    H   14  S      Val( 1S)     0.79159       0.04673
   232    H   14  S      Ryd( 2S)     0.00091       0.80351
   233    H   14  S      Ryd( 3S)     0.00017       1.91917
   234    H   14  px     Ryd( 2p)     0.00019       2.19525
   235    H   14  py     Ryd( 2p)     0.00034       2.45989
   236    H   14  pz     Ryd( 2p)     0.00023       1.69627

   237    C   15  S      Cor( 1S)     1.99904     -10.04017
   238    C   15  S      Val( 2S)     0.89083      -0.13858
   239    C   15  S      Ryd( 3S)     0.00072       0.65485
   240    C   15  S      Ryd( 4S)     0.00020       1.19657
   241    C   15  S      Ryd( 5S)     0.00001      22.77140
   242    C   15  px     Val( 2p)     1.05888      -0.05518
   243    C   15  px     Ryd( 4p)     0.00602       1.24769
   244    C   15  px     Ryd( 3p)     0.00036       0.96468
   245    C   15  px     Ryd( 5p)     0.00008       2.86315
   246    C   15  py     Val( 2p)     1.07772      -0.05089
   247    C   15  py     Ryd( 3p)     0.00310       0.87083
   248    C   15  py     Ryd( 4p)     0.00042       0.90220
   249    C   15  py     Ryd( 5p)     0.00009       2.73155
   250    C   15  pz     Val( 2p)     0.99110      -0.09569
   251    C   15  pz     Ryd( 3p)     0.00157       0.60666
   252    C   15  pz     Ryd( 4p)     0.00030       0.88331
   253    C   15  pz     Ryd( 5p)     0.00002       2.24038
   254    C   15  dxy    Ryd( 3d)     0.00085       2.55352
   255    C   15  dxz    Ryd( 3d)     0.00064       1.74167
   256    C   15  dyz    Ryd( 3d)     0.00047       1.80568
   257    C   15  dx2y2  Ryd( 3d)     0.00070       2.42595
   258    C   15  dz2    Ryd( 3d)     0.00037       2.01109

   259    H   16  S      Val( 1S)     0.79536       0.04473
   260    H   16  S      Ryd( 2S)     0.00077       0.83915
   261    H   16  S      Ryd( 3S)     0.00016       1.89398
   262    H   16  px     Ryd( 2p)     0.00019       2.19115
   263    H   16  py     Ryd( 2p)     0.00034       2.46404
   264    H   16  pz     Ryd( 2p)     0.00021       1.67680

   265    H   17  S      Val( 1S)     0.79531       0.04479
   266    H   17  S      Ryd( 2S)     0.00076       0.84328
   267    H   17  S      Ryd( 3S)     0.00016       1.88964
   268    H   17  px     Ryd( 2p)     0.00018       2.16320
   269    H   17  py     Ryd( 2p)     0.00036       2.49529
   270    H   17  pz     Ryd( 2p)     0.00021       1.67219

   271    C   18  S      Cor( 1S)     1.99931     -10.02746
   272    C   18  S      Val( 2S)     1.07797      -0.24514
   273    C   18  S      Ryd( 4S)     0.00056       0.81725
   274    C   18  S      Ryd( 3S)     0.00012       0.64415
   275    C   18  S      Ryd( 5S)     0.00000      23.32417
   276    C   18  px     Val( 2p)     1.07744      -0.08738
   277    C   18  px     Ryd( 4p)     0.00115       0.48259
   278    C   18  px     Ryd( 3p)     0.00031       0.22210
   279    C   18  px     Ryd( 5p)     0.00008       3.07194
   280    C   18  py     Val( 2p)     1.21574      -0.09785
   281    C   18  py     Ryd( 4p)     0.00358       0.51721
   282    C   18  py     Ryd( 3p)     0.00013       0.26406
   283    C   18  py     Ryd( 5p)     0.00002       3.11296
   284    C   18  pz     Val( 2p)     1.20946      -0.09867
   285    C   18  pz     Ryd( 4p)     0.00078       0.50360
   286    C   18  pz     Ryd( 3p)     0.00005       0.23608
   287    C   18  pz     Ryd( 5p)     0.00005       3.07800
   288    C   18  dxy    Ryd( 3d)     0.00049       2.07065
   289    C   18  dxz    Ryd( 3d)     0.00062       1.95206
   290    C   18  dyz    Ryd( 3d)     0.00059       2.04190
   291    C   18  dx2y2  Ryd( 3d)     0.00074       2.23708
   292    C   18  dz2    Ryd( 3d)     0.00067       2.09763

   293    H   19  S      Val( 1S)     0.78535       0.02897
   294    H   19  S      Ryd( 2S)     0.00076       0.61655
   295    H   19  S      Ryd( 3S)     0.00009       2.17406
   296    H   19  px     Ryd( 2p)     0.00021       1.85950
   297    H   19  py     Ryd( 2p)     0.00013       1.84652
   298    H   19  pz     Ryd( 2p)     0.00027       2.50197

   299    H   20  S      Val( 1S)     0.79087       0.03013
   300    H   20  S      Ryd( 2S)     0.00076       0.66694
   301    H   20  S      Ryd( 3S)     0.00009       2.09414
   302    H   20  px     Ryd( 2p)     0.00017       1.86578
   303    H   20  py     Ryd( 2p)     0.00017       2.14058
   304    H   20  pz     Ryd( 2p)     0.00018       2.16063

   305    H   21  S      Val( 1S)     0.79101       0.03016
   306    H   21  S      Ryd( 2S)     0.00076       0.66520
   307    H   21  S      Ryd( 3S)     0.00009       2.09454
   308    H   21  px     Ryd( 2p)     0.00016       1.83963
   309    H   21  py     Ryd( 2p)     0.00025       2.52130
   310    H   21  pz     Ryd( 2p)     0.00011       1.80620

   311    C   22  S      Cor( 1S)     1.99898     -10.06984
   312    C   22  S      Val( 2S)     1.03023      -0.25675
   313    C   22  S      Ryd( 3S)     0.00112       0.64158
   314    C   22  S      Ryd( 4S)     0.00045       0.71000
   315    C   22  S      Ryd( 5S)     0.00001      23.35439
   316    C   22  px     Val( 2p)     1.00116      -0.13701
   317    C   22  px     Ryd( 4p)     0.00441       0.66771
   318    C   22  px     Ryd( 3p)     0.00059       0.63635
   319    C   22  px     Ryd( 5p)     0.00027       2.95316
   320    C   22  py     Val( 2p)     1.18218      -0.09199
   321    C   22  py     Ryd( 4p)     0.00367       0.67086
   322    C   22  py     Ryd( 3p)     0.00051       0.53142
   323    C   22  py     Ryd( 5p)     0.00010       3.06470
   324    C   22  pz     Val( 2p)     1.14865      -0.13902
   325    C   22  pz     Ryd( 4p)     0.00276       0.47640
   326    C   22  pz     Ryd( 3p)     0.00041       0.42112
   327    C   22  pz     Ryd( 5p)     0.00004       2.71761
   328    C   22  dxy    Ryd( 3d)     0.00087       2.21365
   329    C   22  dxz    Ryd( 3d)     0.00086       1.59964
   330    C   22  dyz    Ryd( 3d)     0.00073       1.84575
   331    C   22  dx2y2  Ryd( 3d)     0.00175       2.11855
   332    C   22  dz2    Ryd( 3d)     0.00102       1.80143

 WARNING:  1 low occupancy (<1.9990e) core orbital  found on  C    1
           1 low occupancy (<1.9990e) core orbital  found on  C    8
           1 low occupancy (<1.9990e) core orbital  found on  C   22

 WARNING:  Population inversion found on atom  C    1
           Population inversion found on atom  C    2
           Population inversion found on atom  C    3
           Population inversion found on atom  S    4
           Population inversion found on atom  H    7
           Population inversion found on atom  C    8
           Population inversion found on atom  C    9
           Population inversion found on atom  C   10
           Population inversion found on atom  C   11
           Population inversion found on atom  C   13
           Population inversion found on atom  C   15
           Population inversion found on atom  C   18
           Population inversion found on atom  C   22


 Summary of Natural Population Analysis:                  
                                                          
[...]
 9,0.00160346,0.00244724,0.00020133,0.11839953,0.27024366,-0.00022219,-
 0.00085868,-0.00294635,-0.00041617,0.00064240,0.00020759,0.00007917,-0
 .00022055,-0.00015754,-0.00016140,-0.00021842,0.00006300,0.00003597,-0
 .00001823,-0.00006267,-0.00068142,-0.00035681,-0.00022860,-0.00000610,
 -0.00001388,0.00001591,0.00473066,0.00585187,0.00192177,0.03104984,0.0
 6351983,-0.05442075,-0.00136448,0.00239751,0.00554135,-0.00111163,-0.0
 0054649,0.00344473,-0.03248880,-0.06973651,0.04505668,0.00551817,-0.00
 157324,-0.00041000,-0.00165548,-0.00056077,0.00023952,0.00075510,-0.00
 037205,0.00023757,-0.00053195,0.00040553,0.00053534,-0.00021371,0.0003
 3904,-0.00038583,0.00018252,0.00031169,-0.00008870,-0.00003875,0.00005
 663,-0.00011939,-0.02724865,-0.07416618,0.01852453,-0.05146895,0.02530
 006,-0.00832324,-0.33739912,0.02492695,-0.01301173,0.06175596,0.024593
 42,-0.00487849,-0.00073921,0.00085114,-0.00004011,0.68451190,-0.002579
 04,-0.00438190,0.00254925,-0.00024938,0.00042397,0.00009647,-0.0002660
 8,0.00016782,-0.00043420,0.00001681,-0.00000881,-0.00013183,-0.0001219
 5,0.00010254,0.00051562,-0.00000320,-0.00008955,0.00018210,-0.00009462
 ,0.00004175,0.00005335,-0.02821378,0.02883599,-0.00606794,0.02542911,-
 0.01510517,0.00327702,-0.03737059,-0.12277228,0.01654930,-0.01812448,-
 0.05440613,0.01610816,0.00074325,0.00018134,-0.00031690,0.03529617,0.6
 6348442,-0.00047602,0.00356689,0.00565474,0.00138544,-0.00006607,-0.00
 002189,-0.00034837,0.00059898,0.00022201,-0.00004489,-0.00023505,-0.00
 014867,-0.00014509,0.00015799,-0.00026536,-0.00000441,0.00002485,-0.00
 001477,0.00010368,-0.00000128,-0.00005706,0.00781010,-0.00931584,0.008
 50150,-0.00905659,0.00380306,-0.00580926,0.00392921,0.01874865,-0.0648
 7269,0.00731891,0.01808155,0.00320610,-0.00022046,-0.00024795,-0.00082
 952,0.00226375,-0.14312128,0.17132470,0.00075905,-0.00043112,0.0002404
 3,0.00014320,-0.00001289,0.00000382,0.00009433,0.00010422,0.00005097,-
 0.00004059,0.00003126,-0.00008280,-0.00071419,-0.00023252,0.00054464,0
 .00002019,0.00003056,0.00002525,0.00000596,0.00000601,-0.00002170,0.01
 024992,-0.01263870,0.00383356,-0.00088310,-0.00310898,0.00062381,-0.12
 835006,0.11458779,-0.03735927,-0.00063391,-0.00077921,0.00019450,0.000
 48336,-0.00072809,0.00028737,-0.01155626,0.02750681,-0.00798702,0.1358
 2112,0.00209939,0.00017589,-0.00111409,-0.00044538,-0.00011461,-0.0002
 6684,0.00035917,0.00014637,0.00004118,-0.00053599,0.00021451,-0.000101
 42,0.00007866,0.00030778,0.00048077,0.00004950,0.00005869,0.00006337,-
 0.00003564,-0.00000434,0.00009011,0.01536729,-0.01767707,0.00649393,-0
 .00386007,-0.00276567,0.00247416,0.11355674,-0.24259515,0.06441051,-0.
 00096153,0.00004905,-0.00028072,0.00083525,-0.00102995,0.00030190,-0.0
 0230333,0.00391509,-0.00039284,-0.12376770,0.25601228,0.00085539,-0.00
 133083,-0.00317890,-0.00054345,-0.00026571,0.00009638,0.00008543,-0.00
 032824,-0.00012149,0.00006195,-0.00006720,0.00008745,0.00066410,-0.000
 22085,-0.00009924,-0.00003127,-0.00003975,-0.00003012,-0.00000136,-0.0
 0002818,-0.00001834,-0.00544567,0.00520460,0.00207629,0.00131033,0.002
 05203,0.00560588,-0.03738833,0.06542028,-0.05682600,-0.00019428,-0.000
 45685,-0.00079974,-0.00023052,0.00028838,0.00018602,0.00096885,0.00022
 837,0.00334343,0.03931987,-0.07176726,0.04755640,-0.00282922,0.0001946
 4,0.00002986,0.00044826,0.00052566,-0.00026427,-0.00029216,0.00016975,
 0.00011182,-0.00005864,-0.00020625,-0.00011870,0.00000216,-0.00000738,
 -0.00004519,-0.00000886,0.00000426,0.00004413,0.00000709,-0.00000522,0
 .00002018,0.00518686,0.00183881,0.00009650,-0.02540350,-0.02932015,0.0
 0820228,-0.03015839,0.02643178,-0.00842590,-0.16874012,-0.10883993,0.0
 2718081,-0.00533586,0.00030985,-0.00068360,-0.17602067,0.11164644,-0.0
 3204831,-0.00519673,-0.00093652,-0.00018896,0.63768102,0.00015651,-0.0
 0062268,-0.00060310,-0.00070725,0.00007747,-0.00017960,0.00036930,-0.0
 0009996,0.00037694,-0.00030042,0.00008022,0.00043962,-0.00011907,0.000
 29684,-0.00037970,0.00017594,0.00025803,-0.00014480,-0.00001098,0.0000
 2375,-0.00006705,0.00159031,-0.06696441,0.01643236,-0.07666995,0.02957
 292,-0.00815429,0.07327076,0.03513745,-0.00529248,-0.04371123,-0.25485
 756,0.05102755,0.00119007,0.00247917,0.00156551,0.04667378,-0.24671428
 ,0.04802675,-0.00164585,0.00249773,0.00192485,0.00121161,0.62115313,-0
 .00021899,0.00000595,-0.00095170,0.00019518,0.00022344,0.00006729,-0.0
 0029150,0.00005778,-0.00001940,0.00000897,-0.00015728,-0.00018911,0.00
 003630,-0.00014702,0.00008549,-0.00003228,-0.00013339,0.00003096,-0.00
 000822,-0.00001800,0.00002262,-0.00013942,0.01680609,-0.00996158,0.019
 99837,-0.00647907,0.00812405,-0.02161434,-0.00845089,0.00736781,0.0093
 6969,0.04825414,-0.07953108,-0.00045460,0.00148274,0.00702416,-0.01334
 371,0.05038824,-0.07985891,0.00025186,0.00151123,0.00694557,0.00463515
 ,-0.12119934,0.20231642,-0.00008151,0.00143390,-0.00031282,0.00001807,
 0.00008579,0.00008015,-0.00010497,-0.00002617,-0.00001703,-0.00023363,
 -0.00002120,0.00007451,0.00000437,0.00001472,-0.00001785,-0.00000601,-
 0.00001021,-0.00002885,-0.00001977,0.00000144,-0.00000298,-0.00519446,
 -0.00165665,0.00007697,-0.01197048,0.02768223,-0.00801681,-0.00067798,
 -0.00075018,0.00022804,-0.12821572,0.11367087,-0.03416496,0.00093809,-
 0.00030391,0.00017659,-0.00074221,-0.00331264,0.00066028,0.00001354,0.
 00010895,-0.00000632,0.00981398,-0.01268454,0.00357711,0.13483872,-0.0
 0019150,0.00002937,0.00003531,0.00005099,-0.00004641,-0.00000741,0.000
 02724,0.00002836,0.00000030,0.00005622,-0.00000638,0.00000974,-0.00000
 360,-0.00000054,0.00000656,-0.00002214,-0.00000760,-0.00001032,0.00000
 692,0.00000070,0.00000100,-0.00084532,0.00238908,0.00140203,-0.0024671
 5,0.00378931,-0.00030997,-0.00091268,0.00007497,-0.00030036,0.11357382
 ,-0.24216189,0.06030878,0.00035537,0.00048495,-0.00131611,-0.00395749,
 -0.00274027,0.00252272,0.00010799,-0.00009109,-0.00025083,0.01586013,-
 0.01811730,0.00648534,-0.12278178,0.25617542,-0.00006410,0.00013625,0.
 00029123,-0.00002388,-0.00000424,-0.00005483,-0.00002090,0.00000247,0.
 00001102,-0.00008953,-0.00001698,0.00000048,0.00000300,-0.00001100,-0.
 00001335,-0.00003568,0.00001365,0.00001452,-0.00000199,0.00000180,-0.0
 0000028,0.00011846,0.00138201,0.00702741,0.00028764,0.00064880,0.00283
 648,0.00026320,-0.00028906,-0.00079993,-0.03378593,0.06091565,-0.05413
 536,-0.00001954,-0.00139454,-0.00384858,0.00074643,0.00234685,0.005813
 42,-0.00000094,-0.00024174,-0.00090173,-0.00499883,0.00512194,0.002144
 28,0.03714002,-0.06758004,0.04483338,-0.00001344,-0.00141375,0.0001905
 3,-0.00037378,0.00018731,0.00010478,-0.00009154,-0.00011540,-0.0000823
 1,-0.00018459,-0.00000066,-0.00000311,-0.00002090,-0.00000713,0.000038
 15,0.00001491,-0.00001330,0.00000796,-0.00004638,0.00001584,-0.0000041
 4,-0.00529540,0.00119318,-0.00049694,-0.00076038,0.00070397,-0.0002161
 0,-0.01068929,-0.02844727,0.00781015,-0.00109009,0.00332234,-0.0010393
 2,0.00002995,-0.00009833,0.00004318,-0.11800244,-0.10895313,0.02762532
 ,0.00092709,0.00037805,0.00005124,0.00997975,0.01397007,-0.00380983,0.
 00053893,0.00080734,-0.00015589,0.12377046,0.00017795,-0.00001689,0.00
 007365,-0.00000106,0.00006492,0.00001160,-0.00003315,-0.00003556,-0.00
 001212,-0.00009317,0.00000136,-0.00000947,0.00001665,-0.00001002,-0.00
 000632,0.00000580,-0.00000606,0.00000578,-0.00000553,-0.00000079,0.000
 00270,0.00034693,0.00243332,0.00131188,0.00083642,0.00018078,-0.000286
 29,0.00171759,0.00235656,0.00027689,0.00402881,-0.00228519,0.00243622,
 -0.00009232,-0.00009900,-0.00023721,-0.10877400,-0.25532998,0.05753165
 ,-0.00029124,0.00048123,-0.00128904,-0.01494938,-0.01820281,0.00564473
 ,-0.00070645,-0.00104726,0.00031812,0.11780408,0.27030922,0.00008064,-
 0.00003091,0.00030139,0.00004194,0.00001197,-0.00010421,0.00005628,-0.
 00001813,-0.00001327,0.00000323,0.00002769,0.00001724,0.00003636,0.000
 02015,0.00001308,-0.00000806,-0.00001771,-0.00001214,0.00000230,-0.000
 00743,0.00001045,-0.00070680,0.00130732,0.00710490,-0.00037496,-0.0002
 2532,-0.00087056,-0.00049954,-0.00029856,0.00309169,-0.00089940,0.0027
 0782,0.00572166,0.00004258,-0.00024649,-0.00091317,0.02752352,0.057664
 07,-0.05158689,0.00023081,-0.00139644,-0.00386432,0.00361068,0.0058349
 8,0.00217417,0.00023582,0.00030882,0.00007373,-0.03000500,-0.06445259,
 0.04209187,0.00052930,0.00002091,0.00019123,-0.00008544,-0.00009816,0.
 00003840,0.00005605,-0.00002956,-0.00000507,-0.00001008,0.00004216,-0.
 00001044,-0.00000844,-0.00000190,0.00000738,-0.00000679,-0.00000878,-0
 .00000136,0.00000067,0.00000083,-0.00000762,-0.00167091,-0.00010153,-0
 .00023329,0.00285477,-0.00127819,-0.00026627,0.00274370,0.00131180,-0.
 00081247,-0.02163461,-0.00473077,0.00103000,-0.00009799,0.00018283,0.0
 0005478,-0.02314800,0.00345346,-0.00114104,-0.00015483,-0.00011242,0.0
 0019993,-0.20829255,-0.00252150,0.00113137,0.00112750,0.00174234,0.000
 16768,0.00116400,-0.00138991,0.00093567,0.47787494,-0.00005207,0.00015
 759,-0.00027582,-0.00001763,-0.00006312,-0.00003244,0.00011475,0.00003
 485,-0.00003506,-0.00004600,0.00003057,0.00006417,-0.00001249,0.000017
 38,0.00003227,0.00000933,0.00001615,0.00004738,0.00000368,0.00000059,-
 0.00000016,0.00017543,-0.00054150,-0.00009698,-0.00166902,-0.00373195,
 0.00385233,0.00141336,-0.00393556,0.00164091,-0.02925520,0.00299795,0.
 00116411,-0.00131376,-0.00005806,-0.00008038,0.02761869,0.00387768,-0.
 00083212,0.00121021,0.00006381,0.00013966,-0.00376447,-0.08716852,0.00
 501876,-0.00075324,0.00055387,-0.00186610,0.00092706,0.00069446,-0.000
 21919,0.00052879,0.57217069,-0.00010675,-0.00026381,-0.00078262,-0.000
 10969,-0.00011371,0.00004110,0.00019999,-0.00007931,-0.00012049,0.0001
 1446,0.00006750,0.00011519,0.00002835,-0.00001988,0.00000931,-0.000022
 17,-0.00003299,0.00002542,0.00000390,0.00000248,-0.00000877,0.00050179
 ,0.00002525,-0.00094374,-0.00048418,0.00208651,0.00555970,-0.00150912,
 0.00315190,0.00588588,0.00667761,0.00034486,0.00379732,0.00020472,0.00
 007155,0.00013291,-0.00838132,0.00001563,0.00438765,-0.00053186,0.0000
 7108,0.00003820,-0.00331501,0.00500073,-0.06980748,0.00056659,-0.00049
 918,-0.00291010,0.00010549,-0.00163292,-0.00300456,0.01003901,-0.01124
 829,0.53182637,-0.00008336,0.00010798,0.00019032,0.00001171,0.00014019
 ,-0.00002256,-0.00014324,-0.00000602,0.00004303,-0.00017033,-0.0000501
 6,-0.00006884,-0.00000178,-0.00000577,-0.00000225,0.00001430,0.0000047
 4,-0.00000251,-0.00001118,-0.00000280,0.00000923,0.00009370,-0.0000134
 7,0.00018456,-0.00065578,-0.00008263,-0.00143498,-0.00054539,-0.000605
 91,-0.00137496,-0.00015141,0.00120604,-0.00069505,-0.00010418,-0.00004
 947,0.00001966,-0.00025122,-0.00141025,0.00001582,-0.00009533,0.000028
 41,0.00000768,-0.01563774,0.00742605,0.02911669,0.00001987,-0.00012815
 ,0.00074652,0.00000628,0.00052059,0.00057425,-0.07350205,0.02130764,0.
 08168516,0.08367575,0.00004247,-0.00002429,-0.00001017,-0.00000097,0.0
 0000176,0.00001070,-0.00000949,-0.00000510,-0.00000276,0.00001998,-0.0
 0000149,-0.00001076,0.00000190,-0.00000561,0.00000456,-0.00000541,-0.0
 0000467,-0.00000149,-0.00000098,0.00000060,0.00000092,-0.00014223,0.00
 112637,-0.00031765,0.00126812,-0.00064842,-0.00023580,-0.00097778,-0.0
 0048005,0.00050949,-0.00198521,-0.00059200,-0.00023833,-0.00000356,-0.
 00000446,0.00005445,0.00178831,0.00002767,0.00053706,0.00002386,-0.000
 03115,-0.00004708,0.00006631,0.00050742,0.00167786,-0.00006942,-0.0000
 6202,0.00027773,0.00010721,-0.00020290,-0.00030719,0.02029218,-0.05924
 376,-0.05492383,-0.02276853,0.06058382,0.00013483,-0.00004955,-0.00009
 154,-0.00001891,-0.00003166,0.00000608,0.00002443,0.00000273,0.0000065
 2,0.00002880,0.00000558,0.00001365,-0.00000681,0.00000830,-0.00000616,
 -0.00000360,0.00000130,-0.00000676,0.00000178,0.00000103,-0.00000149,-
 0.00038927,-0.00032513,0.00003916,0.00023324,0.00014599,0.00013015,0.0
 0080149,0.00022972,-0.00006847,0.00012907,-0.00040297,0.00057085,0.000
 04184,0.00001179,0.00000447,-0.00090132,0.00071341,0.00001324,0.000038
 21,0.00001297,0.00004126,0.00167481,0.00103440,0.00370478,0.00008133,-
 0.00009115,-0.00032526,0.00003497,0.00001395,-0.00020651,0.07790293,-0
 .05501172,-0.25551015,-0.08801582,0.06085486,0.27796105,0.00006840,-0.
 00005475,0.00000087,-0.00004900,0.00003858,0.00001314,-0.00003173,-0.0
 0003189,0.00000828,-0.00008879,-0.00000475,-0.00002936,0.00000890,-0.0
 0001507,-0.00000654,0.00000242,-0.00000378,-0.00000845,-0.00000616,-0.
 00000057,-0.00000318,0.00009010,-0.00021187,-0.00011839,-0.00021166,0.
 00016253,0.00036500,-0.00020270,0.00150598,0.00048064,0.00190914,0.001
 96593,0.00013781,0.00002684,-0.00001372,0.00000438,-0.00550873,-0.0021
 0777,-0.00007492,-0.00045444,0.00002811,0.00003108,-0.01352242,0.02301
 285,-0.02143541,0.00014992,-0.00110638,-0.00005017,0.00003933,-0.00004
 846,-0.00027346,-0.08210007,0.06117460,-0.06392174,0.00398323,-0.00808
 664,0.00663991,0.09197964,0.00006334,0.00007327,0.00012947,0.00001774,
 -0.00001787,0.00000149,0.00001755,0.00001162,0.00000512,0.00000636,0.0
 0000925,-0.00001725,-0.00000540,-0.00000470,0.00001950,-0.00000618,-0.
 00000679,-0.00000111,0.00000237,-0.00000014,0.00000105,-0.00024656,0.0
 0014798,-0.00012647,0.00057634,-0.00000535,-0.00055703,0.00006255,-0.0
 0000621,0.00003947,-0.00177430,0.00033014,-0.00040072,0.00005096,0.000
 01660,0.00002903,0.00028114,0.00050343,0.00061363,0.00004869,-0.000009
 88,-0.00001336,0.00059000,-0.00025076,-0.00216701,0.00006023,0.0003920
 3,0.00044839,-0.00016810,0.00042728,-0.00007646,0.06281059,-0.16025216
 ,0.11316721,-0.00380221,0.00573115,-0.00551575,-0.06964557,0.17077579,
 0.00006362,-0.00001828,-0.00000425,-0.00003243,0.00002796,-0.00000108,
 -0.00002403,-0.00001429,0.00001461,-0.00006145,-0.00000474,-0.00001680
 ,0.00000098,-0.00000299,-0.00000055,0.00000576,0.00000579,-0.00000402,
 -0.00000418,-0.00000024,-0.00000024,-0.00000762,-0.00055636,0.00015358
 ,-0.00048242,-0.00002295,0.00006882,0.00084237,0.00017646,0.00007468,0
 .00077662,0.00047117,0.00060736,-0.00004037,-0.00001042,-0.00004020,-0
 .00010510,-0.00010791,0.00045089,0.00000885,-0.00002508,-0.00006041,0.
 00214594,-0.00211671,0.00108675,-0.00025612,-0.00047155,0.00001919,0.0
 0007057,0.00001550,-0.00006086,-0.06618682,0.11360584,-0.15859978,-0.0
 1082457,0.02022513,-0.01959006,0.06970365,-0.12544404,0.17001891,0.000
 01877,0.00013128,-0.00002066,-0.00002432,0.00002672,-0.00001332,-0.000
 00162,-0.00000354,0.00000304,-0.00012538,0.00000805,-0.00002056,-0.000
 00345,-0.00000875,0.00001348,0.00000767,0.00000362,0.00001660,-0.00000
 419,-0.00000142,0.00000159,0.00010676,0.00010119,-0.00022869,-0.000145
 22,-0.00108235,0.00121662,-0.00019319,-0.00000619,0.00036317,-0.005577
 29,0.00153596,-0.00107154,-0.00044008,-0.00001581,0.00003487,0.0019632
 1,-0.00154434,0.00110683,0.00002265,0.00001650,-0.00000542,-0.01225211
 ,-0.03125639,-0.00684319,0.00003180,-0.00012242,-0.00025245,0.00000329
 ,0.00090775,-0.00062077,-0.07548126,-0.07764954,-0.02190325,0.00348634
 ,0.01046263,0.00161030,0.00386133,0.01110355,0.00436804,0.08469474,-0.
 00003489,0.00001798,-0.00012584,-0.00001612,0.00002953,-0.00000969,-0.
 00001816,-0.00002314,-0.00000184,-0.00003978,-0.00000047,0.00000694,0.
 00000561,-0.00000299,-0.00000821,0.00000833,0.00000624,0.00000601,-0.0
 0000423,-0.00000059,0.00000307,0.00019125,0.00047638,-0.00005282,0.000
 39049,-0.00010974,0.00009170,-0.00077696,0.00024758,0.00043318,-0.0005
 8156,0.00032089,-0.00053568,-0.00005711,-0.00001216,-0.00001923,0.0020
 0045,0.00040733,0.00056301,-0.00005294,-0.00001862,-0.00005952,0.00000
 690,0.00062696,0.00135837,0.00016523,0.00033051,-0.00017373,-0.0001774
 7,0.00032317,-0.00062709,-0.08026473,-0.26564485,-0.05530847,-0.001683
 27,-0.00667983,-0.00165948,-0.00653103,-0.01788207,-0.00571840,0.08744
 479,0.28761748,0.00006847,0.00004129,0.00006857,-0.00000520,0.00000997
 ,-0.00000002,-0.00001595,-0.00000200,0.00000751,-0.00004890,-0.0000018
 2,-0.00002667,-0.00000032,-0.00000787,0.00001321,-0.00000075,-0.000003
 97,-0.00000186,-0.00000108,-0.00000163,0.00000149,-0.00013511,0.000352
 67,-0.00014969,0.00074940,-0.00003651,0.00013363,-0.00011389,-0.000089
 51,-0.00020605,0.00013016,0.00022162,0.00069354,0.00004143,-0.00000816
 ,-0.00007644,-0.00025198,-0.00033377,0.00053368,-0.00001183,-0.0000135
 9,-0.00001855,0.00221845,0.00203167,-0.00102694,-0.00001348,-0.0002401
 1,0.00005443,-0.00019431,0.00029040,0.00011229,-0.02302902,-0.05582870
 ,-0.06010166,-0.01016896,-0.02807159,-0.00668550,0.00852730,0.01987266
 ,0.00588600,0.02224868,0.06183000,0.06078387,-0.19158657,0.10754972,0.
 03903592,0.03191162,0.02132357,0.00808333,-0.03140050,-0.01801803,-0.0
 0604864,-0.16232759,-0.05059700,-0.01672976,-0.07209958,-0.07169526,-0
 .02853276,-0.00292499,-0.00207918,-0.00068275,-0.00088610,0.00237198,0
 .00057573,-0.02832116,0.02485233,0.00826588,-0.00021384,-0.00353206,0.
 00089258,0.00136796,0.00274509,0.00101207,-0.00162199,0.00013951,-0.00
 152112,0.00002390,0.00051225,0.00065945,-0.00016150,0.00025922,-0.0006
 7221,-0.00046095,0.00005256,0.00047973,0.00062986,0.00057994,-0.000129
 20,-0.00024804,-0.00004975,0.00002691,0.00009424,0.00002208,0.00001388
 ,-0.00015788,0.00004986,0.00015802,0.00006182,-0.00002276,-0.00004223,
 0.00005647,-0.00004310,0.00003870,0.00005156,0.00002520,0.00000689,0.4
 5821327,0.13423879,-0.25330041,-0.06951971,-0.02109754,-0.05478085,-0.
 02273087,-0.01038345,-0.03951872,-0.01791107,-0.01802782,-0.04707036,-
 0.00631430,-0.07437215,-0.29154322,-0.10748369,-0.00358548,-0.00304498
 ,-0.00173728,0.00388734,-0.00466169,-0.00139218,0.01092525,0.00561960,
 0.00054690,-0.00383246,0.00153235,-0.00001736,-0.00407551,-0.00215776,
 -0.00036446,0.00058174,0.00051499,0.00005589,-0.00005364,-0.00011845,-
 0.00042311,0.00126405,-0.00042065,-0.00056437,0.00003184,0.00041510,0.
 00090654,-0.00082685,0.00028718,-0.00016267,-0.00014695,0.00003222,-0.
 00003623,-0.00002194,-0.00003586,0.00004067,0.00015155,0.00002389,0.00
 011767,-0.00013298,0.00000698,0.00005139,-0.00002633,0.00001740,-0.000
 01389,-0.00005128,-0.00002960,-0.00001106,-0.01444618,0.68823284,0.051
 93569,-0.07143800,-0.08193680,-0.00738014,-0.02234851,-0.00056027,-0.0
 0405512,-0.01744828,0.00412191,-0.00534215,-0.00623165,-0.03301329,-0.
 02955258,-0.10593865,-0.06321468,-0.00119114,-0.00187668,0.00143802,0.
 00143121,-0.00190501,-0.00034457,0.00034588,0.00001226,0.00361745,-0.0
 0190964,0.00069196,0.00120972,0.00056516,0.00065811,0.00005905,0.00048
 886,0.00035604,-0.00002108,0.00001014,-0.00025397,-0.00007478,-0.00079
 862,-0.00017400,0.00001366,0.00034147,-0.00035120,-0.00005805,0.000118
 16,-0.00068024,0.00025187,-0.00006022,-0.00000355,-0.00013015,-0.00007
 536,-0.00000711,-0.00007599,-0.00000498,-0.00003848,-0.00002972,0.0000
 1758,0.00001390,0.00000070,0.00000957,-0.00000783,-0.00000254,-0.00000
 335,0.00000770,0.00000513,-0.00489040,0.22696318,0.16874438\\0.0000091
 6,-0.00000488,-0.00000795,-0.00000192,0.00000922,0.00000486,0.00000298
 ,-0.00001497,-0.00000435,0.00001456,0.00000836,0.00000192,0.00000512,-
 0.00000084,-0.00000503,0.00000080,-0.00000351,0.00000560,0.00000206,-0
 .00000304,0.00000075,-0.00000648,-0.00003340,0.00001391,-0.00002504,0.
 00001541,-0.00000361,0.00003032,0.00002179,-0.00000986,0.00002672,0.00
 001954,-0.00000312,0.00000183,0.00000010,0.00000297,-0.00002840,0.0000
 1479,-0.00000387,-0.00000574,-0.00000536,-0.00000287,0.00000101,-0.000
 03054,0.00000949,-0.00000310,0.00000054,0.00000492,0.00000234,-0.00000
 263,-0.00000400,-0.00000331,0.00000716,-0.00000374,0.00000113,-0.00000
 044,0.00000192,0.00000159,0.00000276,0.00000321,-0.00000072,0.00000293
 ,-0.00000051,-0.00002490,-0.00000300,-0.00000065\\\@


 KNOWLEDGE IS CHIMERA - FOR BEYOND IT LIES OTHER KNOWLEDGE,
 AND THE INCOMPLETENESS OF WHAT IS KNOWN RENDERS THE KNOWING FALSE.
     -- THE THOMAS COVENANT CHRONICLES
 Job cpu time:       0 days  1 hours 18 minutes 34.4 seconds.
 File lengths (MBytes):  RWF=    231 Int=      0 D2E=      0 Chk=     10 Scr=      1
 Normal termination of Gaussian 09 at Fri Apr 26 11:27:20 2024.
