 Entering Gaussian System, Link 0=g09
 Initial command:
 /cm/shared/apps/gaussian/g09revD.01/g09/l1.exe "//home/sweav003/CHB/OrthoParaExtra/G09-regiodevergent1f_Ishiyana.com.o9918467.tmp/Gau-123370.inp" -scrdir="//home/sweav003/CHB/OrthoParaExtra/G09-regiodevergent1f_Ishiyana.com.o9918467.tmp/"
 Entering Link 1 = /cm/shared/apps/gaussian/g09revD.01/g09/l1.exe PID=    123371.
  
 Copyright (c) 1988,1990,1992,1993,1995,1998,2003,2009,2013,
            Gaussian, Inc.  All Rights Reserved.
  
 This is part of the Gaussian(R) 09 program.  It is based on
 the Gaussian(R) 03 system (copyright 2003, Gaussian, Inc.),
 the Gaussian(R) 98 system (copyright 1998, Gaussian, Inc.),
 the Gaussian(R) 94 system (copyright 1995, Gaussian, Inc.),
 the Gaussian 92(TM) system (copyright 1992, Gaussian, Inc.),
 the Gaussian 90(TM) system (copyright 1990, Gaussian, Inc.),
 the Gaussian 88(TM) system (copyright 1988, Gaussian, Inc.),
 the Gaussian 86(TM) system (copyright 1986, Carnegie Mellon
 University), and the Gaussian 82(TM) system (copyright 1983,
 Carnegie Mellon University). Gaussian is a federally registered
 trademark of Gaussian, Inc.
  
 This software contains proprietary and confidential information,
 including trade secrets, belonging to Gaussian, Inc.
  
 This software is provided under written license and may be
 used, copied, transmitted, or stored only in accord with that
 written license.
  
 The following legend is applicable only to US Government
 contracts under FAR:
  
                    RESTRICTED RIGHTS LEGEND
  
 Use, reproduction and disclosure by the US Government is
 subject to restrictions as set forth in subparagraphs (a)
 and (c) of the Commercial Computer Software - Restricted
 Rights clause in FAR 52.227-19.
  
 Gaussian, Inc.
 340 Quinnipiac St., Bldg. 40, Wallingford CT 06492
  
  
 ---------------------------------------------------------------
 Warning -- This program may not be used in any manner that
 competes with the business of Gaussian, Inc. or will provide
 assistance to any competitor of Gaussian, Inc.  The licensee
 of this program is prohibited from giving any competitor of
 Gaussian, Inc. access to this program.  By using this program,
 the user acknowledges that Gaussian, Inc. is engaged in the
 business of creating and licensing software in the field of
 computational chemistry and represents and warrants to the
 licensee that it is not a competitor of Gaussian, Inc. and that
 it will not use this program in any manner prohibited above.
 ---------------------------------------------------------------
  

 Cite this work as:
 Gaussian 09, Revision D.01,
 M. J. Frisch, G. W. Trucks, H. B. Schlegel, G. E. Scuseria, 
 M. A. Robb, J. R. Cheeseman, G. Scalmani, V. Barone, B. Mennucci, 
 G. A. Petersson, H. Nakatsuji, M. Caricato, X. Li, H. P. Hratchian, 
 A. F. Izmaylov, J. Bloino, G. Zheng, J. L. Sonnenberg, M. Hada, 
 M. Ehara, K. Toyota, R. Fukuda, J. Hasegawa, M. Ishida, T. Nakajima, 
 Y. Honda, O. Kitao, H. Nakai, T. Vreven, J. A. Montgomery, Jr., 
 J. E. Peralta, F. Ogliaro, M. Bearpark, J. J. Heyd, E. Brothers, 
 K. N. Kudin, V. N. Staroverov, T. Keith, R. Kobayashi, J. Normand, 
 K. Raghavachari, A. Rendell, J. C. Burant, S. S. Iyengar, J. Tomasi, 
 M. Cossi, N. Rega, J. M. Millam, M. Klene, J. E. Knox, J. B. Cross, 
 V. Bakken, C. Adamo, J. Jaramillo, R. Gomperts, R. E. Stratmann, 
 O. Yazyev, A. J. Austin, R. Cammi, C. Pomelli, J. W. Ochterski, 
 R. L. Martin, K. Morokuma, V. G. Zakrzewski, G. A. Voth, 
 P. Salvador, J. J. Dannenberg, S. Dapprich, A. D. Daniels, 
 O. Farkas, J. B. Foresman, J. V. Ortiz, J. Cioslowski, 
 and D. J. Fox, Gaussian, Inc., Wallingford CT, 2013.
 
 ******************************************
 Gaussian 09:  ES64L-G09RevD.01 24-Apr-2013
                 2-Feb-2023 
 ******************************************
 %nprocshared=20
 Will use up to   20 processors via shared memory.
 %mem=4GB
 %chk=regiodevergent1f_Ishiyana.chk
 ----------------------------------------------------------------------
 # opt freq=noraman b3lyp/6-311+g(d,p) pop=(npa,hirshfeld,chelpg,mbs) g
 eom=connectivity
 ----------------------------------------------------------------------
 1/14=-1,18=20,19=15,26=3,38=1,57=2/1,3;
 2/9=110,12=2,17=6,18=5,40=1/2;
 3/5=4,6=6,7=111,11=2,16=1,25=1,30=1,71=1,74=-5/1,2,3;
 4//1;
 5/5=2,38=5/2;
 6/7=2,8=2,9=2,10=2,15=8,20=3,27=100,28=1,40=-1,79=1/1,2,7;
 7//1,2,3,16;
 1/14=-1,18=20,19=15,26=3/3(2);
 2/9=110/2;
 99//99;
 2/9=110/2;
 3/5=4,6=6,7=111,11=2,16=1,25=1,30=1,71=1,74=-5/1,2,3;
 4/5=5,16=3,69=1/1;
 5/5=2,38=5/2;
 7//1,2,3,16;
 1/14=-1,18=20,19=15,26=3/3(-5);
 2/9=110/2;
 6/7=2,8=2,9=2,10=2,15=8,19=2,20=3,27=100,28=1,40=-1,79=1/1,2,7;
 99/9=1/99;
 -------------------
 Title Card Required
 -------------------
 Symbolic Z-matrix:
 Charge =  0 Multiplicity = 1
 C                    -1.46218   0.36046   0.01914 
 C                    -1.05291  -0.95696   0.03184 
 C                     0.39497  -0.94159   0.01832 
 C                     0.77463   0.38468  -0.00185 
 H                    -1.67577  -1.84617   0.0488 
 H                     1.03709  -1.81709   0.02335 
 C                    -2.81925   1.08844   0.02252 
 H                    -2.88702   1.71259   0.88897 
 H                    -2.90329   1.69036  -0.85812 
 H                    -3.61034   0.36815   0.03906 
 C                     2.11542   1.14193  -0.02373 
 O                     2.17456   2.36771  -0.03968 
 C                     3.37706   0.25882  -0.02422 
 H                     3.38808  -0.34789   0.85707 
 H                     3.37201  -0.36988  -0.89002 
 C                     4.63009   1.1538   -0.04702 
 H                     5.50669   0.54022  -0.04737 
 H                     4.61906   1.76052  -0.92831 
 H                     4.63515   1.7825    0.81878 
 S                    -0.35274   1.20678  -0.00188 
 

 GradGradGradGradGradGradGradGradGradGradGradGradGradGradGradGradGradGrad
 Berny optimization.
 Initialization pass.
                           ----------------------------
                           !    Initial Parameters    !
                           ! (Angstroms and Degrees)  !
 --------------------------                            --------------------------
 ! Name  Definition              Value          Derivative Info.                !
 --------------------------------------------------------------------------------
 ! R1    R(1,2)                  1.3796         estimate D2E/DX2                !
 ! R2    R(1,7)                  1.54           estimate D2E/DX2                !
 ! R3    R(1,20)                 1.3955         estimate D2E/DX2                !
 ! R4    R(2,3)                  1.448          estimate D2E/DX2                !
 ! R5    R(2,5)                  1.0858         estimate D2E/DX2                !
 ! R6    R(3,4)                  1.3797         estimate D2E/DX2                !
 ! R7    R(3,6)                  1.0857         estimate D2E/DX2                !
 ! R8    R(4,11)                 1.54           estimate D2E/DX2                !
 ! R9    R(4,20)                 1.3953         estimate D2E/DX2                !
 ! R10   R(7,8)                  1.07           estimate D2E/DX2                !
 ! R11   R(7,9)                  1.07           estimate D2E/DX2                !
 ! R12   R(7,10)                 1.07           estimate D2E/DX2                !
 ! R13   R(11,12)                1.2273         estimate D2E/DX2                !
 ! R14   R(11,13)                1.54           estimate D2E/DX2                !
 ! R15   R(13,14)                1.07           estimate D2E/DX2                !
 ! R16   R(13,15)                1.07           estimate D2E/DX2                !
 ! R17   R(13,16)                1.54           estimate D2E/DX2                !
 ! R18   R(16,17)                1.07           estimate D2E/DX2                !
 ! R19   R(16,18)                1.07           estimate D2E/DX2                !
 ! R20   R(16,19)                1.07           estimate D2E/DX2                !
 ! A1    A(2,1,7)              135.4644         estimate D2E/DX2                !
 ! A2    A(2,1,20)             110.0851         estimate D2E/DX2                !
 ! A3    A(7,1,20)             114.4505         estimate D2E/DX2                !
 ! A4    A(1,2,3)              106.6433         estimate D2E/DX2                !
 ! A5    A(1,2,5)              127.7352         estimate D2E/DX2                !
 ! A6    A(3,2,5)              125.6215         estimate D2E/DX2                !
 ! A7    A(2,3,4)              106.588          estimate D2E/DX2                !
 ! A8    A(2,3,6)              125.6441         estimate D2E/DX2                !
 ! A9    A(4,3,6)              127.768          estimate D2E/DX2                !
 ! A10   A(3,4,11)             135.4359         estimate D2E/DX2                !
 ! A11   A(3,4,20)             110.1235         estimate D2E/DX2                !
 ! A12   A(11,4,20)            114.4407         estimate D2E/DX2                !
 ! A13   A(1,7,8)              109.4712         estimate D2E/DX2                !
 ! A14   A(1,7,9)              109.4712         estimate D2E/DX2                !
 ! A15   A(1,7,10)             109.4712         estimate D2E/DX2                !
 ! A16   A(8,7,9)              109.4713         estimate D2E/DX2                !
 ! A17   A(8,7,10)             109.4712         estimate D2E/DX2                !
 ! A18   A(9,7,10)             109.4712         estimate D2E/DX2                !
 ! A19   A(4,11,12)            122.2249         estimate D2E/DX2                !
 ! A20   A(4,11,13)            115.5502         estimate D2E/DX2                !
 ! A21   A(12,11,13)           122.2249         estimate D2E/DX2                !
 ! A22   A(11,13,14)           109.4712         estimate D2E/DX2                !
 ! A23   A(11,13,15)           109.4712         estimate D2E/DX2                !
 ! A24   A(11,13,16)           109.4712         estimate D2E/DX2                !
 ! A25   A(14,13,15)           109.4713         estimate D2E/DX2                !
 ! A26   A(14,13,16)           109.4712         estimate D2E/DX2                !
 ! A27   A(15,13,16)           109.4712         estimate D2E/DX2                !
 ! A28   A(13,16,17)           109.4712         estimate D2E/DX2                !
 ! A29   A(13,16,18)           109.4712         estimate D2E/DX2                !
 ! A30   A(13,16,19)           109.4712         estimate D2E/DX2                !
 ! A31   A(17,16,18)           109.4713         estimate D2E/DX2                !
 ! A32   A(17,16,19)           109.4712         estimate D2E/DX2                !
 ! A33   A(18,16,19)           109.4712         estimate D2E/DX2                !
 ! A34   A(1,20,4)             106.5602         estimate D2E/DX2                !
 ! D1    D(7,1,2,3)            179.9992         estimate D2E/DX2                !
 ! D2    D(7,1,2,5)             -0.0078         estimate D2E/DX2                !
 ! D3    D(20,1,2,3)             0.0097         estimate D2E/DX2                !
 ! D4    D(20,1,2,5)          -179.9973         estimate D2E/DX2                !
 ! D5    D(2,1,7,8)            120.0147         estimate D2E/DX2                !
 ! D6    D(2,1,7,9)           -119.9852         estimate D2E/DX2                !
 ! D7    D(2,1,7,10)             0.0148         estimate D2E/DX2                !
 ! D8    D(20,1,7,8)           -59.9961         estimate D2E/DX2                !
 ! D9    D(20,1,7,9)            60.0039         estimate D2E/DX2                !
 ! D10   D(20,1,7,10)         -179.9961         estimate D2E/DX2                !
 ! D11   D(2,1,20,4)            -0.0117         estimate D2E/DX2                !
 ! D12   D(7,1,20,4)           179.9964         estimate D2E/DX2                !
 ! D13   D(1,2,3,4)             -0.0039         estimate D2E/DX2                !
 ! D14   D(1,2,3,6)           -179.9997         estimate D2E/DX2                !
 ! D15   D(5,2,3,4)           -179.997          estimate D2E/DX2                !
 ! D16   D(5,2,3,6)              0.0071         estimate D2E/DX2                !
 ! D17   D(2,3,4,11)          -179.9989         estimate D2E/DX2                !
 ! D18   D(2,3,4,20)            -0.0034         estimate D2E/DX2                !
 ! D19   D(6,3,4,11)            -0.0031         estimate D2E/DX2                !
 ! D20   D(6,3,4,20)           179.9924         estimate D2E/DX2                !
 ! D21   D(3,4,11,12)          180.0            estimate D2E/DX2                !
 ! D22   D(3,4,11,13)           -0.0022         estimate D2E/DX2                !
 ! D23   D(20,4,11,12)           0.0046         estimate D2E/DX2                !
 ! D24   D(20,4,11,13)        -179.9976         estimate D2E/DX2                !
 ! D25   D(3,4,20,1)             0.0092         estimate D2E/DX2                !
 ! D26   D(11,4,20,1)         -179.9942         estimate D2E/DX2                !
 ! D27   D(4,11,13,14)         -59.9994         estimate D2E/DX2                !
 ! D28   D(4,11,13,15)          60.0007         estimate D2E/DX2                !
 ! D29   D(4,11,13,16)        -179.9994         estimate D2E/DX2                !
 ! D30   D(12,11,13,14)        119.9984         estimate D2E/DX2                !
 ! D31   D(12,11,13,15)       -120.0016         estimate D2E/DX2                !
 ! D32   D(12,11,13,16)         -0.0016         estimate D2E/DX2                !
 ! D33   D(11,13,16,17)       -179.9995         estimate D2E/DX2                !
 ! D34   D(11,13,16,18)        -59.9995         estimate D2E/DX2                !
 ! D35   D(11,13,16,19)         60.0005         estimate D2E/DX2                !
 ! D36   D(14,13,16,17)         60.0005         estimate D2E/DX2                !
 ! D37   D(14,13,16,18)       -179.9995         estimate D2E/DX2                !
 ! D38   D(14,13,16,19)        -59.9995         estimate D2E/DX2                !
 ! D39   D(15,13,16,17)        -59.9996         estimate D2E/DX2                !
 ! D40   D(15,13,16,18)         60.0005         estimate D2E/DX2                !
 ! D41   D(15,13,16,19)       -179.9996         estimate D2E/DX2                !
 --------------------------------------------------------------------------------
 Trust Radius=3.00D-01 FncErr=1.00D-07 GrdErr=1.00D-06
 Number of steps in this run=    105 maximum allowed number of steps=    120.
 GradGradGradGradGradGradGradGradGradGradGradGradGradGradGradGradGradGrad

                          Input orientation:                          
 ---------------------------------------------------------------------
 Center     Atomic      Atomic             Coordinates (Angstroms)
 Number     Number       Type             X           Y           Z
 ---------------------------------------------------------------------
      1          6           0       -1.462180    0.360456    0.019141
      2          6           0       -1.052911   -0.956960    0.031843
      3          6           0        0.394975   -0.941593    0.018318
      4          6           0        0.774634    0.384682   -0.001848
      5          1           0       -1.675774   -1.846171    0.048801
      6          1           0        1.037093   -1.817093    0.023347
      7          6           0       -2.819249    1.088435    0.022520
      8          1           0       -2.887015    1.712594    0.888969
      9          1           0       -2.903292    1.690362   -0.858116
     10          1           0       -3.610337    0.368154    0.039056
     11          6           0        2.115419    1.141925   -0.023733
     12          8           0        2.174564    2.367713   -0.039680
     13          6           0        3.377057    0.258824   -0.024223
     14          1           0        3.388083   -0.347888    0.857071
     15          1           0        3.372009   -0.369882   -0.890020
     16          6           0        4.630093    1.153800   -0.047019
     17          1           0        5.506685    0.540216   -0.047368
     18          1           0        4.619063    1.760517   -0.928309
     19          1           0        4.635146    1.782500    0.818782
     20         16           0       -0.352743    1.206779   -0.001878
 ---------------------------------------------------------------------
                    Distance matrix (angstroms):
                    1          2          3          4          5
     1  C    0.000000
     2  C    1.379582   0.000000
     3  C    2.268118   1.448030   0.000000
     4  C    2.237044   2.267390   1.379693   0.000000
     5  H    2.217139   1.085791   2.259910   3.314177   0.000000
     6  H    3.314831   2.260092   1.085745   2.217506   2.713142
     7  C    1.540000   2.702532   3.801614   3.662220   3.149625
     8  H    2.148263   3.350391   4.309779   3.995570   3.851986
     9  H    2.148263   3.350261   4.309743   3.995639   3.851800
    10  H    2.148263   2.880349   4.214071   4.385193   2.940385
    11  C    3.662206   3.800884   2.702359   1.540000   4.827745
    12  O    4.154329   4.634129   3.757899   2.427683   5.708743
    13  C    4.840499   4.594115   3.214907   2.605561   5.474252
    14  H    4.972819   4.557894   3.164599   2.846843   5.342359
    15  H    4.972861   4.557894   3.164595   2.846853   5.342370
    16  C    6.144067   6.062842   4.725586   3.931685   6.983764
    17  H    6.971501   6.728752   5.322561   4.734825   7.569135
    18  H    6.311842   6.362221   5.102982   4.186990   7.320377
    19  H    6.311816   6.362224   5.102987   4.186989   7.320371
    20  S    1.395549   2.274453   2.274861   1.395286   3.327685
                    6          7          8          9         10
     6  H    0.000000
     7  C    4.828402   0.000000
     8  H    5.348515   1.070000   0.000000
     9  H    5.348444   1.070000   1.747303   0.000000
    10  H    5.135578   1.070000   1.747303   1.747303   0.000000
    11  C    3.149729   4.935174   5.116936   5.117073   5.778144
    12  O    4.337097   5.155442   5.187596   5.187799   6.121235
    13  C    3.128438   6.251772   6.495073   6.495188   6.988536
    14  H    2.894963   6.425766   6.604806   6.832110   7.082355
    15  H    2.894908   6.425814   6.832048   6.604924   7.082445
    16  C    4.662704   7.449953   7.595738   7.595897   8.278245
    17  H    5.053628   8.344256   8.526746   8.526890   9.119056
    18  H    5.151258   7.528894   7.723082   7.523009   8.402232
    19  H    5.151288   7.528861   7.522813   7.723245   8.402163
    20  S    3.328075   2.469464   2.733495   2.733550   3.364058
                   11         12         13         14         15
    11  C    0.000000
    12  O    1.227317   0.000000
    13  C    1.540000   2.427683   0.000000
    14  H    2.148263   3.106651   1.070000   0.000000
    15  H    2.148263   3.106667   1.070000   1.747303   0.000000
    16  C    2.514810   2.739208   1.540000   2.148263   2.148263
    17  H    3.444314   3.800374   2.148263   2.468849   2.468843
    18  H    2.732974   2.670941   2.148263   3.024610   2.468848
    19  H    2.732982   2.670935   2.148263   2.468843   3.024610
    20  S    2.469111   2.781452   3.848445   4.141082   4.141066
                   16         17         18         19         20
    16  C    0.000000
    17  H    1.070000   0.000000
    18  H    1.070000   1.747303   0.000000
    19  H    1.070000   1.747303   1.747303   0.000000
    20  S    4.983322   5.897396   5.087608   5.087629   0.000000
 Stoichiometry    C8H10OS
 Framework group  C1[X(C8H10OS)]
 Deg. of freedom    54
 Full point group                 C1      NOp   1
 Largest Abelian subgroup         C1      NOp   1
 Largest concise Abelian subgroup C1      NOp   1
                         Standard orientation:                         
 ---------------------------------------------------------------------
 Center     Atomic      Atomic             Coordinates (Angstroms)
 Number     Number       Type             X           Y           Z
 ---------------------------------------------------------------------
      1          6           0        2.204327    0.097852    0.000063
      2          6           0        1.936904    1.451267   -0.000025
      3          6           0        0.495459    1.589203   -0.000010
      4          6           0       -0.022591    0.310462   -0.000003
      5          1           0        2.650501    2.269633    0.000012
      6          1           0       -0.050331    2.527795   -0.000068
      7          6           0        3.476711   -0.769696    0.000085
      8          1           0        3.487146   -1.387494    0.873650
      9          1           0        3.487345   -1.387247   -0.873653
     10          1           0        4.339700   -0.137122    0.000273
     11          6           0       -1.436128   -0.300696   -0.000008
     12          8           0       -1.624804   -1.513424    0.000001
     13          6           0       -2.597180    0.711015    0.000029
     14          1           0       -2.534697    1.325597    0.873691
     15          1           0       -2.534724    1.325630   -0.873612
     16          6           0       -3.938047   -0.046397    0.000036
     17          1           0       -4.744752    0.656545    0.000053
     18          1           0       -4.000526   -0.660985   -0.873622
     19          1           0       -4.000506   -0.661006    0.873680
     20         16           0        1.011409   -0.626376   -0.000089
 ---------------------------------------------------------------------
 Rotational constants (GHZ):      3.4831647      0.6818564      0.5762312
 Standard basis: 6-311+G(d,p) (5D, 7F)
 There are   298 symmetry adapted cartesian basis functions of A   symmetry.
 There are   288 symmetry adapted basis functions of A   symmetry.
   288 basis functions,   454 primitive gaussians,   298 cartesian basis functions
    41 alpha electrons       41 beta electrons
       nuclear repulsion energy       613.5662604034 Hartrees.
 NAtoms=   20 NActive=   20 NUniq=   20 SFac= 1.00D+00 NAtFMM=   60 NAOKFM=F Big=F
 Integral buffers will be    131072 words long.
 Raffenetti 2 integral format.
 Two-electron integral symmetry is turned on.
 One-electron integrals computed using PRISM.
 NBasis=   288 RedAO= T EigKep=  1.12D-06  NBF=   288
 NBsUse=   288 1.00D-06 EigRej= -1.00D+00 NBFU=   288
 ExpMin= 4.05D-02 ExpMax= 9.34D+04 ExpMxC= 3.17D+03 IAcc=2 IRadAn=         4 AccDes= 0.00D+00
 Harris functional with IExCor=  402 and IRadAn=       4 diagonalized for initial guess.
 HarFok:  IExCor=  402 AccDes= 0.00D+00 IRadAn=         4 IDoV= 1 UseB2=F ITyADJ=14
 ICtDFT=  3500011 ScaDFX=  1.000000  1.000000  1.000000  1.000000
 FoFCou: FMM=F IPFlag=           0 FMFlag=      100000 FMFlg1=           0
         NFxFlg=           0 DoJE=T BraDBF=F KetDBF=T FulRan=T
         wScrn=  0.000000 ICntrl=     500 IOpCl=  0 I1Cent=   200000004 NGrid=           0
         NMat0=    1 NMatS0=      1 NMatT0=    0 NMatD0=    1 NMtDS0=    0 NMtDT0=    0
 Petite list used in FoFCou.
 Requested convergence on RMS density matrix=1.00D-08 within 128 cycles.
 Requested convergence on MAX density matrix=1.00D-06.
 Requested convergence on             energy=1.00D-06.
 No special actions if energy rises.
 SCF Done:  E(RB3LYP) =  -784.208527510     A.U. after   15 cycles
            NFock= 15  Conv=0.23D-08     -V/T= 2.0000

 **********************************************************************

            Population analysis using the SCF density.

 **********************************************************************

 Orbital symmetries:
       Occupied  (A) (A) (A) (A) (A) (A) (A) (A) (A) (A) (A) (A)
                 (A) (A) (A) (A) (A) (A) (A) (A) (A) (A) (A) (A)
                 (A) (A) (A) (A) (A) (A) (A) (A) (A) (A) (A) (A)
                 (A) (A) (A) (A) (A)
       Virtual   (A) (A) (A) (A) (A) (A) (A) (A) (A) (A) (A) (A)
                 (A) (A) (A) (A) (A) (A) (A) (A) (A) (A) (A) (A)
                 (A) (A) (A) (A) (A) (A) (A) (A) (A) (A) (A) (A)
                 (A) (A) (A) (A) (A) (A) (A) (A) (A) (A) (A) (A)
                 (A) (A) (A) (A) (A) (A) (A) (A) (A) (A) (A) (A)
                 (A) (A) (A) (A) (A) (A) (A) (A) (A) (A) (A) (A)
                 (A) (A) (A) (A) (A) (A) (A) (A) (A) (A) (A) (A)
                 (A) (A) (A) (A) (A) (A) (A) (A) (A) (A) (A) (A)
                 (A) (A) (A) (A) (A) (A) (A) (A) (A) (A) (A) (A)
                 (A) (A) (A) (A) (A) (A) (A) (A) (A) (A) (A) (A)
                 (A) (A) (A) (A) (A) (A) (A) (A) (A) (A) (A) (A)
                 (A) (A) (A) (A) (A) (A) (A) (A) (A) (A) (A) (A)
                 (A) (A) (A) (A) (A) (A) (A) (A) (A) (A) (A) (A)
                 (A) (A) (A) (A) (A) (A) (A) (A) (A) (A) (A) (A)
                 (A) (A) (A) (A) (A) (A) (A) (A) (A) (A) (A) (A)
                 (A) (A) (A) (A) (A) (A) (A) (A) (A) (A) (A) (A)
                 (A) (A) (A) (A) (A) (A) (A) (A) (A) (A) (A) (A)
                 (A) (A) (A) (A) (A) (A) (A) (A) (A) (A) (A) (A)
                 (A) (A) (A) (A) (A) (A) (A) (A) (A) (A) (A) (A)
                 (A) (A) (A) (A) (A) (A) (A) (A) (A) (A) (A) (A)
                 (A) (A) (A) (A) (A) (A) (A)
 The electronic state is 1-A.
 Alpha  occ. eigenvalues --  -88.84454 -19.12156 -10.27839 -10.18876 -10.18498
 Alpha  occ. eigenvalues --  -10.18177 -10.18077 -10.18022 -10.17616 -10.15367
 Alpha  occ. eigenvalues --   -7.95624  -5.91739  -5.91157  -5.91149  -1.05200
 Alpha  occ. eigenvalues --   -0.99675  -0.80847  -0.78317  -0.76312  -0.70933
 Alpha  occ. eigenvalues --   -0.65773  -0.61213  -0.56228  -0.54075  -0.50054
 Alpha  occ. eigenvalues --   -0.48431  -0.46833  -0.45618  -0.44509  -0.42660
 Alpha  occ. eigenvalues --   -0.42168  -0.39951  -0.39027  -0.38211  -0.37176
 Alpha  occ. eigenvalues --   -0.36501  -0.36041  -0.32860  -0.26640  -0.26148
 Alpha  occ. eigenvalues --   -0.25731
 Alpha virt. eigenvalues --   -0.05041  -0.00324   0.00563   0.01376   0.01986
 Alpha virt. eigenvalues --    0.02922   0.03337   0.03341   0.04526   0.04818
 Alpha virt. eigenvalues --    0.05710   0.05933   0.05980   0.07026   0.07490
 Alpha virt. eigenvalues --    0.08712   0.08879   0.09556   0.09564   0.10067
 Alpha virt. eigenvalues --    0.11941   0.12386   0.12704   0.13325   0.13841
 Alpha virt. eigenvalues --    0.14519   0.14906   0.15285   0.15380   0.15458
 Alpha virt. eigenvalues --    0.16833   0.17845   0.17859   0.18483   0.18947
 Alpha virt. eigenvalues --    0.19131   0.19223   0.20203   0.20627   0.21307
 Alpha virt. eigenvalues --    0.21402   0.22063   0.22845   0.23545   0.23666
 Alpha virt. eigenvalues --    0.23940   0.25579   0.26159   0.26834   0.27498
 Alpha virt. eigenvalues --    0.28540   0.29068   0.29233   0.30016   0.31216
 Alpha virt. eigenvalues --    0.31900   0.33399   0.34216   0.35062   0.36662
 Alpha virt. eigenvalues --    0.38058   0.40278   0.41507   0.42335   0.42561
 Alpha virt. eigenvalues --    0.44966   0.47207   0.47947   0.48199   0.50617
 Alpha virt. eigenvalues --    0.51280   0.52503   0.54968   0.55022   0.56971
 Alpha virt. eigenvalues --    0.58014   0.58650   0.59192   0.60827   0.60913
 Alpha virt. eigenvalues --    0.61282   0.63552   0.63881   0.64415   0.65869
 Alpha virt. eigenvalues --    0.66747   0.67744   0.68559   0.70041   0.70962
 Alpha virt. eigenvalues --    0.72515   0.73711   0.74546   0.75032   0.76368
 Alpha virt. eigenvalues --    0.76380   0.77737   0.79195   0.80967   0.82408
 Alpha virt. eigenvalues --    0.84880   0.86601   0.87728   0.91374   0.91982
 Alpha virt. eigenvalues --    0.94246   0.94915   0.96161   0.99327   0.99530
 Alpha virt. eigenvalues --    1.02566   1.05270   1.06321   1.07291   1.09168
 Alpha virt. eigenvalues --    1.11942   1.18189   1.18789   1.26012   1.27238
 Alpha virt. eigenvalues --    1.28278   1.30477   1.30885   1.32819   1.35491
 Alpha virt. eigenvalues --    1.40861   1.41855   1.42493   1.44987   1.47613
 Alpha virt. eigenvalues --    1.47768   1.51342   1.52092   1.53217   1.53863
 Alpha virt. eigenvalues --    1.55929   1.55992   1.56996   1.57179   1.61829
 Alpha virt. eigenvalues --    1.61960   1.62463   1.64869   1.65906   1.67787
 Alpha virt. eigenvalues --    1.69536   1.72367   1.73390   1.76019   1.76677
 Alpha virt. eigenvalues --    1.80670   1.81433   1.82196   1.84855   1.86527
 Alpha virt. eigenvalues --    1.87422   1.87852   1.92302   1.94868   1.98497
 Alpha virt. eigenvalues --    2.00568   2.00730   2.04370   2.05922   2.07370
 Alpha virt. eigenvalues --    2.10456   2.10757   2.12548   2.15105   2.17181
 Alpha virt. eigenvalues --    2.18094   2.21978   2.24717   2.32951   2.34980
 Alpha virt. eigenvalues --    2.36602   2.38119   2.40634   2.46837   2.48186
 Alpha virt. eigenvalues --    2.50537   2.50773   2.50893   2.54034   2.57139
 Alpha virt. eigenvalues --    2.58258   2.59545   2.62327   2.63103   2.64401
 Alpha virt. eigenvalues --    2.66333   2.66694   2.68803   2.71820   2.73581
 Alpha virt. eigenvalues --    2.75265   2.75840   2.76582   2.78727   2.85998
 Alpha virt. eigenvalues --    2.86388   2.89473   2.92708   2.93908   2.95231
 Alpha virt. eigenvalues --    2.98592   2.98731   3.00417   3.11693   3.18362
 Alpha virt. eigenvalues --    3.20745   3.30568   3.31638   3.33455   3.42936
 Alpha virt. eigenvalues --    3.46709   3.50479   3.70358   3.83586   3.85778
 Alpha virt. eigenvalues --    3.86138   3.87139   3.87508   3.91129   4.01414
 Alpha virt. eigenvalues --    4.10647   4.18534   4.24034   4.31473   4.47546
 Alpha virt. eigenvalues --    5.05177   5.24325   5.71854   8.32090  17.30852
 Alpha virt. eigenvalues --   17.75466  17.98161  23.69357  23.79466  23.88900
 Alpha virt. eigenvalues --   23.91233  23.99504  24.03730  24.11538  24.14783
 Alpha virt. eigenvalues --   49.99113 189.62236
          Condensed to atoms (all electrons):
               1          2          3          4          5          6
     1  C    8.401870  -2.174984   2.370828  -1.711000  -0.043039  -0.020045
     2  C   -2.174984  10.153551  -3.835625   2.147543   0.447145   0.028053
     3  C    2.370828  -3.835625  12.151927   1.063038  -0.049486   0.364282
     4  C   -1.711000   2.147543   1.063038  23.947785   0.019199  -0.073386
     5  H   -0.043039   0.447145  -0.049486   0.019199   0.531879  -0.003804
     6  H   -0.020045   0.028053   0.364282  -0.073386  -0.003804   0.533783
     7  C   -0.040872  -0.713352   0.755954  -0.102319  -0.023635  -0.002587
     8  H    0.006257  -0.023201   0.002077  -0.000250   0.000004   0.000014
     9  H    0.006278  -0.023221   0.002076  -0.000260   0.000003   0.000014
    10  H   -0.129091  -0.016101   0.026200  -0.021290   0.000616  -0.000026
    11  C   -0.742676   1.050813  -5.930589 -17.282531   0.011837   0.071500
    12  O    0.070067  -0.012468  -0.035447   0.086024   0.000028  -0.000995
    13  C   -0.021794  -0.043443  -0.217038  -0.194667  -0.001149  -0.015836
    14  H   -0.005014   0.007738   0.007971   0.008779  -0.000001  -0.000226
    15  H   -0.004954   0.007675   0.008100   0.008947  -0.000001  -0.000226
    16  C   -0.007134  -0.042580  -0.097569  -1.158225   0.000112   0.001863
    17  H    0.000829  -0.000208  -0.003580   0.057582   0.000000   0.000003
    18  H   -0.001848   0.001163   0.003018  -0.029050   0.000000  -0.000001
    19  H   -0.001844   0.001161   0.003022  -0.029006   0.000000  -0.000001
    20  S   -0.104096  -0.345505  -0.302628  -0.996548  -0.011077  -0.007068
               7          8          9         10         11         12
     1  C   -0.040872   0.006257   0.006278  -0.129091  -0.742676   0.070067
     2  C   -0.713352  -0.023201  -0.023221  -0.016101   1.050813  -0.012468
     3  C    0.755954   0.002077   0.002076   0.026200  -5.930589  -0.035447
     4  C   -0.102319  -0.000250  -0.000260  -0.021290 -17.282531   0.086024
     5  H   -0.023635   0.000004   0.000003   0.000616   0.011837   0.000028
     6  H   -0.002587   0.000014   0.000014  -0.000026   0.071500  -0.000995
     7  C    5.895379   0.382037   0.382042   0.495660  -0.747401  -0.005134
     8  H    0.382037   0.518424  -0.030897  -0.021982   0.003014  -0.000100
     9  H    0.382042  -0.030897   0.518427  -0.021980   0.003027  -0.000100
    10  H    0.495660  -0.021982  -0.021980   0.518595  -0.006503   0.000035
    11  C   -0.747401   0.003014   0.003027  -0.006503  27.397492   0.217513
    12  O   -0.005134  -0.000100  -0.000100   0.000035   0.217513   7.975309
    13  C   -0.014747  -0.000051  -0.000050   0.000254  -0.226357   0.056256
    14  H   -0.000124   0.000000   0.000000   0.000000  -0.039955   0.000509
    15  H   -0.000120   0.000000   0.000000   0.000000  -0.040256   0.000513
    16  C   -0.006171   0.000012   0.000012  -0.000006   1.107347  -0.122862
    17  H    0.000044   0.000000   0.000000   0.000000  -0.028259   0.004862
    18  H   -0.000098   0.000000   0.000000   0.000000   0.017889  -0.006147
    19  H   -0.000098   0.000000   0.000000   0.000000   0.017836  -0.006143
    20  S    0.012233  -0.004676  -0.004683   0.025865   1.133737  -0.013001
              13         14         15         16         17         18
     1  C   -0.021794  -0.005014  -0.004954  -0.007134   0.000829  -0.001848
     2  C   -0.043443   0.007738   0.007675  -0.042580  -0.000208   0.001163
     3  C   -0.217038   0.007971   0.008100  -0.097569  -0.003580   0.003018
     4  C   -0.194667   0.008779   0.008947  -1.158225   0.057582  -0.029050
     5  H   -0.001149  -0.000001  -0.000001   0.000112   0.000000   0.000000
     6  H   -0.015836  -0.000226  -0.000226   0.001863   0.000003  -0.000001
     7  C   -0.014747  -0.000124  -0.000120  -0.006171   0.000044  -0.000098
     8  H   -0.000051   0.000000   0.000000   0.000012   0.000000   0.000000
     9  H   -0.000050   0.000000   0.000000   0.000012   0.000000   0.000000
    10  H    0.000254   0.000000   0.000000  -0.000006   0.000000   0.000000
    11  C   -0.226357  -0.039955  -0.040256   1.107347  -0.028259   0.017889
    12  O    0.056256   0.000509   0.000513  -0.122862   0.004862  -0.006147
    13  C    6.289450   0.412173   0.412217  -0.026442  -0.030128  -0.020805
    14  H    0.412173   0.527704  -0.028912  -0.055256  -0.005502   0.007796
    15  H    0.412217  -0.028912   0.527702  -0.055281  -0.005503  -0.006369
    16  C   -0.026442  -0.055256  -0.055281   5.768979   0.372987   0.413393
    17  H   -0.030128  -0.005502  -0.005503   0.372987   0.556628  -0.028323
    18  H   -0.020805   0.007796  -0.006369   0.413393  -0.028323   0.527883
    19  H   -0.020798  -0.006370   0.007797   0.413387  -0.028323  -0.023478
    20  S   -0.026214  -0.002533  -0.002548   0.017063   0.004161  -0.004707
              19         20
     1  C   -0.001844  -0.104096
     2  C    0.001161  -0.345505
     3  C    0.003022  -0.302628
     4  C   -0.029006  -0.996548
     5  H    0.000000  -0.011077
     6  H   -0.000001  -0.007068
     7  C   -0.000098   0.012233
     8  H    0.000000  -0.004676
     9  H    0.000000  -0.004683
    10  H    0.000000   0.025865
    11  C    0.017836   1.133737
    12  O   -0.006143  -0.013001
    13  C   -0.020798  -0.026214
    14  H   -0.006370  -0.002533
    15  H    0.007797  -0.002548
    16  C    0.413387   0.017063
    17  H   -0.028323   0.004161
    18  H   -0.023478  -0.004707
    19  H    0.527883  -0.004706
    20  S   -0.004706  16.359778
 Mulliken charges:
               1
     1  C    0.152263
     2  C   -0.614155
     3  C   -0.286532
     4  C    0.259637
     5  H    0.121369
     6  H    0.124691
     7  C   -0.266690
     8  H    0.169317
     9  H    0.169311
    10  H    0.149754
    11  C    0.012523
    12  O   -0.208719
    13  C   -0.310831
    14  H    0.171223
    15  H    0.171220
    16  C   -0.523629
    17  H    0.132731
    18  H    0.149684
    19  H    0.149683
    20  S    0.277152
 Sum of Mulliken charges =   0.00000
 Mulliken charges with hydrogens summed into heavy atoms:
               1
     1  C    0.152263
     2  C   -0.492786
     3  C   -0.161841
     4  C    0.259637
     7  C    0.221692
    11  C    0.012523
    12  O   -0.208719
    13  C    0.031612
    16  C   -0.091532
    20  S    0.277152
 Electronic spatial extent (au):  <R**2>=           1973.1281
 Charge=              0.0000 electrons
 Dipole moment (field-independent basis, Debye):
    X=              1.4001    Y=              2.4895    Z=             -0.0001  Tot=              2.8563
 Quadrupole moment (field-independent basis, Debye-Ang):
   XX=            -59.9018   YY=            -69.6163   ZZ=            -67.1830
   XY=             -6.0438   XZ=              0.0000   YZ=             -0.0001
 Traceless Quadrupole moment (field-independent basis, Debye-Ang):
   XX=              5.6652   YY=             -4.0493   ZZ=             -1.6160
   XY=             -6.0438   XZ=              0.0000   YZ=             -0.0001
 Octapole moment (field-independent basis, Debye-Ang**2):
  XXX=             16.5208  YYY=              7.8517  ZZZ=             -0.0006  XYY=              8.4610
  XXY=              5.3521  XXZ=              0.0007  XZZ=             -4.9896  YZZ=             -7.0806
  YYZ=             -0.0002  XYZ=              0.0001
 Hexadecapole moment (field-independent basis, Debye-Ang**3):
 XXXX=          -2100.7053 YYYY=           -457.5930 ZZZZ=            -95.4249 XXXY=            -16.6948
 XXXZ=              0.0032 YYYX=             -6.9562 YYYZ=             -0.0024 ZZZX=             -0.0017
 ZZZY=              0.0002 XXYY=           -432.0269 XXZZ=           -375.5331 YYZZ=            -95.7921
 XXYZ=              0.0013 YYXZ=              0.0007 ZZXY=             -6.1067
 N-N= 6.135662604034D+02 E-N=-3.073806229592D+03  KE= 7.841827342360D+02
 There are a total of      164816 grid points.
 ElSum from          density=       82.0000668782
 ElSum from atomic densities=       82.0003688872

 Hirshfeld populations at iteration   1 (CX, CA, CB, DipXYZ):
               1          2          3          4          5          6
     1  C    0.000000   3.030756   3.030756   0.134224  -0.013089   0.000031
     2  C    0.000001   3.032955   3.032955   0.069423   0.055912  -0.000010
     3  C    0.000001   3.031273   3.031273  -0.050913   0.069246   0.000002
     4  C    0.000001   3.046879   3.046879  -0.110162   0.019343   0.000016
     5  H    0.000002   0.474721   0.474721   0.109307   0.123421   0.000003
     6  H    0.000002   0.474308   0.474308  -0.079289   0.144941  -0.000012
     7  C    0.000000   3.041652   3.041652   0.002266   0.006620   0.000002
     8  H    0.000002   0.476597   0.476597   0.010353  -0.090918   0.128763
     9  H    0.000002   0.476597   0.476597   0.010378  -0.090882  -0.128786
    10  H    0.000001   0.477060   0.477060   0.125893   0.091481   0.000028
    11  C    0.000000   2.910535   2.910535  -0.009924   0.022884  -0.000003
    12  O    0.000003   4.128215   4.128215  -0.008260   0.105364   0.000002
    13  C    0.000000   3.029286   3.029286  -0.009231  -0.000601   0.000001
    14  H    0.000001   0.476758   0.476758  -0.004956   0.085351   0.129629
    15  H    0.000001   0.476759   0.476759  -0.004959   0.085355  -0.129625
    16  C    0.000000   3.051344   3.051344  -0.000314   0.019245   0.000000
    17  H    0.000001   0.483179   0.483179  -0.109814   0.099293   0.000003
    18  H    0.000001   0.481294   0.481294  -0.018745  -0.077974  -0.127813
    19  H    0.000001   0.481294   0.481294  -0.018742  -0.077977   0.127812
    20  S    0.000001   7.918572   7.918572   0.019890  -0.038889  -0.000054
       Tot   0.000018  41.000033  41.000033   0.056427   0.538129  -0.000010

 Dip from Atomic Chgs              0.494245   0.441568  -0.000021
         Total Dipole              0.550672   0.979697  -0.000031

 Hirshfeld charges, spin densities, dipoles, and CM5 charges using IRadAn=      4:
              Q-H        S-H        Dx         Dy         Dz        Q-CM5   
     1  C   -0.061511   0.000000   0.134224  -0.013089   0.000031  -0.106657
     2  C   -0.065910   0.000000   0.069423   0.055912  -0.000010  -0.121355
     3  C   -0.062546   0.000000  -0.050913   0.069246   0.000002  -0.117615
     4  C   -0.093759   0.000000  -0.110162   0.019343   0.000016  -0.128065
     5  H    0.050559   0.000000   0.109307   0.123421   0.000003   0.104435
     6  H    0.051384   0.000000  -0.079289   0.144941  -0.000012   0.105613
     7  C   -0.083303   0.000000   0.002266   0.006620   0.000002  -0.236414
     8  H    0.046807   0.000000   0.010353  -0.090918   0.128763   0.098653
     9  H    0.046806   0.000000   0.010378  -0.090882  -0.128786   0.098652
    10  H    0.045879   0.000000   0.125893   0.091481   0.000028   0.099733
    11  C    0.178931   0.000000  -0.009924   0.022884  -0.000003   0.202656
    12  O   -0.256429   0.000000  -0.008260   0.105364   0.000002  -0.301094
    13  C   -0.058572   0.000000  -0.009231  -0.000601   0.000001  -0.168013
    14  H    0.046483   0.000000  -0.004956   0.085351   0.129629   0.105327
    15  H    0.046482   0.000000  -0.004959   0.085355  -0.129625   0.105326
    16  C   -0.102689   0.000000  -0.000314   0.019245   0.000000  -0.259439
    17  H    0.033642   0.000000  -0.109814   0.099293   0.000003   0.087622
    18  H    0.037411   0.000000  -0.018745  -0.077974  -0.127813   0.094360
    19  H    0.037412   0.000000  -0.018742  -0.077977   0.127812   0.094360
    20  S    0.162857   0.000000   0.019890  -0.038889  -0.000054   0.241847
       Tot  -0.000067   0.000000   0.056427   0.538129  -0.000010  -0.000067
 Hirshfeld charges with hydrogens summed into heavy atoms:
              Q-H       Q-CM5   
     1  C   -0.061511  -0.106657
     2  C   -0.015351  -0.016920
     3  C   -0.011163  -0.012002
     4  C   -0.093759  -0.128065
     7  C    0.056189   0.060624
    11  C    0.178931   0.202656
    12  O   -0.256429  -0.301094
    13  C    0.034393   0.042640
    16  C    0.005776   0.016904
    20  S    0.162857   0.241847
 
 EQQ= 0.000000000000E+00 EQD= 0.000000000000E+00 EDD= 0.379241683612E-02
 EQQ+QD+DD= 0.379241683612E-02
 
          MBS Condensed to atoms (all electrons):
               1          2          3          4          5          6
     1  C    4.837356   0.495454  -0.057958  -0.053736  -0.021346   0.001606
     2  C    0.495454   4.923584   0.507463  -0.058930   0.385939  -0.019435
     3  C   -0.057958   0.507463   4.922678   0.489554  -0.019763   0.385848
     4  C   -0.053736  -0.058930   0.489554   4.924907   0.001663  -0.021253
     5  H   -0.021346   0.385939  -0.019763   0.001663   0.539921  -0.001016
     6  H    0.001606  -0.019435   0.385848  -0.021253  -0.001016   0.537868
     7  C    0.366805  -0.012780   0.000952   0.001745  -0.001173  -0.000010
     8  H   -0.022457   0.000592  -0.000021   0.000020   0.000003   0.000000
     9  H   -0.022457   0.000591  -0.000021   0.000020   0.000003   0.000000
    10  H   -0.021413  -0.002383   0.000010  -0.000052   0.000526  -0.000001
    11  C    0.001505   0.000790  -0.010248   0.365076  -0.000007  -0.001093
    12  O   -0.000014  -0.000003   0.000189  -0.026217   0.000000   0.000002
    13  C   -0.000019  -0.000010  -0.001042  -0.039429   0.000000   0.000365
    14  H    0.000001   0.000004  -0.000115  -0.000184   0.000000   0.000035
    15  H    0.000001   0.000004  -0.000115  -0.000184   0.000000   0.000035
    16  C    0.000000   0.000000   0.000010   0.000637   0.000000  -0.000005
    17  H    0.000000   0.000000   0.000000  -0.000012   0.000000   0.000001
    18  H    0.000000   0.000000   0.000000   0.000031   0.000000   0.000000
    19  H    0.000000   0.000000   0.000000   0.000031   0.000000   0.000000
    20  S    0.494364  -0.074106  -0.073873   0.476454   0.002407   0.002288
               7          8          9         10         11         12
     1  C    0.366805  -0.022457  -0.022457  -0.021413   0.001505  -0.000014
     2  C   -0.012780   0.000592   0.000591  -0.002383   0.000790  -0.000003
     3  C    0.000952  -0.000021  -0.000021   0.000010  -0.010248   0.000189
     4  C    0.001745   0.000020   0.000020  -0.000052   0.365076  -0.026217
     5  H   -0.001173   0.000003   0.000003   0.000526  -0.000007   0.000000
     6  H   -0.000010   0.000000   0.000000  -0.000001  -0.001093   0.000002
     7  C    4.814457   0.382643   0.382641   0.379962  -0.000008   0.000000
     8  H    0.382643   0.570544  -0.023128  -0.021157   0.000000   0.000000
     9  H    0.382641  -0.023128   0.570547  -0.021157   0.000000   0.000000
    10  H    0.379962  -0.021157  -0.021157   0.574045   0.000000   0.000000
    11  C   -0.000008   0.000000   0.000000   0.000000   4.607820   0.455577
    12  O    0.000000   0.000000   0.000000   0.000000   0.455577   8.023464
    13  C    0.000000   0.000000   0.000000   0.000000   0.353321  -0.026992
    14  H    0.000000   0.000000   0.000000   0.000000  -0.020051   0.000384
    15  H    0.000000   0.000000   0.000000   0.000000  -0.020051   0.000384
    16  C    0.000000   0.000000   0.000000   0.000000  -0.023510  -0.002147
    17  H    0.000000   0.000000   0.000000   0.000000   0.001522   0.000076
    18  H    0.000000   0.000000   0.000000   0.000000  -0.002820   0.000940
    19  H    0.000000   0.000000   0.000000   0.000000  -0.002820   0.000940
    20  S   -0.044443  -0.003132  -0.003131   0.002188  -0.038976   0.001772
              13         14         15         16         17         18
     1  C   -0.000019   0.000001   0.000001   0.000000   0.000000   0.000000
     2  C   -0.000010   0.000004   0.000004   0.000000   0.000000   0.000000
     3  C   -0.001042  -0.000115  -0.000115   0.000010   0.000000   0.000000
     4  C   -0.039429  -0.000184  -0.000184   0.000637  -0.000012   0.000031
     5  H    0.000000   0.000000   0.000000   0.000000   0.000000   0.000000
     6  H    0.000365   0.000035   0.000035  -0.000005   0.000001   0.000000
     7  C    0.000000   0.000000   0.000000   0.000000   0.000000   0.000000
     8  H    0.000000   0.000000   0.000000   0.000000   0.000000   0.000000
     9  H    0.000000   0.000000   0.000000   0.000000   0.000000   0.000000
    10  H    0.000000   0.000000   0.000000   0.000000   0.000000   0.000000
    11  C    0.353321  -0.020051  -0.020051  -0.023510   0.001522  -0.002820
    12  O   -0.026992   0.000384   0.000384  -0.002147   0.000076   0.000940
    13  C    4.855090   0.375636   0.375635   0.360256  -0.021228  -0.022763
    14  H    0.375636   0.580201  -0.021572  -0.022307  -0.002186   0.002259
    15  H    0.375635  -0.021572   0.580204  -0.022308  -0.002186  -0.002603
    16  C    0.360256  -0.022307  -0.022308   4.828851   0.381171   0.384497
    17  H   -0.021228  -0.002186  -0.002186   0.381171   0.598903  -0.022611
    18  H   -0.022763   0.002259  -0.002603   0.384497  -0.022611   0.579796
    19  H   -0.022763  -0.002603   0.002259   0.384497  -0.022611  -0.022612
    20  S    0.000818   0.000006   0.000006  -0.000009   0.000000   0.000000
              19         20
     1  C    0.000000   0.494364
     2  C    0.000000  -0.074106
     3  C    0.000000  -0.073873
     4  C    0.000031   0.476454
     5  H    0.000000   0.002407
     6  H    0.000000   0.002288
     7  C    0.000000  -0.044443
     8  H    0.000000  -0.003132
     9  H    0.000000  -0.003131
    10  H    0.000000   0.002188
    11  C   -0.002820  -0.038976
    12  O    0.000940   0.001772
    13  C   -0.022763   0.000818
    14  H   -0.002603   0.000006
    15  H    0.002259   0.000006
    16  C    0.384497  -0.000009
    17  H   -0.022611   0.000000
    18  H   -0.022612   0.000000
    19  H    0.579795   0.000000
    20  S    0.000000  15.178676
 MBS Mulliken charges:
               1
     1  C    0.002310
     2  C   -0.146772
     3  C   -0.143547
     4  C   -0.060140
     5  H    0.112844
     6  H    0.114765
     7  C   -0.270792
     8  H    0.116093
     9  H    0.116092
    10  H    0.109430
    11  C    0.333973
    12  O   -0.428356
    13  C   -0.186875
    14  H    0.110493
    15  H    0.110491
    16  C   -0.269633
    17  H    0.089160
    18  H    0.105886
    19  H    0.105887
    20  S    0.078691
 Sum of MBS Mulliken charges =   0.00000
 MBS Mulliken charges with hydrogens summed into heavy atoms:
               1
     1  C    0.002310
     2  C   -0.033928
     3  C   -0.028782
     4  C   -0.060140
     7  C    0.070824
    11  C    0.333973
    12  O   -0.428356
    13  C    0.034108
    16  C    0.031300
    20  S    0.078691
 Breneman (CHELPG) radii used.
 Generate Potential Derived Charges using the Breneman model, NDens= 1.
 Grid spacing= 0.300 Box extension= 2.800
 NStep X,Y,Z=   50     34     26   Total possible points=       44200
 Number of Points to Fit=   13631

 **********************************************************************

            Electrostatic Properties Using The SCF Density

 **********************************************************************

       Atomic Center    1 is at   2.204327  0.097852  0.000063
       Atomic Center    2 is at   1.936904  1.451267 -0.000025
       Atomic Center    3 is at   0.495459  1.589203 -0.000010
       Atomic Center    4 is at  -0.022591  0.310462 -0.000003
       Atomic Center    5 is at   2.650501  2.269633  0.000012
       Atomic Center    6 is at  -0.050331  2.527795 -0.000068
       Atomic Center    7 is at   3.476711 -0.769696  0.000085
       Atomic Center    8 is at   3.487146 -1.387494  0.873650
       Atomic Center    9 is at   3.487345 -1.387247 -0.873653
       Atomic Center   10 is at   4.339700 -0.137122  0.000273
       Atomic Center   11 is at  -1.436128 -0.300696 -0.000008
       Atomic Center   12 is at  -1.624804 -1.513424  0.000001
       Atomic Center   13 is at  -2.597180  0.711015  0.000029
       Atomic Center   14 is at  -2.534697  1.325597  0.873691
       Atomic Center   15 is at  -2.534724  1.325630 -0.873612
       Atomic Center   16 is at  -3.938047 -0.046397  0.000036
       Atomic Center   17 is at  -4.744752  0.656545  0.000053
       Atomic Center   18 is at  -4.000526 -0.660985 -0.873622
       Atomic Center   19 is at  -4.000506 -0.661006  0.873680
       Atomic Center   20 is at   1.011409 -0.626376 -0.000089
   13631 points will be used for fitting atomic charges
 Fitting point charges to electrostatic potential
 Charges from ESP fit, RMS=   0.00315 RRMS=   0.23887:
 ESP charges:
               1
     1  C    0.296606
     2  C   -0.261451
     3  C   -0.173066
     4  C   -0.075709
     5  H    0.127792
     6  H    0.114928
     7  C   -0.377602
     8  H    0.116499
     9  H    0.116613
    10  H    0.104725
    11  C    0.496833
    12  O   -0.494255
    13  C    0.134289
    14  H   -0.026595
    15  H   -0.026604
    16  C   -0.131522
    17  H    0.025503
    18  H    0.035169
    19  H    0.035176
    20  S   -0.037328
 Sum of ESP charges =   0.00000
 ESP charges with hydrogens summed into heavy atoms:
               1
     1  C    0.296606
     2  C   -0.133658
     3  C   -0.058138
     4  C   -0.075709
     7  C   -0.039765
    11  C    0.496833
    12  O   -0.494255
    13  C    0.081090
    16  C   -0.035674
    20  S   -0.037328
 Charge=   0.00000 Dipole=     1.4615     2.4390    -0.0003 Tot=     2.8433
 -----------------------------------------------------------------

              Electrostatic Properties (Atomic Units)

 -----------------------------------------------------------------
    Center     Electric         -------- Electric Field --------
               Potential          X             Y             Z
 -----------------------------------------------------------------
    1 Atom    -14.778710
    2 Atom    -14.765554
    3 Atom    -14.761724
    4 Atom    -14.783987
    5 Atom     -1.093781
    6 Atom     -1.090372
    7 Atom    -14.764748
    8 Atom     -1.106057
    9 Atom     -1.106057
   10 Atom     -1.107639
   11 Atom    -14.673778
   12 Atom    -22.379063
   13 Atom    -14.766624
   14 Atom     -1.103812
   15 Atom     -1.103813
   16 Atom    -14.792985
   17 Atom     -1.129903
   18 Atom     -1.133195
   19 Atom     -1.133195
   20 Atom    -59.250296
 -----------------------------------------------------------------
 ******************************Gaussian NBO Version 3.1******************************
             N A T U R A L   A T O M I C   O R B I T A L   A N D
          N A T U R A L   B O N D   O R B I T A L   A N A L Y S I S
 ******************************Gaussian NBO Version 3.1******************************
       /RESON  / : Allow strongly delocalized NBO set

 Analyzing the SCF density

 Job title: Title Card Required                                             

 Storage needed:    250340 in NPA ( 536868712 available)


 NATURAL POPULATIONS:  Natural atomic orbital occupancies 
                                                          
   NAO  Atom  No  lang   Type(AO)    Occupancy      Energy
 ----------------------------------------------------------
     1    C    1  S      Cor( 1S)     1.99870     -10.02478
     2    C    1  S      Val( 2S)     0.92854      -0.20971
     3    C    1  S      Ryd( 3S)     0.00196       0.77497
     4    C    1  S      Ryd( 4S)     0.00024       1.24224
     5    C    1  S      Ryd( 5S)     0.00002      22.73107
     6    C    1  px     Val( 2p)     1.11986      -0.17471
     7    C    1  px     Ryd( 4p)     0.00638       1.13693
     8    C    1  px     Ryd( 3p)     0.00028       0.56206
     9    C    1  px     Ryd( 5p)     0.00015       3.27802
    10    C    1  py     Val( 2p)     1.15995      -0.14815
    11    C    1  py     Ryd( 4p)     0.00619       0.97700
    12    C    1  py     Ryd( 3p)     0.00032       0.57755
    13    C    1  py     Ryd( 5p)     0.00017       3.29092
    14    C    1  pz     Val( 2p)     1.18601      -0.15890
    15    C    1  pz     Ryd( 4p)     0.00354       0.57148
    16    C    1  pz     Ryd( 3p)     0.00056       0.46469
    17    C    1  pz     Ryd( 5p)     0.00008       2.62330
    18    C    1  dxy    Ryd( 3d)     0.00382       1.91018
    19    C    1  dxz    Ryd( 3d)     0.00311       1.48852
    20    C    1  dyz    Ryd( 3d)     0.00112       1.39970
    21    C    1  dx2y2  Ryd( 3d)     0.00221       1.87390
    22    C    1  dz2    Ryd( 3d)     0.00265       1.83342

    23    C    2  S      Cor( 1S)     1.99915     -10.04184
    24    C    2  S      Val( 2S)     0.95945      -0.17449
    25    C    2  S      Ryd( 4S)     0.00133       0.79425
    26    C    2  S      Ryd( 3S)     0.00024       0.58058
    27    C    2  S      Ryd( 5S)     0.00001      23.22385
    28    C    2  px     Val( 2p)     1.08894      -0.06576
    29    C    2  px     Ryd( 4p)     0.00483       0.90618
    30    C    2  px     Ryd( 3p)     0.00055       0.42429
    31    C    2  px     Ryd( 5p)     0.00010       3.04521
    32    C    2  py     Val( 2p)     1.09656      -0.05637
    33    C    2  py     Ryd( 4p)     0.00438       0.93726
    34    C    2  py     Ryd( 3p)     0.00039       0.42331
    35    C    2  py     Ryd( 5p)     0.00016       3.09294
    36    C    2  pz     Val( 2p)     1.06771      -0.12055
    37    C    2  pz     Ryd( 4p)     0.00214       0.51936
    38    C    2  pz     Ryd( 3p)     0.00055       0.28044
    39    C    2  pz     Ryd( 5p)     0.00003       2.69259
    40    C    2  dxy    Ryd( 3d)     0.00077       2.55133
    41    C    2  dxz    Ryd( 3d)     0.00065       1.63179
    42    C    2  dyz    Ryd( 3d)     0.00054       1.82907
    43    C    2  dx2y2  Ryd( 3d)     0.00069       2.76200
    44    C    2  dz2    Ryd( 3d)     0.00033       2.18812

    45    C    3  S      Cor( 1S)     1.99917     -10.04639
    46    C    3  S      Val( 2S)     0.95841      -0.17879
    47    C    3  S      Ryd( 4S)     0.00163       0.73555
    48    C    3  S      Ryd( 3S)     0.00023       0.56424
    49    C    3  S      Ryd( 5S)     0.00001      23.24501
    50    C    3  px     Val( 2p)     1.06276      -0.06514
    51    C    3  px     Ryd( 4p)     0.00400       0.87051
    52    C    3  px     Ryd( 3p)     0.00068       0.49694
    53    C    3  px     Ryd( 5p)     0.00014       3.10218
    54    C    3  py     Val( 2p)     1.11967      -0.05768
    55    C    3  py     Ryd( 4p)     0.00435       0.98004
    56    C    3  py     Ryd( 3p)     0.00045       0.39515
    57    C    3  py     Ryd( 5p)     0.00017       3.10069
    58    C    3  pz     Val( 2p)     1.05212      -0.12254
    59    C    3  pz     Ryd( 4p)     0.00217       0.50439
    60    C    3  pz     Ryd( 3p)     0.00056       0.30886
    61    C    3  pz     Ryd( 5p)     0.00003       2.70340
    62    C    3  dxy    Ryd( 3d)     0.00076       2.62779
    63    C    3  dxz    Ryd( 3d)     0.00071       1.63712
    64    C    3  dyz    Ryd( 3d)     0.00051       1.81791
    65    C    3  dx2y2  Ryd( 3d)     0.00068       2.70316
    66    C    3  dz2    Ryd( 3d)     0.00032       2.21166

    67    C    4  S      Cor( 1S)     1.99858     -10.01931
    68    C    4  S      Val( 2S)     0.94469      -0.20937
    69    C    4  S      Ryd( 3S)     0.00311       0.76277
    70    C    4  S      Ryd( 4S)     0.00028       1.01841
    71    C    4  S      Ryd( 5S)     0.00003      23.05127
    72    C    4  px     Val( 2p)     1.15734      -0.17751
    73    C    4  px     Ryd( 4p)     0.00623       1.19217
    74    C    4  px     Ryd( 3p)     0.00029       0.66678
    75    C    4  px     Ryd( 5p)     0.00017       3.30409
    76    C    4  py     Val( 2p)     1.16806      -0.17147
    77    C    4  py     Ryd( 4p)     0.00881       1.19520
    78    C    4  py     Ryd( 3p)     0.00018       0.61251
    79    C    4  py     Ryd( 5p)     0.00020       3.31481
    80    C    4  pz     Val( 2p)     1.24955      -0.16618
    81    C    4  pz     Ryd( 4p)     0.00230       0.57258
    82    C    4  pz     Ryd( 3p)     0.00073       0.39205
    83    C    4  pz     Ryd( 5p)     0.00006       2.74907
    84    C    4  dxy    Ryd( 3d)     0.00490       2.03282
    85    C    4  dxz    Ryd( 3d)     0.00212       1.44081
    86    C    4  dyz    Ryd( 3d)     0.00154       1.44033
    87    C    4  dx2y2  Ryd( 3d)     0.00131       1.81499
    88    C    4  dz2    Ryd( 3d)     0.00271       1.82639

    89    H    5  S      Val( 1S)     0.78073       0.04461
    90    H    5  S      Ryd( 2S)     0.00051       0.89193
    91    H    5  S      Ryd( 3S)     0.00023       1.72732
    92    H    5  px     Ryd( 2p)     0.00027       2.28199
    93    H    5  py     Ryd( 2p)     0.00036       2.41495
    94    H    5  pz     Ryd( 2p)     0.00022       1.59779

    95    H    6  S      Val( 1S)     0.77947       0.04348
    96    H    6  S      Ryd( 2S)     0.00060       0.81424
    97    H    6  S      Ryd( 3S)     0.00024       1.80143
    98    H    6  px     Ryd( 2p)     0.00019       2.14766
    99    H    6  py     Ryd( 2p)     0.00043       2.56615
   100    H    6  pz     Ryd( 2p)     0.00023       1.59745

   101    C    7  S      Cor( 1S)     1.99932     -10.03631
   102    C    7  S      Val( 2S)     1.07654      -0.24914
   103    C    7  S      Ryd( 4S)     0.00061       0.90537
   104    C    7  S      Ryd( 3S)     0.00015       0.53860
   105    C    7  S      Ryd( 5S)     0.00000      23.43118
   106    C    7  px     Val( 2p)     1.09340      -0.10208
   107    C    7  px     Ryd( 4p)     0.00258       0.58667
   108    C    7  px     Ryd( 3p)     0.00024       0.18724
   109    C    7  px     Ryd( 5p)     0.00010       3.07519
   110    C    7  py     Val( 2p)     1.16284      -0.10268
   111    C    7  py     Ryd( 4p)     0.00224       0.54635
   112    C    7  py     Ryd( 3p)     0.00010       0.19259
   113    C    7  py     Ryd( 5p)     0.00007       3.10175
   114    C    7  pz     Val( 2p)     1.21755      -0.10567
   115    C    7  pz     Ryd( 4p)     0.00118       0.52390
   116    C    7  pz     Ryd( 3p)     0.00006       0.16278
   117    C    7  pz     Ryd( 5p)     0.00005       3.12914
   118    C    7  dxy    Ryd( 3d)     0.00070       2.45755
   119    C    7  dxz    Ryd( 3d)     0.00037       1.83815
   120    C    7  dyz    Ryd( 3d)     0.00115       2.26558
   121    C    7  dx2y2  Ryd( 3d)     0.00043       2.06205
   122    C    7  dz2    Ryd( 3d)     0.00061       2.19032

   123    H    8  S      Val( 1S)     0.78727       0.03398
   124    H    8  S      Ryd( 2S)     0.00067       0.98963
   125    H    8  S      Ryd( 3S)     0.00012       1.75684
   126    H    8  px     Ryd( 2p)     0.00018       1.74251
   127    H    8  py     Ryd( 2p)     0.00018       2.12137
   128    H    8  pz     Ryd( 2p)     0.00024       2.41398

   129    H    9  S      Val( 1S)     0.78727       0.03398
   130    H    9  S      Ryd( 2S)     0.00067       0.98945
   131    H    9  S      Ryd( 3S)     0.00012       1.75703
   132    H    9  px     Ryd( 2p)     0.00018       1.74251
   133    H    9  py     Ryd( 2p)     0.00018       2.12109
   134    H    9  pz     Ryd( 2p)     0.00024       2.41422

   135    H   10  S      Val( 1S)     0.78712       0.03590
   136    H   10  S      Ryd( 2S)     0.00041       0.75772
   137    H   10  S      Ryd( 3S)     0.00010       1.95424
   138    H   10  px     Ryd( 2p)     0.00027       2.40221
   139    H   10  py     Ryd( 2p)     0.00020       2.09368
   140    H   10  pz     Ryd( 2p)     0.00009       1.75662

   141    C   11  S      Cor( 1S)     1.99942     -10.15947
   142    C   11  S      Val( 2S)     0.86105      -0.19139
   143    C   11  S      Ryd( 3S)     0.00576       0.79918
   144    C   11  S      Ryd( 4S)     0.00022       0.86206
   145    C   11  S      Ryd( 5S)     0.00003      22.96489
   146    C   11  px     Val( 2p)     0.96616      -0.05488
   147    C   11  px     Ryd( 4p)     0.00525       1.19145
   148    C   11  px     Ryd( 3p)     0.00043       0.55292
   149    C   11  px     Ryd( 5p)     0.00012       2.67295
   150    C   11  py     Val( 2p)     0.81441      -0.01678
   151    C   11  py     Ryd( 4p)     0.01888       0.96922
   152    C   11  py     Ryd( 3p)     0.00057       0.44874
   153    C   11  py     Ryd( 5p)     0.00005       2.88311
   154    C   11  pz     Val( 2p)     0.72591      -0.12547
   155    C   11  pz     Ryd( 4p)     0.00098       0.65683
   156    C   11  pz     Ryd( 3p)     0.00055       0.34722
   157    C   11  pz     Ryd( 5p)     0.00005       2.54422
   158    C   11  dxy    Ryd( 3d)     0.00342       2.51016
   159    C   11  dxz    Ryd( 3d)     0.00064       1.65956
   160    C   11  dyz    Ryd( 3d)     0.00348       1.65912
   161    C   11  dx2y2  Ryd( 3d)     0.00166       2.61240
   162    C   11  dz2    Ryd( 3d)     0.00038       2.06167

   163    O   12  S      Cor( 1S)     1.99976     -18.85624
   164    O   12  S      Val( 2S)     1.70159      -0.90081
   165    O   12  S      Ryd( 3S)     0.00195       1.16994
   166    O   12  S      Ryd( 4S)     0.00009       1.37171
   167    O   12  S      Ryd( 5S)     0.00000      49.70202
   168    O   12  px     Val( 2p)     1.86448      -0.27265
   169    O   12  px     Ryd( 3p)     0.00393       0.79192
   170    O   12  px     Ryd( 4p)     0.00021       0.98263
   171    O   12  px     Ryd( 5p)     0.00001       5.04971
   172    O   12  py     Val( 2p)     1.59529      -0.31333
   173    O   12  py     Ryd( 3p)     0.00080       0.64305
   174    O   12  py     Ryd( 4p)     0.00021       1.08585
   175    O   12  py     Ryd( 5p)     0.00008       5.11537
   176    O   12  pz     Val( 2p)     1.39376      -0.25662
   177    O   12  pz     Ryd( 3p)     0.00061       0.59645
   178    O   12  pz     Ryd( 4p)     0.00007       0.97366
   179    O   12  pz     Ryd( 5p)     0.00004       4.87438
   180    O   12  dxy    Ryd( 3d)     0.00132       3.26396
   181    O   12  dxz    Ryd( 3d)     0.00006       2.84464
   182    O   12  dyz    Ryd( 3d)     0.00163       3.08415
   183    O   12  dx2y2  Ryd( 3d)     0.00147       3.51027
   184    O   12  dz2    Ryd( 3d)     0.00043       3.09594

   185    C   13  S      Cor( 1S)     1.99922     -10.03925
   186    C   13  S      Val( 2S)     1.04982      -0.24359
   187    C   13  S      Ryd( 3S)     0.00115       0.93084
   188    C   13  S      Ryd( 4S)     0.00053       0.93093
   189    C   13  S      Ryd( 5S)     0.00000      23.24217
   190    C   13  px     Val( 2p)     1.05967      -0.09932
   191    C   13  px     Ryd( 4p)     0.00154       0.65292
   192    C   13  px     Ryd( 3p)     0.00054       0.41479
   193    C   13  px     Ryd( 5p)     0.00020       3.05987
   194    C   13  py     Val( 2p)     1.14037      -0.10337
   195    C   13  py     Ryd( 4p)     0.00162       0.53274
   196    C   13  py     Ryd( 3p)     0.00024       0.30849
   197    C   13  py     Ryd( 5p)     0.00007       3.07686
   198    C   13  pz     Val( 2p)     1.20637      -0.09544
   199    C   13  pz     Ryd( 4p)     0.00118       0.60658
   200    C   13  pz     Ryd( 3p)     0.00020       0.21060
   201    C   13  pz     Ryd( 5p)     0.00006       3.14627
   202    C   13  dxy    Ryd( 3d)     0.00089       2.26464
   203    C   13  dxz    Ryd( 3d)     0.00029       1.77844
   204    C   13  dyz    Ryd( 3d)     0.00108       2.27532
   205    C   13  dx2y2  Ryd( 3d)     0.00049       2.04985
   206    C   13  dz2    Ryd( 3d)     0.00068       2.18472

   207    H   14  S      Val( 1S)     0.78281       0.03390
   208    H   14  S      Ryd( 2S)     0.00131       0.68153
   209    H   14  S      Ryd( 3S)     0.00012       2.15075
   210    H   14  px     Ryd( 2p)     0.00017       1.77153
   211    H   14  py     Ryd( 2p)     0.00018       2.13950
   212    H   14  pz     Ryd( 2p)     0.00025       2.43356

   213    H   15  S      Val( 1S)     0.78282       0.03390
   214    H   15  S      Ryd( 2S)     0.00131       0.68154
   215    H   15  S      Ryd( 3S)     0.00012       2.15075
   216    H   15  px     Ryd( 2p)     0.00017       1.77154
   217    H   15  py     Ryd( 2p)     0.00018       2.13954
   218    H   15  pz     Ryd( 2p)     0.00025       2.43353

   219    C   16  S      Cor( 1S)     1.99936     -10.00861
   220    C   16  S      Val( 2S)     1.07804      -0.23213
   221    C   16  S      Ryd( 4S)     0.00081       0.78196
   222    C   16  S      Ryd( 3S)     0.00031       0.70397
   223    C   16  S      Ryd( 5S)     0.00000      23.33580
   224    C   16  px     Val( 2p)     1.08689      -0.07955
   225    C   16  px     Ryd( 4p)     0.00228       0.61497
   226    C   16  px     Ryd( 3p)     0.00031       0.18743
   227    C   16  px     Ryd( 5p)     0.00009       3.10390
   228    C   16  py     Val( 2p)     1.17029      -0.07784
   229    C   16  py     Ryd( 4p)     0.00185       0.57434
   230    C   16  py     Ryd( 3p)     0.00018       0.20926
   231    C   16  py     Ryd( 5p)     0.00005       3.15108
   232    C   16  pz     Val( 2p)     1.22107      -0.08334
   233    C   16  pz     Ryd( 4p)     0.00098       0.50173
   234    C   16  pz     Ryd( 3p)     0.00007       0.20809
   235    C   16  pz     Ryd( 5p)     0.00002       3.15623
   236    C   16  dxy    Ryd( 3d)     0.00082       2.31229
   237    C   16  dxz    Ryd( 3d)     0.00010       1.83226
   238    C   16  dyz    Ryd( 3d)     0.00106       2.28061
   239    C   16  dx2y2  Ryd( 3d)     0.00030       1.95869
   240    C   16  dz2    Ryd( 3d)     0.00067       2.16947

   241    H   17  S      Val( 1S)     0.80543       0.04721
   242    H   17  S      Ryd( 2S)     0.00062       0.64951
   243    H   17  S      Ryd( 3S)     0.00011       2.09172
   244    H   17  px     Ryd( 2p)     0.00026       2.30885
   245    H   17  py     Ryd( 2p)     0.00021       2.16086
   246    H   17  pz     Ryd( 2p)     0.00007       1.77611

   247    H   18  S      Val( 1S)     0.79336       0.05674
   248    H   18  S      Ryd( 2S)     0.00089       0.82051
   249    H   18  S      Ryd( 3S)     0.00013       1.96786
   250    H   18  px     Ryd( 2p)     0.00014       1.77307
   251    H   18  py     Ryd( 2p)     0.00017       2.09056
   252    H   18  pz     Ryd( 2p)     0.00023       2.44033

   253    H   19  S      Val( 1S)     0.79336       0.05674
   254    H   19  S      Ryd( 2S)     0.00089       0.82052
   255    H   19  S      Ryd( 3S)     0.00013       1.96785
   256    H   19  px     Ryd( 2p)     0.00014       1.77307
   257    H   19  py     Ryd( 2p)     0.00017       2.09059
   258    H   19  pz     Ryd( 2p)     0.00023       2.44032

   259    S   20  S      Cor( 1S)     2.00000     -87.56248
   260    S   20  S      Cor( 2S)     1.99800      -8.75542
   261    S   20  S      Val( 3S)     1.29765      -0.57305
   262    S   20  S      Ryd( 4S)     0.02138       0.71293
   263    S   20  S      Ryd( 5S)     0.00032       1.52711
   264    S   20  S      Ryd( 6S)     0.00002      12.36185
   265    S   20  S      Ryd( 7S)     0.00000     184.00313
   266    S   20  px     Cor( 2p)     1.99942      -5.89189
   267    S   20  px     Val( 3p)     0.89568      -0.10679
   268    S   20  px     Ryd( 4p)     0.00667       0.90547
   269    S   20  px     Ryd( 5p)     0.00068       0.93694
   270    S   20  px     Ryd( 6p)     0.00027       1.02742
   271    S   20  px     Ryd( 7p)     0.00000      17.66229
   272    S   20  py     Cor( 2p)     1.99956      -5.89194
   273    S   20  py     Val( 3p)     1.52740      -0.20631
   274    S   20  py     Ryd( 4p)     0.00603       0.65515
   275    S   20  py     Ryd( 6p)     0.00044       0.97360
   276    S   20  py     Ryd( 5p)     0.00050       0.77303
   277    S   20  py     Ryd( 7p)     0.00001      17.46471
   278    S   20  pz     Cor( 2p)     1.99965      -5.89611
   279    S   20  pz     Val( 3p)     1.30460      -0.22502
   280    S   20  pz     Ryd( 4p)     0.00656       0.47751
   281    S   20  pz     Ryd( 6p)     0.00017       1.00844
   282    S   20  pz     Ryd( 5p)     0.00018       0.62849
   283    S   20  pz     Ryd( 7p)     0.00000      17.25261
   284    S   20  dxy    Ryd( 3d)     0.01328       1.64063
   285    S   20  dxz    Ryd( 3d)     0.01769       0.93296
   286    S   20  dyz    Ryd( 3d)     0.00757       0.89352
   287    S   20  dx2y2  Ryd( 3d)     0.00698       1.19605
   288    S   20  dz2    Ryd( 3d)     0.00674       1.17131

 WARNING:  1 low occupancy (<1.9990e) core orbital  found on  C    1
           1 low occupancy (<1.9990e) core orbital  found on  C    4
           1 low occupancy (<1.9990e) core orbital  found on  S   20

 WARNING:  Population inversion found on atom  C    1
           Population inversion found on atom  C    2
           Population inversion found on atom  C    3
           Population inversion found on atom  C    4
           Population inversion found on atom  C    7
           Population inversion found on atom  C   11
           Population inversion found on atom  C   13
           Population inversion found on atom  C   16


 Summary of Natural Population Analysis:                  
                                                          
                                       Natural Population 
                Natural  -----------------------------------------------
    Atom  No    Charge         Core      Valence    Rydberg      Total
 -----------------------------------------------------------------------
      C    1   -0.42583      1.99870     4.39435    0.03278     6.42583
      C    2   -0.22948      1.99915     4.21265    0.01769     6.22948
      C    3   -0.20955      1.99917     4.19297    0.01741     6.20955
      C    4   -0.55318      1.99858     4.51963    0.03496     6.55318
      H    5    0.21768      0.00000     0.78073    0.00159     0.78232
      H    6    0.21884      0.00000     0.77947    0.00169     0.78116
      C    7   -0.56030      1.99932     4.55033    0.01065     6.56030
      H    8    0.21134      0.00000     0.78727    0.00139     0.78866
      H    9    0.21134      0.00000     0.78727    0.00139     0.78866
      H   10    0.21181      0.00000     0.78712    0.00106     0.78819
      C   11    0.59056      1.99942     3.36754    0.04247     5.40944
      O   12   -0.56779      1.99976     6.55512    0.01291     8.56779
      C   13   -0.46620      1.99922     4.45622    0.01076     6.46620
      H   14    0.21516      0.00000     0.78281    0.00202     0.78484
      H   15    0.21516      0.00000     0.78282    0.00202     0.78484
      C   16   -0.56552      1.99936     4.55629    0.00987     6.56552
      H   17    0.19329      0.00000     0.80543    0.00128     0.80671
      H   18    0.20507      0.00000     0.79336    0.00157     0.79493
      H   19    0.20507      0.00000     0.79336    0.00157     0.79493
      S   20    0.88253      9.99664     5.02532    0.09551    15.11747
 =======================================================================
   * Total *    0.00000     27.98932    53.71006    0.30062    82.00000

                                 Natural Population      
 --------------------------------------------------------
   Core                      27.98932 ( 99.9619% of  28)
   Valence                   53.71006 ( 99.4631% of  54)
   Natural Minimal Basis     81.69938 ( 99.6334% of  82)
   Natural Rydberg Basis      0.30062 (  0.3666% of  82)
 --------------------------------------------------------

    Atom  No          Natural Electron Configuration
 ----------------------------------------------------------------------------
      C    1      [core]2S( 0.93)2p( 3.47)3d( 0.01)4p( 0.02)
      C    2      [core]2S( 0.96)2p( 3.25)4p( 0.01)
      C    3      [core]2S( 0.96)2p( 3.23)4p( 0.01)
      C    4      [core]2S( 0.94)2p( 3.57)3d( 0.01)4p( 0.02)
      H    5            1S( 0.78)
      H    6            1S( 0.78)
      C    7      [core]2S( 1.08)2p( 3.47)4p( 0.01)
      H    8            1S( 0.79)
      H    9            1S( 0.79)
      H   10            1S( 0.79)
      C   11      [core]2S( 0.86)2p( 2.51)3S( 0.01)3d( 0.01)4p( 0.03)
      O   12      [core]2S( 1.70)2p( 4.85)3p( 0.01)
      C   13      [core]2S( 1.05)2p( 3.41)
      H   14            1S( 0.78)
      H   15            1S( 0.78)
      C   16      [core]2S( 1.08)2p( 3.48)4p( 0.01)
      H   17            1S( 0.81)
      H   18            1S( 0.79)
      H   19            1S( 0.79)
      S   20      [core]3S( 1.30)3p( 3.73)4S( 0.02)3d( 0.05)4p( 0.02)


 NBO analysis skipped by request.
 Calling FoFJK, ICntrl=      2127 FMM=F ISym2X=0 I1Cent= 0 IOpClX= 0 NMat=1 NMatS=1 NMatT=0.
 ***** Axes restored to original set *****
 -------------------------------------------------------------------
 Center     Atomic                   Forces (Hartrees/Bohr)
 Number     Number              X              Y              Z
 -------------------------------------------------------------------
      1        6          -0.303025216   -0.187554036    0.005167122
      2        6           0.031298028   -0.039877330    0.000228836
      3        6          -0.029416193   -0.042665660    0.000804435
      4        6           0.326034090   -0.177109862   -0.000772776
      5        1           0.001790225    0.002758175   -0.000051735
      6        1          -0.002139890    0.002876317   -0.000013208
      7        6           0.011071897   -0.029965673    0.000274605
      8        1          -0.003570427    0.008458804    0.011182994
      9        1          -0.003781519    0.008173142   -0.011326611
     10        1          -0.013351127   -0.006992173    0.000213284
     11        6           0.003828302   -0.014731244    0.000153681
     12        8          -0.005395583   -0.026938445    0.000386414
     13        6           0.003807886    0.039157723   -0.000529144
     14        1          -0.003996219   -0.012239388    0.011677886
     15        1          -0.004207225   -0.012528710   -0.011290562
     16        6          -0.015102687   -0.015616684    0.000335657
     17        1           0.013991539   -0.007353507   -0.000036275
     18        1           0.002278531    0.009979648   -0.010075261
     19        1           0.002461181    0.010229473    0.009777292
     20       16          -0.012575591    0.491939431   -0.006106633
 -------------------------------------------------------------------
 Cartesian Forces:  Max     0.491939431 RMS     0.092925953

 GradGradGradGradGradGradGradGradGradGradGradGradGradGradGradGradGradGrad
 Berny optimization.
 FormGI is forming the generalized inverse of G from B-inverse, IUseBI=4.
 Internal  Forces:  Max     0.371366718 RMS     0.057334559
 Search for a local minimum.
 Step number   1 out of a maximum of  105
 All quantities printed in internal units (Hartrees-Bohrs-Radians)
 Mixed Optimization -- RFO/linear search
 Second derivative matrix not updated -- first step.
 ITU=  0
     Eigenvalues ---    0.00237   0.00237   0.00237   0.00237   0.00237
     Eigenvalues ---    0.01557   0.01764   0.01887   0.02070   0.02544
     Eigenvalues ---    0.04356   0.04577   0.05410   0.05720   0.05720
     Eigenvalues ---    0.07243   0.07243   0.08669   0.12376   0.16000
     Eigenvalues ---    0.16000   0.16000   0.16000   0.16000   0.16000
     Eigenvalues ---    0.16000   0.16000   0.21983   0.22869   0.24724
     Eigenvalues ---    0.25000   0.25000   0.25000   0.25000   0.28519
     Eigenvalues ---    0.28519   0.28519   0.28519   0.35304   0.35309
     Eigenvalues ---    0.37077   0.37230   0.37230   0.37230   0.37230
     Eigenvalues ---    0.37230   0.37230   0.37230   0.37230   0.44632
     Eigenvalues ---    0.48822   0.92213   1.14793   1.18917
 RFO step:  Lambda=-2.37851800D-01 EMin= 2.36824023D-03
 Linear search not attempted -- first point.
 Maximum step size (   0.300) exceeded in Quadratic search.
    -- Step size scaled by   0.680
 Iteration  1 RMS(Cart)=  0.11328550 RMS(Int)=  0.00273170
 Iteration  2 RMS(Cart)=  0.00588598 RMS(Int)=  0.00038684
 Iteration  3 RMS(Cart)=  0.00000751 RMS(Int)=  0.00038683
 Iteration  4 RMS(Cart)=  0.00000000 RMS(Int)=  0.00038683
 Variable       Old X    -DE/DX   Delta X   Delta X   Delta X     New X
                                 (Linear)    (Quad)   (Total)
    R1        2.60703   0.04984   0.00000   0.03693   0.03662   2.64365
    R2        2.91018  -0.00112   0.00000  -0.00146  -0.00146   2.90872
    R3        2.63721   0.36225   0.00000   0.17817   0.17899   2.81619
    R4        2.73638   0.01176   0.00000  -0.02486  -0.02589   2.71049
    R5        2.05185  -0.00329   0.00000  -0.00378  -0.00378   2.04806
    R6        2.60724   0.04909   0.00000   0.03692   0.03658   2.64382
    R7        2.05176  -0.00359   0.00000  -0.00413  -0.00413   2.04763
    R8        2.91018  -0.01681   0.00000  -0.02187  -0.02187   2.88831
    R9        2.63671   0.37137   0.00000   0.18234   0.18314   2.81984
   R10        2.02201   0.01422   0.00000   0.01585   0.01585   2.03786
   R11        2.02201   0.01422   0.00000   0.01585   0.01585   2.03786
   R12        2.02201   0.01458   0.00000   0.01626   0.01626   2.03827
   R13        2.31929  -0.02717   0.00000  -0.01594  -0.01594   2.30336
   R14        2.91018  -0.00729   0.00000  -0.00949  -0.00949   2.90069
   R15        2.02201   0.01652   0.00000   0.01842   0.01842   2.04043
   R16        2.02201   0.01652   0.00000   0.01842   0.01842   2.04043
   R17        2.91018   0.00135   0.00000   0.00175   0.00175   2.91193
   R18        2.02201   0.01568   0.00000   0.01748   0.01748   2.03949
   R19        2.02201   0.01393   0.00000   0.01554   0.01554   2.03754
   R20        2.02201   0.01393   0.00000   0.01554   0.01554   2.03754
    A1        2.36430  -0.02925   0.00000  -0.04773  -0.04789   2.31641
    A2        1.92135  -0.00528   0.00000   0.00650   0.00682   1.92817
    A3        1.99754   0.03453   0.00000   0.04122   0.04106   2.03860
    A4        1.86128   0.07063   0.00000   0.03460   0.03318   1.89446
    A5        2.22940  -0.03543   0.00000  -0.01750  -0.01680   2.21260
    A6        2.19251  -0.03519   0.00000  -0.01709  -0.01639   2.17612
    A7        1.86031   0.06822   0.00000   0.03202   0.03057   1.89088
[...]
 2372,-0.00005551,-0.00005433,-0.00441825,-0.00001080,-0.00000016,0.000
 42701,0.00024307,-0.00056776,0.53210867,-0.01213473,0.02009142,0.02541
 155,-0.00188728,-0.00180254,0.00032701,-0.00095524,-0.00006045,-0.0010
 9632,-0.00180831,0.00138619,-0.00035655,0.00006160,0.00007949,0.000424
 19,-0.00030287,-0.00008489,-0.00011366,-0.06252856,0.03443048,0.055455
 56,0.07140621,0.00376677,-0.00425146,-0.00252386,0.00134522,0.00073703
 ,-0.00014689,-0.00010018,-0.00027674,0.00080393,-0.00027822,0.00041658
 ,0.00015179,-0.00010031,0.00019838,-0.00055702,0.00008345,0.00000725,-
 0.00004765,0.03342703,-0.11793133,-0.11140638,-0.04074155,0.12562024,0
 .00090433,0.00172035,0.00336565,-0.00074154,0.00066451,-0.00031745,-0.
 00014275,0.00034684,-0.00022856,0.00061578,-0.00008680,0.00013211,-0.0
 0001983,0.00002680,0.00009315,-0.00001742,0.00003861,0.00000938,0.0546
 2315,-0.11180322,-0.21424268,-0.05997969,0.12277043,0.23152364,-0.0126
 2341,0.01941420,-0.02561067,-0.00187808,-0.00182020,-0.00025241,-0.000
 93246,-0.00003991,0.00111082,-0.00181143,0.00139560,0.00035773,0.00005
 389,0.00006814,-0.00042548,-0.00030012,-0.00008235,0.00012146,-0.06463
 909,0.03503647,-0.05915610,0.00215416,-0.00498676,0.00626955,0.0737064
 3,0.00379411,-0.00422774,0.00265097,0.00136568,0.00072054,0.00009532,-
 0.00011095,-0.00030494,-0.00080007,-0.00029812,0.00041617,-0.00015286,
 -0.00008911,0.00021185,0.00055583,0.00008457,0.00000704,0.00004601,0.0
 3404774,-0.11240328,0.10824751,-0.00541182,0.00964219,-0.01454985,-0.0
 4143023,0.11954158,-0.00070219,-0.00189550,0.00383470,0.00073724,-0.00
 065320,-0.00031233,0.00015786,-0.00034514,-0.00022315,-0.00056908,0.00
 005189,0.00013853,0.00002235,-0.00003149,0.00008742,0.00002137,-0.0000
 3644,0.00000661,-0.05829853,0.10862469,-0.21765788,-0.00658733,0.01385
 154,-0.02200485,0.06399708,-0.11922262,0.23530073,-0.01871302,-0.02971
 258,0.00053592,0.00221716,-0.00086873,-0.00001161,-0.00023009,-0.00012
 157,0.00000069,-0.00083586,-0.00158846,0.00003405,-0.00018223,0.001053
 21,-0.00000816,0.00011210,0.00005848,-0.00000241,-0.10949239,-0.111344
 10,0.00199020,0.00436382,0.00799529,-0.00139988,0.00464464,0.00845110,
 0.00112720,0.12222688,0.00296308,0.00564033,-0.00011271,0.00118936,0.0
 0080765,-0.00002358,-0.00032853,0.00034675,-0.00000542,0.00059268,0.00
 002897,0.00000272,-0.00031368,0.00029923,0.00000370,-0.00002493,0.0000
 1183,-0.00000076,-0.11455668,-0.24937259,0.00362037,-0.00738998,-0.014
 01769,0.00121533,-0.00705950,-0.01346794,-0.00071247,0.12290050,0.2688
 5198,0.00012492,0.00019036,-0.00120371,-0.00003706,-0.00000457,-0.0001
 6486,0.00000281,-0.00000790,-0.00038317,0.00000574,0.00002228,0.000621
 18,0.00000911,-0.00000890,0.00036689,-0.00000127,-0.00000143,-0.000054
 15,0.00203111,0.00359132,-0.04571949,-0.01379621,-0.02276888,0.0013219
 9,0.01391084,0.02298427,0.00049087,-0.00226576,-0.00395938,0.04443609,
 0.00110231,0.01633932,-0.00021938,0.01510273,-0.00669880,0.00000603,-0
 .01041358,-0.02042967,0.00032107,-0.20167186,-0.01453524,0.00144390,0.
 00159596,0.00007863,-0.00000176,-0.00005426,0.00151399,-0.00005591,-0.
 00038240,-0.00301059,0.00005858,0.00110083,0.00000950,-0.00031720,0.00
 111139,0.00002141,0.00029367,-0.00026361,0.00026104,0.00000124,0.50841
 525,0.00634656,0.00015204,-0.00006239,0.00456352,-0.01000086,0.0001674
 2,-0.03249747,-0.01201356,0.00040934,-0.00993567,-0.08422276,0.0003369
 6,-0.00062995,0.00021395,0.00002121,0.00021675,0.00011090,-0.00005494,
 0.00086191,0.00028984,0.00000692,0.00041253,0.00017678,-0.00008035,0.0
 0042255,0.00018087,0.00006954,0.00059210,0.00007228,-0.00000415,0.0563
 1263,0.86895555,-0.00009195,-0.00014912,-0.00014000,-0.00013580,0.0002
 6717,0.00672728,0.00047341,0.00029925,-0.00339602,0.00138349,0.0003791
 8,-0.06474874,0.00000702,0.00001522,0.00144382,-0.00004050,-0.00006743
 ,-0.00411137,0.00000701,0.00004429,0.00149291,-0.00035413,-0.00009900,
 0.00005973,0.00032420,0.00009502,0.00004348,-0.00000398,-0.00000188,0.
 00018233,-0.00339239,-0.00882608,0.21744033,0.00122191,-0.00440688,0.0
 0005357,-0.00494148,-0.00123775,0.00004336,-0.00359162,0.00476988,0.00
 001345,-0.01215291,-0.05942713,0.00104076,-0.00083679,-0.00025818,0.00
 000377,0.00007268,-0.00059349,0.00001163,0.00033653,0.00017125,-0.0000
 0472,-0.00022910,0.00010992,0.00009054,-0.00023064,0.00010652,-0.00008
 857,-0.00005855,-0.00009293,0.00000155,-0.11579763,-0.09445015,0.00163
 842,0.12098869,-0.00159586,-0.00838122,0.00013133,-0.00788171,0.004664
 40,-0.00000940,0.00405825,0.01223547,-0.00013761,-0.04983077,-0.056278
 03,0.00141188,-0.00093956,0.00014405,-0.00000257,0.00057454,0.00039067
 ,-0.00000314,-0.00013495,0.00152334,-0.00001637,-0.00054821,-0.0000724
 4,0.00013994,-0.00055087,-0.00007669,-0.00012811,0.00012575,-0.0000783
 9,-0.00000027,-0.07223477,-0.65670717,0.00816786,0.11623742,0.76073237
 ,0.00001725,0.00015860,0.00097030,0.00012806,-0.00007015,-0.00188372,0
 .00002251,-0.00014558,0.00427551,0.00091812,0.00150249,0.01881139,0.00
 001261,-0.00000893,-0.00075879,-0.00000337,0.00000697,0.00050580,-0.00
 000063,-0.00001968,0.00009252,0.00000063,0.00005752,0.00001302,0.00001
 775,-0.00005722,0.00001932,-0.00000114,0.00000172,-0.00001290,0.001356
 63,0.00837192,-0.06881956,-0.00234849,-0.01043420,0.02686239,-0.001341
 29,0.00102611,0.00000157,0.00012722,0.00026626,-0.00001899,-0.00165564
 ,0.00040302,0.00000798,-0.02337898,0.01624227,0.00012963,-0.00006119,-
 0.00008396,0.00000062,-0.00067026,0.00010967,0.00002171,-0.00004287,-0
 .00039575,0.00000367,-0.00002127,0.00002217,0.00001243,-0.00002209,0.0
 0002223,-0.00001309,-0.00017039,-0.00000903,0.00000130,-0.14769830,0.0
 3485639,0.00012028,0.01396541,0.00781294,-0.00000834,0.45864727,-0.000
 95427,0.00191159,-0.00001066,0.00089777,-0.00063954,-0.00002172,-0.000
 62741,-0.00238543,0.00003573,-0.00020303,0.01407557,-0.00000463,0.0000
 6147,-0.00001271,-0.00000219,-0.00036470,0.00001107,0.00002642,-0.0001
 1241,-0.00076011,0.00000689,0.00013840,0.00002811,-0.00002401,0.000139
 01,0.00002771,0.00002209,-0.00017964,0.00000484,0.00000082,0.02807116,
 -0.09723537,-0.00011972,0.02753892,-0.05328043,0.00073296,0.03730619,0
 .50934600,0.00002616,-0.00002886,0.00019044,-0.00002684,-0.00001596,-0
 .00157122,0.00002177,0.00002494,-0.00021262,0.00033751,-0.00015754,0.0
 1322929,-0.00000098,-0.00000026,-0.00010555,0.00002735,0.00002111,0.00
 183874,0.00000029,0.00001140,-0.00018239,0.00003568,-0.00002959,-0.000
 03679,-0.00003944,0.00002739,-0.00003714,0.00000322,-0.00000079,-0.000
 04188,0.00020567,-0.00017873,-0.08612402,-0.00025936,0.00091419,0.0239
 4966,0.00025918,0.00003023,0.53871083,0.00008626,-0.00028006,-0.000027
 11,-0.00043879,0.00009122,-0.00030568,-0.00038276,0.00072325,0.0000534
 8,-0.00202482,-0.00101130,0.00188637,-0.00001842,-0.00000752,-0.000016
 99,-0.00070744,-0.00033895,-0.00012042,-0.00002116,0.00008421,-0.00000
 692,-0.00003223,-0.00001576,-0.00000720,-0.00003116,-0.00000905,-0.000
 01215,-0.00000135,-0.00000238,-0.00000862,0.00630148,0.01208163,-0.022
 40079,-0.00275478,0.00273693,0.00298437,-0.04868204,-0.01140133,0.0158
 0098,0.05561180,-0.00019036,0.00009479,-0.00007122,0.00025722,0.000060
 33,-0.00023321,-0.00038407,0.00054207,-0.00001769,-0.00039099,0.000026
 68,-0.00155867,-0.00000695,0.00000860,0.00002917,-0.00028250,0.0000995
 2,0.00009600,0.00001964,0.00004186,0.00013382,-0.00004042,0.00000335,0
 .00000881,0.00000353,-0.00000935,-0.00000544,0.00000110,-0.00000274,0.
 00000610,-0.00340084,-0.01532268,0.01987226,0.00397491,-0.00281326,-0.
 00272051,-0.01320631,-0.12757739,0.12241875,0.01601975,0.14082721,0.00
 014367,-0.00005589,0.00001278,-0.00016971,-0.00031264,0.00030195,0.000
 30122,0.00064610,0.00032083,-0.00029860,0.00061308,0.00031739,0.000001
 91,0.00000200,-0.00000919,-0.00008185,-0.00054902,-0.00040361,-0.00001
 293,-0.00006269,-0.00007430,0.00003229,-0.00000507,0.00000060,0.000006
 23,-0.00000287,0.00000636,-0.00001161,0.00000470,0.00000031,0.00081441
 ,-0.00079486,0.00039322,-0.00039595,-0.00088255,-0.00065545,0.01776200
 ,0.11970363,-0.21059730,-0.02086247,-0.13180703,0.22940829,0.00008422,
 -0.00027883,0.00003280,-0.00043001,0.00010498,0.00031701,-0.00038994,0
 .00070966,-0.00005862,-0.00205223,-0.00107000,-0.00181773,-0.00001816,
 -0.00000713,0.00001734,-0.00070421,-0.00032598,0.00013403,-0.00002082,
 0.00008544,0.00000370,-0.00003102,-0.00000867,0.00001307,-0.00003269,-
 0.00001546,0.00000822,-0.00000093,-0.00000221,0.00000871,0.00669417,0.
 01266329,0.02197447,-0.00280330,0.00267659,-0.00301507,-0.04934365,-0.
 01404708,-0.01837560,0.00002768,0.00116560,0.00152511,0.05642450,-0.00
 019194,0.00009316,0.00007233,0.00026637,0.00007781,0.00023460,-0.00039
 199,0.00052438,0.00001917,-0.00035029,0.00004960,0.00157192,-0.0000079
 2,0.00000743,-0.00002940,-0.00028212,0.00011193,-0.00010416,0.00001711
 ,0.00003889,-0.00013683,0.00000362,-0.00000908,0.00000557,-0.00004147,
 0.00000362,-0.00000833,0.00000181,-0.00000234,-0.00000600,-0.00378508,
 -0.01580117,-0.01939845,0.00403401,-0.00272180,0.00270044,-0.01595187,
 -0.13378973,-0.12410173,0.00140705,0.01200325,0.01515411,0.01901910,0.
 14759079,-0.00013967,0.00005566,0.00001150,0.00017667,0.00031889,0.000
 27928,-0.00027893,-0.00066579,0.00034259,0.00035381,-0.00058817,0.0003
 2008,-0.00000182,-0.00000254,-0.00000862,0.00009450,0.00054295,-0.0004
 1811,0.00001126,0.00005754,-0.00007255,-0.00000557,0.00000348,0.000005
 92,-0.00003067,0.00000550,0.00000102,0.00001196,-0.00000412,0.00000022
 ,-0.00083584,0.00097556,0.00047979,0.00033248,0.00088600,-0.00069886,-
 0.02029046,-0.12141973,-0.20371904,-0.00197100,-0.01605754,-0.02250024
 ,0.02352593,0.13356263,0.22182919,-0.00022224,0.00021136,-0.00000145,-
 0.00000623,-0.00019995,0.00000673,0.00043765,0.00039556,-0.00000980,-0
 .00068086,0.00284053,-0.00001788,-0.00000028,-0.00000131,-0.00000002,-
 0.00000401,-0.00034928,-0.00000025,0.00000670,-0.00013904,0.00000087,0
 .00001067,0.00000080,-0.00000104,0.00000994,0.00000125,0.00000033,-0.0
 0004028,0.00000540,0.00000029,-0.03332963,-0.00352603,0.00035207,0.000
 90965,-0.00527729,0.00003894,-0.16698576,-0.04719010,0.00141137,-0.004
 00235,-0.00162748,0.00045182,-0.00447322,-0.00183259,-0.00030257,0.485
 88868,0.00032187,-0.00040054,-0.00000114,0.00026589,0.00024218,0.00000
 106,-0.00026720,-0.00066340,0.00000734,0.00284491,-0.00412565,0.000040
 52,0.00003822,0.00003193,-0.00000041,-0.00007432,0.00037477,-0.0000098
 5,0.00006219,0.00025911,-0.00000350,-0.00000266,-0.00000756,-0.0000040
 9,-0.00000461,-0.00000535,0.00000153,0.00010048,0.00000866,-0.00000084
 ,0.02114240,0.01448792,-0.00037329,0.00063508,-0.00003523,-0.00003371,
 -0.04706094,-0.10310218,0.00074483,-0.01836405,-0.00796036,-0.00092347
 ,-0.01898758,-0.00820325,0.00150861,-0.03990184,0.55362735,-0.00000286
 ,0.00000467,-0.00005482,0.00000026,0.00000273,0.00042867,-0.00000099,0
 .00000393,-0.00005978,-0.00001867,0.00004451,0.00133831,-0.00000040,-0
 .00000037,-0.00001213,-0.00000368,-0.00000801,-0.00050929,-0.00000178,
 -0.00000304,-0.00012062,0.00003091,-0.00000915,-0.00000647,-0.00003115
 ,0.00000894,-0.00000617,-0.00000120,-0.00000053,-0.00000658,0.00003918
 ,-0.00015084,0.00016523,-0.00003668,0.00002117,-0.00220819,0.00140916,
 0.00074409,-0.07863850,0.02561912,0.01078626,0.00114533,-0.02503776,-0
 .01051006,0.00185703,0.00126119,0.00055069,0.56803235,-0.00016270,0.00
 005105,0.00000063,-0.00016932,0.00003290,0.00000124,0.00012293,0.00025
 939,-0.00000516,-0.00099499,0.00128510,-0.00000613,-0.00003482,-0.0000
 2045,0.00000066,0.00003172,-0.00000882,0.00000017,-0.00000731,-0.00007
 105,0.00000105,-0.00001521,0.00000701,0.00000579,-0.00001543,0.0000070
 2,-0.00000588,-0.00004306,-0.00000945,0.00000054,-0.00362010,-0.004928
 08,0.00010100,0.00080505,-0.00017311,-0.00000151,-0.02176142,0.0213746
 0,-0.00008558,0.00098095,0.00014901,0.00060613,0.00096643,0.00013990,-
 0.00062631,-0.17721852,0.13020474,-0.00047753,0.19546779,-0.00006721,0
 .00014459,-0.00000114,0.00008549,-0.00007249,0.00000014,-0.00003331,-0
 .00002036,-0.00000019,-0.00027924,0.00094241,-0.00000746,0.00000680,0.
 00000332,-0.00000008,-0.00000106,-0.00004278,0.00000094,-0.00001437,-0
 .00004163,0.00000045,0.00000988,-0.00000178,-0.00000296,0.00000998,-0.
 00000181,0.00000296,-0.00000875,0.00000284,0.00000004,-0.00381802,-0.0
 0391755,0.00009138,0.00205138,0.00131995,-0.00003047,-0.01375492,0.011
 33714,-0.00003571,0.00081228,0.00072339,-0.00005816,0.00080857,0.00073
 396,0.00002685,0.13197476,-0.17715959,0.00043814,-0.14189153,0.1915755
 9,0.00000214,-0.00000162,-0.00000799,0.00000046,0.00000012,0.00000581,
 -0.00000125,-0.00000286,-0.00007271,0.00001348,-0.00002174,0.00014038,
 0.00000033,0.00000026,0.00000451,-0.00000001,0.00000098,0.00003490,0.0
 0000022,0.00000125,-0.00000784,0.00000113,-0.00000078,-0.00000035,-0.0
 0000111,0.00000062,-0.00000032,0.00000043,-0.00000005,0.00000058,0.000
 08713,0.00010178,0.00052189,-0.00002985,-0.00001005,0.00040315,0.00036
 250,-0.00035761,-0.00133123,0.00015964,-0.00037762,0.00007699,-0.00019
 667,0.00035850,0.00008107,-0.00050016,0.00045475,-0.04802648,0.0004415
 0,-0.00055656,0.04605222,-0.00004970,0.00003325,-0.00001540,0.00011108
 ,0.00008104,-0.00007495,-0.00005889,-0.00013858,-0.00003040,0.00012536
 ,-0.00002964,-0.00013632,0.00000544,0.00000237,0.00000265,0.00002820,0
 .00013567,0.00011004,0.00000263,0.00001905,0.00003292,-0.00000798,0.00
 000131,0.00000029,0.00000222,-0.00000105,0.00000045,0.00000558,-0.0000
 0012,0.00000113,0.00080869,-0.00218673,0.00086658,0.00035560,0.0014480
 8,-0.00042709,-0.00445808,-0.01741044,0.02619446,-0.00568921,-0.002412
 39,-0.00015300,0.00132549,0.00031718,-0.00028424,-0.04955468,-0.014654
 98,0.02081900,0.00280351,0.01195191,-0.02001071,0.05462303,-0.00001119
 ,-0.00002478,-0.00001399,-0.00006232,0.00004915,-0.00003557,0.00000875
 ,-0.00001615,-0.00003044,-0.00014117,-0.00013765,0.00006230,-0.0000119
 7,-0.00000771,0.00000495,0.00001782,0.00007702,0.00005708,0.00000070,0
 .00000218,0.00001685,-0.00000871,0.00000138,0.00000133,-0.00000701,0.0
 0000402,-0.00000237,-0.00000686,-0.00000463,0.00000155,0.00113840,-0.0
 0027341,-0.00042647,0.00024301,0.00062548,-0.00008961,-0.00256620,-0.0
 0877932,0.01123056,-0.00258355,-0.00042637,-0.00051993,0.00037810,-0.0
 0005265,0.00002782,-0.01599068,-0.13081053,0.12277203,-0.00291980,-0.0
 1252978,0.01817215,0.02015734,0.14061296,0.00002254,-0.00006102,0.0000
 1082,-0.00006075,-0.00001409,0.00000350,0.00000084,0.00002477,-0.00001
 443,-0.00000265,-0.00030132,-0.00016819,-0.00000417,-0.00000175,-0.000
 00023,-0.00001662,-0.00003486,0.00000653,0.00000317,0.00000629,-0.0000
 0230,-0.00000170,0.00000156,-0.00000061,0.00000050,-0.00000036,0.00000
 141,0.00000180,0.00000021,-0.00000067,-0.00017869,0.00207372,0.0000853
 6,-0.00112021,-0.00109689,0.00058357,0.00083347,-0.00142295,0.00115402
 ,-0.00050580,-0.00022577,0.00145501,0.00053547,0.00000314,0.00076035,0
 .02314944,0.12246231,-0.22544423,-0.00101001,-0.00139451,0.00103483,-0
 .02407528,-0.13517664,0.24175646,-0.00004962,0.00003331,0.00001631,0.0
 0011368,0.00008420,0.00007052,-0.00005846,-0.00013856,0.00003528,0.000
 12886,-0.00002139,0.00013208,0.00000535,0.00000222,-0.00000294,0.00002
 654,0.00013373,-0.00011391,0.00000183,0.00001775,-0.00003393,0.0000020
 5,-0.00000074,-0.00000009,-0.00000778,0.00000109,0.00000015,0.00000568
 ,0.00000004,-0.00000132,0.00079529,-0.00224580,-0.00082329,0.00038342,
 0.00147814,0.00039298,-0.00494642,-0.01803916,-0.02562845,0.00132040,0
 .00032392,0.00026602,-0.00567360,-0.00240088,0.00034496,-0.05041123,-0
 .01748269,-0.02355789,0.00318561,0.01248454,0.01966334,-0.00029248,0.0
 0239756,0.00232040,0.05555791,-0.00001101,-0.00002612,0.00001626,-0.00
 005976,0.00005270,0.00003484,0.00000887,-0.00001660,0.00003158,-0.0001
 4016,-0.00013279,-0.00005949,-0.00001223,-0.00000804,-0.00000476,0.000
 01735,0.00007682,-0.00005938,0.00000005,0.00000083,-0.00001783,-0.0000
 0724,0.00000468,0.00000306,-0.00000838,0.00000101,-0.00000061,-0.00000
 658,-0.00000422,-0.00000147,0.00114801,-0.00031473,0.00041462,0.000273
 24,0.00065482,0.00008273,-0.00278800,-0.00901649,-0.01091616,0.0003637
 5,-0.00005373,-0.00001335,-0.00255761,-0.00040457,0.00061461,-0.018882
 62,-0.13711899,-0.12469633,-0.00322260,-0.01295068,-0.01776411,0.00261
 815,0.01166776,0.01514805,0.02330188,0.14756261,-0.00002099,0.00005990
 ,0.00001096,0.00006049,0.00001228,-0.00000109,-0.00000036,-0.00002234,
 -0.00001322,0.00000165,0.00030021,-0.00017475,0.00000425,0.00000178,-0
 .00000055,0.00001584,0.00003081,0.00000847,-0.00000339,-0.00000705,-0.
 00000249,-0.00000078,0.00000111,0.00000237,0.00000254,-0.00000229,0.00
 000044,-0.00000159,0.00000007,-0.00000080,0.00013580,-0.00202247,0.000
 13730,0.00111699,0.00106758,0.00052575,-0.00065108,0.00201399,0.001880
 27,-0.00055521,0.00001086,0.00076631,0.00070183,0.00031794,0.00141853,
 -0.02585346,-0.12441167,-0.21828304,0.00105275,0.00152272,0.00107351,-
 0.00276787,-0.01603371,-0.02122291,0.02686842,0.13717121,0.23387469,-0
 .09642743,-0.07197664,0.00145566,-0.00245793,-0.02333256,0.00039736,-0
 .01253674,0.02806506,-0.00016941,-0.10139798,0.07232619,-0.00026466,0.
 00022990,0.00081395,0.00004569,0.00065636,0.00003369,0.00005156,-0.017
 38422,-0.02137560,0.00041900,0.00085445,-0.00053626,0.00009169,0.00084
 171,-0.00053695,-0.00008911,-0.00354410,0.00187731,0.00001096,-0.02979
 672,0.02107003,-0.00000512,0.00435784,0.00201846,-0.00008422,-0.001500
 25,-0.00499795,0.00009261,0.00045795,0.00002763,0.00007533,0.00045130,
 0.00003001,-0.00008449,-0.00033400,0.00118509,-0.00000822,-0.00032111,
 -0.00032719,0.00000743,-0.00008581,-0.00003222,0.00010824,-0.00008703,
 -0.00003511,-0.00010582,0.25802381,-0.04029355,-0.10843080,0.00127749,
 0.01692811,-0.06232685,0.00073214,-0.00639712,-0.06100877,0.00091660,0
 .03663284,-0.08553955,0.00032704,0.00339309,-0.00284781,0.00008124,-0.
 00322327,-0.00317507,0.00014592,-0.00308132,0.00773704,-0.00008561,-0.
 00045354,-0.00026789,-0.00039031,-0.00045820,-0.00025950,0.00041747,0.
 00255745,0.00087516,-0.00003295,0.00187650,0.01116913,-0.00018482,0.00
 032097,-0.00184589,-0.00000528,-0.00225029,-0.00016334,0.00004191,-0.0
 0030613,-0.00026515,-0.00013609,-0.00031076,-0.00025025,0.00015179,-0.
 00051146,0.00056069,0.00000118,-0.00026582,-0.00004474,0.00000259,0.00
 006859,0.00002303,0.00001011,0.00007083,0.00002573,-0.00001092,-0.0042
 9694,0.30603484,0.00106078,0.00157504,-0.03645005,-0.00010712,0.001102
 10,0.00886898,0.00026259,0.00059303,0.00714326,0.00017933,-0.00000653,
 -0.03257205,0.00001381,0.00010647,0.00622870,0.00009139,0.00011632,0.0
 0619932,0.00018940,0.00008867,-0.00115500,0.00057300,-0.00004711,0.000
 31021,-0.00057167,0.00007076,0.00031094,0.00000189,-0.00002712,0.00016
 775,0.00023785,-0.00035957,-0.00183296,-0.00006271,-0.00001878,-0.0019
 7490,0.00005643,0.00006635,0.00164444,0.00029641,-0.00028733,0.0000347
 3,-0.00029624,0.00029461,0.00003085,0.00001360,-0.00000967,0.00040940,
 0.00000665,0.00000362,0.00001709,-0.00005226,-0.00001788,0.00000171,0.
 00005137,0.00001652,0.00000025,-0.00194450,-0.00325949,0.04261734\\-0.
 00011902,-0.00014832,0.00000228,0.00003401,0.00006114,-0.00000089,-0.0
 0003135,0.00001368,-0.00000107,-0.00005426,0.00005182,-0.00000313,0.00
 000188,-0.00000947,0.00000069,-0.00000274,-0.00000630,0.00000030,-0.00
 000752,0.00002365,-0.00000052,0.00000756,-0.00000650,0.00000054,0.0000
 0737,-0.00000642,-0.00000069,0.00000726,0.00000083,-0.00000013,0.00003
 465,0.00004630,0.00000278,-0.00001482,-0.00003438,-0.00000255,-0.00002
 487,-0.00003185,-0.00000091,0.00000104,0.00000646,0.00000346,-0.000000
 20,0.00000699,-0.00000273,0.00001012,0.00000169,0.00000119,-0.00000345
 ,0.00000013,0.00000009,0.00000106,-0.00000029,-0.00000322,0.00000137,0
 .00000011,0.00000305,0.00015190,0.00003074,0.00000147\\\@


 REALITY IS FOR PEOPLE WHO CAN'T FACE SCIENCE FICTION.
 Job cpu time:       0 days  0 hours 45 minutes 17.7 seconds.
 File lengths (MBytes):  RWF=    211 Int=      0 D2E=      0 Chk=      7 Scr=      1
 Normal termination of Gaussian 09 at Thu Feb  2 15:40:36 2023.
