 Entering Gaussian System, Link 0=g09
 Initial command:
 /cm/shared/apps/gaussian/g09revD.01/g09/l1.exe "//home/sweav003/HartwigDocs/IrCatSilyDir_One/G09-Table2_6.com.o9626370.tmp/Gau-196410.inp" -scrdir="//home/sweav003/HartwigDocs/IrCatSilyDir_One/G09-Table2_6.com.o9626370.tmp/"
 Entering Link 1 = /cm/shared/apps/gaussian/g09revD.01/g09/l1.exe PID=    196411.
  
 Copyright (c) 1988,1990,1992,1993,1995,1998,2003,2009,2013,
            Gaussian, Inc.  All Rights Reserved.
  
 This is part of the Gaussian(R) 09 program.  It is based on
 the Gaussian(R) 03 system (copyright 2003, Gaussian, Inc.),
 the Gaussian(R) 98 system (copyright 1998, Gaussian, Inc.),
 the Gaussian(R) 94 system (copyright 1995, Gaussian, Inc.),
 the Gaussian 92(TM) system (copyright 1992, Gaussian, Inc.),
 the Gaussian 90(TM) system (copyright 1990, Gaussian, Inc.),
 the Gaussian 88(TM) system (copyright 1988, Gaussian, Inc.),
 the Gaussian 86(TM) system (copyright 1986, Carnegie Mellon
 University), and the Gaussian 82(TM) system (copyright 1983,
 Carnegie Mellon University). Gaussian is a federally registered
 trademark of Gaussian, Inc.
  
 This software contains proprietary and confidential information,
 including trade secrets, belonging to Gaussian, Inc.
  
 This software is provided under written license and may be
 used, copied, transmitted, or stored only in accord with that
 written license.
  
 The following legend is applicable only to US Government
 contracts under FAR:
  
                    RESTRICTED RIGHTS LEGEND
  
 Use, reproduction and disclosure by the US Government is
 subject to restrictions as set forth in subparagraphs (a)
 and (c) of the Commercial Computer Software - Restricted
 Rights clause in FAR 52.227-19.
  
 Gaussian, Inc.
 340 Quinnipiac St., Bldg. 40, Wallingford CT 06492
  
  
 ---------------------------------------------------------------
 Warning -- This program may not be used in any manner that
 competes with the business of Gaussian, Inc. or will provide
 assistance to any competitor of Gaussian, Inc.  The licensee
 of this program is prohibited from giving any competitor of
 Gaussian, Inc. access to this program.  By using this program,
 the user acknowledges that Gaussian, Inc. is engaged in the
 business of creating and licensing software in the field of
 computational chemistry and represents and warrants to the
 licensee that it is not a competitor of Gaussian, Inc. and that
 it will not use this program in any manner prohibited above.
 ---------------------------------------------------------------
  

 Cite this work as:
 Gaussian 09, Revision D.01,
 M. J. Frisch, G. W. Trucks, H. B. Schlegel, G. E. Scuseria, 
 M. A. Robb, J. R. Cheeseman, G. Scalmani, V. Barone, B. Mennucci, 
 G. A. Petersson, H. Nakatsuji, M. Caricato, X. Li, H. P. Hratchian, 
 A. F. Izmaylov, J. Bloino, G. Zheng, J. L. Sonnenberg, M. Hada, 
 M. Ehara, K. Toyota, R. Fukuda, J. Hasegawa, M. Ishida, T. Nakajima, 
 Y. Honda, O. Kitao, H. Nakai, T. Vreven, J. A. Montgomery, Jr., 
 J. E. Peralta, F. Ogliaro, M. Bearpark, J. J. Heyd, E. Brothers, 
 K. N. Kudin, V. N. Staroverov, T. Keith, R. Kobayashi, J. Normand, 
 K. Raghavachari, A. Rendell, J. C. Burant, S. S. Iyengar, J. Tomasi, 
 M. Cossi, N. Rega, J. M. Millam, M. Klene, J. E. Knox, J. B. Cross, 
 V. Bakken, C. Adamo, J. Jaramillo, R. Gomperts, R. E. Stratmann, 
 O. Yazyev, A. J. Austin, R. Cammi, C. Pomelli, J. W. Ochterski, 
 R. L. Martin, K. Morokuma, V. G. Zakrzewski, G. A. Voth, 
 P. Salvador, J. J. Dannenberg, S. Dapprich, A. D. Daniels, 
 O. Farkas, J. B. Foresman, J. V. Ortiz, J. Cioslowski, 
 and D. J. Fox, Gaussian, Inc., Wallingford CT, 2013.
 
 ******************************************
 Gaussian 09:  ES64L-G09RevD.01 24-Apr-2013
                 9-Nov-2021 
 ******************************************
 %mem=100MW
 %nprocshared=20
 Will use up to   20 processors via shared memory.
 %chk=Table2_6.chk
 ----------------------------------------------------------------------
 # opt freq b3lyp/6-311+g(d,p) pop=(npa,hirshfeld,mbs) geom=connectivit
 y
 ----------------------------------------------------------------------
 1/14=-1,18=20,19=15,26=3,38=1,57=2/1,3;
 2/9=110,12=2,17=6,18=5,40=1/2;
 3/5=4,6=6,7=111,11=2,16=1,25=1,30=1,71=1,74=-5/1,2,3;
 4//1;
 5/5=2,38=5/2;
 6/7=2,8=2,9=2,10=2,27=100,28=1,40=-1,79=1/1,7;
 7//1,2,3,16;
 1/14=-1,18=20,19=15,26=3/3(2);
 2/9=110/2;
 99//99;
 2/9=110/2;
 3/5=4,6=6,7=111,11=2,16=1,25=1,30=1,71=1,74=-5/1,2,3;
 4/5=5,16=3,69=1/1;
 5/5=2,38=5/2;
 7//1,2,3,16;
 1/14=-1,18=20,19=15,26=3/3(-5);
 2/9=110/2;
 6/7=2,8=2,9=2,10=2,19=2,27=100,28=1,40=-1,79=1/1,7;
 99/9=1/99;
 --------
 Table2_6
 --------
 Symbolic Z-matrix:
 Charge =  0 Multiplicity = 1
 C                    -3.06901  -0.05438  -0.39356 
 C                    -1.67776  -0.00152  -0.55339 
 C                    -1.00454   1.22163  -0.43256 
 C                    -1.72257   2.39192  -0.1519 
 C                    -3.11383   2.33906   0.00794 
 C                    -3.78705   1.11591  -0.1129 
 H                    -3.58303  -0.98828  -0.48582 
 C                     0.38671   1.27449  -0.5924 
 C                    -1.04935   3.61507  -0.03107 
 H                    -4.8493    1.07555   0.00914 
 C                     0.3419    3.66793  -0.1909 
 C                     1.05993   2.49764  -0.47156 
 H                    -1.59759   4.50861   0.18323 
 H                     0.85592   4.60183  -0.09864 
 H                     2.12218   2.538    -0.5936 
 Si                   -4.10782   3.95913   0.39647 
 H                    -3.42029   5.11162  -0.20351 
 C                    -4.22204   4.20265   2.31774 
 H                    -3.23636   4.2823    2.72639 
 H                    -4.77027   5.09619   2.53204 
 H                    -4.72248   3.36376   2.75446 
 C                    -5.89494   3.81471  -0.34444 
 H                    -6.44317   4.70825  -0.13014 
 H                    -5.83194   3.68039  -1.4041 
 H                    -6.39538   2.97582   0.09229 
 H                    -1.12953  -0.89506  -0.76768 
 Br                    1.36533  -0.32052  -0.97492 
 

 GradGradGradGradGradGradGradGradGradGradGradGradGradGradGradGradGradGrad
 Berny optimization.
 Initialization pass.
                           ----------------------------
                           !    Initial Parameters    !
                           ! (Angstroms and Degrees)  !
 --------------------------                            --------------------------
 ! Name  Definition              Value          Derivative Info.                !
 --------------------------------------------------------------------------------
 ! R1    R(1,2)                  1.4014         estimate D2E/DX2                !
 ! R2    R(1,6)                  1.4014         estimate D2E/DX2                !
 ! R3    R(1,7)                  1.07           estimate D2E/DX2                !
 ! R4    R(2,3)                  1.4014         estimate D2E/DX2                !
 ! R5    R(2,26)                 1.07           estimate D2E/DX2                !
 ! R6    R(3,4)                  1.4014         estimate D2E/DX2                !
 ! R7    R(3,8)                  1.4014         estimate D2E/DX2                !
 ! R8    R(4,5)                  1.4014         estimate D2E/DX2                !
 ! R9    R(4,9)                  1.4014         estimate D2E/DX2                !
 ! R10   R(5,6)                  1.4014         estimate D2E/DX2                !
 ! R11   R(5,16)                 1.94           estimate D2E/DX2                !
 ! R12   R(6,10)                 1.07           estimate D2E/DX2                !
 ! R13   R(8,12)                 1.4014         estimate D2E/DX2                !
 ! R14   R(8,27)                 1.91           estimate D2E/DX2                !
 ! R15   R(9,11)                 1.4014         estimate D2E/DX2                !
 ! R16   R(9,13)                 1.07           estimate D2E/DX2                !
 ! R17   R(11,12)                1.4014         estimate D2E/DX2                !
 ! R18   R(11,14)                1.07           estimate D2E/DX2                !
 ! R19   R(12,15)                1.07           estimate D2E/DX2                !
 ! R20   R(16,17)                1.47           estimate D2E/DX2                !
 ! R21   R(16,18)                1.94           estimate D2E/DX2                !
 ! R22   R(16,22)                1.94           estimate D2E/DX2                !
 ! R23   R(18,19)                1.07           estimate D2E/DX2                !
 ! R24   R(18,20)                1.07           estimate D2E/DX2                !
 ! R25   R(18,21)                1.07           estimate D2E/DX2                !
 ! R26   R(22,23)                1.07           estimate D2E/DX2                !
 ! R27   R(22,24)                1.07           estimate D2E/DX2                !
 ! R28   R(22,25)                1.07           estimate D2E/DX2                !
 ! A1    A(2,1,6)              120.0            estimate D2E/DX2                !
 ! A2    A(2,1,7)              120.0            estimate D2E/DX2                !
 ! A3    A(6,1,7)              120.0            estimate D2E/DX2                !
 ! A4    A(1,2,3)              120.0            estimate D2E/DX2                !
 ! A5    A(1,2,26)             120.0            estimate D2E/DX2                !
 ! A6    A(3,2,26)             120.0            estimate D2E/DX2                !
 ! A7    A(2,3,4)              120.0            estimate D2E/DX2                !
 ! A8    A(2,3,8)              120.0            estimate D2E/DX2                !
 ! A9    A(4,3,8)              120.0            estimate D2E/DX2                !
 ! A10   A(3,4,5)              120.0            estimate D2E/DX2                !
 ! A11   A(3,4,9)              120.0            estimate D2E/DX2                !
 ! A12   A(5,4,9)              120.0            estimate D2E/DX2                !
 ! A13   A(4,5,6)              120.0            estimate D2E/DX2                !
 ! A14   A(4,5,16)             120.0            estimate D2E/DX2                !
 ! A15   A(6,5,16)             120.0            estimate D2E/DX2                !
 ! A16   A(1,6,5)              120.0            estimate D2E/DX2                !
 ! A17   A(1,6,10)             120.0            estimate D2E/DX2                !
 ! A18   A(5,6,10)             120.0            estimate D2E/DX2                !
 ! A19   A(3,8,12)             120.0            estimate D2E/DX2                !
 ! A20   A(3,8,27)             120.0            estimate D2E/DX2                !
 ! A21   A(12,8,27)            120.0            estimate D2E/DX2                !
 ! A22   A(4,9,11)             120.0            estimate D2E/DX2                !
 ! A23   A(4,9,13)             120.0            estimate D2E/DX2                !
 ! A24   A(11,9,13)            120.0            estimate D2E/DX2                !
 ! A25   A(9,11,12)            120.0            estimate D2E/DX2                !
 ! A26   A(9,11,14)            120.0            estimate D2E/DX2                !
 ! A27   A(12,11,14)           120.0            estimate D2E/DX2                !
 ! A28   A(8,12,11)            120.0            estimate D2E/DX2                !
 ! A29   A(8,12,15)            120.0            estimate D2E/DX2                !
 ! A30   A(11,12,15)           120.0            estimate D2E/DX2                !
 ! A31   A(5,16,17)            109.4712         estimate D2E/DX2                !
 ! A32   A(5,16,18)            109.4712         estimate D2E/DX2                !
 ! A33   A(5,16,22)            109.4712         estimate D2E/DX2                !
 ! A34   A(17,16,18)           109.4712         estimate D2E/DX2                !
 ! A35   A(17,16,22)           109.4712         estimate D2E/DX2                !
 ! A36   A(18,16,22)           109.4712         estimate D2E/DX2                !
 ! A37   A(16,18,19)           109.4712         estimate D2E/DX2                !
 ! A38   A(16,18,20)           109.4712         estimate D2E/DX2                !
 ! A39   A(16,18,21)           109.4712         estimate D2E/DX2                !
 ! A40   A(19,18,20)           109.4712         estimate D2E/DX2                !
 ! A41   A(19,18,21)           109.4712         estimate D2E/DX2                !
 ! A42   A(20,18,21)           109.4712         estimate D2E/DX2                !
 ! A43   A(16,22,23)           109.4712         estimate D2E/DX2                !
 ! A44   A(16,22,24)           109.4712         estimate D2E/DX2                !
 ! A45   A(16,22,25)           109.4712         estimate D2E/DX2                !
 ! A46   A(23,22,24)           109.4712         estimate D2E/DX2                !
 ! A47   A(23,22,25)           109.4712         estimate D2E/DX2                !
 ! A48   A(24,22,25)           109.4712         estimate D2E/DX2                !
 ! D1    D(6,1,2,3)             -0.0002         estimate D2E/DX2                !
 ! D2    D(6,1,2,26)           179.9998         estimate D2E/DX2                !
 ! D3    D(7,1,2,3)            179.9998         estimate D2E/DX2                !
 ! D4    D(7,1,2,26)            -0.0002         estimate D2E/DX2                !
 ! D5    D(2,1,6,5)              0.0            estimate D2E/DX2                !
 ! D6    D(2,1,6,10)           180.0            estimate D2E/DX2                !
 ! D7    D(7,1,6,5)            180.0            estimate D2E/DX2                !
 ! D8    D(7,1,6,10)             0.0            estimate D2E/DX2                !
 ! D9    D(1,2,3,4)              0.0002         estimate D2E/DX2                !
 ! D10   D(1,2,3,8)           -179.9999         estimate D2E/DX2                !
 ! D11   D(26,2,3,4)          -179.9998         estimate D2E/DX2                !
 ! D12   D(26,2,3,8)             0.0001         estimate D2E/DX2                !
 ! D13   D(2,3,4,5)              0.0            estimate D2E/DX2                !
 ! D14   D(2,3,4,9)            179.9998         estimate D2E/DX2                !
 ! D15   D(8,3,4,5)           -180.0            estimate D2E/DX2                !
 ! D16   D(8,3,4,9)             -0.0001         estimate D2E/DX2                !
 ! D17   D(2,3,8,12)          -179.9998         estimate D2E/DX2                !
 ! D18   D(2,3,8,27)             0.0001         estimate D2E/DX2                !
 ! D19   D(4,3,8,12)             0.0001         estimate D2E/DX2                !
 ! D20   D(4,3,8,27)          -179.9999         estimate D2E/DX2                !
 ! D21   D(3,4,5,6)             -0.0002         estimate D2E/DX2                !
 ! D22   D(3,4,5,16)           179.9998         estimate D2E/DX2                !
 ! D23   D(9,4,5,6)            180.0            estimate D2E/DX2                !
 ! D24   D(9,4,5,16)             0.0            estimate D2E/DX2                !
 ! D25   D(3,4,9,11)             0.0001         estimate D2E/DX2                !
 ! D26   D(3,4,9,13)          -179.9998         estimate D2E/DX2                !
 ! D27   D(5,4,9,11)           180.0            estimate D2E/DX2                !
 ! D28   D(5,4,9,13)             0.0001         estimate D2E/DX2                !
 ! D29   D(4,5,6,1)              0.0002         estimate D2E/DX2                !
 ! D30   D(4,5,6,10)          -179.9998         estimate D2E/DX2                !
 ! D31   D(16,5,6,1)          -179.9998         estimate D2E/DX2                !
 ! D32   D(16,5,6,10)            0.0002         estimate D2E/DX2                !
 ! D33   D(4,5,16,17)           30.0            estimate D2E/DX2                !
 ! D34   D(4,5,16,18)          -90.0            estimate D2E/DX2                !
 ! D35   D(4,5,16,22)          150.0            estimate D2E/DX2                !
 ! D36   D(6,5,16,17)         -150.0            estimate D2E/DX2                !
 ! D37   D(6,5,16,18)           90.0            estimate D2E/DX2                !
 ! D38   D(6,5,16,22)          -30.0            estimate D2E/DX2                !
 ! D39   D(3,8,12,11)           -0.0001         estimate D2E/DX2                !
 ! D40   D(3,8,12,15)         -179.9998         estimate D2E/DX2                !
 ! D41   D(27,8,12,11)         180.0            estimate D2E/DX2                !
 ! D42   D(27,8,12,15)           0.0002         estimate D2E/DX2                !
 ! D43   D(4,9,11,12)           -0.0001         estimate D2E/DX2                !
 ! D44   D(4,9,11,14)          180.0            estimate D2E/DX2                !
 ! D45   D(13,9,11,12)         179.9998         estimate D2E/DX2                !
 ! D46   D(13,9,11,14)          -0.0002         estimate D2E/DX2                !
 ! D47   D(9,11,12,8)            0.0001         estimate D2E/DX2                !
 ! D48   D(9,11,12,15)         179.9998         estimate D2E/DX2                !
 ! D49   D(14,11,12,8)        -180.0            estimate D2E/DX2                !
 ! D50   D(14,11,12,15)         -0.0002         estimate D2E/DX2                !
 ! D51   D(5,16,18,19)          60.0            estimate D2E/DX2                !
 ! D52   D(5,16,18,20)         180.0            estimate D2E/DX2                !
 ! D53   D(5,16,18,21)         -60.0            estimate D2E/DX2                !
 ! D54   D(17,16,18,19)        -60.0            estimate D2E/DX2                !
 ! D55   D(17,16,18,20)         60.0            estimate D2E/DX2                !
 ! D56   D(17,16,18,21)        180.0            estimate D2E/DX2                !
 ! D57   D(22,16,18,19)        180.0            estimate D2E/DX2                !
 ! D58   D(22,16,18,20)        -60.0            estimate D2E/DX2                !
 ! D59   D(22,16,18,21)         60.0            estimate D2E/DX2                !
 ! D60   D(5,16,22,23)        -180.0            estimate D2E/DX2                !
 ! D61   D(5,16,22,24)         -60.0            estimate D2E/DX2                !
 ! D62   D(5,16,22,25)          60.0            estimate D2E/DX2                !
 ! D63   D(17,16,22,23)        -60.0            estimate D2E/DX2                !
 ! D64   D(17,16,22,24)         60.0            estimate D2E/DX2                !
 ! D65   D(17,16,22,25)        180.0            estimate D2E/DX2                !
 ! D66   D(18,16,22,23)         60.0            estimate D2E/DX2                !
 ! D67   D(18,16,22,24)        180.0            estimate D2E/DX2                !
 ! D68   D(18,16,22,25)        -60.0            estimate D2E/DX2                !
 --------------------------------------------------------------------------------
 Trust Radius=3.00D-01 FncErr=1.00D-07 GrdErr=1.00D-06
 Number of steps in this run=    154 maximum allowed number of steps=    162.
 GradGradGradGradGradGradGradGradGradGradGradGradGradGradGradGradGradGrad

                          Input orientation:                          
 ---------------------------------------------------------------------
 Center     Atomic      Atomic             Coordinates (Angstroms)
 Number     Number       Type             X           Y           Z
 ---------------------------------------------------------------------
      1          6           0       -3.069014   -0.054379   -0.393562
      2          6           0       -1.677762   -0.001520   -0.553393
      3          6           0       -1.004543    1.221631   -0.432564
      4          6           0       -1.722574    2.391922   -0.151899
      5          6           0       -3.113826    2.339062    0.007936
      6          6           0       -3.787046    1.115912   -0.112897
      7          1           0       -3.583033   -0.988281   -0.485821
      8          6           0        0.386709    1.274491   -0.592398
      9          6           0       -1.049354    3.615071   -0.031065
     10          1           0       -4.849298    1.075552    0.009137
     11          6           0        0.341898    3.667931   -0.190899
     12          6           0        1.059929    2.497641   -0.471565
     13          1           0       -1.597586    4.508614    0.183232
     14          1           0        0.855916    4.601834   -0.098641
     15          1           0        2.122180    2.538001   -0.593605
     16         14           0       -4.107817    3.959129    0.396475
     17          1           0       -3.420293    5.111618   -0.203508
     18          6           0       -4.222036    4.202647    2.317738
     19          1           0       -3.236357    4.282304    2.726385
     20          1           0       -4.770268    5.096190    2.532035
     21          1           0       -4.722479    3.363761    2.754460
     22          6           0       -5.894936    3.814705   -0.344436
     23          1           0       -6.443169    4.708248   -0.130139
     24          1           0       -5.831939    3.680394   -1.404102
     25          1           0       -6.395379    2.975819    0.092286
     26          1           0       -1.129529   -0.895063   -0.767683
     27         35           0        1.365330   -0.320524   -0.974924
 ---------------------------------------------------------------------
                    Distance matrix (angstroms):
                    1          2          3          4          5
     1  C    0.000000
     2  C    1.401400   0.000000
     3  C    2.427296   1.401400   0.000000
     4  C    2.802800   2.427296   1.401400   0.000000
     5  C    2.427296   2.802800   2.427296   1.401400   0.000000
     6  C    1.401400   2.427296   2.802800   2.427296   1.401400
     7  H    1.070000   2.146700   3.396345   3.872800   3.396345
     8  C    3.707756   2.427296   1.401400   2.427296   3.707756
     9  C    4.204200   3.707756   2.427296   1.401400   2.427296
    10  H    2.146700   3.396345   3.872800   3.396345   2.146700
    11  C    5.052820   4.204200   2.802800   2.427296   3.707756
    12  C    4.854592   3.707756   2.427296   2.802800   4.204200
    13  H    4.828943   4.570596   3.396345   2.146700   2.652671
    14  H    6.096915   5.274200   3.872800   3.396345   4.570596
    15  H    5.805941   4.570596   3.396345   3.872800   5.274200
    16  Si   4.220369   4.742800   4.220369   2.906241   1.940000
    17  H    5.181413   5.413225   4.584792   3.206503   2.797445
    18  C    5.177150   5.691374   5.177150   3.952865   3.168007
    19  H    5.344987   5.615808   4.932309   3.761595   3.343825
    20  H    6.162933   6.713427   6.162933   4.879038   4.088598
    21  H    4.932308   5.615808   5.344987   4.288452   3.343825
    22  C    4.791457   5.691378   5.536041   4.412481   3.168007
    23  H    5.842681   6.713430   6.467349   5.258313   4.088598
    24  H    4.754311   5.615815   5.503922   4.484981   3.343825
    25  H    4.525798   5.615812   5.693308   4.715471   3.343825
    26  H    2.146700   1.070000   2.146700   3.396345   3.872800
    27  Br   4.480204   3.088667   2.879010   4.191645   5.301156
                    6          7          8          9         10
     6  C    0.000000
     7  H    2.146700   0.000000
     8  C    4.204200   4.570596   0.000000
     9  C    3.707756   5.274200   2.802800   0.000000
    10  H    1.070000   2.471400   5.274200   4.570596   0.000000
    11  C    4.854592   6.096915   2.427296   1.401400   5.805941
    12  C    5.052820   5.805941   1.401400   2.427296   6.096915
    13  H    4.048685   5.882642   3.872800   1.070000   4.731791
    14  H    5.805941   7.148675   3.396345   2.146700   6.707886
    15  H    6.096915   6.707886   2.146700   3.396345   7.148675
    16  Si   2.906241   5.052792   5.327844   3.107308   3.002472
    17  H    4.013525   6.108597   5.419229   2.809046   4.286852
    18  C    3.952865   5.934139   6.187368   3.990994   3.937235
    19  H    4.288452   6.182031   5.760891   3.582138   4.502029
    20  H    4.879038   6.894764   7.138759   4.754829   4.747292
    21  H    3.761595   5.544188   6.455254   4.616726   3.576140
    22  C    3.432244   5.332313   6.780357   4.859807   2.953190
    23  H    4.467680   6.384146   7.658433   5.504370   3.969420
    24  H    3.524963   5.262826   6.717054   4.976205   3.122183
    25  H    3.210102   4.894648   7.025669   5.385522   2.451182
    26  H    3.396345   2.471400   2.652671   4.570596   4.280590
    27  Br   5.417880   5.017113   1.910000   4.712800   6.445076
                   11         12         13         14         15
    11  C    0.000000
    12  C    1.401400   0.000000
    13  H    2.146700   3.396345   0.000000
    14  H    1.070000   2.146700   2.471400   0.000000
    15  H    2.146700   1.070000   4.280590   2.471400   0.000000
    16  Si   4.497752   5.440133   2.578501   5.029599   6.466277
    17  H    4.029699   5.193951   1.958429   4.307766   6.123291
    18  C    5.235329   6.211796   3.396684   5.637716   7.176074
    19  H    4.657457   5.645350   3.033877   4.982928   6.540554
    20  H    5.965613   7.054451   3.990994   6.230474   7.988730
    21  H    5.866479   6.677847   4.205574   6.386823   7.664253
    22  C    6.240450   7.079617   4.384878   6.801029   8.121959
    23  H    6.864625   7.829421   4.859807   7.299929   8.848162
    24  H    6.291922   7.054529   4.597317   6.876096   8.076508
    25  H    6.778651   7.491876   5.037514   7.433819   8.556339
    26  H    4.828943   4.048685   5.506636   5.882642   4.731791
    27  Br   4.191645   2.879010   5.782800   5.025632   2.981509
                   16         17         18         19         20
    16  Si   0.000000
    17  H    1.470000   0.000000
    18  C    1.940000   2.797445   0.000000
    19  H    2.508459   3.050552   1.070000   0.000000
    20  H    2.508459   3.050552   1.070000   1.747303   0.000000
    21  H    2.508459   3.674271   1.070000   1.747303   1.747303
    22  C    1.940000   2.797445   3.168007   4.088598   3.343825
    23  H    2.508459   3.050552   3.343825   4.315646   3.168007
    24  H    2.508459   3.050552   4.088598   4.915309   4.315646
    25  H    2.508459   3.674271   3.343825   4.315646   3.617918
    26  H    5.812800   6.453380   6.713425   6.591841   7.748434
    27  Br   7.081773   7.280484   7.906919   7.487406   8.904220
                   21         22         23         24         25
    21  H    0.000000
    22  C    3.343825   0.000000
    23  H    3.617918   1.070000   0.000000
    24  H    4.315646   1.070000   1.747303   0.000000
    25  H    3.168007   1.070000   1.747303   1.747303   0.000000
    26  H    6.591841   6.713431   7.748440   6.591851   6.591847
    27  Br   8.033908   8.379087   9.326032   8.245740   8.499025
                   26         27
    26  H    0.000000
    27  Br   2.568534   0.000000
 Stoichiometry    C12H13BrSi
 Framework group  C1[X(C12H13BrSi)]
 Deg. of freedom    75
 Full point group                 C1      NOp   1
 Largest Abelian subgroup         C1      NOp   1
 Largest concise Abelian subgroup C1      NOp   1
                         Standard orientation:                         
 ---------------------------------------------------------------------
 Center     Atomic      Atomic             Coordinates (Angstroms)
 Number     Number       Type             X           Y           Z
 ---------------------------------------------------------------------
      1          6           0       -0.328699   -2.433006    0.166597
      2          6           0        0.826935   -1.641655    0.119761
      3          6           0        0.718925   -0.251185   -0.017532
      4          6           0       -0.544719    0.347934   -0.107984
      5          6           0       -1.700353   -0.443417   -0.061144
      6          6           0       -1.592344   -1.833888    0.076144
      7          1           0       -0.246231   -3.494661    0.271420
      8          6           0        1.874560    0.540166   -0.064371
      9          6           0       -0.652729    1.738404   -0.245272
     10          1           0       -2.474696   -2.438102    0.111904
     11          6           0        0.502906    2.529755   -0.292111
     12          6           0        1.766550    1.930637   -0.201660
     13          1           0       -1.617549    2.195845   -0.314331
     14          1           0        0.420438    3.591410   -0.396935
     15          1           0        2.648903    2.534851   -0.237425
     16         14           0       -3.449654    0.385961   -0.186354
     17          1           0       -3.355729    1.607609   -0.998546
     18          6           0       -4.079549    0.838479    1.591865
     19          1           0       -3.393778    1.519849    2.050506
     20          1           0       -5.044370    1.295920    1.522805
     21          1           0       -4.147916   -0.050747    2.183052
     22          6           0       -4.693016   -0.849420   -1.017910
     23          1           0       -5.657836   -0.391979   -1.086969
     24          1           0       -4.345599   -1.099005   -1.998680
     25          1           0       -4.761383   -1.738646   -0.426722
     26          1           0        1.791756   -2.099095    0.188827
     27         35           0        3.596810   -0.276387    0.058907
 ---------------------------------------------------------------------
 Rotational constants (GHZ):      1.0982423      0.2296831      0.1997654
 Standard basis: 6-311+G(d,p) (5D, 7F)
 There are   436 symmetry adapted cartesian basis functions of A   symmetry.
 There are   420 symmetry adapted basis functions of A   symmetry.
   420 basis functions,   680 primitive gaussians,   436 cartesian basis functions
    67 alpha electrons       67 beta electrons
       nuclear repulsion energy      1231.7720444876 Hartrees.
 NAtoms=   27 NActive=   27 NUniq=   27 SFac= 1.00D+00 NAtFMM=   60 NAOKFM=F Big=F
 Integral buffers will be    131072 words long.
 Raffenetti 2 integral format.
 Two-electron integral symmetry is turned on.
 One-electron integrals computed using PRISM.
 NBasis=   420 RedAO= T EigKep=  1.79D-06  NBF=   420
 NBsUse=   416 1.00D-06 EigRej=  9.34D-07 NBFU=   416
 ExpMin= 3.31D-02 ExpMax= 4.40D+05 ExpMxC= 1.51D+04 IAcc=3 IRadAn=         5 AccDes= 0.00D+00
 Harris functional with IExCor=  402 and IRadAn=       5 diagonalized for initial guess.
 HarFok:  IExCor=  402 AccDes= 0.00D+00 IRadAn=         5 IDoV= 1 UseB2=F ITyADJ=14
 ICtDFT=  3500011 ScaDFX=  1.000000  1.000000  1.000000  1.000000
 FoFCou: FMM=F IPFlag=           0 FMFlag=      100000 FMFlg1=           0
         NFxFlg=           0 DoJE=T BraDBF=F KetDBF=T FulRan=T
         wScrn=  0.000000 ICntrl=     500 IOpCl=  0 I1Cent=   200000004 NGrid=           0
         NMat0=    1 NMatS0=      1 NMatT0=    0 NMatD0=    1 NMtDS0=    0 NMtDT0=    0
 Petite list used in FoFCou.
 Requested convergence on RMS density matrix=1.00D-08 within 128 cycles.
 Requested convergence on MAX density matrix=1.00D-06.
 Requested convergence on             energy=1.00D-06.
 No special actions if energy rises.
 SCF Done:  E(RB3LYP) =  -3328.91048255     A.U. after   15 cycles
            NFock= 15  Conv=0.66D-08     -V/T= 2.0016

 **********************************************************************

            Population analysis using the SCF density.

 **********************************************************************

 Orbital symmetries:
       Occupied  (A) (A) (A) (A) (A) (A) (A) (A) (A) (A) (A) (A)
                 (A) (A) (A) (A) (A) (A) (A) (A) (A) (A) (A) (A)
                 (A) (A) (A) (A) (A) (A) (A) (A) (A) (A) (A) (A)
                 (A) (A) (A) (A) (A) (A) (A) (A) (A) (A) (A) (A)
                 (A) (A) (A) (A) (A) (A) (A) (A) (A) (A) (A) (A)
                 (A) (A) (A) (A) (A) (A) (A)
       Virtual   (A) (A) (A) (A) (A) (A) (A) (A) (A) (A) (A) (A)
                 (A) (A) (A) (A) (A) (A) (A) (A) (A) (A) (A) (A)
                 (A) (A) (A) (A) (A) (A) (A) (A) (A) (A) (A) (A)
                 (A) (A) (A) (A) (A) (A) (A) (A) (A) (A) (A) (A)
                 (A) (A) (A) (A) (A) (A) (A) (A) (A) (A) (A) (A)
                 (A) (A) (A) (A) (A) (A) (A) (A) (A) (A) (A) (A)
                 (A) (A) (A) (A) (A) (A) (A) (A) (A) (A) (A) (A)
                 (A) (A) (A) (A) (A) (A) (A) (A) (A) (A) (A) (A)
                 (A) (A) (A) (A) (A) (A) (A) (A) (A) (A) (A) (A)
                 (A) (A) (A) (A) (A) (A) (A) (A) (A) (A) (A) (A)
                 (A) (A) (A) (A) (A) (A) (A) (A) (A) (A) (A) (A)
                 (A) (A) (A) (A) (A) (A) (A) (A) (A) (A) (A) (A)
                 (A) (A) (A) (A) (A) (A) (A) (A) (A) (A) (A) (A)
                 (A) (A) (A) (A) (A) (A) (A) (A) (A) (A) (A) (A)
                 (A) (A) (A) (A) (A) (A) (A) (A) (A) (A) (A) (A)
                 (A) (A) (A) (A) (A) (A) (A) (A) (A) (A) (A) (A)
                 (A) (A) (A) (A) (A) (A) (A) (A) (A) (A) (A) (A)
                 (A) (A) (A) (A) (A) (A) (A) (A) (A) (A) (A) (A)
                 (A) (A) (A) (A) (A) (A) (A) (A) (A) (A) (A) (A)
                 (A) (A) (A) (A) (A) (A) (A) (A) (A) (A) (A) (A)
                 (A) (A) (A) (A) (A) (A) (A) (A) (A) (A) (A) (A)
                 (A) (A) (A) (A) (A) (A) (A) (A) (A) (A) (A) (A)
                 (A) (A) (A) (A) (A) (A) (A) (A) (A) (A) (A) (A)
                 (A) (A) (A) (A) (A) (A) (A) (A) (A) (A) (A) (A)
                 (A) (A) (A) (A) (A) (A) (A) (A) (A) (A) (A) (A)
                 (A) (A) (A) (A) (A) (A) (A) (A) (A) (A) (A) (A)
                 (A) (A) (A) (A) (A) (A) (A) (A) (A) (A) (A) (A)
                 (A) (A) (A) (A) (A) (A) (A) (A) (A) (A) (A) (A)
                 (A) (A) (A) (A) (A) (A) (A) (A) (A) (A) (A) (A)
                 (A)
 The electronic state is 1-A.
 Alpha  occ. eigenvalues -- -482.83421 -66.09842 -62.48715 -56.30747 -56.30366
 Alpha  occ. eigenvalues --  -56.30348 -10.23765 -10.19536 -10.19314 -10.19294
 Alpha  occ. eigenvalues --  -10.18974 -10.18605 -10.18472 -10.18437 -10.18266
 Alpha  occ. eigenvalues --  -10.17740 -10.15139 -10.14999  -8.69697  -6.52830
 Alpha  occ. eigenvalues --   -6.51556  -6.51519  -5.27020  -3.62850  -3.62841
 Alpha  occ. eigenvalues --   -3.62792  -2.63927  -2.63562  -2.63537  -2.62525
 Alpha  occ. eigenvalues --   -2.62523  -0.90070  -0.84128  -0.81882  -0.76454
 Alpha  occ. eigenvalues --   -0.76181  -0.72019  -0.71060  -0.69170  -0.64172
 Alpha  occ. eigenvalues --   -0.62954  -0.60194  -0.52650  -0.52338  -0.51355
 Alpha  occ. eigenvalues --   -0.49205  -0.46513  -0.43636  -0.43085  -0.42799
 Alpha  occ. eigenvalues --   -0.42108  -0.41791  -0.41705  -0.40751  -0.40572
 Alpha  occ. eigenvalues --   -0.39983  -0.37847  -0.35365  -0.35196  -0.32884
 Alpha  occ. eigenvalues --   -0.32089  -0.31026  -0.30654  -0.29491  -0.27677
 Alpha  occ. eigenvalues --   -0.26519  -0.22363
 Alpha virt. eigenvalues --   -0.06743  -0.02961  -0.01613  -0.01062  -0.00618
 Alpha virt. eigenvalues --    0.00463   0.01002   0.01657   0.02511   0.02994
 Alpha virt. eigenvalues --    0.03392   0.04608   0.04730   0.05306   0.05601
 Alpha virt. eigenvalues --    0.05903   0.06270   0.06562   0.07002   0.07503
 Alpha virt. eigenvalues --    0.07695   0.07858   0.08399   0.08766   0.09089
 Alpha virt. eigenvalues --    0.09598   0.09835   0.10149   0.10818   0.11368
 Alpha virt. eigenvalues --    0.11852   0.12160   0.12735   0.13244   0.13483
 Alpha virt. eigenvalues --    0.13768   0.13987   0.14701   0.14891   0.15625
 Alpha virt. eigenvalues --    0.15691   0.16302   0.16689   0.17242   0.17877
 Alpha virt. eigenvalues --    0.18023   0.18352   0.18902   0.19287   0.19717
 Alpha virt. eigenvalues --    0.19876   0.20272   0.20928   0.21495   0.21646
 Alpha virt. eigenvalues --    0.22457   0.22815   0.23157   0.23600   0.23924
 Alpha virt. eigenvalues --    0.24444   0.24979   0.25138   0.25457   0.26123
 Alpha virt. eigenvalues --    0.26317   0.26916   0.27576   0.28433   0.29043
 Alpha virt. eigenvalues --    0.29662   0.29777   0.30160   0.31153   0.31374
 Alpha virt. eigenvalues --    0.31793   0.32593   0.32903   0.33170   0.33782
 Alpha virt. eigenvalues --    0.34911   0.35852   0.37046   0.40792   0.41294
 Alpha virt. eigenvalues --    0.42150   0.42776   0.45121   0.45871   0.46949
 Alpha virt. eigenvalues --    0.47131   0.48238   0.49581   0.50415   0.51199
 Alpha virt. eigenvalues --    0.51867   0.53277   0.53571   0.53823   0.54767
 Alpha virt. eigenvalues --    0.55449   0.56064   0.56569   0.56955   0.57659
 Alpha virt. eigenvalues --    0.59224   0.59852   0.60600   0.60997   0.62220
 Alpha virt. eigenvalues --    0.62560   0.62952   0.63374   0.63674   0.64428
 Alpha virt. eigenvalues --    0.64636   0.66069   0.66932   0.67873   0.68989
 Alpha virt. eigenvalues --    0.69499   0.69600   0.69722   0.70715   0.71358
 Alpha virt. eigenvalues --    0.72128   0.73903   0.74713   0.74743   0.75233
 Alpha virt. eigenvalues --    0.76246   0.77175   0.77607   0.78983   0.79142
 Alpha virt. eigenvalues --    0.79997   0.80623   0.81652   0.82828   0.83583
 Alpha virt. eigenvalues --    0.85155   0.85307   0.85501   0.86416   0.87401
 Alpha virt. eigenvalues --    0.88518   0.89417   0.89820   0.91907   0.92878
 Alpha virt. eigenvalues --    0.93752   0.94741   0.96423   0.97537   0.98422
 Alpha virt. eigenvalues --    0.99024   1.00542   1.01128   1.03296   1.06126
 Alpha virt. eigenvalues --    1.07900   1.09016   1.10038   1.10861   1.11413
 Alpha virt. eigenvalues --    1.12090   1.13336   1.14348   1.14865   1.17049
 Alpha virt. eigenvalues --    1.19505   1.20742   1.22608   1.25801   1.26886
 Alpha virt. eigenvalues --    1.35389   1.36486   1.36807   1.40822   1.42589
 Alpha virt. eigenvalues --    1.45724   1.46875   1.47912   1.48987   1.49735
 Alpha virt. eigenvalues --    1.51064   1.51573   1.51944   1.52942   1.53938
 Alpha virt. eigenvalues --    1.56248   1.56915   1.58514   1.59156   1.59606
 Alpha virt. eigenvalues --    1.60366   1.61067   1.62926   1.63963   1.64649
 Alpha virt. eigenvalues --    1.65640   1.66835   1.67207   1.68285   1.71222
 Alpha virt. eigenvalues --    1.73734   1.74705   1.75659   1.76503   1.77490
 Alpha virt. eigenvalues --    1.79073   1.80542   1.81637   1.82647   1.82915
 Alpha virt. eigenvalues --    1.85356   1.88067   1.88464   1.89985   1.90726
 Alpha virt. eigenvalues --    1.92529   1.93671   1.94964   1.95840   1.97452
 Alpha virt. eigenvalues --    1.98210   1.98724   2.01092   2.01402   2.01711
 Alpha virt. eigenvalues --    2.04058   2.05623   2.06669   2.10915   2.13241
 Alpha virt. eigenvalues --    2.14793   2.16687   2.17689   2.18948   2.19956
 Alpha virt. eigenvalues --    2.21132   2.22204   2.24792   2.25887   2.28190
 Alpha virt. eigenvalues --    2.32241   2.35448   2.36651   2.41032   2.41569
 Alpha virt. eigenvalues --    2.44536   2.46373   2.49285   2.50854   2.50968
 Alpha virt. eigenvalues --    2.51679   2.54262   2.55548   2.57359   2.57981
 Alpha virt. eigenvalues --    2.58932   2.61183   2.62819   2.63160   2.65456
 Alpha virt. eigenvalues --    2.65670   2.69025   2.69735   2.70344   2.71731
 Alpha virt. eigenvalues --    2.72275   2.73887   2.75051   2.75746   2.75975
 Alpha virt. eigenvalues --    2.77208   2.79195   2.80338   2.80911   2.83220
 Alpha virt. eigenvalues --    2.85244   2.85892   2.87058   2.88832   2.89520
 Alpha virt. eigenvalues --    2.91284   2.94647   2.98936   3.06370   3.09793
 Alpha virt. eigenvalues --    3.11568   3.14242   3.18983   3.21157   3.23774
 Alpha virt. eigenvalues --    3.26786   3.36058   3.37626   3.39129   3.40909
 Alpha virt. eigenvalues --    3.48794   3.52657   3.55202   3.61011   3.71310
 Alpha virt. eigenvalues --    3.78910   3.79168   3.80380   3.81518   3.82236
 Alpha virt. eigenvalues --    3.97094   4.04823   4.05534   4.14006   4.14035
 Alpha virt. eigenvalues --    4.15482   4.22407   4.25107   4.35063   4.42162
 Alpha virt. eigenvalues --    4.60129   4.82447   4.86434   5.81521   6.77193
 Alpha virt. eigenvalues --    7.56027   7.71051   7.77767  11.47514  11.51300
 Alpha virt. eigenvalues --   11.53798  23.47443  23.80708  23.90635  23.97194
 Alpha virt. eigenvalues --   23.99523  24.00813  24.01733  24.04156  24.06967
 Alpha virt. eigenvalues --   24.07086  24.14899  24.16752  48.02439 141.27235
 Alpha virt. eigenvalues --  289.75833 289.91076 289.999761020.83713
          Condensed to atoms (all electrons):
               1          2          3          4          5          6
     1  C    7.111150   0.015965  -0.725695  -0.227083  -1.255219   0.192008
     2  C    0.015965  11.252772  -2.361886  -1.418827   1.503535  -0.670057
     3  C   -0.725695  -2.361886  10.560594   1.421030  -1.233900   0.721378
     4  C   -0.227083  -1.418827   1.421030   9.304122   0.372916   1.041234
     5  C   -1.255219   1.503535  -1.233900   0.372916   9.030203  -1.174401
     6  C    0.192008  -0.670057   0.721378   1.041234  -1.174401   8.782449
     7  H    0.444652  -0.061497   0.018390   0.005832   0.009099  -0.069614
     8  C    0.693311  -1.202298  -0.513800  -1.615724  -0.834706  -0.751240
     9  C    0.525096  -0.436132  -1.923030  -2.166508  -0.460863  -1.968954
    10  H   -0.025817  -0.026919  -0.014744   0.028760  -0.028370   0.373746
    11  C   -0.145970   0.953897   0.301282  -1.792176   0.497818  -0.126146
    12  C   -0.184351  -1.719979  -0.648292   0.411315  -0.285383  -0.131035
    13  H   -0.003036   0.008758   0.019322   0.009335   0.012936   0.018135
    14  H   -0.000862   0.003249   0.002607   0.027356  -0.005557  -0.001656
    15  H    0.003072   0.032515   0.054440  -0.022858   0.000947  -0.000453
    16  Si   0.077618  -0.082677   0.067545   0.128845   0.100644   0.101548
    17  H    0.004133  -0.010695   0.001097   0.078704  -0.100873   0.007065
    18  C    0.025649   0.019996  -0.011033  -0.050038  -0.111791   0.000406
    19  H   -0.002751   0.001589  -0.004780  -0.027366  -0.019561  -0.001541
    20  H   -0.000911   0.000031  -0.000387   0.010940   0.023380   0.002439
    21  H    0.005821  -0.001726   0.005252  -0.001103  -0.011613  -0.012127
    22  C   -0.033163  -0.037323   0.015162   0.044960  -0.073704  -0.055638
    23  H    0.003298   0.001538  -0.001685  -0.004903  -0.012129   0.020336
    24  H   -0.017313   0.000419  -0.001710  -0.001558   0.045194  -0.018036
    25  H    0.012907  -0.002127   0.000817   0.003224  -0.036510   0.001392
    26  H    0.037153   0.338295  -0.039304   0.017631  -0.029710   0.018824
    27  Br  -0.023128   0.142377   0.040420   0.046620   0.001677   0.035103
               7          8          9         10         11         12
     1  C    0.444652   0.693311   0.525096  -0.025817  -0.145970  -0.184351
     2  C   -0.061497  -1.202298  -0.436132  -0.026919   0.953897  -1.719979
     3  C    0.018390  -0.513800  -1.923030  -0.014744   0.301282  -0.648292
     4  C    0.005832  -1.615724  -2.166508   0.028760  -1.792176   0.411315
     5  C    0.009099  -0.834706  -0.460863  -0.028370   0.497818  -0.285383
     6  C   -0.069614  -0.751240  -1.968954   0.373746  -0.126146  -0.131035
     7  H    0.541113   0.000403   0.003323  -0.007521  -0.000447  -0.000213
     8  C    0.000403   9.737939   1.963740   0.004219  -1.315951  -0.294080
     9  C    0.003323   1.963740  11.315516   0.021742  -1.250573   0.243105
    10  H   -0.007521   0.004219   0.021742   0.555583   0.001772  -0.000135
    11  C   -0.000447  -1.315951  -1.250573   0.001772   8.858900   0.268478
    12  C   -0.000213  -0.294080   0.243105  -0.000135   0.268478   8.159465
    13  H    0.000001  -0.028361   0.277176  -0.000001  -0.003057  -0.010594
    14  H    0.000000  -0.018340  -0.078587   0.000000   0.436271  -0.011307
    15  H   -0.000001  -0.010079  -0.039765   0.000000  -0.004256   0.341832
    16  Si  -0.002516   0.051240  -0.031016   0.001421  -0.197821   0.015809
    17  H    0.000007   0.004970  -0.064230   0.000250  -0.061107   0.004820
    18  C    0.000331  -0.002464   0.035553  -0.001833   0.043034   0.006705
    19  H    0.000000   0.000216   0.027150   0.000009   0.021505  -0.000453
    20  H    0.000000  -0.000201  -0.017223   0.000023  -0.004277  -0.000440
    21  H    0.000003   0.001094   0.004278  -0.000197  -0.001522   0.000848
    22  C    0.000630   0.008423  -0.015845  -0.000971  -0.025249  -0.000363
    23  H   -0.000001  -0.000204   0.002569   0.000068   0.001278  -0.000045
    24  H    0.000000  -0.000682  -0.000223  -0.000502   0.000458  -0.000042
    25  H    0.000002   0.000400   0.000386   0.001647  -0.000152   0.000029
    26  H   -0.007356  -0.009447   0.010617  -0.000416   0.001372  -0.011496
    27  Br   0.000279  -0.253493   0.033207  -0.000346   0.027242   0.038658
              13         14         15         16         17         18
     1  C   -0.003036  -0.000862   0.003072   0.077618   0.004133   0.025649
     2  C    0.008758   0.003249   0.032515  -0.082677  -0.010695   0.019996
     3  C    0.019322   0.002607   0.054440   0.067545   0.001097  -0.011033
     4  C    0.009335   0.027356  -0.022858   0.128845   0.078704  -0.050038
     5  C    0.012936  -0.005557   0.000947   0.100644  -0.100873  -0.111791
     6  C    0.018135  -0.001656  -0.000453   0.101548   0.007065   0.000406
     7  H    0.000001   0.000000  -0.000001  -0.002516   0.000007   0.000331
     8  C   -0.028361  -0.018340  -0.010079   0.051240   0.004970  -0.002464
     9  C    0.277176  -0.078587  -0.039765  -0.031016  -0.064230   0.035553
    10  H   -0.000001   0.000000   0.000000   0.001421   0.000250  -0.001833
    11  C   -0.003057   0.436271  -0.004256  -0.197821  -0.061107   0.043034
    12  C   -0.010594  -0.011307   0.341832   0.015809   0.004820   0.006705
    13  H    0.563382  -0.007575  -0.000365   0.035979   0.007061  -0.002663
    14  H   -0.007575   0.533744  -0.007936  -0.001693   0.000099   0.000193
    15  H   -0.000365  -0.007936   0.521214  -0.000644   0.000002   0.000002
    16  Si   0.035979  -0.001693  -0.000644  12.115943   0.481741   0.122886
    17  H    0.007061   0.000099   0.000002   0.481741   0.878762  -0.041882
    18  C   -0.002663   0.000193   0.000002   0.122886  -0.041882   5.837482
    19  H   -0.000354   0.000003   0.000000  -0.011729  -0.001393   0.359096
    20  H    0.000253  -0.000001   0.000000  -0.007561  -0.000154   0.361698
    21  H   -0.000102   0.000001   0.000000  -0.018192   0.002718   0.395904
    22  C   -0.000360  -0.000004   0.000001   0.246624  -0.040363  -0.138042
    23  H    0.000024   0.000000   0.000000  -0.020301  -0.001965   0.003724
    24  H    0.000031   0.000000   0.000000  -0.037979  -0.000868   0.012521
    25  H    0.000030   0.000000   0.000000   0.009103   0.002948  -0.007831
    26  H    0.000009  -0.000001   0.000012  -0.000596  -0.000002  -0.000024
    27  Br  -0.000579  -0.000682  -0.008905  -0.001084  -0.000045   0.000033
              19         20         21         22         23         24
     1  C   -0.002751  -0.000911   0.005821  -0.033163   0.003298  -0.017313
     2  C    0.001589   0.000031  -0.001726  -0.037323   0.001538   0.000419
     3  C   -0.004780  -0.000387   0.005252   0.015162  -0.001685  -0.001710
     4  C   -0.027366   0.010940  -0.001103   0.044960  -0.004903  -0.001558
     5  C   -0.019561   0.023380  -0.011613  -0.073704  -0.012129   0.045194
     6  C   -0.001541   0.002439  -0.012127  -0.055638   0.020336  -0.018036
     7  H    0.000000   0.000000   0.000003   0.000630  -0.000001   0.000000
     8  C    0.000216  -0.000201   0.001094   0.008423  -0.000204  -0.000682
     9  C    0.027150  -0.017223   0.004278  -0.015845   0.002569  -0.000223
    10  H    0.000009   0.000023  -0.000197  -0.000971   0.000068  -0.000502
    11  C    0.021505  -0.004277  -0.001522  -0.025249   0.001278   0.000458
    12  C   -0.000453  -0.000440   0.000848  -0.000363  -0.000045  -0.000042
    13  H   -0.000354   0.000253  -0.000102  -0.000360   0.000024   0.000031
    14  H    0.000003  -0.000001   0.000001  -0.000004   0.000000   0.000000
    15  H    0.000000   0.000000   0.000000   0.000001   0.000000   0.000000
    16  Si  -0.011729  -0.007561  -0.018192   0.246624  -0.020301  -0.037979
    17  H   -0.001393  -0.000154   0.002718  -0.040363  -0.001965  -0.000868
    18  C    0.359096   0.361698   0.395904  -0.138042   0.003724   0.012521
    19  H    0.511024  -0.016034  -0.017719   0.017084  -0.000109  -0.000157
    20  H   -0.016034   0.516876  -0.022045  -0.014207   0.001240  -0.000030
    21  H   -0.017719  -0.022045   0.501187  -0.005037   0.000094  -0.000160
    22  C    0.017084  -0.014207  -0.005037   5.715028   0.371504   0.380977
    23  H   -0.000109   0.001240   0.000094   0.371504   0.512543  -0.014189
    24  H   -0.000157  -0.000030  -0.000160   0.380977  -0.014189   0.501542
    25  H   -0.000142   0.000250   0.001372   0.375465  -0.023785  -0.019971
    26  H    0.000000   0.000000  -0.000001   0.000026   0.000000   0.000000
    27  Br   0.000000   0.000003  -0.000022  -0.000031   0.000002   0.000006
              25         26         27
     1  C    0.012907   0.037153  -0.023128
     2  C   -0.002127   0.338295   0.142377
     3  C    0.000817  -0.039304   0.040420
     4  C    0.003224   0.017631   0.046620
     5  C   -0.036510  -0.029710   0.001677
     6  C    0.001392   0.018824   0.035103
     7  H    0.000002  -0.007356   0.000279
     8  C    0.000400  -0.009447  -0.253493
     9  C    0.000386   0.010617   0.033207
    10  H    0.001647  -0.000416  -0.000346
    11  C   -0.000152   0.001372   0.027242
    12  C    0.000029  -0.011496   0.038658
    13  H    0.000030   0.000009  -0.000579
    14  H    0.000000  -0.000001  -0.000682
    15  H    0.000000   0.000012  -0.008905
    16  Si   0.009103  -0.000596  -0.001084
    17  H    0.002948  -0.000002  -0.000045
    18  C   -0.007831  -0.000024   0.000033
    19  H   -0.000142   0.000000   0.000000
    20  H    0.000250   0.000000   0.000003
    21  H    0.001372  -0.000001  -0.000022
    22  C    0.375465   0.000026  -0.000031
    23  H   -0.023785   0.000000   0.000002
    24  H   -0.019971   0.000000   0.000006
    25  H    0.524247  -0.000001  -0.000008
    26  H   -0.000001   0.530397  -0.000695
    27  Br  -0.000008  -0.000695  35.111375
 Mulliken charges:
               1
     1  C   -0.506534
     2  C   -0.242792
     3  C    0.250910
     4  C    0.375322
     5  C    0.075942
     6  C   -0.335168
     7  H    0.125099
     8  C    0.385114
     9  C   -0.010509
    10  H    0.118530
    11  C   -0.484603
    12  C   -0.192855
    13  H    0.104615
    14  H    0.130678
    15  H    0.141224
    16  Si   0.856863
    17  H   -0.150801
    18  C   -0.857611
    19  H    0.166416
    20  H    0.166338
    21  H    0.172994
    22  C   -0.735581
    23  H    0.161099
    24  H    0.172272
    25  H    0.156309
    26  H    0.144713
    27  Br  -0.187984
 Sum of Mulliken charges =   0.00000
 Mulliken charges with hydrogens summed into heavy atoms:
               1
     1  C   -0.381434
     2  C   -0.098080
     3  C    0.250910
     4  C    0.375322
     5  C    0.075942
     6  C   -0.216637
     8  C    0.385114
     9  C    0.094106
    11  C   -0.353925
    12  C   -0.051631
    16  Si   0.706062
    18  C   -0.351863
    22  C   -0.245901
    27  Br  -0.187984
 Electronic spatial extent (au):  <R**2>=           5095.4720
 Charge=              0.0000 electrons
 Dipole moment (field-independent basis, Debye):
    X=             -1.7873    Y=              0.1878    Z=              0.0952  Tot=              1.7997
 Quadrupole moment (field-independent basis, Debye-Ang):
   XX=           -101.6453   YY=            -95.5479   ZZ=           -109.2415
   XY=              1.2472   XZ=             -0.4234   YZ=             -1.2797
 Traceless Quadrupole moment (field-independent basis, Debye-Ang):
   XX=              0.4996   YY=              6.5970   ZZ=             -7.0966
   XY=              1.2472   XZ=             -0.4234   YZ=             -1.2797
 Octapole moment (field-independent basis, Debye-Ang**2):
  XXX=             99.6126  YYY=             -8.0678  ZZZ=              0.9619  XYY=             45.7390
  XXY=             -4.2056  XXZ=              3.0248  XZZ=             41.2483  YZZ=             -4.9371
  YYZ=              2.4615  XYZ=              0.6294
 Hexadecapole moment (field-independent basis, Debye-Ang**3):
 XXXX=          -4739.2395 YYYY=          -1136.7674 ZZZZ=           -351.3406 XXXY=            -69.6127
 XXXZ=             -0.2820 YYYX=             -4.9395 YYYZ=            -18.1941 ZZZX=             16.5641
 ZZZY=              3.3092 XXYY=           -987.9604 XXZZ=           -898.5309 YYZZ=           -288.3077
 XXYZ=            -17.0126 YYXZ=             -8.9397 ZZXY=             -6.9414
 N-N= 1.231772044488D+03 E-N=-1.038459033765D+04  KE= 3.323429156155D+03
 There are a total of      226990 grid points.
 ElSum from          density=      134.0001387179
 ElSum from atomic densities=      133.9994002761

 Hirshfeld populations at iteration   1 (CX, CA, CB, DipXYZ):
               1          2          3          4          5          6
     1  C    0.000000   3.021388   3.021388  -0.012342  -0.066247   0.005540
     2  C    0.000001   3.016121   3.016121   0.066171   0.001917   0.001316
     3  C    0.000000   2.998187   2.998187  -0.004543   0.009890  -0.001242
     4  C    0.000000   3.000101   3.000101   0.023240  -0.007320   0.001418
     5  C    0.000000   3.049608   3.049608   0.073361  -0.008813   0.005096
     6  C    0.000000   3.020446   3.020446  -0.039826  -0.058360   0.005459
     7  H    0.000002   0.476014   0.476014   0.010984  -0.161638   0.015831
     8  C    0.000001   2.988344   2.988344   0.004739  -0.026984   0.002599
     9  C    0.000000   3.019493   3.019493  -0.060550   0.002911  -0.003397
    10  H    0.000001   0.476964   0.476964  -0.122791  -0.095120   0.008028
    11  C    0.000000   3.021308   3.021308   0.015550   0.068001  -0.007391
    12  C    0.000000   3.015787   3.015787   0.052033   0.043802  -0.003300
    13  H    0.000000   0.477030   0.477030  -0.116365   0.080822  -0.002684
    14  H    0.000002   0.474483   0.474483  -0.012253   0.163966  -0.016387
    15  H    0.000010   0.471291   0.471291   0.132014   0.096865  -0.006028
    16  Si   0.000000   6.816973   6.816973  -0.038075  -0.013195  -0.000190
    17  H    0.000001   0.542226   0.542226   0.009328   0.104981  -0.067696
    18  C    0.000000   3.101572   3.101572  -0.036928   0.023007   0.090037
    19  H    0.000001   0.480413   0.480413   0.100625   0.101816   0.067418
    20  H    0.000001   0.480654   0.480654  -0.144006   0.067723  -0.015168
    21  H    0.000001   0.480008   0.480008  -0.011818  -0.133491   0.087033
    22  C    0.000000   3.101236   3.101236  -0.066712  -0.055766  -0.042379
    23  H    0.000001   0.479675   0.479675  -0.143368   0.073378  -0.009304
    24  H    0.000002   0.479849   0.479849   0.052834  -0.032264  -0.148963
    25  H    0.000001   0.481234   0.481234  -0.011667  -0.128935   0.089904
    26  H    0.000010   0.472949   0.472949   0.127959  -0.082012   0.011185
    27  Br   0.000058  17.556715  17.556715   0.204727  -0.098839   0.014362
       Tot   0.000093  67.000069  67.000069   0.052321  -0.129907   0.081097

 Dip from Atomic Chgs             -0.755882   0.203942  -0.043851
         Total Dipole             -0.703561   0.074035   0.037245

 Hirshfeld charges, spin densities, dipoles, and CM5 charges using IRadAn=      4:
              Q-H        S-H        Dx         Dy         Dz        Q-CM5   
     1  C   -0.042777   0.000000  -0.012342  -0.066247   0.005540  -0.100085
     2  C   -0.032242   0.000000   0.066171   0.001917   0.001316  -0.085413
     3  C    0.003626   0.000000  -0.004543   0.009890  -0.001242   0.000670
     4  C   -0.000202   0.000000   0.023240  -0.007320   0.001418  -0.007370
     5  C   -0.099216   0.000000   0.073361  -0.008813   0.005096  -0.135807
     6  C   -0.040892   0.000000  -0.039826  -0.058360   0.005459  -0.098062
     7  H    0.047971   0.000000   0.010984  -0.161638   0.015831   0.105529
     8  C    0.023311   0.000000   0.004739  -0.026984   0.002599   0.032219
     9  C   -0.038986   0.000000  -0.060550   0.002911  -0.003397  -0.095340
    10  H    0.046071   0.000000  -0.122791  -0.095120   0.008028   0.102300
    11  C   -0.042616   0.000000   0.015550   0.068001  -0.007391  -0.099865
    12  C   -0.031573   0.000000   0.052033   0.043802  -0.003300  -0.084230
    13  H    0.045939   0.000000  -0.116365   0.080822  -0.002684   0.099403
    14  H    0.051033   0.000000  -0.012253   0.163966  -0.016387   0.108590
    15  H    0.057418   0.000000   0.132014   0.096865  -0.006028   0.114071
    16  Si   0.366053   0.000000  -0.038075  -0.013195  -0.000190   0.229965
    17  H   -0.084451   0.000000   0.009328   0.104981  -0.067696   0.001195
    18  C   -0.203145   0.000000  -0.036928   0.023007   0.090037  -0.324639
    19  H    0.039175   0.000000   0.100625   0.101816   0.067418   0.096102
    20  H    0.038692   0.000000  -0.144006   0.067723  -0.015168   0.095438
    21  H    0.039984   0.000000  -0.011818  -0.133491   0.087033   0.096963
    22  C   -0.202471   0.000000  -0.066712  -0.055766  -0.042379  -0.324254
    23  H    0.040651   0.000000  -0.143368   0.073378  -0.009304   0.097397
    24  H    0.040302   0.000000   0.052834  -0.032264  -0.148963   0.097170
    25  H    0.037533   0.000000  -0.011667  -0.128935   0.089904   0.094687
    26  H    0.054102   0.000000   0.127959  -0.082012   0.011185   0.110153
    27  Br  -0.113429   0.000000   0.204727  -0.098839   0.014362  -0.126926
       Tot  -0.000139   0.000000   0.052321  -0.129907   0.081097  -0.000139
 Hirshfeld charges with hydrogens summed into heavy atoms:
              Q-H       Q-CM5   
     1  C    0.005194   0.005444
     2  C    0.021861   0.024740
     3  C    0.003626   0.000670
     4  C   -0.000202  -0.007370
     5  C   -0.099216  -0.135807
     6  C    0.005179   0.004238
     8  C    0.023311   0.032219
     9  C    0.006953   0.004063
    11  C    0.008417   0.008725
    12  C    0.025845   0.029840
    16  Si   0.281602   0.231160
    18  C   -0.085294  -0.036135
    22  C   -0.083986  -0.035001
    27  Br  -0.113429  -0.126926
 
 EQQ= 0.000000000000E+00 EQD= 0.000000000000E+00 EDD= 0.113556024868E-01
 EQQ+QD+DD= 0.113556024868E-01
 
          MBS Condensed to atoms (all electrons):
               1          2          3          4          5          6
     1  C    4.834281   0.515860  -0.029771  -0.010793  -0.030037   0.485076
     2  C    0.515860   4.855979   0.483309  -0.028897  -0.011944  -0.030353
     3  C   -0.029771   0.483309   4.744945   0.472352  -0.029515  -0.010863
     4  C   -0.010793  -0.028897   0.472352   4.742708   0.472393  -0.029444
     5  C   -0.030037  -0.011944  -0.029515   0.472393   4.979569   0.507699
     6  C    0.485076  -0.030353  -0.010863  -0.029444   0.507699   4.839385
     7  H    0.392284  -0.025874   0.001494   0.000055   0.001516  -0.026157
     8  C    0.000977  -0.033886   0.473873  -0.027176   0.000978   0.000035
     9  C    0.000032   0.001049  -0.031536   0.484430  -0.034543   0.000978
    10  H   -0.027010   0.001491   0.000028   0.001611  -0.028100   0.392336
    11  C    0.000001   0.000045  -0.009635  -0.030654   0.000994  -0.000013
    12  C   -0.000011   0.000860  -0.031904  -0.010122   0.000028   0.000001
    13  H   -0.000002  -0.000024   0.001451  -0.025975  -0.004788   0.000054
    14  H    0.000000   0.000001   0.000027   0.001508  -0.000024   0.000000
    15  H    0.000000  -0.000024   0.001435   0.000051   0.000001   0.000000
    16  Si   0.000886   0.000024   0.000865  -0.020266   0.355554  -0.018569
    17  H   -0.000003   0.000000  -0.000012  -0.000268  -0.007751   0.000166
    18  C   -0.000002   0.000000  -0.000002  -0.000033  -0.006381  -0.000075
    19  H    0.000000   0.000000  -0.000001   0.000041  -0.000171   0.000007
    20  H    0.000000   0.000000   0.000000   0.000000   0.000210   0.000001
    21  H   -0.000001   0.000000   0.000000   0.000010  -0.000149   0.000054
    22  C    0.000003   0.000000  -0.000001   0.000074  -0.006054  -0.000967
    23  H    0.000000   0.000000   0.000000  -0.000001   0.000192   0.000020
    24  H   -0.000002   0.000000   0.000000   0.000001  -0.000157   0.000090
    25  H   -0.000001   0.000000   0.000000   0.000002  -0.000272  -0.000327
    26  H   -0.023422   0.385542  -0.025625   0.001381   0.000048   0.001378
    27  Br  -0.000028  -0.007069  -0.020754   0.000216   0.000005   0.000003
               7          8          9         10         11         12
     1  C    0.392284   0.000977   0.000032  -0.027010   0.000001  -0.000011
     2  C   -0.025874  -0.033886   0.001049   0.001491   0.000045   0.000860
     3  C    0.001494   0.473873  -0.031536   0.000028  -0.009635  -0.031904
     4  C    0.000055  -0.027176   0.484430   0.001611  -0.030654  -0.010122
     5  C    0.001516   0.000978  -0.034543  -0.028100   0.000994   0.000028
     6  C   -0.026157   0.000035   0.000978   0.392336  -0.000013   0.000001
     7  H    0.550684  -0.000022   0.000001  -0.003500   0.000000   0.000000
     8  C   -0.000022   4.803398  -0.011270   0.000001  -0.028017   0.508556
     9  C    0.000001  -0.011270   4.863991  -0.000021   0.515284  -0.030625
    10  H   -0.003500   0.000001  -0.000021   0.559610   0.000000   0.000000
    11  C    0.000000  -0.028017   0.515284   0.000000   4.832617   0.485341
    12  C    0.000000   0.508556  -0.030625   0.000000   0.485341   4.824076
    13  H    0.000000   0.000064   0.391510  -0.000002  -0.024479   0.001445
    14  H    0.000000   0.001395  -0.025421   0.000000   0.393131  -0.025537
    15  H    0.000000  -0.025809   0.001473   0.000000  -0.024290   0.390625
    16  Si  -0.000024  -0.000010  -0.008747  -0.004126   0.000082   0.000000
    17  H    0.000000   0.000000  -0.004906   0.000019   0.000065  -0.000001
    18  C    0.000000   0.000000  -0.000013   0.000046   0.000000   0.000000
    19  H    0.000000   0.000000   0.000064   0.000001   0.000000   0.000000
    20  H    0.000000   0.000000   0.000001  -0.000003   0.000000   0.000000
    21  H    0.000000   0.000000   0.000000   0.000026   0.000000   0.000000
    22  C    0.000000   0.000000   0.000014   0.000166   0.000000   0.000000
    23  H    0.000000   0.000000   0.000000  -0.000021   0.000000   0.000000
    24  H    0.000000   0.000000   0.000000   0.000002   0.000000   0.000000
    25  H    0.000000   0.000000   0.000000   0.000823   0.000000   0.000000
    26  H   -0.003600  -0.004953  -0.000025  -0.000038  -0.000003   0.000072
    27  Br  -0.000002   0.280429  -0.000026   0.000000   0.000297  -0.018424
              13         14         15         16         17         18
     1  C   -0.000002   0.000000   0.000000   0.000886  -0.000003  -0.000002
     2  C   -0.000024   0.000001  -0.000024   0.000024   0.000000   0.000000
     3  C    0.001451   0.000027   0.001435   0.000865  -0.000012  -0.000002
     4  C   -0.025975   0.001508   0.000051  -0.020266  -0.000268  -0.000033
     5  C   -0.004788  -0.000024   0.000001   0.355554  -0.007751  -0.006381
     6  C    0.000054   0.000000   0.000000  -0.018569   0.000166  -0.000075
     7  H    0.000000   0.000000   0.000000  -0.000024   0.000000   0.000000
     8  C    0.000064   0.001395  -0.025809  -0.000010   0.000000   0.000000
     9  C    0.391510  -0.025421   0.001473  -0.008747  -0.004906  -0.000013
    10  H   -0.000002   0.000000   0.000000  -0.004126   0.000019   0.000046
    11  C   -0.024479   0.393131  -0.024290   0.000082   0.000065   0.000000
    12  C    0.001445  -0.025537   0.390625   0.000000  -0.000001   0.000000
    13  H    0.544971  -0.003610  -0.000038   0.002404   0.001365  -0.000172
    14  H   -0.003610   0.544656  -0.003836   0.000000   0.000009   0.000000
    15  H   -0.000038  -0.003836   0.535700   0.000000   0.000000   0.000000
    16  Si   0.002404   0.000000   0.000000  12.172688   0.345212   0.342666
    17  H    0.001365   0.000009   0.000000   0.345212   0.805678  -0.008525
    18  C   -0.000172   0.000000   0.000000   0.342666  -0.008525   4.996621
    19  H    0.000070   0.000000   0.000000  -0.014952  -0.000236   0.376017
    20  H    0.000006   0.000000   0.000000  -0.014859  -0.000154   0.375051
    21  H    0.000003   0.000000   0.000000  -0.015297   0.000383   0.376263
    22  C   -0.000011   0.000000   0.000000   0.344488  -0.008253  -0.006785
    23  H    0.000001   0.000000   0.000000  -0.014659  -0.000175  -0.000150
    24  H    0.000000   0.000000   0.000000  -0.014949  -0.000199   0.000213
    25  H    0.000001   0.000000   0.000000  -0.015546   0.000379  -0.000222
    26  H    0.000001   0.000000  -0.000002   0.000001   0.000000   0.000000
    27  Br   0.000000   0.000003  -0.001527   0.000000   0.000000   0.000000
              19         20         21         22         23         24
     1  C    0.000000   0.000000  -0.000001   0.000003   0.000000  -0.000002
     2  C    0.000000   0.000000   0.000000   0.000000   0.000000   0.000000
     3  C   -0.000001   0.000000   0.000000  -0.000001   0.000000   0.000000
     4  C    0.000041   0.000000   0.000010   0.000074  -0.000001   0.000001
     5  C   -0.000171   0.000210  -0.000149  -0.006054   0.000192  -0.000157
     6  C    0.000007   0.000001   0.000054  -0.000967   0.000020   0.000090
     7  H    0.000000   0.000000   0.000000   0.000000   0.000000   0.000000
     8  C    0.000000   0.000000   0.000000   0.000000   0.000000   0.000000
     9  C    0.000064   0.000001   0.000000   0.000014   0.000000   0.000000
    10  H    0.000001  -0.000003   0.000026   0.000166  -0.000021   0.000002
    11  C    0.000000   0.000000   0.000000   0.000000   0.000000   0.000000
    12  C    0.000000   0.000000   0.000000   0.000000   0.000000   0.000000
    13  H    0.000070   0.000006   0.000003  -0.000011   0.000001   0.000000
    14  H    0.000000   0.000000   0.000000   0.000000   0.000000   0.000000
    15  H    0.000000   0.000000   0.000000   0.000000   0.000000   0.000000
    16  Si  -0.014952  -0.014859  -0.015297   0.344488  -0.014659  -0.014949
    17  H   -0.000236  -0.000154   0.000383  -0.008253  -0.000175  -0.000199
    18  C    0.376017   0.375051   0.376263  -0.006785  -0.000150   0.000213
    19  H    0.576996  -0.021594  -0.021530   0.000215  -0.000001  -0.000006
    20  H   -0.021594   0.581840  -0.021704  -0.000164   0.000092  -0.000001
    21  H   -0.021530  -0.021704   0.577875  -0.000231   0.000019  -0.000001
    22  C    0.000215  -0.000164  -0.000231   4.995744   0.376119   0.376274
    23  H   -0.000001   0.000092   0.000019   0.376119   0.577848  -0.021439
    24  H   -0.000006  -0.000001  -0.000001   0.376274  -0.021439   0.575244
    25  H   -0.000001   0.000018   0.000146   0.375559  -0.021589  -0.021752
    26  H    0.000000   0.000000   0.000000   0.000000   0.000000   0.000000
    27  Br   0.000000   0.000000   0.000000   0.000000   0.000000   0.000000
              25         26         27
     1  C   -0.000001  -0.023422  -0.000028
     2  C    0.000000   0.385542  -0.007069
     3  C    0.000000  -0.025625  -0.020754
     4  C    0.000002   0.001381   0.000216
     5  C   -0.000272   0.000048   0.000005
     6  C   -0.000327   0.001378   0.000003
     7  H    0.000000  -0.003600  -0.000002
     8  C    0.000000  -0.004953   0.280429
     9  C    0.000000  -0.000025  -0.000026
    10  H    0.000823  -0.000038   0.000000
    11  C    0.000000  -0.000003   0.000297
    12  C    0.000000   0.000072  -0.018424
    13  H    0.000001   0.000001   0.000000
    14  H    0.000000   0.000000   0.000003
    15  H    0.000000  -0.000002  -0.001527
    16  Si  -0.015546   0.000001   0.000000
    17  H    0.000379   0.000000   0.000000
    18  C   -0.000222   0.000000   0.000000
    19  H   -0.000001   0.000000   0.000000
    20  H    0.000018   0.000000   0.000000
    21  H    0.000146   0.000000   0.000000
    22  C    0.375559   0.000000   0.000000
    23  H   -0.021589   0.000000   0.000000
    24  H   -0.021752   0.000000   0.000000
    25  H    0.583898   0.000000   0.000000
    26  H    0.000000   0.529141   0.010162
    27  Br   0.000000   0.010162  34.926590
 MBS Mulliken charges:
               1
     1  C   -0.108316
     2  C   -0.106089
     3  C    0.009841
     4  C    0.006797
     5  C   -0.159301
     6  C   -0.110515
     7  H    0.113143
     8  C    0.061435
     9  C   -0.111694
    10  H    0.106661
    11  C   -0.110765
    12  C   -0.094380
    13  H    0.115756
    14  H    0.117697
    15  H    0.126241
    16  Si   0.577133
    17  H   -0.122791
    18  C   -0.444521
    19  H    0.105081
    20  H    0.101262
    21  H    0.104135
    22  C   -0.446190
    23  H    0.103746
    24  H    0.106681
    25  H    0.098886
    26  H    0.129943
    27  Br  -0.169875
 Sum of MBS Mulliken charges =   0.00000
 MBS Mulliken charges with hydrogens summed into heavy atoms:
               1
     1  C    0.004827
     2  C    0.023854
     3  C    0.009841
     4  C    0.006797
     5  C   -0.159301
     6  C   -0.003855
     8  C    0.061435
     9  C    0.004062
    11  C    0.006932
    12  C    0.031861
    16  Si   0.454342
    18  C   -0.134043
    22  C   -0.136878
    27  Br  -0.169875
 ******************************Gaussian NBO Version 3.1******************************
             N A T U R A L   A T O M I C   O R B I T A L   A N D
          N A T U R A L   B O N D   O R B I T A L   A N A L Y S I S
 ******************************Gaussian NBO Version 3.1******************************
       /RESON  / : Allow strongly delocalized NBO set

 Analyzing the SCF density

 Job title: Table2_6                                                        

 Storage needed:    531834 in NPA ( 104853685 available)
 Remove ICRem=  163 ICRemI=  164 L=0 PNAO number  163 atom    9 type  51 NPNAO=  420
   due to symmetric orthogonalization 2, value= 0.00D+00.


 NATURAL POPULATIONS:  Natural atomic orbital occupancies 
                                                          
   NAO  Atom  No  lang   Type(AO)    Occupancy      Energy
 ----------------------------------------------------------
     1    C    1  S      Cor( 1S)     1.99919     -10.03838
     2    C    1  S      Val( 2S)     0.95221      -0.16883
     3    C    1  S      Ryd( 3S)     0.00150       0.84422
     4    C    1  S      Ryd( 4S)     0.00015       1.18585
     5    C    1  S      Ryd( 5S)     0.00000      22.52695
     6    C    1  px     Val( 2p)     1.05908      -0.04993
     7    C    1  px     Ryd( 4p)     0.00433       0.76021
     8    C    1  px     Ryd( 3p)     0.00034       0.42341
     9    C    1  px     Ryd( 5p)     0.00016       3.09119
    10    C    1  py     Val( 2p)     1.16914      -0.05555
    11    C    1  py     Ryd( 4p)     0.00726       1.02860
    12    C    1  py     Ryd( 3p)     0.00029       0.29913
    13    C    1  py     Ryd( 5p)     0.00005       3.17559
    14    C    1  pz     Val( 2p)     0.99152      -0.11458
    15    C    1  pz     Ryd( 4p)     0.00124       0.51789
    16    C    1  pz     Ryd( 3p)     0.00022       0.31181
    17    C    1  pz     Ryd( 5p)     0.00002       2.69081
    18    C    1  dxy    Ryd( 3d)     0.00063       2.56233
    19    C    1  dxz    Ryd( 3d)     0.00050       1.67574
    20    C    1  dyz    Ryd( 3d)     0.00037       1.62597
    21    C    1  dx2y2  Ryd( 3d)     0.00086       2.48568
    22    C    1  dz2    Ryd( 3d)     0.00039       2.04167

    23    C    2  S      Cor( 1S)     1.99911     -10.03378
    24    C    2  S      Val( 2S)     0.94062      -0.15887
    25    C    2  S      Ryd( 3S)     0.00137       0.89462
    26    C    2  S      Ryd( 4S)     0.00015       1.67268
    27    C    2  S      Ryd( 5S)     0.00002      21.94081
    28    C    2  px     Val( 2p)     1.16527      -0.06282
    29    C    2  px     Ryd( 4p)     0.00540       1.10328
    30    C    2  px     Ryd( 3p)     0.00029       0.41080
    31    C    2  px     Ryd( 5p)     0.00006       3.19221
    32    C    2  py     Val( 2p)     1.06026      -0.04102
    33    C    2  py     Ryd( 4p)     0.00435       0.85234
    34    C    2  py     Ryd( 3p)     0.00058       0.44148
    35    C    2  py     Ryd( 5p)     0.00013       3.15842
    36    C    2  pz     Val( 2p)     0.98208      -0.11405
    37    C    2  pz     Ryd( 4p)     0.00156       0.53542
    38    C    2  pz     Ryd( 3p)     0.00055       0.31225
    39    C    2  pz     Ryd( 5p)     0.00002       2.69629
    40    C    2  dxy    Ryd( 3d)     0.00072       2.53817
    41    C    2  dxz    Ryd( 3d)     0.00042       1.63053
    42    C    2  dyz    Ryd( 3d)     0.00047       1.68670
    43    C    2  dx2y2  Ryd( 3d)     0.00073       2.56255
    44    C    2  dz2    Ryd( 3d)     0.00039       2.05596

    45    C    3  S      Cor( 1S)     1.99877     -10.03180
    46    C    3  S      Val( 2S)     0.85020      -0.10056
    47    C    3  S      Ryd( 4S)     0.00106       0.89336
    48    C    3  S      Ryd( 3S)     0.00017       0.78891
    49    C    3  S      Ryd( 5S)     0.00002      23.00357
    50    C    3  px     Val( 2p)     1.11142      -0.07991
    51    C    3  px     Ryd( 4p)     0.00579       1.18662
    52    C    3  px     Ryd( 3p)     0.00016       0.59935
    53    C    3  px     Ryd( 5p)     0.00014       3.46425
    54    C    3  py     Val( 2p)     1.12074      -0.08399
    55    C    3  py     Ryd( 4p)     0.00511       1.29649
    56    C    3  py     Ryd( 3p)     0.00024       0.64350
    57    C    3  py     Ryd( 5p)     0.00012       3.40720
    58    C    3  pz     Val( 2p)     1.01221      -0.11180
    59    C    3  pz     Ryd( 4p)     0.00095       0.57418
    60    C    3  pz     Ryd( 3p)     0.00029       0.42275
    61    C    3  pz     Ryd( 5p)     0.00001       2.77453
    62    C    3  dxy    Ryd( 3d)     0.00085       2.62486
    63    C    3  dxz    Ryd( 3d)     0.00055       1.67693
    64    C    3  dyz    Ryd( 3d)     0.00069       1.68371
    65    C    3  dx2y2  Ryd( 3d)     0.00076       2.66605
    66    C    3  dz2    Ryd( 3d)     0.00040       2.11773

    67    C    4  S      Cor( 1S)     1.99890     -10.03030
    68    C    4  S      Val( 2S)     0.84282      -0.09218
    69    C    4  S      Ryd( 3S)     0.00110       0.81632
    70    C    4  S      Ryd( 4S)     0.00016       0.83816
    71    C    4  S      Ryd( 5S)     0.00002      23.00297
    72    C    4  px     Val( 2p)     1.09987      -0.06370
    73    C    4  px     Ryd( 4p)     0.00482       1.19885
    74    C    4  px     Ryd( 3p)     0.00028       0.64804
    75    C    4  px     Ryd( 5p)     0.00017       3.43810
    76    C    4  py     Val( 2p)     1.11202      -0.08169
    77    C    4  py     Ryd( 4p)     0.00645       1.15740
    78    C    4  py     Ryd( 3p)     0.00020       0.66396
    79    C    4  py     Ryd( 5p)     0.00015       3.41269
    80    C    4  pz     Val( 2p)     0.99446      -0.10717
    81    C    4  pz     Ryd( 4p)     0.00058       0.58890
    82    C    4  pz     Ryd( 3p)     0.00035       0.43258
    83    C    4  pz     Ryd( 5p)     0.00001       2.75945
    84    C    4  dxy    Ryd( 3d)     0.00071       2.62684
    85    C    4  dxz    Ryd( 3d)     0.00058       1.68162
    86    C    4  dyz    Ryd( 3d)     0.00067       1.68841
    87    C    4  dx2y2  Ryd( 3d)     0.00085       2.64927
    88    C    4  dz2    Ryd( 3d)     0.00039       2.13246

    89    C    5  S      Cor( 1S)     1.99902     -10.02832
    90    C    5  S      Val( 2S)     0.99890      -0.20915
    91    C    5  S      Ryd( 4S)     0.00618       0.88024
    92    C    5  S      Ryd( 3S)     0.00016       0.64806
    93    C    5  S      Ryd( 5S)     0.00001      23.45430
    94    C    5  px     Val( 2p)     1.24584      -0.12044
    95    C    5  px     Ryd( 4p)     0.00909       0.98172
    96    C    5  px     Ryd( 3p)     0.00022       0.82345
    97    C    5  px     Ryd( 5p)     0.00010       3.07966
    98    C    5  py     Val( 2p)     1.11095      -0.07156
    99    C    5  py     Ryd( 4p)     0.00701       0.90817
   100    C    5  py     Ryd( 3p)     0.00028       0.81037
   101    C    5  py     Ryd( 5p)     0.00013       3.20485
   102    C    5  pz     Val( 2p)     1.00681      -0.11594
   103    C    5  pz     Ryd( 4p)     0.00194       0.64049
   104    C    5  pz     Ryd( 3p)     0.00041       0.56307
   105    C    5  pz     Ryd( 5p)     0.00002       2.60491
   106    C    5  dxy    Ryd( 3d)     0.00087       2.29779
   107    C    5  dxz    Ryd( 3d)     0.00037       1.58183
   108    C    5  dyz    Ryd( 3d)     0.00058       1.66824
   109    C    5  dx2y2  Ryd( 3d)     0.00081       2.37340
   110    C    5  dz2    Ryd( 3d)     0.00053       2.01933

   111    C    6  S      Cor( 1S)     1.99913     -10.03531
   112    C    6  S      Val( 2S)     0.94063      -0.16040
   113    C    6  S      Ryd( 3S)     0.00142       0.91835
   114    C    6  S      Ryd( 4S)     0.00019       0.98224
   115    C    6  S      Ryd( 5S)     0.00001      22.79303
   116    C    6  px     Val( 2p)     1.13744      -0.05735
   117    C    6  px     Ryd( 4p)     0.00669       0.99460
   118    C    6  px     Ryd( 3p)     0.00040       0.45553
   119    C    6  px     Ryd( 5p)     0.00009       3.23178
   120    C    6  py     Val( 2p)     1.10806      -0.05906
   121    C    6  py     Ryd( 4p)     0.00501       0.82345
   122    C    6  py     Ryd( 3p)     0.00044       0.41325
   123    C    6  py     Ryd( 5p)     0.00010       3.18396
   124    C    6  pz     Val( 2p)     0.98713      -0.11500
   125    C    6  pz     Ryd( 4p)     0.00116       0.52525
   126    C    6  pz     Ryd( 3p)     0.00032       0.37339
   127    C    6  pz     Ryd( 5p)     0.00002       2.69315
   128    C    6  dxy    Ryd( 3d)     0.00089       2.48724
   129    C    6  dxz    Ryd( 3d)     0.00041       1.63458
   130    C    6  dyz    Ryd( 3d)     0.00047       1.67264
   131    C    6  dx2y2  Ryd( 3d)     0.00063       2.55663
   132    C    6  dz2    Ryd( 3d)     0.00039       2.02704

   133    H    7  S      Val( 1S)     0.79326       0.05160
   134    H    7  S      Ryd( 2S)     0.00066       0.70225
   135    H    7  S      Ryd( 3S)     0.00020       2.05275
   136    H    7  px     Ryd( 2p)     0.00011       2.00669
   137    H    7  py     Ryd( 2p)     0.00041       2.71466
   138    H    7  pz     Ryd( 2p)     0.00019       1.61231

   139    C    8  S      Cor( 1S)     1.99856     -10.10484
   140    C    8  S      Val( 2S)     0.94365      -0.22408
   141    C    8  S      Ryd( 4S)     0.00137       0.92167
   142    C    8  S      Ryd( 3S)     0.00029       0.72341
   143    C    8  S      Ryd( 5S)     0.00001      23.17789
   144    C    8  px     Val( 2p)     0.98122      -0.15105
   145    C    8  px     Ryd( 4p)     0.00652       0.88217
   146    C    8  px     Ryd( 3p)     0.00030       0.82237
   147    C    8  px     Ryd( 5p)     0.00021       3.08857
   148    C    8  py     Val( 2p)     1.05410      -0.09504
   149    C    8  py     Ryd( 4p)     0.00657       0.81424
   150    C    8  py     Ryd( 3p)     0.00022       0.62818
   151    C    8  py     Ryd( 5p)     0.00017       3.26078
   152    C    8  pz     Val( 2p)     1.07029      -0.14838
   153    C    8  pz     Ryd( 4p)     0.00136       0.59094
   154    C    8  pz     Ryd( 3p)     0.00048       0.36149
   155    C    8  pz     Ryd( 5p)     0.00001       2.66182
   156    C    8  dxy    Ryd( 3d)     0.00126       2.25654
   157    C    8  dxz    Ryd( 3d)     0.00090       1.53646
   158    C    8  dyz    Ryd( 3d)     0.00079       1.63135
   159    C    8  dx2y2  Ryd( 3d)     0.00116       2.33951
   160    C    8  dz2    Ryd( 3d)     0.00067       1.98823

   161    C    9  S      Cor( 1S)     1.99898     -10.03659
   162    C    9  S      Val( 2S)     0.92893      -0.17052
   163    C    9  S      Ryd( 3S)     0.00056       0.72639
   164    C    9  S      Ryd( 4S)     0.00003      23.26645
   165    C    9  px     Val( 2p)     1.15892      -0.06364
   166    C    9  px     Ryd( 4p)     0.00421       1.13115
[...]
 1,-0.00001965,0.00000802,0.00005593,0.00001986,0.00001581,-0.00001141,
 -0.00001389,-0.00003915,0.00005443,0.00000740,0.00000808,0.00000296,0.
 00000452,0.00000344,0.00000276,0.00000048,0.00235480,-0.00445609,0.000
 92525,-0.00021792,0.00025984,-0.00024940,0.11633700,-0.21974864,-0.045
 01771,-0.00357572,0.00526082,0.00178363,-0.12711101,0.23710529,-0.0000
 1112,-0.00023594,0.00050393,0.00003969,-0.00019822,-0.00010624,0.00007
 938,-0.00012657,0.00029567,-0.00029524,-0.00039973,-0.00002018,-0.0012
 3395,-0.00039011,-0.00466580,0.00085545,-0.00030040,-0.00015913,0.0000
 3712,-0.00011132,-0.00001458,-0.00013388,0.00009490,0.00001913,-0.0000
 2966,0.00000513,-0.00015418,-0.00009317,-0.00002890,-0.00026970,0.0000
 6203,0.00008491,0.00001253,0.00005378,0.00000735,-0.00000841,0.0000404
 5,-0.00002504,-0.00001062,0.00003815,0.00000667,0.00001248,0.00000985,
 0.00000358,0.00000187,0.01253089,-0.01756015,-0.00289027,-0.00060697,0
 .00125404,0.00110480,0.03911004,-0.05710758,-0.05108958,-0.00457896,0.
 00790012,0.00057340,-0.03393498,0.05019561,0.05228068,0.00000180,0.000
 03055,-0.00002030,-0.00001601,0.00001011,0.00000364,-0.00000821,0.0000
 3831,-0.00000944,-0.00017277,0.00002171,-0.00002963,-0.00006706,0.0000
 6164,0.00021113,0.00006754,0.00011815,-0.00003460,0.00000283,0.0000001
 1,0.00000577,-0.00002787,-0.00001151,-0.00000121,0.00000394,-0.0002928
 7,0.00014432,-0.00000184,-0.00002767,0.00002271,0.00002480,0.00008548,
 0.00003433,-0.00001151,0.00003336,-0.00001668,0.00001734,0.00013270,-0
 .00016730,0.00001628,-0.00000598,0.00000849,-0.00000826,0.00001228,0.0
 0000195,-0.00072636,0.00186778,-0.00155075,0.00053665,-0.00020454,-0.0
 0070227,-0.07142781,-0.06447850,0.05006072,-0.00991432,-0.02307605,0.0
 1897381,0.00559261,0.01281079,-0.01136587,0.07613101,0.00000737,-0.000
 04189,-0.00006416,-0.00004485,0.00003442,0.00000937,-0.00002053,0.0000
 7107,-0.00002356,0.00008246,0.00007521,0.00003792,-0.00013770,0.000245
 89,0.00064348,-0.00007701,0.00000274,0.00003480,0.00000081,0.00001231,
 0.00000187,0.00005743,-0.00003554,-0.00000126,0.00005884,0.00002669,0.
 00001525,-0.00001330,0.00000293,0.00000112,-0.00002389,-0.00003160,-0.
 00000419,-0.00000611,-0.00000493,-0.00000114,-0.00005117,-0.00003476,-
 0.00004186,0.00000144,-0.00000183,-0.00000712,-0.00000284,-0.00000271,
 0.00000229,0.00223949,0.00317595,-0.00394970,-0.00019580,0.00031706,-0
 .00171682,-0.06423563,-0.18678636,0.11194566,-0.00143081,-0.00468200,0
 .00277548,-0.00943079,-0.01916703,0.01552066,0.07283016,0.20669355,-0.
 00000773,-0.00018386,-0.00015948,-0.00010392,-0.00002697,0.00000187,-0
 .00001943,0.00015612,-0.00003711,0.00037188,0.00009111,0.00017474,-0.0
 0082742,-0.00028353,0.00130510,0.00010451,-0.00032622,0.00012824,0.000
 01227,-0.00001140,-0.00001080,0.00000642,-0.00004338,-0.00001980,-0.00
 015342,0.00019598,0.00009579,-0.00006672,-0.00003007,-0.00005249,0.000
 01291,-0.00014778,-0.00001599,-0.00001051,0.00003132,0.00000616,-0.000
 14237,-0.00009058,-0.00010618,-0.00001012,0.00000055,-0.00000794,0.000
 00353,-0.00001049,-0.00000556,0.00811788,0.01760806,-0.01157242,-0.000
 51479,-0.00125474,-0.00425935,0.05604539,0.12573259,-0.12988814,-0.002
 88329,-0.00768025,0.00444003,-0.00347675,-0.00655935,0.00361962,-0.055
 89864,-0.12598145,0.13462491,-0.00014341,-0.00033738,0.00010910,-0.000
 18707,0.00015929,0.00001398,-0.00052888,0.00003358,0.00010722,0.000551
 89,0.00180936,0.00005689,-0.00631454,-0.00093714,-0.00177463,-0.000771
 71,-0.00020844,0.00007005,-0.00001056,0.00014298,0.00001751,0.00020934
 ,-0.00022166,-0.00001153,0.00004455,0.00001983,-0.00010732,-0.00032976
 ,0.00003935,-0.00011237,0.00005057,-0.00008395,-0.00006354,-0.00011478
 ,0.00012030,0.00003222,0.00001410,0.00004049,0.00012050,-0.00004245,-0
 .00002150,-0.00000578,-0.00002281,0.00000076,0.00001035,-0.13637926,-0
 .01897291,-0.02359935,-0.00337570,-0.00069767,-0.00106593,0.00068087,-
 0.00004820,0.00045935,0.00051146,0.00012317,0.00050376,-0.00006990,-0.
 00026994,-0.00019360,0.00000625,0.00028983,-0.00017201,0.38748771,0.00
 051912,0.00063002,0.00032824,0.00032987,-0.00023252,-0.00009654,0.0012
 4225,0.00004056,-0.00022455,-0.00010696,-0.00370833,-0.00077237,0.0140
 9568,0.00393257,0.00236151,-0.00007809,0.00029993,0.00033358,-0.000028
 49,-0.00007884,-0.00000482,-0.00029433,-0.00000341,0.00002721,-0.00000
 787,-0.00099128,-0.00030818,0.00116869,0.00026667,-0.00031266,0.000118
 39,0.00049742,0.00002920,0.00013715,-0.00000412,0.00000939,0.00004221,
 0.00034826,0.00027262,0.00010408,0.00002024,-0.00000571,0.00000129,0.0
 0003795,0.00001814,-0.01987324,-0.04395128,-0.00356660,-0.01234308,-0.
 00081970,-0.00217291,-0.00457212,0.00206652,-0.00100910,-0.00000088,0.
 00014586,-0.00122714,0.00019494,0.00016985,0.00108423,0.00021341,0.000
 04403,-0.00058179,-0.01269977,0.50467254,0.00028253,0.00018578,-0.0003
 0186,0.00006729,-0.00012957,0.00006832,0.00027990,-0.00001366,-0.00016
 281,0.00023818,-0.00081766,0.00014133,0.00359777,0.00020656,0.00295054
 ,-0.00021093,-0.00015475,-0.00041023,-0.00001275,-0.00002404,-0.000018
 94,-0.00005925,0.00005254,-0.00004889,0.00034486,-0.00004635,0.0004317
 1,0.00014758,0.00008492,0.00043058,0.00004030,-0.00012072,0.00008119,0
 .00009387,-0.00001404,-0.00002461,-0.00017667,-0.00008506,-0.00045808,
 0.00002790,0.00002093,-0.00000933,0.00001520,-0.00001168,-0.00003079,-
 0.02103473,-0.00263991,-0.04587252,0.00890608,0.00227441,0.00394534,-0
 .01942159,-0.00361290,-0.00181221,-0.00018032,-0.00134611,-0.00542616,
 0.00051852,0.00012127,0.00132165,0.00042930,0.00068918,0.00159304,-0.0
 2725440,-0.00211867,0.50613620,0.00004199,-0.00008132,-0.00005460,-0.0
 0011463,0.00002727,-0.00001043,-0.00041955,-0.00001440,0.00010009,0.00
 004128,0.00141131,0.00017623,-0.00426771,-0.00164296,-0.00112710,-0.00
 011860,-0.00071478,-0.00004601,-0.00000448,0.00004670,0.00000860,0.000
 08512,-0.00001911,-0.00001043,-0.00008535,0.00022299,0.00005646,0.0000
 4691,-0.00015472,0.00003510,-0.00001550,-0.00010298,-0.00003344,-0.000
 05298,0.00003073,0.00001665,0.00004864,-0.00003738,-0.00001706,-0.0000
 3454,-0.00000937,-0.00000264,-0.00000769,-0.00000448,0.00000163,-0.009
 33126,0.01928212,0.00450615,0.00141028,-0.00096971,-0.00004057,0.00128
 017,-0.00061703,0.00022345,0.00014984,-0.00026297,0.00033157,-0.000128
 78,-0.00039523,-0.00088553,0.00002041,-0.00002438,0.00017893,-0.116450
 51,0.12928401,0.02694212,0.11997892,0.00027139,0.00015090,0.00003744,0
 .00000634,-0.00006374,-0.00002011,-0.00011898,-0.00004748,0.00004698,-
 0.00008868,0.00048651,0.00007151,-0.00148698,-0.00008419,-0.00049945,-
 0.00063544,-0.00037435,-0.00003806,-0.00001970,0.00002085,0.00000248,-
 0.00001613,0.00006766,0.00002021,0.00004900,0.00003711,0.00000414,0.00
 035374,0.00020892,0.00004906,-0.00000772,-0.00002504,0.00000046,0.0000
 2895,-0.00000816,-0.00000493,-0.00000705,-0.00001295,-0.00001806,-0.00
 000035,0.00000221,-0.00000015,0.00000200,-0.00000092,-0.00000009,-0.00
 260301,0.00227948,0.00066558,0.00059934,0.00019071,0.00008177,0.000530
 57,-0.00002938,0.00026237,-0.00001723,0.00008690,0.00020457,-0.0000397
 9,0.00011569,-0.00004491,0.00001796,-0.00002975,-0.00002892,0.11512135
 ,-0.22252453,-0.03595676,-0.12856059,0.24577055,-0.00006558,0.00001001
 ,0.00008185,0.00002558,0.00002806,-0.00000879,-0.00012399,-0.00005192,
 -0.00004645,-0.00009508,0.00029776,0.00026616,-0.00100864,-0.00043770,
 0.00015109,-0.00002981,-0.00009536,0.00018306,-0.00000200,0.00000884,0
 .00000928,0.00001744,0.00003038,-0.00000753,0.00001863,0.00006676,-0.0
 0002062,0.00006523,-0.00005366,-0.00035182,-0.00002100,-0.00001007,0.0
 0000321,-0.00000137,-0.00001477,-0.00000317,0.00001093,-0.00001350,0.0
 0001554,-0.00000544,-0.00000123,0.00000286,-0.00000022,-0.00000118,-0.
 00000027,-0.00203161,0.00472887,-0.00049148,0.00030962,0.00003684,-0.0
 0011687,0.00065242,-0.00004056,-0.00001585,0.00012465,-0.00011265,0.00
 013504,-0.00026329,-0.00027776,-0.00034887,-0.00009804,0.00003842,0.00
 004079,0.02245716,-0.03324046,-0.04881992,-0.02661343,0.04024678,0.051
 40710,0.00004440,0.00024344,0.00003015,0.00013542,-0.00002064,-0.00000
 221,0.00005130,-0.00010419,-0.00012487,-0.00024120,-0.00022580,0.00019
 592,0.00082633,-0.00002129,0.00109166,-0.00008674,0.00008013,0.0000323
 2,-0.00000802,-0.00000609,-0.00000667,-0.00003926,0.00008089,-0.000005
 77,0.00011936,-0.00008234,0.00009534,0.00012972,0.00039272,-0.00022813
 ,-0.00001743,0.00005336,0.00004002,0.00004970,-0.00004068,-0.00000426,
 0.00001147,0.00004519,-0.00010489,0.00001503,0.00000806,-0.00000735,0.
 00000194,0.00000542,-0.00000997,0.00002714,-0.00456918,-0.02095756,0.0
 0068247,0.00039098,0.00130176,-0.00553910,-0.00081468,-0.00032262,0.00
 001915,-0.00044248,-0.00182180,0.00012234,-0.00008859,0.00034721,0.000
 07510,0.00024017,0.00033991,-0.04062272,-0.01092401,-0.04229544,0.0013
 1275,0.00374774,0.01760696,0.04256523,-0.00016489,-0.00002470,-0.00007
 123,0.00003446,0.00005505,0.00005210,-0.00004338,-0.00002246,-0.000003
 00,-0.00006425,-0.00003914,-0.00000040,0.00010460,-0.00007834,0.000105
 97,0.00043448,0.00013675,-0.00001307,0.00001230,-0.00001205,0.00000738
 ,0.00005301,-0.00002239,-0.00001406,0.00001172,0.00002747,0.00004603,0
 .00002259,-0.00031028,0.00032468,-0.00003376,0.00000365,0.00000822,-0.
 00002009,-0.00002399,-0.00000033,0.00000360,0.00000389,-0.00003083,-0.
 00000721,-0.00000206,-0.00000479,-0.00000239,-0.00000008,-0.00000278,0
 .00064505,-0.00242536,-0.00277183,0.00008765,-0.00006797,0.00040282,-0
 .00085728,0.00017849,0.00001872,-0.00000118,0.00024662,-0.00032370,0.0
 0008493,0.00015640,0.00035186,-0.00005360,0.00005111,-0.00023984,-0.00
 737959,-0.05915139,-0.06432303,-0.00474299,-0.00674463,-0.02620599,0.0
 0788728,0.06181870,0.00011110,0.00013978,0.00009905,0.00006046,-0.0000
 0125,-0.00003530,-0.00002959,-0.00007008,-0.00002319,-0.00014711,0.000
 14429,0.00006389,-0.00006931,-0.00014906,0.00026824,-0.00028320,-0.000
 17308,0.00030298,-0.00001691,0.00001788,0.00000390,-0.00000177,0.00004
 252,-0.00000223,0.00006020,-0.00004275,0.00001583,0.00017044,0.0002464
 2,-0.00032397,-0.00001679,0.00003668,0.00001296,0.00002940,-0.00001918
 ,0.00000438,0.00001914,0.00003827,-0.00001736,0.00000647,0.00000283,-0
 .00000517,-0.00000186,0.00000457,-0.00000223,0.00143684,-0.00051727,-0
 .00449667,-0.00036241,-0.00005692,0.00032950,-0.00115818,-0.00028709,0
 .00039675,0.00012371,-0.00012699,-0.00024584,0.00008858,0.00003284,0.0
 0009001,0.00013059,0.00003179,0.00030844,-0.02836893,-0.06292724,-0.29
 037393,-0.00070184,-0.00083519,-0.00451366,0.03173875,0.06932487,0.314
 57771,0.00034243,0.00032114,0.00010138,0.00010250,-0.00008690,-0.00000
 477,0.00007761,-0.00007220,0.00003567,-0.00022727,-0.00007461,-0.00013
 389,0.00065724,0.00045113,-0.00072671,-0.00063502,-0.00014035,-0.00016
 957,-0.00002452,0.00001568,0.00001063,-0.00005713,0.00004266,0.0000121
 6,-0.00002996,-0.00022890,-0.00015543,-0.00015290,0.00083248,0.0004779
 8,0.00001202,0.00016400,-0.00001674,0.00003310,-0.00000147,0.00001879,
 0.00008929,0.00014548,0.00015701,0.00001821,0.00000069,-0.00000320,-0.
 00000714,0.00001592,0.00001416,-0.00640732,-0.01581634,0.01357586,-0.0
 0414478,-0.00072002,-0.00128790,0.00136981,0.00102638,-0.00011562,0.00
 009650,0.00039292,0.00028088,0.00001266,0.00009384,0.00008593,-0.00010
 038,-0.00008682,-0.00089602,-0.08396074,-0.08683739,0.06860706,0.00671
 529,0.01285030,-0.01090877,0.00031599,0.00402478,-0.00283310,0.0858460
 9,0.00003526,0.00008723,-0.00005726,0.00001974,0.00001101,0.00001165,-
 0.00006403,-0.00002677,-0.00000494,-0.00001968,0.00009921,0.00007583,-
 0.00015504,-0.00011512,-0.00018225,0.00011294,-0.00016759,-0.00016588,
 -0.00000239,0.00000960,-0.00000582,0.00004367,-0.00001532,0.00000254,0
 .00001414,-0.00004950,-0.00006109,0.00072047,-0.00032598,-0.00017155,-
 0.00002440,0.00002693,0.00001633,-0.00001001,-0.00001187,-0.00001129,0
 .00000659,0.00003584,0.00002146,-0.00000223,-0.00000360,0.00000674,-0.
 00000381,0.00000275,-0.00000110,0.00047229,-0.00337035,0.00184311,-0.0
 0060922,0.00056327,-0.00019891,0.00007795,0.00011909,-0.00035126,0.000
 07293,0.00012063,-0.00010283,-0.00007124,-0.00004256,0.00006529,-0.000
 16837,0.00004327,-0.00031487,-0.07624079,-0.18156025,0.10786879,-0.012
 03325,-0.01947858,0.01504875,0.00418390,0.00623029,-0.00487142,0.08366
 605,0.19779006,-0.00027320,-0.00007248,0.00002260,0.00002589,0.0000694
 1,0.00000529,0.00002393,-0.00001581,0.00000720,-0.00008106,-0.00024105
 ,-0.00005049,0.00043728,0.00011738,-0.00007461,0.00062414,0.00036034,0
 .00010611,0.00002176,-0.00002041,-0.00000006,0.00002153,-0.00002967,-0
 .00000499,-0.00004544,-0.00000258,-0.00003662,-0.00002025,-0.00029527,
 -0.00005272,-0.00002114,0.00003527,-0.00000384,-0.00002815,-0.00001483
 ,0.00000196,0.00001878,0.00001641,0.00004358,-0.00000488,-0.00000375,-
 0.00000080,-0.00000214,0.00000200,0.00000208,-0.00246194,-0.00467838,0
 .00190807,-0.00150736,-0.00028317,0.00027268,0.00080006,0.00009372,0.0
 0022087,0.00009111,0.00015385,0.00017849,-0.00006339,-0.00004011,-0.00
 001726,-0.00014470,0.00003394,-0.00020587,0.05873324,0.10417933,-0.123
 32500,-0.00307009,-0.00424696,0.00245800,0.01307836,0.02336058,-0.0164
 2650,-0.06612275,-0.11848141,0.13497530,-0.01094889,0.02757271,0.00641
 343,-0.12535291,0.11788551,0.02806453,0.01151430,-0.01270263,-0.002988
 81,-0.00168589,-0.00289997,-0.00037116,-0.00039416,-0.00051050,-0.0001
 3385,-0.00511370,-0.00155401,0.00016185,0.00102980,-0.00021879,-0.0002
 6585,0.00105108,-0.00125948,-0.00038667,0.00043166,-0.00075350,-0.0001
 7083,-0.00063872,0.00122322,0.00029808,0.00034194,-0.00013421,-0.00004
 554,-0.00004034,0.00070222,0.00013183,-0.00013081,-0.00026964,-0.00004
 010,-0.00003065,0.00004080,0.00001263,-0.00000928,-0.00003141,0.000001
 26,-0.00013843,-0.00005074,-0.00005891,0.00001368,0.00003631,0.0000018
 6,0.00002819,0.00000518,0.00001665,0.00000218,0.00000563,0.00001304,0.
 00000232,-0.00000223,-0.00000296,-0.00000200,-0.00000125,-0.00000776,-
 0.00002599,0.00005510,0.00002413,0.00000351,0.00002882,-0.00000229,0.0
 0001674,-0.00001690,0.00001787,0.00004322,0.00000284,-0.00002686,0.134
 54572,-0.00248323,0.00484725,0.00006161,0.11713204,-0.26063479,-0.0513
 5381,0.01361227,-0.01814445,-0.00507359,-0.00403428,-0.00195146,-0.001
 21439,-0.00060462,0.00016761,0.00034889,-0.00079128,0.00193348,-0.0013
 8220,0.00029337,0.00056836,0.00119666,0.00208941,-0.00119356,0.0001299
 3,0.00115223,-0.00075236,-0.00022434,-0.00022748,0.00007924,0.00002453
 ,0.00000431,-0.00006234,0.00003607,-0.00004703,0.00011848,0.00005505,-
 0.00025699,-0.00031101,-0.00011497,-0.00005059,0.00002283,-0.00000452,
 -0.00008253,-0.00001551,-0.00004381,-0.00001524,-0.00013282,0.00015677
 ,0.00004452,-0.00000964,-0.00001166,-0.00002218,0.00004786,-0.00001965
 ,0.00000334,0.00000502,0.00001779,0.00000891,0.00000485,0.00001818,0.0
 0000384,-0.00000128,-0.00000912,0.00001894,0.00000015,-0.00001269,0.00
 000373,0.00000505,0.00000434,0.00000192,0.00000061,0.00000568,0.000008
 41,0.00000090,0.00000027,-0.12708698,0.27353602,0.00008310,-0.00106782
 ,0.00476920,0.02786152,-0.05140169,-0.04931910,0.00256367,-0.00394555,
 0.00251973,-0.00046479,-0.00136113,0.00439614,-0.00020701,0.00032565,-
 0.00135035,0.00032061,-0.00137924,0.00837955,-0.00016477,0.00123698,-0
 .00489171,0.00032366,0.00024750,-0.00222045,0.00020637,-0.00009041,0.0
 0005853,-0.00004717,-0.00001012,0.00000643,-0.00002806,0.00003576,-0.0
 0021969,-0.00001051,0.00001903,-0.00013533,-0.00000199,-0.00013877,0.0
 0024300,-0.00000611,-0.00000824,0.00005349,-0.00000862,-0.00004463,0.0
 0019925,-0.00001504,0.00019707,-0.00071428,-0.00009168,0.00012293,0.00
 005642,0.00009748,-0.00017201,-0.00001195,-0.00000447,0.00000315,0.000
 01894,-0.00000303,-0.00001339,-0.00006953,0.00000612,0.00000664,0.0000
 0845,-0.00001373,-0.00003159,0.00002367,0.00001151,-0.00000073,-0.0000
 0956,0.00000067,-0.00000107,-0.00001144,-0.00000874,0.00001586,-0.0000
 0402,-0.03081547,0.05705540,0.03818164,-0.00101542,0.00132020,0.000323
 07,-0.00291935,0.00170471,0.00042232,-0.01561451,0.02555432,0.00598579
 ,-0.00318959,-0.00486201,-0.00077320,-0.00015754,0.00208546,0.00049694
 ,-0.00014526,-0.00070367,-0.00014006,-0.00009213,-0.00007353,-0.000006
 04,-0.05468955,0.03432734,0.00847080,-0.00013007,0.00089299,0.00019793
 ,-0.00011747,-0.00000155,0.00000306,0.00135892,-0.00108260,-0.00008307
 ,0.00176285,0.00194590,0.00048440,0.00009515,0.00012525,-0.00002193,-0
 .00017622,0.00005442,0.00002133,0.00113795,-0.00103898,-0.00037141,0.0
 0044653,-0.00068097,-0.00026760,-0.00013242,0.00014709,0.00002606,-0.0
 0013822,0.00018040,0.00011160,0.00001101,-0.00003060,-0.00007591,-0.00
 002110,0.00003001,0.00007593,-0.00001216,-0.00002509,-0.00000274,-0.00
 020595,0.00026005,0.00008349,-0.00010353,-0.00000587,-0.00001806,0.000
 03290,-0.00001893,-0.00000253,0.00001522,-0.00002431,-0.00000275,-0.00
 451258,0.00132519,0.00041648,0.07851254,0.00094405,0.00079239,0.000115
 21,-0.00416304,-0.00150932,-0.00004494,0.00973717,-0.01174752,-0.00311
 000,0.00038798,0.00287883,-0.00006946,-0.00004529,-0.00109542,-0.00030
 957,-0.00030777,0.00053074,0.00018944,0.00011636,0.00004042,-0.0000415
 8,0.03487689,-0.08511426,-0.01530977,0.00184287,-0.00107317,-0.0002187
 6,0.00004771,0.00012799,0.00003423,-0.00682525,0.00056095,-0.00063743,
 0.02289585,-0.03687265,-0.00923299,0.00020037,-0.00004065,0.00015564,0
 .00098807,-0.00117556,-0.00030674,0.00085979,-0.00002970,0.00051207,-0
 .00076004,0.00042442,0.00023283,0.00020473,-0.00008578,-0.00002049,0.0
 0013660,-0.00013995,-0.00014289,0.00000052,0.00004271,0.00013115,0.000
 03262,-0.00002689,-0.00006366,0.00003074,0.00002344,-0.00001114,0.0001
 9969,-0.00014694,-0.00007676,0.00007880,0.00000116,0.00001100,-0.00002
 123,0.00001582,0.00000909,0.00001314,0.00002742,0.00000341,-0.00006611
 ,0.00187151,0.00040042,-0.06140522,0.13172003,0.00022779,0.00009203,0.
 00013914,-0.00077949,-0.00022937,-0.00064889,0.00276399,-0.00382325,0.
 00062038,0.00034567,0.00022016,0.00332254,-0.00003242,-0.00034123,0.00
 007420,-0.00006052,0.00019308,-0.00026070,0.00003607,-0.00003585,0.000
 20723,0.00854829,-0.01535599,-0.02048072,0.00030681,-0.00014143,-0.000
 74789,0.00001303,0.00003551,-0.00003365,-0.00125351,-0.00088087,0.0048
 5101,0.00482187,-0.00835572,0.00145131,0.00001213,0.00013679,-0.000748
 59,0.00022585,-0.00028729,0.00010346,0.00001616,0.00060757,-0.00263157
 ,-0.00016677,0.00008885,0.00013053,0.00003580,-0.00003475,0.00000217,0
 .00002705,-0.00002891,-0.00003932,0.00000598,0.00001829,0.00003882,0.0
 0001900,-0.00000229,-0.00001141,0.00000658,0.00000338,-0.00000604,0.00
 005178,-0.00004313,-0.00002827,0.00002465,0.00000096,0.00000086,-0.000
 00749,0.00000272,0.00000385,0.00000571,0.00000551,0.00000055,0.0001598
 9,0.00035356,0.00004298,-0.01535390,0.02780168,0.01464800\\0.00000484,
 0.00000394,0.00000814,0.00000056,0.00000184,-0.00000678,-0.00000274,0.
 00001785,0.00001188,0.00001835,0.00001657,0.00000484,-0.00004296,-0.00
 001523,-0.00000866,0.00001881,-0.00000667,0.00000110,0.00000337,-0.000
 00664,-0.00000369,0.00000982,-0.00002033,-0.00000559,-0.00000059,-0.00
 000746,-0.00000859,-0.00000198,0.00000265,0.00000526,-0.00000497,-0.00
 001239,-0.00000358,-0.00000292,0.00001353,-0.00000458,-0.00000114,0.00
 000789,0.00000217,-0.00000231,0.00000972,-0.00000587,0.00000238,0.0000
 0364,-0.00000307,0.00001535,0.00000554,0.00001108,-0.00000592,-0.00000
 051,0.00000111,-0.00000078,-0.00000161,0.00000792,0.00000685,0.0000015
 8,-0.00000584,-0.00000129,0.00000150,-0.00000287,0.00000064,-0.0000033
 2,-0.00000380,-0.00002230,-0.00001639,0.00000573,-0.00000267,0.0000014
 7,0.00000234,0.00000736,-0.00000038,-0.00000227,0.00000795,0.00000073,
 0.00000131,0.00000249,-0.00000510,-0.00000014,-0.00000622,0.00000759,0
 .00000242\\\@


 WISDOM IS KNOWING WHAT TO DO,
 SKILL IS KNOWING HOW TO DO IT,
 AND VIRTUE IS NOT DOING IT.
 Job cpu time:       0 days  3 hours 16 minutes 53.6 seconds.
 File lengths (MBytes):  RWF=    483 Int=      0 D2E=      0 Chk=     15 Scr=      1
 Normal termination of Gaussian 09 at Tue Nov  9 17:06:41 2021.
