 Entering Gaussian System, Link 0=g09
 Initial command:
 /cm/shared/apps/gaussian/g09revD.01/g09/l1.exe "//home/sweav003/HartwigDocs/IrCatSilyDir_One/G09-Table2_5.com.o9616050.tmp/Gau-93066.inp" -scrdir="//home/sweav003/HartwigDocs/IrCatSilyDir_One/G09-Table2_5.com.o9616050.tmp/"
 Entering Link 1 = /cm/shared/apps/gaussian/g09revD.01/g09/l1.exe PID=     93067.
  
 Copyright (c) 1988,1990,1992,1993,1995,1998,2003,2009,2013,
            Gaussian, Inc.  All Rights Reserved.
  
 This is part of the Gaussian(R) 09 program.  It is based on
 the Gaussian(R) 03 system (copyright 2003, Gaussian, Inc.),
 the Gaussian(R) 98 system (copyright 1998, Gaussian, Inc.),
 the Gaussian(R) 94 system (copyright 1995, Gaussian, Inc.),
 the Gaussian 92(TM) system (copyright 1992, Gaussian, Inc.),
 the Gaussian 90(TM) system (copyright 1990, Gaussian, Inc.),
 the Gaussian 88(TM) system (copyright 1988, Gaussian, Inc.),
 the Gaussian 86(TM) system (copyright 1986, Carnegie Mellon
 University), and the Gaussian 82(TM) system (copyright 1983,
 Carnegie Mellon University). Gaussian is a federally registered
 trademark of Gaussian, Inc.
  
 This software contains proprietary and confidential information,
 including trade secrets, belonging to Gaussian, Inc.
  
 This software is provided under written license and may be
 used, copied, transmitted, or stored only in accord with that
 written license.
  
 The following legend is applicable only to US Government
 contracts under FAR:
  
                    RESTRICTED RIGHTS LEGEND
  
 Use, reproduction and disclosure by the US Government is
 subject to restrictions as set forth in subparagraphs (a)
 and (c) of the Commercial Computer Software - Restricted
 Rights clause in FAR 52.227-19.
  
 Gaussian, Inc.
 340 Quinnipiac St., Bldg. 40, Wallingford CT 06492
  
  
 ---------------------------------------------------------------
 Warning -- This program may not be used in any manner that
 competes with the business of Gaussian, Inc. or will provide
 assistance to any competitor of Gaussian, Inc.  The licensee
 of this program is prohibited from giving any competitor of
 Gaussian, Inc. access to this program.  By using this program,
 the user acknowledges that Gaussian, Inc. is engaged in the
 business of creating and licensing software in the field of
 computational chemistry and represents and warrants to the
 licensee that it is not a competitor of Gaussian, Inc. and that
 it will not use this program in any manner prohibited above.
 ---------------------------------------------------------------
  

 Cite this work as:
 Gaussian 09, Revision D.01,
 M. J. Frisch, G. W. Trucks, H. B. Schlegel, G. E. Scuseria, 
 M. A. Robb, J. R. Cheeseman, G. Scalmani, V. Barone, B. Mennucci, 
 G. A. Petersson, H. Nakatsuji, M. Caricato, X. Li, H. P. Hratchian, 
 A. F. Izmaylov, J. Bloino, G. Zheng, J. L. Sonnenberg, M. Hada, 
 M. Ehara, K. Toyota, R. Fukuda, J. Hasegawa, M. Ishida, T. Nakajima, 
 Y. Honda, O. Kitao, H. Nakai, T. Vreven, J. A. Montgomery, Jr., 
 J. E. Peralta, F. Ogliaro, M. Bearpark, J. J. Heyd, E. Brothers, 
 K. N. Kudin, V. N. Staroverov, T. Keith, R. Kobayashi, J. Normand, 
 K. Raghavachari, A. Rendell, J. C. Burant, S. S. Iyengar, J. Tomasi, 
 M. Cossi, N. Rega, J. M. Millam, M. Klene, J. E. Knox, J. B. Cross, 
 V. Bakken, C. Adamo, J. Jaramillo, R. Gomperts, R. E. Stratmann, 
 O. Yazyev, A. J. Austin, R. Cammi, C. Pomelli, J. W. Ochterski, 
 R. L. Martin, K. Morokuma, V. G. Zakrzewski, G. A. Voth, 
 P. Salvador, J. J. Dannenberg, S. Dapprich, A. D. Daniels, 
 O. Farkas, J. B. Foresman, J. V. Ortiz, J. Cioslowski, 
 and D. J. Fox, Gaussian, Inc., Wallingford CT, 2013.
 
 ******************************************
 Gaussian 09:  ES64L-G09RevD.01 24-Apr-2013
                13-Oct-2021 
 ******************************************
 %mem=100MW
 %nprocshared=20
 Will use up to   20 processors via shared memory.
 %chk=Table2_5.chk
 ----------------------------------------------------------------------
 # opt freq b3lyp/6-311+g(d,p) pop=(npa,hirshfeld,chelpg,mbs) geom=conn
 ectivity
 ----------------------------------------------------------------------
 1/14=-1,18=20,19=15,26=3,38=1,57=2/1,3;
 2/9=110,12=2,17=6,18=5,40=1/2;
 3/5=4,6=6,7=111,11=2,16=1,25=1,30=1,71=1,74=-5/1,2,3;
 4//1;
 5/5=2,38=5/2;
 6/7=2,8=2,9=2,10=2,15=8,20=3,27=100,28=1,40=-1,79=1/1,2,7;
 7//1,2,3,16;
 1/14=-1,18=20,19=15,26=3/3(2);
 2/9=110/2;
 99//99;
 2/9=110/2;
 3/5=4,6=6,7=111,11=2,16=1,25=1,30=1,71=1,74=-5/1,2,3;
 4/5=5,16=3,69=1/1;
 5/5=2,38=5/2;
 7//1,2,3,16;
 1/14=-1,18=20,19=15,26=3/3(-5);
 2/9=110/2;
 6/7=2,8=2,9=2,10=2,15=8,19=2,20=3,27=100,28=1,40=-1,79=1/1,2,7;
 99/9=1/99;
 --------
 Table2_5
 --------
 Symbolic Z-matrix:
 Charge =  0 Multiplicity = 1
 C                    -3.06901  -0.05438  -0.39356 
 C                    -1.67776  -0.00152  -0.55339 
 C                    -1.00454   1.22163  -0.43256 
 C                    -1.72257   2.39192  -0.1519 
 C                    -3.11383   2.33906   0.00794 
 C                    -3.78705   1.11591  -0.1129 
 H                     0.93494   0.38095  -0.80669 
 H                    -3.58303  -0.98828  -0.48582 
 C                     0.38671   1.27449  -0.5924 
 C                    -1.04935   3.61507  -0.03107 
 H                    -4.8493    1.07555   0.00914 
 C                     0.3419    3.66793  -0.1909 
 C                     1.05993   2.49764  -0.47156 
 H                    -1.59759   4.50861   0.18323 
 H                     0.85592   4.60183  -0.09864 
 H                     2.12218   2.538    -0.5936 
 Si                   -4.10782   3.95913   0.39647 
 H                    -3.42029   5.11162  -0.20351 
 C                    -4.22204   4.20265   2.31774 
 H                    -3.23636   4.2823    2.72639 
 H                    -4.77027   5.09619   2.53204 
 H                    -4.72248   3.36376   2.75446 
 C                    -5.89494   3.81471  -0.34444 
 H                    -6.44317   4.70825  -0.13014 
 H                    -5.83194   3.68039  -1.4041 
 H                    -6.39538   2.97582   0.09229 
 O                    -1.04181  -2.53761  -1.53917 
 C                    -0.39308  -3.56839  -0.78981 
 H                    -0.50763  -4.50375  -1.29665 
 H                    -0.83399  -3.6335    0.18295 
 O                     0.99797  -3.26211  -0.66313 
 C                     1.6467   -4.2929    0.08624 
 H                     1.53215  -5.22825  -0.4206 
 H                     2.68756  -4.06372   0.18103 
 H                     1.20579  -4.358     1.059 
 C                    -0.88872  -1.28755  -0.86181 
 H                    -0.9419   -0.90218  -1.85859 
 H                    -1.54255  -1.73413  -0.1421 
 

 GradGradGradGradGradGradGradGradGradGradGradGradGradGradGradGradGradGrad
 Berny optimization.
 Initialization pass.
                           ----------------------------
                           !    Initial Parameters    !
                           ! (Angstroms and Degrees)  !
 --------------------------                            --------------------------
 ! Name  Definition              Value          Derivative Info.                !
 --------------------------------------------------------------------------------
 ! R1    R(1,2)                  1.4014         estimate D2E/DX2                !
 ! R2    R(1,6)                  1.4014         estimate D2E/DX2                !
 ! R3    R(1,8)                  1.07           estimate D2E/DX2                !
 ! R4    R(2,3)                  1.4014         estimate D2E/DX2                !
 ! R5    R(2,36)                 1.54           estimate D2E/DX2                !
 ! R6    R(3,4)                  1.4014         estimate D2E/DX2                !
 ! R7    R(3,9)                  1.4014         estimate D2E/DX2                !
 ! R8    R(4,5)                  1.4014         estimate D2E/DX2                !
 ! R9    R(4,10)                 1.4014         estimate D2E/DX2                !
 ! R10   R(5,6)                  1.4014         estimate D2E/DX2                !
 ! R11   R(5,17)                 1.94           estimate D2E/DX2                !
 ! R12   R(6,11)                 1.07           estimate D2E/DX2                !
 ! R13   R(7,9)                  1.07           estimate D2E/DX2                !
 ! R14   R(9,13)                 1.4014         estimate D2E/DX2                !
 ! R15   R(10,12)                1.4014         estimate D2E/DX2                !
 ! R16   R(10,14)                1.07           estimate D2E/DX2                !
 ! R17   R(12,13)                1.4014         estimate D2E/DX2                !
 ! R18   R(12,15)                1.07           estimate D2E/DX2                !
 ! R19   R(13,16)                1.07           estimate D2E/DX2                !
 ! R20   R(17,18)                1.47           estimate D2E/DX2                !
 ! R21   R(17,19)                1.94           estimate D2E/DX2                !
 ! R22   R(17,23)                1.94           estimate D2E/DX2                !
 ! R23   R(19,20)                1.07           estimate D2E/DX2                !
 ! R24   R(19,21)                1.07           estimate D2E/DX2                !
 ! R25   R(19,22)                1.07           estimate D2E/DX2                !
 ! R26   R(23,24)                1.07           estimate D2E/DX2                !
 ! R27   R(23,25)                1.07           estimate D2E/DX2                !
 ! R28   R(23,26)                1.07           estimate D2E/DX2                !
 ! R29   R(27,28)                1.43           estimate D2E/DX2                !
 ! R30   R(27,36)                1.43           estimate D2E/DX2                !
 ! R31   R(28,29)                1.07           estimate D2E/DX2                !
 ! R32   R(28,30)                1.07           estimate D2E/DX2                !
 ! R33   R(28,31)                1.43           estimate D2E/DX2                !
 ! R34   R(31,32)                1.43           estimate D2E/DX2                !
 ! R35   R(32,33)                1.07           estimate D2E/DX2                !
 ! R36   R(32,34)                1.07           estimate D2E/DX2                !
 ! R37   R(32,35)                1.07           estimate D2E/DX2                !
 ! R38   R(36,37)                1.07           estimate D2E/DX2                !
 ! R39   R(36,38)                1.07           estimate D2E/DX2                !
 ! A1    A(2,1,6)              120.0            estimate D2E/DX2                !
 ! A2    A(2,1,8)              120.0            estimate D2E/DX2                !
 ! A3    A(6,1,8)              120.0            estimate D2E/DX2                !
 ! A4    A(1,2,3)              120.0            estimate D2E/DX2                !
 ! A5    A(1,2,36)             120.0            estimate D2E/DX2                !
 ! A6    A(3,2,36)             120.0            estimate D2E/DX2                !
 ! A7    A(2,3,4)              120.0            estimate D2E/DX2                !
 ! A8    A(2,3,9)              120.0            estimate D2E/DX2                !
 ! A9    A(4,3,9)              120.0            estimate D2E/DX2                !
 ! A10   A(3,4,5)              120.0            estimate D2E/DX2                !
 ! A11   A(3,4,10)             120.0            estimate D2E/DX2                !
 ! A12   A(5,4,10)             120.0            estimate D2E/DX2                !
 ! A13   A(4,5,6)              120.0            estimate D2E/DX2                !
 ! A14   A(4,5,17)             120.0            estimate D2E/DX2                !
 ! A15   A(6,5,17)             120.0            estimate D2E/DX2                !
 ! A16   A(1,6,5)              120.0            estimate D2E/DX2                !
 ! A17   A(1,6,11)             120.0            estimate D2E/DX2                !
 ! A18   A(5,6,11)             120.0            estimate D2E/DX2                !
 ! A19   A(3,9,7)              120.0            estimate D2E/DX2                !
 ! A20   A(3,9,13)             120.0            estimate D2E/DX2                !
 ! A21   A(7,9,13)             120.0            estimate D2E/DX2                !
 ! A22   A(4,10,12)            120.0            estimate D2E/DX2                !
 ! A23   A(4,10,14)            120.0            estimate D2E/DX2                !
 ! A24   A(12,10,14)           120.0            estimate D2E/DX2                !
 ! A25   A(10,12,13)           120.0            estimate D2E/DX2                !
 ! A26   A(10,12,15)           120.0            estimate D2E/DX2                !
 ! A27   A(13,12,15)           120.0            estimate D2E/DX2                !
 ! A28   A(9,13,12)            120.0            estimate D2E/DX2                !
 ! A29   A(9,13,16)            120.0            estimate D2E/DX2                !
 ! A30   A(12,13,16)           120.0            estimate D2E/DX2                !
 ! A31   A(5,17,18)            109.4712         estimate D2E/DX2                !
 ! A32   A(5,17,19)            109.4712         estimate D2E/DX2                !
 ! A33   A(5,17,23)            109.4712         estimate D2E/DX2                !
 ! A34   A(18,17,19)           109.4712         estimate D2E/DX2                !
 ! A35   A(18,17,23)           109.4712         estimate D2E/DX2                !
 ! A36   A(19,17,23)           109.4712         estimate D2E/DX2                !
 ! A37   A(17,19,20)           109.4712         estimate D2E/DX2                !
 ! A38   A(17,19,21)           109.4712         estimate D2E/DX2                !
 ! A39   A(17,19,22)           109.4712         estimate D2E/DX2                !
 ! A40   A(20,19,21)           109.4712         estimate D2E/DX2                !
 ! A41   A(20,19,22)           109.4712         estimate D2E/DX2                !
 ! A42   A(21,19,22)           109.4712         estimate D2E/DX2                !
 ! A43   A(17,23,24)           109.4712         estimate D2E/DX2                !
 ! A44   A(17,23,25)           109.4712         estimate D2E/DX2                !
 ! A45   A(17,23,26)           109.4712         estimate D2E/DX2                !
 ! A46   A(24,23,25)           109.4712         estimate D2E/DX2                !
 ! A47   A(24,23,26)           109.4712         estimate D2E/DX2                !
 ! A48   A(25,23,26)           109.4712         estimate D2E/DX2                !
 ! A49   A(28,27,36)           109.4712         estimate D2E/DX2                !
 ! A50   A(27,28,29)           109.4712         estimate D2E/DX2                !
 ! A51   A(27,28,30)           109.4712         estimate D2E/DX2                !
 ! A52   A(27,28,31)           109.4712         estimate D2E/DX2                !
 ! A53   A(29,28,30)           109.4712         estimate D2E/DX2                !
 ! A54   A(29,28,31)           109.4712         estimate D2E/DX2                !
 ! A55   A(30,28,31)           109.4712         estimate D2E/DX2                !
 ! A56   A(28,31,32)           109.4712         estimate D2E/DX2                !
 ! A57   A(31,32,33)           109.4712         estimate D2E/DX2                !
 ! A58   A(31,32,34)           109.4712         estimate D2E/DX2                !
 ! A59   A(31,32,35)           109.4712         estimate D2E/DX2                !
 ! A60   A(33,32,34)           109.4712         estimate D2E/DX2                !
 ! A61   A(33,32,35)           109.4712         estimate D2E/DX2                !
 ! A62   A(34,32,35)           109.4712         estimate D2E/DX2                !
 ! A63   A(2,36,27)            140.3555         estimate D2E/DX2                !
 ! A64   A(2,36,37)             81.9716         estimate D2E/DX2                !
 ! A65   A(2,36,38)             84.3032         estimate D2E/DX2                !
 ! A66   A(27,36,37)            82.4294         estimate D2E/DX2                !
 ! A67   A(27,36,38)            83.5897         estimate D2E/DX2                !
 ! A68   A(37,36,38)           138.2912         estimate D2E/DX2                !
 ! D1    D(6,1,2,3)             -0.0002         estimate D2E/DX2                !
 ! D2    D(6,1,2,36)           179.9998         estimate D2E/DX2                !
 ! D3    D(8,1,2,3)            179.9998         estimate D2E/DX2                !
 ! D4    D(8,1,2,36)            -0.0002         estimate D2E/DX2                !
 ! D5    D(2,1,6,5)              0.0            estimate D2E/DX2                !
 ! D6    D(2,1,6,11)           180.0            estimate D2E/DX2                !
 ! D7    D(8,1,6,5)            180.0            estimate D2E/DX2                !
 ! D8    D(8,1,6,11)             0.0            estimate D2E/DX2                !
 ! D9    D(1,2,3,4)              0.0002         estimate D2E/DX2                !
 ! D10   D(1,2,3,9)           -179.9999         estimate D2E/DX2                !
 ! D11   D(36,2,3,4)          -179.9998         estimate D2E/DX2                !
 ! D12   D(36,2,3,9)             0.0001         estimate D2E/DX2                !
 ! D13   D(1,2,36,27)           31.6748         estimate D2E/DX2                !
 ! D14   D(1,2,36,37)           99.4177         estimate D2E/DX2                !
 ! D15   D(1,2,36,38)          -41.0925         estimate D2E/DX2                !
 ! D16   D(3,2,36,27)         -148.3252         estimate D2E/DX2                !
 ! D17   D(3,2,36,37)          -80.5823         estimate D2E/DX2                !
 ! D18   D(3,2,36,38)          138.9075         estimate D2E/DX2                !
 ! D19   D(2,3,4,5)              0.0            estimate D2E/DX2                !
 ! D20   D(2,3,4,10)           179.9998         estimate D2E/DX2                !
 ! D21   D(9,3,4,5)           -180.0            estimate D2E/DX2                !
 ! D22   D(9,3,4,10)            -0.0001         estimate D2E/DX2                !
 ! D23   D(2,3,9,7)              0.0001         estimate D2E/DX2                !
 ! D24   D(2,3,9,13)          -179.9998         estimate D2E/DX2                !
 ! D25   D(4,3,9,7)           -179.9999         estimate D2E/DX2                !
 ! D26   D(4,3,9,13)             0.0001         estimate D2E/DX2                !
 ! D27   D(3,4,5,6)             -0.0002         estimate D2E/DX2                !
 ! D28   D(3,4,5,17)           179.9998         estimate D2E/DX2                !
 ! D29   D(10,4,5,6)           180.0            estimate D2E/DX2                !
 ! D30   D(10,4,5,17)            0.0            estimate D2E/DX2                !
 ! D31   D(3,4,10,12)            0.0001         estimate D2E/DX2                !
 ! D32   D(3,4,10,14)         -179.9998         estimate D2E/DX2                !
 ! D33   D(5,4,10,12)          180.0            estimate D2E/DX2                !
 ! D34   D(5,4,10,14)            0.0001         estimate D2E/DX2                !
 ! D35   D(4,5,6,1)              0.0002         estimate D2E/DX2                !
 ! D36   D(4,5,6,11)          -179.9998         estimate D2E/DX2                !
 ! D37   D(17,5,6,1)          -179.9998         estimate D2E/DX2                !
 ! D38   D(17,5,6,11)            0.0002         estimate D2E/DX2                !
 ! D39   D(4,5,17,18)           30.0            estimate D2E/DX2                !
 ! D40   D(4,5,17,19)          -90.0            estimate D2E/DX2                !
 ! D41   D(4,5,17,23)          150.0            estimate D2E/DX2                !
 ! D42   D(6,5,17,18)         -150.0            estimate D2E/DX2                !
 ! D43   D(6,5,17,19)           90.0            estimate D2E/DX2                !
 ! D44   D(6,5,17,23)          -30.0            estimate D2E/DX2                !
 ! D45   D(3,9,13,12)           -0.0001         estimate D2E/DX2                !
 ! D46   D(3,9,13,16)         -179.9998         estimate D2E/DX2                !
 ! D47   D(7,9,13,12)          180.0            estimate D2E/DX2                !
 ! D48   D(7,9,13,16)            0.0002         estimate D2E/DX2                !
 ! D49   D(4,10,12,13)          -0.0001         estimate D2E/DX2                !
 ! D50   D(4,10,12,15)         180.0            estimate D2E/DX2                !
 ! D51   D(14,10,12,13)        179.9998         estimate D2E/DX2                !
 ! D52   D(14,10,12,15)         -0.0002         estimate D2E/DX2                !
 ! D53   D(10,12,13,9)           0.0001         estimate D2E/DX2                !
 ! D54   D(10,12,13,16)        179.9998         estimate D2E/DX2                !
 ! D55   D(15,12,13,9)        -180.0            estimate D2E/DX2                !
 ! D56   D(15,12,13,16)         -0.0002         estimate D2E/DX2                !
 ! D57   D(5,17,19,20)          60.0            estimate D2E/DX2                !
 ! D58   D(5,17,19,21)         180.0            estimate D2E/DX2                !
 ! D59   D(5,17,19,22)         -60.0            estimate D2E/DX2                !
 ! D60   D(18,17,19,20)        -60.0            estimate D2E/DX2                !
 ! D61   D(18,17,19,21)         60.0            estimate D2E/DX2                !
 ! D62   D(18,17,19,22)        180.0            estimate D2E/DX2                !
 ! D63   D(23,17,19,20)       -180.0            estimate D2E/DX2                !
 ! D64   D(23,17,19,21)        -60.0            estimate D2E/DX2                !
 ! D65   D(23,17,19,22)         60.0            estimate D2E/DX2                !
 ! D66   D(5,17,23,24)         180.0            estimate D2E/DX2                !
 ! D67   D(5,17,23,25)         -60.0            estimate D2E/DX2                !
 ! D68   D(5,17,23,26)          60.0            estimate D2E/DX2                !
 ! D69   D(18,17,23,24)        -60.0            estimate D2E/DX2                !
 ! D70   D(18,17,23,25)         60.0            estimate D2E/DX2                !
 ! D71   D(18,17,23,26)       -180.0            estimate D2E/DX2                !
 ! D72   D(19,17,23,24)         60.0            estimate D2E/DX2                !
 ! D73   D(19,17,23,25)        180.0            estimate D2E/DX2                !
 ! D74   D(19,17,23,26)        -60.0            estimate D2E/DX2                !
 ! D75   D(36,27,28,29)        180.0            estimate D2E/DX2                !
 ! D76   D(36,27,28,30)         60.0            estimate D2E/DX2                !
 ! D77   D(36,27,28,31)        -60.0            estimate D2E/DX2                !
 ! D78   D(28,27,36,2)        -141.8077         estimate D2E/DX2                !
 ! D79   D(28,27,36,37)        150.6022         estimate D2E/DX2                !
 ! D80   D(28,27,36,38)        -68.7945         estimate D2E/DX2                !
 ! D81   D(27,28,31,32)        180.0            estimate D2E/DX2                !
 ! D82   D(29,28,31,32)        -60.0            estimate D2E/DX2                !
 ! D83   D(30,28,31,32)         60.0            estimate D2E/DX2                !
 ! D84   D(28,31,32,33)         60.0            estimate D2E/DX2                !
 ! D85   D(28,31,32,34)        180.0            estimate D2E/DX2                !
 ! D86   D(28,31,32,35)        -60.0            estimate D2E/DX2                !
 --------------------------------------------------------------------------------
 Trust Radius=3.00D-01 FncErr=1.00D-07 GrdErr=1.00D-06
 Number of steps in this run=    203 maximum allowed number of steps=    228.
 GradGradGradGradGradGradGradGradGradGradGradGradGradGradGradGradGradGrad

                          Input orientation:                          
 ---------------------------------------------------------------------
 Center     Atomic      Atomic             Coordinates (Angstroms)
 Number     Number       Type             X           Y           Z
 ---------------------------------------------------------------------
      1          6           0       -3.069014   -0.054379   -0.393562
      2          6           0       -1.677762   -0.001520   -0.553393
      3          6           0       -1.004543    1.221631   -0.432564
      4          6           0       -1.722574    2.391922   -0.151899
      5          6           0       -3.113826    2.339062    0.007936
      6          6           0       -3.787046    1.115912   -0.112897
      7          1           0        0.934942    0.380948   -0.806693
      8          1           0       -3.583033   -0.988281   -0.485821
      9          6           0        0.386709    1.274491   -0.592398
     10          6           0       -1.049354    3.615071   -0.031065
     11          1           0       -4.849298    1.075552    0.009137
     12          6           0        0.341898    3.667931   -0.190899
     13          6           0        1.059929    2.497641   -0.471565
     14          1           0       -1.597586    4.508614    0.183232
     15          1           0        0.855916    4.601834   -0.098641
     16          1           0        2.122180    2.538001   -0.593605
     17         14           0       -4.107817    3.959129    0.396475
     18          1           0       -3.420293    5.111618   -0.203508
     19          6           0       -4.222036    4.202647    2.317738
     20          1           0       -3.236357    4.282304    2.726385
     21          1           0       -4.770268    5.096190    2.532035
     22          1           0       -4.722479    3.363761    2.754460
     23          6           0       -5.894936    3.814705   -0.344436
     24          1           0       -6.443169    4.708248   -0.130139
     25          1           0       -5.831939    3.680394   -1.404102
     26          1           0       -6.395379    2.975819    0.092286
     27          8           0       -1.041806   -2.537611   -1.539174
     28          6           0       -0.393084   -3.568394   -0.789809
     29          1           0       -0.507634   -4.503751   -1.296648
     30          1           0       -0.833990   -3.633496    0.182952
     31          8           0        0.997975   -3.262115   -0.663127
     32          6           0        1.646696   -4.292898    0.086238
     33          1           0        1.532147   -5.228255   -0.420601
     34          1           0        2.687558   -4.063723    0.181028
     35          1           0        1.205790   -4.357999    1.058999
     36          6           0       -0.888716   -1.287554   -0.861811
     37          1           0       -0.941899   -0.902184   -1.858586
     38          1           0       -1.542547   -1.734126   -0.142104
 ---------------------------------------------------------------------
                    Distance matrix (angstroms):
                    1          2          3          4          5
     1  C    0.000000
     2  C    1.401400   0.000000
     3  C    2.427296   1.401400   0.000000
     4  C    2.802800   2.427296   1.401400   0.000000
     5  C    2.427296   2.802800   2.427296   1.401400   0.000000
     6  C    1.401400   2.427296   2.802800   2.427296   1.401400
     7  H    4.048685   2.652671   2.146700   3.396345   4.570596
     8  H    1.070000   2.146700   3.396345   3.872800   3.396345
     9  C    3.707756   2.427296   1.401400   2.427296   3.707756
    10  C    4.204200   3.707756   2.427296   1.401400   2.427296
    11  H    2.146700   3.396345   3.872800   3.396345   2.146700
    12  C    5.052820   4.204200   2.802800   2.427296   3.707756
    13  C    4.854592   3.707756   2.427296   2.802800   4.204200
    14  H    4.828943   4.570596   3.396345   2.146700   2.652671
    15  H    6.096915   5.274200   3.872800   3.396345   4.570596
    16  H    5.805941   4.570596   3.396345   3.872800   5.274200
    17  Si   4.220369   4.742800   4.220369   2.906241   1.940000
    18  H    5.181413   5.413225   4.584792   3.206503   2.797445
    19  C    5.177150   5.691374   5.177150   3.952865   3.168007
    20  H    5.344987   5.615808   4.932309   3.761595   3.343825
    21  H    6.162933   6.713427   6.162933   4.879038   4.088598
    22  H    4.932308   5.615808   5.344987   4.288452   3.343825
    23  C    4.791457   5.691378   5.536041   4.412481   3.168007
    24  H    5.842681   6.713430   6.467349   5.258313   4.088598
    25  H    4.754311   5.615815   5.503922   4.484981   3.343825
    26  H    4.525798   5.615812   5.693308   4.715471   3.343825
    27  O    3.404180   2.794274   3.918913   5.166069   5.519851
    28  C    4.434627   3.798537   4.842091   6.140019   6.552623
    29  H    5.212787   4.710809   5.811503   7.094846   7.437625
    30  H    4.258847   3.800711   4.896959   6.099784   6.395289
    31  O    5.186775   4.219371   4.916016   6.295305   6.980716
    32  C    6.358708   5.465993   6.140704   7.489693   8.164042
    33  H    6.923901   6.135137   6.930798   8.290506   8.890049
    34  H    7.038688   6.008069   6.476347   7.825309   8.641856
    35  H    6.237390   5.467504   6.184060   7.456743   8.038311
    36  C    2.548270   1.540000   2.548270   3.838989   4.342800
    37  H    2.718398   1.748205   2.558917   3.791223   4.325141
    38  H    2.283612   1.785880   3.018330   4.129985   4.368327
                    6          7          8          9         10
     6  C    0.000000
     7  H    4.828943   0.000000
     8  H    2.146700   4.731791   0.000000
     9  C    4.204200   1.070000   4.570596   0.000000
    10  C    3.707756   3.872800   5.274200   2.802800   0.000000
    11  H    1.070000   5.882642   2.471400   5.274200   4.570596
    12  C    4.854592   3.396345   6.096915   2.427296   1.401400
    13  C    5.052820   2.146700   5.805941   1.401400   2.427296
    14  H    4.048685   4.942800   5.882642   3.872800   1.070000
    15  H    5.805941   4.280590   7.148675   3.396345   2.146700
    16  H    6.096915   2.471400   6.707886   2.146700   3.396345
    17  Si   2.906241   6.299239   5.052792   5.327844   3.107308
    18  H    4.013525   6.458416   6.108597   5.419229   2.809046
    19  C    3.952865   7.138758   5.934139   6.187368   3.990994
    20  H    4.288452   6.715873   6.182031   5.760891   3.582138
    21  H    4.879038   8.119731   6.894764   7.138759   4.754829
    22  H    3.761595   7.320204   5.544188   6.455254   4.616726
    23  C    3.432244   7.658433   5.332313   6.780357   4.859807
    24  H    4.467680   8.580196   6.384146   7.658433   5.504370
    25  H    3.524963   7.552080   5.262826   6.717054   4.976205
    26  H    3.210102   7.827842   4.894648   7.025669   5.385522
    27  O    4.787362   3.600284   3.157184   4.179612   6.334820
    28  C    5.824080   4.166682   4.114021   4.909234   7.253176
    29  H    6.613352   5.116774   4.740681   5.889304   8.234710
    30  H    5.600441   4.497141   3.873197   5.116601   7.254923
    31  O    6.508939   3.646435   5.117361   4.578148   7.203245
    32  C    7.669447   4.811315   6.212713   5.748385   8.355742
    33  H    8.284741   5.654103   6.644298   6.605092   9.220646
    34  H    8.296717   4.878767   7.015935   5.864182   8.542446
    35  H    7.501030   5.100175   6.055931   5.926462   8.357259
    36  C    3.838989   2.472381   2.736837   2.874607   4.975106
    37  H    3.900641   2.505083   2.977832   2.847165   4.874113
    38  H    3.627856   3.324631   2.199547   3.602301   5.373033
                   11         12         13         14         15
    11  H    0.000000
    12  C    5.805941   0.000000
    13  C    6.096915   1.401400   0.000000
    14  H    4.731791   2.146700   3.396345   0.000000
    15  H    6.707886   1.070000   2.146700   2.471400   0.000000
    16  H    7.148675   2.146700   1.070000   4.280590   2.471400
    17  Si   3.002472   4.497752   5.440133   2.578501   5.029599
    18  H    4.286852   4.029699   5.193951   1.958429   4.307766
    19  C    3.937235   5.235329   6.211796   3.396684   5.637716
    20  H    4.502029   4.657457   5.645350   3.033877   4.982928
    21  H    4.747292   5.965613   7.054451   3.990994   6.230474
    22  H    3.576140   5.866479   6.677847   4.205574   6.386823
    23  C    2.953190   6.240450   7.079617   4.384878   6.801029
    24  H    3.969420   6.864625   7.829421   4.859807   7.299929
    25  H    3.122183   6.291922   7.054529   4.597317   6.876096
    26  H    2.451182   6.778651   7.491876   5.037514   7.433819
    27  O    5.472587   6.499326   5.559752   7.274947   7.526497
    28  C    6.485553   7.298171   6.245743   8.224092   8.293994
    29  H    7.189141   8.289800   7.222016   9.197867   9.284727
    30  H    6.190965   7.404952   6.450284   8.177837   8.411642
    31  O    7.311490   6.977032   5.763273   8.236351   7.885462
    32  C    8.427582   8.071809   6.838629   9.380905   8.931727
    33  H    8.980283   8.978395   7.740481  10.245314   9.858579
    34  H    9.123919   8.088197   6.791653   9.583706   8.861434
    35  H    8.203035   8.168483   7.025931   9.340381   9.041081
    36  C    4.693509   5.149890   4.275185   5.932130   6.189592
    37  H    4.761050   5.031428   4.182100   5.820282   6.051757
    38  H    4.341862   5.721515   4.978883   6.251453   6.774873
                   16         17         18         19         20
    16  H    0.000000
    17  Si   6.466277   0.000000
    18  H    6.123291   1.470000   0.000000
    19  C    7.176074   1.940000   2.797445   0.000000
    20  H    6.540554   2.508459   3.050552   1.070000   0.000000
    21  H    7.988730   2.508459   3.050552   1.070000   1.747303
    22  H    7.664253   2.508459   3.674271   1.070000   1.747303
    23  C    8.121959   1.940000   2.797445   3.168007   4.088598
    24  H    8.848162   2.508459   3.050552   3.343825   4.315646
    25  H    8.076508   2.508459   3.050552   4.088598   4.915309
    26  H    8.556339   2.508459   3.674271   3.343825   4.315646
    27  O    6.055307   7.440080   8.121078   8.391705   8.338002
    28  C    6.607050   8.477624   9.211425   9.203630   9.059872
    29  H    7.549601   9.351381  10.106130  10.132223  10.041190
    30  H    6.886897   8.271124   9.127723   8.800074   8.654496
    31  O    5.908470   8.907201   9.479016   9.584192   9.291749
    32  C    6.881093  10.065118  10.686592  10.563896  10.215119
    33  H    7.790559  10.811329  11.466768  11.382049  11.094723
    34  H    6.671017  10.516164  11.029080  10.983665  10.546458
    35  H    7.150223   9.891814  10.614529  10.214225   9.857367
    36  C    4.875685   6.282800   6.913150   7.166789   7.029216
    37  H    4.777409   6.224203   6.711746   7.366158   7.291462
    38  H    5.646694   6.267681   7.098867   6.962454   6.877110
                   21         22         23         24         25
    21  H    0.000000
    22  H    1.747303   0.000000
    23  C    3.343825   3.343825   0.000000
    24  H    3.168007   3.617918   1.070000   0.000000
    25  H    4.315646   4.315646   1.070000   1.747303   0.000000
    26  H    3.617918   3.168007   1.070000   1.747303   1.747303
    27  O    9.420780   8.173667   8.082833   9.146725   7.850300
    28  C   10.260088   8.908438   9.218399  10.273338   9.083139
    29  H   11.179791   9.801742   9.956227  11.020537   9.764221
    30  H    9.860015   8.408008   9.020367  10.057117   8.999512
    31  O   10.646264   9.397112   9.884086  10.917022   9.767046
    32  C   11.632468  10.310685  11.081287  12.104270  11.032881
    33  H   12.451211  11.091622  11.702243  12.744572  11.600045
    34  H   12.043688  10.802718  11.662116  12.665484  11.621782
    35  H   11.281170   9.881525  10.917099  11.921303  10.964135
    36  C    8.205902   7.029216   7.166796   8.205908   7.029227
    37  H    8.361487   7.332889   7.005303   8.045399   6.717073
    38  H    8.013889   6.670120   7.055052   8.094468   7.022004
                   26         27         28         29         30
    26  H    0.000000
    27  O    7.856228   0.000000
    28  C    8.923696   1.430000   0.000000
    29  H    9.619701   2.051796   1.070000   0.000000
    30  H    8.638305   2.051796   1.070000   1.747303   0.000000
    31  O    9.702790   2.335180   1.430000   2.051796   2.051796
    32  C   10.840168   3.598754   2.335180   2.568651   2.568651
    33  H   11.419962   3.887930   2.568651   2.335180   2.916528
    34  H   11.491857   4.381354   3.267757   3.547732   3.547732
    35  H   10.606469   3.887930   2.568651   2.916528   2.335180
    36  C    7.029223   1.430000   2.335180   3.267757   2.568651
    37  H    6.970312   1.669319   2.924407   3.670919   3.411684
    38  H    6.766719   1.687642   2.259497   3.174089   2.053125
                   31         32         33         34         35
    31  O    0.000000
    32  C    1.430000   0.000000
    33  H    2.051796   1.070000   0.000000
    34  H    2.051796   1.070000   1.747303   0.000000
    35  H    2.051796   1.070000   1.747303   1.747303   0.000000
    36  C    2.738242   4.044651   4.645898   4.645898   4.183790
    37  H    3.280473   4.688294   5.186867   5.227649   5.006748
    38  H    3.010061   4.095207   4.662643   4.839962   3.985062
                   36         37         38
    36  C    0.000000
    37  H    1.070000   0.000000
    38  H    1.070000   1.999804   0.000000
 Stoichiometry    C15H20O2Si
 Framework group  C1[X(C15H20O2Si)]
 Deg. of freedom   108
 Full point group                 C1      NOp   1
 Largest Abelian subgroup         C1      NOp   1
 Largest concise Abelian subgroup C1      NOp   1
                         Standard orientation:                         
 ---------------------------------------------------------------------
 Center     Atomic      Atomic             Coordinates (Angstroms)
 Number     Number       Type             X           Y           Z
 ---------------------------------------------------------------------
      1          6           0        0.111103   -1.679338   -0.172742
      2          6           0        0.825353   -0.476574   -0.257162
      3          6           0        0.141268    0.746502   -0.251181
      4          6           0       -1.257065    0.766814   -0.160775
      5          6           0       -1.971314   -0.435951   -0.076350
      6          6           0       -1.287230   -1.659027   -0.082336
      7          1           0        1.923176    1.933759   -0.404633
      8          1           0        0.633417   -2.613184   -0.177311
      9          6           0        0.855518    1.949267   -0.335605
     10          6           0       -1.941149    1.989890   -0.154790
     11          1           0       -1.832575   -2.577365   -0.017879
     12          6           0       -1.226900    3.192654   -0.239214
     13          6           0        0.171433    3.172343   -0.329620
     14          1           0       -3.008807    2.005398   -0.085759
     15          1           0       -1.749213    4.126500   -0.234645
     16          1           0        0.716778    4.090680   -0.394082
     17         14           0       -3.907068   -0.407833    0.048807
     18          1           0       -4.426084    0.777010   -0.649526
     19          6           0       -4.433534   -0.340950    1.914808
     20          1           0       -4.034033    0.542868    2.366654
     21          1           0       -5.501193   -0.325442    1.983838
     22          1           0       -4.055748   -1.203387    2.423118
     23          6           0       -4.631398   -2.010270   -0.770427
     24          1           0       -5.699056   -1.994761   -0.701397
     25          1           0       -4.341027   -2.047159   -1.799613
     26          1           0       -4.253611   -2.872707   -0.262117
     27          8           0        3.419939   -1.305919   -0.880279
     28          6           0        4.524252   -1.292441    0.028132
     29          1           0        5.315869   -1.896299   -0.363784
     30          1           0        4.212584   -1.683081    0.974263
     31          8           0        4.987136    0.050133    0.195864
     32          6           0        6.091448    0.063611    1.104276
     33          1           0        6.883066   -0.540247    0.712360
     34          1           0        6.437802    1.068194    1.229782
     35          1           0        5.779781   -0.327030    2.050407
     36          6           0        2.361983   -0.498894   -0.356504
     37          1           0        2.147149   -0.356329   -1.394975
     38          1           0        2.291476   -1.277291    0.374267
 ---------------------------------------------------------------------
 Rotational constants (GHZ):      0.6954191      0.1743660      0.1489316
 Standard basis: 6-311+G(d,p) (5D, 7F)
 There are   542 symmetry adapted cartesian basis functions of A   symmetry.
 There are   524 symmetry adapted basis functions of A   symmetry.
   524 basis functions,   822 primitive gaussians,   542 cartesian basis functions
    70 alpha electrons       70 beta electrons
       nuclear repulsion energy      1372.2791948527 Hartrees.
 NAtoms=   38 NActive=   38 NUniq=   38 SFac= 1.00D+00 NAtFMM=   60 NAOKFM=F Big=F
 Integral buffers will be    131072 words long.
 Raffenetti 2 integral format.
 Two-electron integral symmetry is turned on.
 One-electron integrals computed using PRISM.
 NBasis=   524 RedAO= T EigKep=  1.63D-06  NBF=   524
 NBsUse=   519 1.00D-06 EigRej=  8.73D-07 NBFU=   519
 ExpMin= 3.31D-02 ExpMax= 6.94D+04 ExpMxC= 2.33D+03 IAcc=3 IRadAn=         5 AccDes= 0.00D+00
 Harris functional with IExCor=  402 and IRadAn=       5 diagonalized for initial guess.
 HarFok:  IExCor=  402 AccDes= 0.00D+00 IRadAn=         5 IDoV= 1 UseB2=F ITyADJ=14
 ICtDFT=  3500011 ScaDFX=  1.000000  1.000000  1.000000  1.000000
 FoFCou: FMM=F IPFlag=           0 FMFlag=      100000 FMFlg1=           0
         NFxFlg=           0 DoJE=T BraDBF=F KetDBF=T FulRan=T
         wScrn=  0.000000 ICntrl=     500 IOpCl=  0 I1Cent=   200000004 NGrid=           0
         NMat0=    1 NMatS0=      1 NMatT0=    0 NMatD0=    1 NMtDS0=    0 NMtDT0=    0
 Petite list used in FoFCou.
 Requested convergence on RMS density matrix=1.00D-08 within 128 cycles.
 Requested convergence on MAX density matrix=1.00D-06.
 Requested convergence on             energy=1.00D-06.
 No special actions if energy rises.
 SCF Done:  E(RB3LYP) =  -1023.50777799     A.U. after   17 cycles
            NFock= 17  Conv=0.55D-08     -V/T= 2.0027

 **********************************************************************

            Population analysis using the SCF density.

 **********************************************************************

 Orbital symmetries:
       Occupied  (A) (A) (A) (A) (A) (A) (A) (A) (A) (A) (A) (A)
                 (A) (A) (A) (A) (A) (A) (A) (A) (A) (A) (A) (A)
                 (A) (A) (A) (A) (A) (A) (A) (A) (A) (A) (A) (A)
                 (A) (A) (A) (A) (A) (A) (A) (A) (A) (A) (A) (A)
                 (A) (A) (A) (A) (A) (A) (A) (A) (A) (A) (A) (A)
                 (A) (A) (A) (A) (A) (A) (A) (A) (A) (A)
       Virtual   (A) (A) (A) (A) (A) (A) (A) (A) (A) (A) (A) (A)
                 (A) (A) (A) (A) (A) (A) (A) (A) (A) (A) (A) (A)
                 (A) (A) (A) (A) (A) (A) (A) (A) (A) (A) (A) (A)
                 (A) (A) (A) (A) (A) (A) (A) (A) (A) (A) (A) (A)
                 (A) (A) (A) (A) (A) (A) (A) (A) (A) (A) (A) (A)
                 (A) (A) (A) (A) (A) (A) (A) (A) (A) (A) (A) (A)
                 (A) (A) (A) (A) (A) (A) (A) (A) (A) (A) (A) (A)
                 (A) (A) (A) (A) (A) (A) (A) (A) (A) (A) (A) (A)
                 (A) (A) (A) (A) (A) (A) (A) (A) (A) (A) (A) (A)
                 (A) (A) (A) (A) (A) (A) (A) (A) (A) (A) (A) (A)
                 (A) (A) (A) (A) (A) (A) (A) (A) (A) (A) (A) (A)
                 (A) (A) (A) (A) (A) (A) (A) (A) (A) (A) (A) (A)
                 (A) (A) (A) (A) (A) (A) (A) (A) (A) (A) (A) (A)
                 (A) (A) (A) (A) (A) (A) (A) (A) (A) (A) (A) (A)
                 (A) (A) (A) (A) (A) (A) (A) (A) (A) (A) (A) (A)
                 (A) (A) (A) (A) (A) (A) (A) (A) (A) (A) (A) (A)
                 (A) (A) (A) (A) (A) (A) (A) (A) (A) (A) (A) (A)
                 (A) (A) (A) (A) (A) (A) (A) (A) (A) (A) (A) (A)
                 (A) (A) (A) (A) (A) (A) (A) (A) (A) (A) (A) (A)
                 (A) (A) (A) (A) (A) (A) (A) (A) (A) (A) (A) (A)
                 (A) (A) (A) (A) (A) (A) (A) (A) (A) (A) (A) (A)
                 (A) (A) (A) (A) (A) (A) (A) (A) (A) (A) (A) (A)
                 (A) (A) (A) (A) (A) (A) (A) (A) (A) (A) (A) (A)
                 (A) (A) (A) (A) (A) (A) (A) (A) (A) (A) (A) (A)
                 (A) (A) (A) (A) (A) (A) (A) (A) (A) (A) (A) (A)
                 (A) (A) (A) (A) (A) (A) (A) (A) (A) (A) (A) (A)
                 (A) (A) (A) (A) (A) (A) (A) (A) (A) (A) (A) (A)
                 (A) (A) (A) (A) (A) (A) (A) (A) (A) (A) (A) (A)
                 (A) (A) (A) (A) (A) (A) (A) (A) (A) (A) (A) (A)
                 (A) (A) (A) (A) (A) (A) (A) (A) (A) (A) (A) (A)
                 (A) (A) (A) (A) (A) (A) (A) (A) (A) (A) (A) (A)
                 (A) (A) (A) (A) (A) (A) (A) (A) (A) (A) (A) (A)
                 (A) (A) (A) (A) (A) (A) (A) (A) (A) (A) (A) (A)
                 (A) (A) (A) (A) (A) (A) (A) (A) (A) (A) (A) (A)
                 (A) (A) (A) (A) (A) (A) (A) (A) (A) (A) (A) (A)
                 (A) (A) (A) (A) (A) (A) (A) (A) (A) (A) (A) (A)
                 (A) (A) (A) (A) (A) (A) (A) (A) (A) (A) (A) (A)
                 (A) (A) (A) (A) (A)
 The electronic state is 1-A.
 Alpha  occ. eigenvalues --  -66.09320 -19.15135 -19.12871 -10.27521 -10.21472
 Alpha  occ. eigenvalues --  -10.21245 -10.18987 -10.18691 -10.18508 -10.18161
 Alpha  occ. eigenvalues --  -10.17864 -10.17821 -10.17587 -10.17531 -10.17176
 Alpha  occ. eigenvalues --  -10.16924 -10.14740 -10.14589  -5.26496  -3.62327
 Alpha  occ. eigenvalues --   -3.62314  -3.62271  -1.07988  -1.02215  -0.89313
 Alpha  occ. eigenvalues --   -0.83436  -0.80309  -0.75628  -0.75263  -0.72196
 Alpha  occ. eigenvalues --   -0.70964  -0.68793  -0.68728  -0.64972  -0.63325
 Alpha  occ. eigenvalues --   -0.62351  -0.58756  -0.55252  -0.52572  -0.51886
 Alpha  occ. eigenvalues --   -0.50685  -0.50286  -0.49859  -0.48206  -0.45747
 Alpha  occ. eigenvalues --   -0.45605  -0.43722  -0.43558  -0.42511  -0.41963
 Alpha  occ. eigenvalues --   -0.41707  -0.41163  -0.40959  -0.40555  -0.40194
 Alpha  occ. eigenvalues --   -0.39725  -0.38429  -0.36860  -0.34546  -0.34483
 Alpha  occ. eigenvalues --   -0.33732  -0.32563  -0.31443  -0.30302  -0.30066
 Alpha  occ. eigenvalues --   -0.27710  -0.26896  -0.25840  -0.21559  -0.17337
 Alpha virt. eigenvalues --   -0.09939  -0.05272  -0.02354  -0.00559   0.00155
 Alpha virt. eigenvalues --    0.00426   0.01073   0.01743   0.02285   0.02412
 Alpha virt. eigenvalues --    0.03168   0.03301   0.03588   0.04178   0.04928
 Alpha virt. eigenvalues --    0.05521   0.05724   0.05936   0.06141   0.06541
 Alpha virt. eigenvalues --    0.06675   0.07246   0.07503   0.07797   0.07893
 Alpha virt. eigenvalues --    0.08568   0.08636   0.09023   0.09312   0.09671
 Alpha virt. eigenvalues --    0.10146   0.10452   0.10841   0.11357   0.11716
 Alpha virt. eigenvalues --    0.12152   0.12531   0.12841   0.13293   0.13793
 Alpha virt. eigenvalues --    0.14024   0.14384   0.14686   0.14949   0.15356
 Alpha virt. eigenvalues --    0.16182   0.16274   0.16588   0.16779   0.17130
 Alpha virt. eigenvalues --    0.17240   0.17501   0.18201   0.18371   0.18691
 Alpha virt. eigenvalues --    0.18926   0.19250   0.19560   0.19984   0.20124
 Alpha virt. eigenvalues --    0.20548   0.20803   0.20898   0.21511   0.21819
 Alpha virt. eigenvalues --    0.22074   0.22150   0.22868   0.23209   0.23551
 Alpha virt. eigenvalues --    0.23710   0.24226   0.24316   0.24696   0.25503
 Alpha virt. eigenvalues --    0.25875   0.25977   0.26483   0.26729   0.27315
 Alpha virt. eigenvalues --    0.28032   0.28385   0.28866   0.29179   0.29503
 Alpha virt. eigenvalues --    0.29701   0.29912   0.30193   0.31108   0.31251
 Alpha virt. eigenvalues --    0.31661   0.31921   0.32374   0.32513   0.33359
 Alpha virt. eigenvalues --    0.33456   0.33834   0.34439   0.35078   0.35796
 Alpha virt. eigenvalues --    0.36148   0.36364   0.37043   0.37752   0.38350
 Alpha virt. eigenvalues --    0.39290   0.41024   0.41909   0.42270   0.43033
 Alpha virt. eigenvalues --    0.44028   0.45525   0.46062   0.46365   0.47510
 Alpha virt. eigenvalues --    0.48613   0.48989   0.49735   0.50381   0.51420
 Alpha virt. eigenvalues --    0.52216   0.52752   0.52838   0.53783   0.54527
 Alpha virt. eigenvalues --    0.55257   0.55304   0.55957   0.56437   0.57405
 Alpha virt. eigenvalues --    0.57743   0.58006   0.58600   0.60486   0.60833
 Alpha virt. eigenvalues --    0.61347   0.61647   0.62063   0.62453   0.62747
 Alpha virt. eigenvalues --    0.63421   0.63778   0.64570   0.65184   0.65537
 Alpha virt. eigenvalues --    0.65817   0.66690   0.67091   0.68679   0.69309
 Alpha virt. eigenvalues --    0.69584   0.70003   0.70294   0.70843   0.71182
 Alpha virt. eigenvalues --    0.71516   0.72000   0.72527   0.72756   0.73134
 Alpha virt. eigenvalues --    0.73489   0.75351   0.75790   0.76338   0.76687
 Alpha virt. eigenvalues --    0.77411   0.78534   0.78725   0.80431   0.80637
 Alpha virt. eigenvalues --    0.81594   0.82079   0.83517   0.84214   0.85368
 Alpha virt. eigenvalues --    0.85888   0.86856   0.87850   0.88013   0.88939
 Alpha virt. eigenvalues --    0.90489   0.90588   0.91764   0.93325   0.94146
 Alpha virt. eigenvalues --    0.95144   0.96080   0.97150   0.98193   0.98897
 Alpha virt. eigenvalues --    0.99706   1.00279   1.01132   1.01594   1.03524
 Alpha virt. eigenvalues --    1.04173   1.04772   1.06429   1.07489   1.07689
 Alpha virt. eigenvalues --    1.08268   1.08782   1.10533   1.11081   1.11985
 Alpha virt. eigenvalues --    1.13304   1.13463   1.14687   1.15766   1.16245
 Alpha virt. eigenvalues --    1.17297   1.19717   1.20775   1.22563   1.25129
 Alpha virt. eigenvalues --    1.25538   1.27730   1.31019   1.31373   1.34127
 Alpha virt. eigenvalues --    1.35475   1.36673   1.38816   1.40474   1.41764
 Alpha virt. eigenvalues --    1.42249   1.42896   1.45237   1.45547   1.46827
 Alpha virt. eigenvalues --    1.47355   1.47428   1.48166   1.49843   1.51239
 Alpha virt. eigenvalues --    1.51798   1.51980   1.52915   1.53608   1.53794
 Alpha virt. eigenvalues --    1.55843   1.56402   1.56782   1.57339   1.57415
 Alpha virt. eigenvalues --    1.58148   1.59032   1.59931   1.60375   1.61546
 Alpha virt. eigenvalues --    1.62529   1.63228   1.63967   1.64259   1.65196
 Alpha virt. eigenvalues --    1.65327   1.66312   1.66808   1.66925   1.67722
 Alpha virt. eigenvalues --    1.69566   1.70150   1.71872   1.73690   1.74684
 Alpha virt. eigenvalues --    1.75372   1.76855   1.77364   1.78098   1.78784
 Alpha virt. eigenvalues --    1.79817   1.80545   1.81479   1.82197   1.82525
 Alpha virt. eigenvalues --    1.83221   1.85043   1.86250   1.87413   1.88659
 Alpha virt. eigenvalues --    1.89217   1.90095   1.92414   1.93618   1.93845
 Alpha virt. eigenvalues --    1.95540   1.97155   1.97596   1.98168   1.98279
 Alpha virt. eigenvalues --    1.99220   2.01191   2.01762   2.02574   2.03754
 Alpha virt. eigenvalues --    2.05001   2.06108   2.07821   2.09838   2.10575
 Alpha virt. eigenvalues --    2.11611   2.13013   2.16010   2.17021   2.17439
 Alpha virt. eigenvalues --    2.18058   2.19677   2.20649   2.21300   2.22301
 Alpha virt. eigenvalues --    2.23234   2.24761   2.24988   2.25854   2.27413
 Alpha virt. eigenvalues --    2.32812   2.36639   2.41480   2.41788   2.44100
 Alpha virt. eigenvalues --    2.44523   2.44689   2.45546   2.46506   2.49479
 Alpha virt. eigenvalues --    2.49910   2.51697   2.51929   2.52492   2.52969
 Alpha virt. eigenvalues --    2.53773   2.54608   2.54721   2.55276   2.55818
 Alpha virt. eigenvalues --    2.57936   2.58348   2.59738   2.60233   2.61605
 Alpha virt. eigenvalues --    2.62381   2.62855   2.64136   2.65856   2.66284
 Alpha virt. eigenvalues --    2.67214   2.68806   2.70013   2.71553   2.72067
 Alpha virt. eigenvalues --    2.73133   2.74423   2.75158   2.75907   2.78143
 Alpha virt. eigenvalues --    2.79092   2.80101   2.80631   2.80945   2.82084
 Alpha virt. eigenvalues --    2.83156   2.83559   2.84928   2.86837   2.87533
 Alpha virt. eigenvalues --    2.88117   2.89429   2.92268   2.93084   2.93648
 Alpha virt. eigenvalues --    2.95062   2.97847   2.98701   2.99317   3.01921
 Alpha virt. eigenvalues --    3.02808   3.04854   3.07858   3.12916   3.14099
 Alpha virt. eigenvalues --    3.14445   3.16401   3.17752   3.20406   3.22944
 Alpha virt. eigenvalues --    3.23331   3.24417   3.26518   3.33261   3.36441
 Alpha virt. eigenvalues --    3.38300   3.40433   3.41189   3.44135   3.50590
 Alpha virt. eigenvalues --    3.55219   3.55757   3.61660   3.67220   3.74388
 Alpha virt. eigenvalues --    3.79364   3.79618   3.81946   3.82508   3.82599
 Alpha virt. eigenvalues --    3.83453   3.84756   3.89036   3.91876   3.95227
 Alpha virt. eigenvalues --    4.04917   4.06006   4.07190   4.09092   4.10124
 Alpha virt. eigenvalues --    4.15880   4.25970   4.28077   4.41804   4.84043
 Alpha virt. eigenvalues --    4.87833   5.07300   5.12114   5.33565   5.41950
 Alpha virt. eigenvalues --    5.61592   5.72206   5.82847  11.48120  11.52225
 Alpha virt. eigenvalues --   11.54379  23.51565  23.83250  23.84527  23.92393
 Alpha virt. eigenvalues --   23.96572  23.98114  24.00911  24.01021  24.01800
 Alpha virt. eigenvalues --   24.02663  24.06243  24.07976  24.09169  24.15524
 Alpha virt. eigenvalues --   24.18256  49.91360  49.93327 141.28773
          Condensed to atoms (all electrons):
               1          2          3          4          5          6
     1  C   12.144541  -2.498507  -0.284959   0.514101  -4.358148   0.277210
     2  C   -2.498507  19.447634   1.536084  -2.681676   4.126371  -1.839128
     3  C   -0.284959   1.536084  12.465135   2.436738   0.041387  -0.270247
     4  C    0.514101  -2.681676   2.436738  11.445746  -0.354684   0.529006
     5  C   -4.358148   4.126371   0.041387  -0.354684  12.819665  -0.449129
     6  C    0.277210  -1.839128  -0.270247   0.529006  -0.449129   9.193464
     7  H    0.017277   0.012465   0.007800   0.020950  -0.002726   0.008997
     8  H    0.514531  -0.146413  -0.042062  -0.042423  -0.021463  -0.083569
     9  C    0.390430  -2.987708  -1.074505  -1.983439  -1.979113  -0.301762
    10  C   -0.090365  -3.700106   0.160408  -1.484548  -3.666791  -0.349237
    11  H   -0.038950   0.054816  -0.042945  -0.025267  -0.110857   0.469751
    12  C   -0.350385  -0.280411   0.891352  -1.754855  -0.170468  -0.157783
    13  C   -0.537570   0.428552  -2.429703   1.695891   0.746289  -0.287893
    14  H    0.005328   0.010810   0.022322  -0.029492   0.011426   0.018386
    15  H   -0.001510   0.007583   0.008329   0.031652   0.000998  -0.000961
    16  H   -0.002281   0.007370   0.033578  -0.005109   0.008211  -0.000289
    17  Si   0.124374  -0.110379   0.032994   0.216468   0.081817   0.037723
    18  H    0.006880  -0.006087  -0.004331   0.085898  -0.096671   0.005639
    19  C    0.038806  -0.013683   0.017789  -0.009347  -0.172050   0.013032
    20  H   -0.005289  -0.000250  -0.004559  -0.033740  -0.023037  -0.001873
    21  H   -0.001354   0.002030  -0.001007   0.009420   0.031368   0.000664
    22  H    0.008226  -0.009085   0.007339   0.011446  -0.031806  -0.010529
    23  C   -0.068834  -0.066568   0.013925   0.053298  -0.069685  -0.075244
    24  H    0.005095   0.002360  -0.001288  -0.005245  -0.012924   0.018889
    25  H   -0.020670  -0.002957   0.000647  -0.001250   0.053974  -0.025534
    26  H    0.009820   0.000759  -0.000530   0.001651  -0.052277   0.023687
    27  O   -0.200310   0.332082   0.072516   0.015954   0.025535   0.020858
    28  C    0.148539  -0.545524  -0.313663  -0.000520  -0.018554   0.086170
    29  H   -0.002634   0.050229   0.013977   0.000657   0.000253  -0.000195
    30  H    0.022026   0.026342  -0.004863   0.005563  -0.000108   0.013573
    31  O   -0.012813   0.228707   0.104125   0.008604   0.001641   0.002966
    32  C   -0.004003   0.028290   0.011581   0.003130   0.000767   0.001811
    33  H   -0.000054   0.012731   0.003040   0.000119   0.000016   0.000063
    34  H    0.000002  -0.004850  -0.001437  -0.000065  -0.000011  -0.000037
    35  H    0.000469  -0.014716  -0.005775  -0.000197  -0.000059  -0.000056
    36  C    0.539515  -5.499163  -7.582868  -2.875540  -0.407906  -0.534298
    37  H   -0.050779  -0.080301  -0.122349  -0.074378   0.019250  -0.087277
    38  H    0.181956  -0.402637  -0.138156  -0.055673  -0.022034  -0.012623
               7          8          9         10         11         12
     1  C    0.017277   0.514531   0.390430  -0.090365  -0.038950  -0.350385
     2  C    0.012465  -0.146413  -2.987708  -3.700106   0.054816  -0.280411
     3  C    0.007800  -0.042062  -1.074505   0.160408  -0.042945   0.891352
     4  C    0.020950  -0.042423  -1.983439  -1.484548  -0.025267  -1.754855
     5  C   -0.002726  -0.021463  -1.979113  -3.666791  -0.110857  -0.170468
     6  C    0.008997  -0.083569  -0.301762  -0.349237   0.469751  -0.157783
     7  H    0.474001  -0.000055   0.409145   0.009018  -0.000003  -0.010287
     8  H   -0.000055   0.545910   0.011449  -0.008016  -0.006479  -0.001461
     9  C    0.409145   0.011449  12.510736   3.709926   0.000071  -0.645319
    10  C    0.009018  -0.008016   3.709926  14.115945  -0.005685   0.048708
    11  H   -0.000003  -0.006479   0.000071  -0.005685   0.561689   0.000180
    12  C   -0.010287  -0.001461  -0.645319   0.048708   0.000180   8.438413
    13  C   -0.104280   0.002627  -3.573844  -2.614608  -0.001003   0.397768
    14  H    0.000055   0.000003  -0.007607   0.351067   0.000014  -0.069285
    15  H   -0.000255   0.000000  -0.027143  -0.086608   0.000000   0.423383
    16  H   -0.006525   0.000000  -0.107259  -0.027429   0.000000   0.005377
    17  Si  -0.000102  -0.001423   0.045532  -0.027361   0.003827  -0.129246
    18  H   -0.000001   0.000008   0.004187  -0.076863   0.000297  -0.054634
    19  C   -0.000004   0.000178   0.001843   0.045336  -0.002748   0.039585
    20  H    0.000000   0.000000  -0.000399   0.037087  -0.000006   0.024791
    21  H    0.000000   0.000000  -0.000488  -0.025167   0.000026  -0.004858
    22  H    0.000000   0.000002   0.001766   0.013124  -0.000210  -0.000299
    23  C    0.000002   0.000213   0.005010   0.048118  -0.001632  -0.002516
    24  H    0.000000  -0.000001  -0.000170   0.000677   0.000093   0.000939
    25  H    0.000000   0.000002  -0.000405   0.002826  -0.000452  -0.000021
    26  H    0.000000   0.000009   0.000205  -0.003841   0.001473  -0.000335
    27  O    0.004010  -0.000021   0.020943  -0.001299  -0.000065   0.003649
    28  C    0.000255  -0.001557   0.044563   0.014087  -0.000126  -0.002235
    29  H    0.000023   0.000024  -0.007508   0.000072   0.000000  -0.000001
    30  H    0.000057  -0.000403  -0.000551   0.000797  -0.000002  -0.000004
    31  O    0.002888  -0.000037  -0.037981   0.001559  -0.000002   0.000171
    32  C    0.000073  -0.000111  -0.009159   0.000507  -0.000003  -0.000109
    33  H    0.000007   0.000000  -0.001725   0.000014   0.000000  -0.000002
    34  H   -0.000025   0.000000   0.000373   0.000001   0.000000   0.000000
    35  H    0.000002   0.000000   0.002611  -0.000039   0.000000   0.000017
    36  C   -0.042199   0.152930   1.691759  -0.299193   0.028930  -0.203353
    37  H   -0.006133   0.001741   0.036836  -0.027796   0.000227  -0.005613
    38  H   -0.000638   0.005333   0.031847  -0.010894   0.000247  -0.006511
              13         14         15         16         17         18
     1  C   -0.537570   0.005328  -0.001510  -0.002281   0.124374   0.006880
     2  C    0.428552   0.010810   0.007583   0.007370  -0.110379  -0.006087
     3  C   -2.429703   0.022322   0.008329   0.033578   0.032994  -0.004331
     4  C    1.695891  -0.029492   0.031652  -0.005109   0.216468   0.085898
     5  C    0.746289   0.011426   0.000998   0.008211   0.081817  -0.096671
     6  C   -0.287893   0.018386  -0.000961  -0.000289   0.037723   0.005639
     7  H   -0.104280   0.000055  -0.000255  -0.006525  -0.000102  -0.000001
     8  H    0.002627   0.000003   0.000000   0.000000  -0.001423   0.000008
     9  C   -3.573844  -0.007607  -0.027143  -0.107259   0.045532   0.004187
    10  C   -2.614608   0.351067  -0.086608  -0.027429  -0.027361  -0.076863
    11  H   -0.001003   0.000014   0.000000   0.000000   0.003827   0.000297
    12  C    0.397768  -0.069285   0.423383   0.005377  -0.129246  -0.054634
    13  C   12.341792  -0.015157  -0.006981   0.417171   0.013529   0.003285
    14  H   -0.015157   0.567990  -0.007844  -0.000381   0.036316   0.006596
    15  H   -0.006981  -0.007844   0.543379  -0.007758  -0.002327   0.000104
    16  H    0.417171  -0.000381  -0.007758   0.540906  -0.000733   0.000002
    17  Si   0.013529   0.036316  -0.002327  -0.000733  12.148594   0.482464
    18  H    0.003285   0.006596   0.000104   0.000002   0.482464   0.879344
    19  C    0.003844  -0.001657   0.000222   0.000014   0.103741  -0.045088
    20  H    0.000046  -0.000378   0.000000   0.000000  -0.011315  -0.001378
    21  H   -0.000288   0.000254  -0.000001   0.000000  -0.005820   0.000088
    22  H    0.000497  -0.000129   0.000000   0.000000  -0.018836   0.002660
    23  C   -0.002752  -0.000539  -0.000009  -0.000001   0.242967  -0.041363
    24  H    0.000008   0.000030   0.000000   0.000000  -0.020797  -0.001961
    25  H    0.000073   0.000036   0.000000   0.000000  -0.037872  -0.000918
    26  H   -0.000032   0.000031   0.000000   0.000000   0.010352   0.003003
    27  O    0.029133  -0.000002   0.000000  -0.000049  -0.000631   0.000000
    28  C   -0.004878  -0.000003   0.000007   0.000066  -0.001049   0.000000
    29  H   -0.001097   0.000000   0.000000   0.000000   0.000005   0.000000
    30  H   -0.000887   0.000000   0.000000   0.000000  -0.000007   0.000000
    31  O   -0.012237   0.000000   0.000000  -0.000019  -0.000027   0.000000
    32  C   -0.006077   0.000000   0.000000  -0.000014   0.000005   0.000000
    33  H   -0.000352   0.000000   0.000000   0.000000   0.000000   0.000000
    34  H   -0.000050   0.000000   0.000000   0.000000   0.000000   0.000000
    35  H    0.000751   0.000000   0.000000   0.000000  -0.000001   0.000000
    36  C   -0.120461  -0.000585   0.002205   0.019002  -0.064531  -0.000136
    37  H    0.013861   0.000013  -0.000001   0.000113   0.001128   0.000001
    38  H    0.003788   0.000003   0.000000   0.000007   0.001600   0.000001
              19         20         21         22         23         24
     1  C    0.038806  -0.005289  -0.001354   0.008226  -0.068834   0.005095
     2  C   -0.013683  -0.000250   0.002030  -0.009085  -0.066568   0.002360
     3  C    0.017789  -0.004559  -0.001007   0.007339   0.013925  -0.001288
     4  C   -0.009347  -0.033740   0.009420   0.011446   0.053298  -0.005245
     5  C   -0.172050  -0.023037   0.031368  -0.031806  -0.069685  -0.012924
     6  C    0.013032  -0.001873   0.000664  -0.010529  -0.075244   0.018889
     7  H   -0.000004   0.000000   0.000000   0.000000   0.000002   0.000000
     8  H    0.000178   0.000000   0.000000   0.000002   0.000213  -0.000001
     9  C    0.001843  -0.000399  -0.000488   0.001766   0.005010  -0.000170
    10  C    0.045336   0.037087  -0.025167   0.013124   0.048118   0.000677
    11  H   -0.002748  -0.000006   0.000026  -0.000210  -0.001632   0.000093
    12  C    0.039585   0.024791  -0.004858  -0.000299  -0.002516   0.000939
    13  C    0.003844   0.000046  -0.000288   0.000497  -0.002752   0.000008
    14  H   -0.001657  -0.000378   0.000254  -0.000129  -0.000539   0.000030
    15  H    0.000222   0.000000  -0.000001   0.000000  -0.000009   0.000000
    16  H    0.000014   0.000000   0.000000   0.000000  -0.000001   0.000000
    17  Si   0.103741  -0.011315  -0.005820  -0.018836   0.242967  -0.020797
    18  H   -0.045088  -0.001378   0.000088   0.002660  -0.041363  -0.001961
    19  C    5.854742   0.360635   0.362043   0.394249  -0.135621   0.004257
    20  H    0.360635   0.510519  -0.016375  -0.017538   0.017046  -0.000105
    21  H    0.362043  -0.016375   0.517457  -0.021712  -0.013301   0.001149
    22  H    0.394249  -0.017538  -0.021712   0.503088  -0.005039   0.000140
    23  C   -0.135621   0.017046  -0.013301  -0.005039   5.721925   0.373135
    24  H    0.004257  -0.000105   0.001149   0.000140   0.373135   0.513558
    25  H    0.012463  -0.000157  -0.000024  -0.000168   0.380255  -0.014184
    26  H   -0.008986  -0.000136   0.000279   0.001377   0.375755  -0.024151
    27  O    0.000041   0.000000   0.000000   0.000000   0.000011   0.000000
    28  C    0.000046   0.000000   0.000000   0.000001   0.000013   0.000000
    29  H    0.000000   0.000000   0.000000   0.000000   0.000000   0.000000
    30  H    0.000000   0.000000   0.000000   0.000000  -0.000001   0.000000
    31  O    0.000001   0.000000   0.000000   0.000000   0.000002   0.000000
    32  C   -0.000001   0.000000   0.000000   0.000000   0.000002   0.000000
    33  H    0.000000   0.000000   0.000000   0.000000   0.000000   0.000000
    34  H    0.000000   0.000000   0.000000   0.000000   0.000000   0.000000
    35  H    0.000000   0.000000   0.000000   0.000000   0.000000   0.000000
    36  C    0.000358  -0.000034  -0.000012  -0.000291  -0.008555   0.000012
    37  H   -0.000066   0.000000   0.000000   0.000000   0.000007   0.000000
    38  H   -0.000177   0.000000   0.000000   0.000000  -0.000074   0.000000
              25         26         27         28         29         30
     1  C   -0.020670   0.009820  -0.200310   0.148539  -0.002634   0.022026
     2  C   -0.002957   0.000759   0.332082  -0.545524   0.050229   0.026342
     3  C    0.000647  -0.000530   0.072516  -0.313663   0.013977  -0.004863
     4  C   -0.001250   0.001651   0.015954  -0.000520   0.000657   0.005563
     5  C    0.053974  -0.052277   0.025535  -0.018554   0.000253  -0.000108
     6  C   -0.025534   0.023687   0.020858   0.086170  -0.000195   0.013573
     7  H    0.000000   0.000000   0.004010   0.000255   0.000023   0.000057
     8  H    0.000002   0.000009  -0.000021  -0.001557   0.000024  -0.000403
     9  C   -0.000405   0.000205   0.020943   0.044563  -0.007508  -0.000551
    10  C    0.002826  -0.003841  -0.001299   0.014087   0.000072   0.000797
    11  H   -0.000452   0.001473  -0.000065  -0.000126   0.000000  -0.000002
    12  C   -0.000021  -0.000335   0.003649  -0.002235  -0.000001  -0.000004
    13  C    0.000073  -0.000032   0.029133  -0.004878  -0.001097  -0.000887
    14  H    0.000036   0.000031  -0.000002  -0.000003   0.000000   0.000000
    15  H    0.000000   0.000000   0.000000   0.000007   0.000000   0.000000
    16  H    0.000000   0.000000  -0.000049   0.000066   0.000000   0.000000
    17  Si  -0.037872   0.010352  -0.000631  -0.001049   0.000005  -0.000007
    18  H   -0.000918   0.003003   0.000000   0.000000   0.000000   0.000000
    19  C    0.012463  -0.008986   0.000041   0.000046   0.000000   0.000000
    20  H   -0.000157  -0.000136   0.000000   0.000000   0.000000   0.000000
    21  H   -0.000024   0.000279   0.000000   0.000000   0.000000   0.000000
    22  H   -0.000168   0.001377   0.000000   0.000001   0.000000   0.000000
    23  C    0.380255   0.375755   0.000011   0.000013   0.000000  -0.000001
    24  H   -0.014184  -0.024151   0.000000   0.000000   0.000000   0.000000
    25  H    0.502205  -0.019697   0.000000   0.000000   0.000000   0.000000
    26  H   -0.019697   0.525492   0.000000   0.000000   0.000000   0.000000
    27  O    0.000000   0.000000   8.429993   0.239354  -0.050280  -0.036500
    28  C    0.000000   0.000000   0.239354   5.571582   0.321930   0.512103
    29  H    0.000000   0.000000  -0.050280   0.321930   0.591388  -0.062767
    30  H    0.000000   0.000000  -0.036500   0.512103  -0.062767   0.645973
    31  O    0.000000   0.000000   0.000133   0.065664  -0.050814  -0.078257
    32  C    0.000000   0.000000   0.015131  -0.101390   0.008527   0.002533
    33  H    0.000000   0.000000   0.000831  -0.025199   0.017641  -0.006310
    34  H    0.000000   0.000000  -0.001301   0.017494  -0.000652  -0.000655
    35  H    0.000000   0.000000   0.002002   0.010115  -0.006497   0.015517
    36  C    0.000041   0.000255  -0.540254  -0.042953   0.029246  -0.174907
    37  H    0.000000   0.000000  -0.174763  -0.033712   0.000442  -0.004487
    38  H    0.000000   0.000001  -0.147945  -0.026104   0.000251   0.009069
              31         32         33         34         35         36
     1  C   -0.012813  -0.004003  -0.000054   0.000002   0.000469   0.539515
     2  C    0.228707   0.028290   0.012731  -0.004850  -0.014716  -5.499163
     3  C    0.104125   0.011581   0.003040  -0.001437  -0.005775  -7.582868
     4  C    0.008604   0.003130   0.000119  -0.000065  -0.000197  -2.875540
     5  C    0.001641   0.000767   0.000016  -0.000011  -0.000059  -0.407906
     6  C    0.002966   0.001811   0.000063  -0.000037  -0.000056  -0.534298
     7  H    0.002888   0.000073   0.000007  -0.000025   0.000002  -0.042199
     8  H   -0.000037  -0.000111   0.000000   0.000000   0.000000   0.152930
     9  C   -0.037981  -0.009159  -0.001725   0.000373   0.002611   1.691759
    10  C    0.001559   0.000507   0.000014   0.000001  -0.000039  -0.299193
    11  H   -0.000002  -0.000003   0.000000   0.000000   0.000000   0.028930
    12  C    0.000171  -0.000109  -0.000002   0.000000   0.000017  -0.203353
    13  C   -0.012237  -0.006077  -0.000352  -0.000050   0.000751  -0.120461
    14  H    0.000000   0.000000   0.000000   0.000000   0.000000  -0.000585
    15  H    0.000000   0.000000   0.000000   0.000000   0.000000   0.002205
    16  H   -0.000019  -0.000014   0.000000   0.000000   0.000000   0.019002
    17  Si  -0.000027   0.000005   0.000000   0.000000  -0.000001  -0.064531
    18  H    0.000000   0.000000   0.000000   0.000000   0.000000  -0.000136
    19  C    0.000001  -0.000001   0.000000   0.000000   0.000000   0.000358
    20  H    0.000000   0.000000   0.000000   0.000000   0.000000  -0.000034
    21  H    0.000000   0.000000   0.000000   0.000000   0.000000  -0.000012
    22  H    0.000000   0.000000   0.000000   0.000000   0.000000  -0.000291
    23  C    0.000002   0.000002   0.000000   0.000000   0.000000  -0.008555
    24  H    0.000000   0.000000   0.000000   0.000000   0.000000   0.000012
    25  H    0.000000   0.000000   0.000000   0.000000   0.000000   0.000041
    26  H    0.000000   0.000000   0.000000   0.000000   0.000000   0.000255
    27  O    0.000133   0.015131   0.000831  -0.001301   0.002002  -0.540254
    28  C    0.065664  -0.101390  -0.025199   0.017494   0.010115  -0.042953
    29  H   -0.050814   0.008527   0.017641  -0.000652  -0.006497   0.029246
    30  H   -0.078257   0.002533  -0.006310  -0.000655   0.015517  -0.174907
    31  O    8.195099   0.139533  -0.056680  -0.057680  -0.037493  -0.214375
    32  C    0.139533   4.967244   0.423296   0.418785   0.406155  -0.051565
    33  H   -0.056680   0.423296   0.598815  -0.027753  -0.058070   0.000196
    34  H   -0.057680   0.418785  -0.027753   0.527878  -0.027339   0.004852
    35  H   -0.037493   0.406155  -0.058070  -0.027339   0.586317   0.001569
    36  C   -0.214375  -0.051565   0.000196   0.004852   0.001569  21.796942
    37  H   -0.003343  -0.001683  -0.000043   0.000031  -0.000062   0.817089
    38  H   -0.017690  -0.001474  -0.000235   0.000052   0.000076   0.816664
              37         38
     1  C   -0.050779   0.181956
     2  C   -0.080301  -0.402637
     3  C   -0.122349  -0.138156
     4  C   -0.074378  -0.055673
     5  C    0.019250  -0.022034
     6  C   -0.087277  -0.012623
     7  H   -0.006133  -0.000638
     8  H    0.001741   0.005333
     9  C    0.036836   0.031847
    10  C   -0.027796  -0.010894
    11  H    0.000227   0.000247
    12  C   -0.005613  -0.006511
    13  C    0.013861   0.003788
    14  H    0.000013   0.000003
    15  H   -0.000001   0.000000
    16  H    0.000113   0.000007
    17  Si   0.001128   0.001600
    18  H    0.000001   0.000001
    19  C   -0.000066  -0.000177
    20  H    0.000000   0.000000
    21  H    0.000000   0.000000
    22  H    0.000000   0.000000
    23  C    0.000007  -0.000074
    24  H    0.000000   0.000000
    25  H    0.000000   0.000000
    26  H    0.000000   0.000001
    27  O   -0.174763  -0.147945
    28  C   -0.033712  -0.026104
    29  H    0.000442   0.000251
    30  H   -0.004487   0.009069
    31  O   -0.003343  -0.017690
    32  C   -0.001683  -0.001474
    33  H   -0.000043  -0.000235
    34  H    0.000031   0.000052
    35  H   -0.000062   0.000076
    36  C    0.817089   0.816664
    37  H    0.577168   0.010092
    38  H    0.010092   0.601065
 Mulliken charges:
               1
     1  C   -0.419708
     2  C    0.574929
     3  C    0.444183
     4  C    0.331153
     5  C    0.051531
     6  C   -0.234227
     7  H    0.206208
     8  H    0.120536
     9  C   -0.173148
    10  C   -0.053434
    11  H    0.114792
    12  C   -0.424338
    13  C   -0.378754
    14  H    0.102380
    15  H    0.123536
    16  H    0.126031
    17  Si   0.849021
    18  H   -0.151028
    19  C   -0.863796
    20  H    0.166443
    21  H    0.165626
    22  H    0.171726
    23  C   -0.739953
    24  H    0.160486
    25  H    0.171787
    26  H    0.155836
    27  O   -0.058757
    28  C    0.085477
    29  H    0.147779
    30  H    0.117156
    31  O   -0.171645
    32  C   -0.251782
    33  H    0.119654
    34  H    0.152384
    35  H    0.124703
    36  C   -1.238386
    37  H    0.194786
    38  H    0.180812
 Sum of Mulliken charges =   0.00000
 Mulliken charges with hydrogens summed into heavy atoms:
               1
     1  C   -0.299173
     2  C    0.574929
     3  C    0.444183
     4  C    0.331153
     5  C    0.051531
     6  C   -0.119435
     9  C    0.033060
    10  C    0.048946
    12  C   -0.300801
    13  C   -0.252723
    17  Si   0.697993
    19  C   -0.360001
    23  C   -0.251844
    27  O   -0.058757
    28  C    0.350411
    31  O   -0.171645
    32  C    0.144960
    36  C   -0.862788
 Electronic spatial extent (au):  <R**2>=           7335.7271
 Charge=              0.0000 electrons
 Dipole moment (field-independent basis, Debye):
    X=              0.3384    Y=             -1.4596    Z=              1.5922  Tot=              2.1864
 Quadrupole moment (field-independent basis, Debye-Ang):
   XX=           -102.1431   YY=           -109.6613   ZZ=           -121.5688
   XY=             -4.9662   XZ=              7.2370   YZ=             -2.4492
 Traceless Quadrupole moment (field-independent basis, Debye-Ang):
   XX=              8.9813   YY=              1.4631   ZZ=            -10.4444
   XY=             -4.9662   XZ=              7.2370   YZ=             -2.4492
 Octapole moment (field-independent basis, Debye-Ang**2):
  XXX=            133.7040  YYY=             12.2879  ZZZ=             -0.8371  XYY=             20.8183
  XXY=            -25.4938  XXZ=             47.7897  XZZ=             24.0617  YZZ=             -5.5946
  YYZ=              5.9262  XYZ=             -4.5929
 Hexadecapole moment (field-independent basis, Debye-Ang**3):
 XXXX=          -6836.6389 YYYY=          -1736.4890 ZZZZ=           -510.3020 XXXY=           -125.9465
 XXXZ=            214.8790 YYYX=            -32.0614 YYYZ=            -21.2468 ZZZX=             24.8928
 ZZZY=              9.2605 XXYY=          -1548.9718 XXZZ=          -1390.7195 YYZZ=           -426.6514
 XXYZ=             -7.3246 YYXZ=              0.1393 ZZXY=              4.6496
 N-N= 1.372279194853D+03 E-N=-5.143199294299D+03  KE= 1.020748383405D+03
 There are a total of      317142 grid points.
 ElSum from          density=      140.0002424472
 ElSum from atomic densities=      139.9997430036

 Hirshfeld populations at iteration   1 (CX, CA, CB, DipXYZ):
               1          2          3          4          5          6
     1  C    0.000000   3.032540   3.032540   0.018475  -0.063122   0.000549
     2  C    0.000000   2.986646   2.986646   0.066432   0.051705   0.001824
     3  C    0.000000   3.000207   3.000207  -0.013143  -0.012121   0.010512
     4  C    0.000000   3.000049   3.000049   0.025922   0.008099  -0.002369
     5  C    0.000000   3.053243   3.053243   0.071723   0.021287  -0.000840
     6  C    0.000000   3.022369   3.022369  -0.017305  -0.067068   0.000913
     7  H    0.000001   0.478657   0.478657   0.137594   0.036858  -0.013495
     8  H    0.000002   0.478257   0.478257   0.067202  -0.140296   0.004826
     9  C    0.000000   3.019608   3.019608   0.042422  -0.019695  -0.000521
    10  C    0.000000   3.020988   3.020988  -0.053984  -0.024629   0.003408
    11  H    0.000001   0.478081   0.478081  -0.070778  -0.135840   0.010509
    12  C    0.000000   3.022161   3.022161  -0.016023   0.065370  -0.001552
    13  C    0.000000   3.023325   3.023325   0.019097   0.064294  -0.002217
    14  H    0.000000   0.477530   0.477530  -0.138398   0.024816   0.016066
    15  H    0.000002   0.476841   0.476841  -0.077371   0.142045   0.000254
    16  H    0.000002   0.476536   0.476536   0.082773   0.139649  -0.009866
    17  Si   0.000000   6.818344   6.818344  -0.032380  -0.026885   0.003878
    18  H    0.000001   0.542553   0.542553  -0.042044   0.102044  -0.057748
    19  C    0.000000   3.102054   3.102054  -0.030482   0.002107   0.093752
    20  H    0.000001   0.480565   0.480565   0.058007   0.131350   0.065971
    21  H    0.000001   0.481160   0.481160  -0.159060   0.002189   0.004856
    22  H    0.000001   0.480542   0.480542   0.054916  -0.129342   0.073977
    23  C    0.000000   3.101725   3.101725  -0.042066  -0.075437  -0.040540
    24  H    0.000001   0.480161   0.480161  -0.160045   0.007624   0.011865
    25  H    0.000001   0.480154   0.480154   0.041893  -0.000062  -0.155295
    26  H    0.000001   0.481697   0.481697   0.053533  -0.125021   0.077856
    27  O    0.000001   4.079361   4.079361  -0.019152   0.096595   0.155622
    28  C    0.000000   2.954447   2.954447  -0.006110   0.053509  -0.040725
    29  H    0.000001   0.476599   0.476599   0.117586  -0.088545  -0.048775
    30  H    0.000000   0.485978   0.485978  -0.029449  -0.063448   0.119797
    31  O    0.000000   4.090595   4.090595   0.087065  -0.138045   0.090094
    32  C    0.000000   3.008980   3.008980  -0.036325   0.016237  -0.031905
    33  H    0.000000   0.483103   0.483103   0.111575  -0.073205  -0.049670
    34  H    0.000000   0.472762   0.472762   0.057939   0.149288   0.024716
    35  H    0.000000   0.482722   0.482722  -0.034479  -0.043718   0.131180
    36  C    0.000000   3.073931   3.073931  -0.069573  -0.172960  -0.092262
    37  H    0.000001   0.445504   0.445504  -0.043524  -0.018086  -0.184674
    38  H    0.000000   0.450147   0.450147  -0.024731  -0.152402   0.094952
       Tot   0.000021  70.000121  70.000121  -0.002269  -0.454859   0.264924

 Dip from Atomic Chgs              0.134705  -0.119446   0.361377
         Total Dipole              0.132436  -0.574305   0.626301

 Hirshfeld charges, spin densities, dipoles, and CM5 charges using IRadAn=      4:
              Q-H        S-H        Dx         Dy         Dz        Q-CM5   
     1  C   -0.065079   0.000000   0.018475  -0.063122   0.000549  -0.122147
     2  C    0.026709   0.000000   0.066432   0.051705   0.001824   0.004762
     3  C   -0.000414   0.000000  -0.013143  -0.012121   0.010512  -0.006232
     4  C   -0.000098   0.000000   0.025922   0.008099  -0.002369  -0.007397
     5  C   -0.106485   0.000000   0.071723   0.021287  -0.000840  -0.143069
     6  C   -0.044737   0.000000  -0.017305  -0.067068   0.000913  -0.101886
     7  H    0.042686   0.000000   0.137594   0.036858  -0.013495   0.103346
     8  H    0.043486   0.000000   0.067202  -0.140296   0.004826   0.102623
     9  C   -0.039215   0.000000   0.042422  -0.019695  -0.000521  -0.093825
[...]
 0.00000539,0.00000156,-0.00000049,0.00000279,-0.00000166,0.00000078,0.
 00000353,-0.00000116,-0.00000086,-0.00068207,0.00134401,0.00096061,0.0
 0051040,0.00186710,-0.00332158,0.00019624,-0.00013101,-0.00008689,0.00
 015033,0.00001334,0.00060092,-0.01726692,0.00805529,0.01741613,-0.1313
 1190,-0.00101085,0.12188641,-0.00986647,-0.00091595,0.01587833,0.14594
 483,0.00003687,-0.00000602,0.00001672,-0.00007778,-0.00002397,-0.00000
 512,0.00004683,0.00000265,0.00000523,-0.00000439,-0.00001246,0.0000043
 3,0.00001213,-0.00003368,0.00000276,-0.00002740,0.00000243,-0.00000267
 ,0.00001335,0.00000551,-0.00001236,-0.00005010,0.00001112,-0.00001123,
 -0.00000200,-0.00002188,0.00001430,-0.00000126,0.00000049,-0.00000518,
 0.00000446,-0.00000152,-0.00000028,-0.00000346,-0.00001213,0.00000354,
 -0.00000109,0.00000133,0.00000085,-0.00000063,-0.00000332,-0.00000103,
 -0.00000065,-0.00000215,-0.00000093,-0.00000563,-0.00000593,-0.0000038
 0,-0.00002569,0.00003083,-0.00000058,0.00000393,-0.00000836,0.00000134
 ,0.00000642,-0.00000805,-0.00000065,-0.00000080,0.00000083,0.00000091,
 0.00000079,-0.00000232,-0.00000295,-0.00000052,0.00000119,0.00000125,0
 .00000613,-0.00000613,0.00000004,0.00000246,-0.00000070,0.00000029,-0.
 00000114,0.00000095,-0.00000077,-0.00000182,0.00000046,0.00000065,0.00
 185660,-0.00151344,-0.00110992,0.00040246,-0.00326832,0.00299757,0.000
 60161,0.00028007,-0.00025909,-0.00020820,0.00003106,-0.00028329,0.0256
 4557,-0.00854630,-0.02868941,-0.00673491,-0.04616054,0.00655587,-0.013
 74728,0.00203829,0.02140389,-0.00834876,0.05603999,0.00002498,-0.00001
 301,0.00001345,-0.00005161,0.00002526,0.00001825,0.00003837,0.00000008
 ,0.00000290,-0.00000428,-0.00000878,-0.00001044,0.00001658,-0.00003183
 ,-0.00000172,-0.00001720,0.00000454,-0.00000819,0.00001574,0.00000578,
 -0.00000778,-0.00002427,0.00000553,0.00000151,-0.00000399,-0.00001273,
 0.00000193,-0.00000010,0.00000109,0.00000558,0.00000395,-0.00000070,-0
 .00000071,-0.00000414,-0.00000730,-0.00000329,0.00000262,0.00000036,0.
 00000678,0.00000024,-0.00000352,-0.00000045,-0.00000072,-0.00000397,-0
 .00000100,-0.00000570,-0.00000475,-0.00000282,-0.00003740,0.00004576,0
 .00000162,0.00000577,-0.00001156,0.00000139,0.00000935,-0.00001148,-0.
 00000168,-0.00000118,0.00000177,0.00000139,0.00000165,-0.00000354,-0.0
 0000371,-0.00000107,0.00000161,0.00000181,0.00000919,-0.00000872,-0.00
 000067,0.00000368,-0.00000137,0.00000023,-0.00000249,0.00000154,-0.000
 00132,-0.00000253,0.00000063,0.00000104,0.00007134,0.00001271,0.000268
 90,-0.00126942,0.00034285,0.00114268,0.00002821,0.00006895,-0.00000630
 ,-0.00005117,0.00011976,0.00051866,-0.00196377,-0.00207909,0.00510863,
 0.12799079,-0.00203108,-0.23545322,-0.00124543,0.00042306,0.00109813,-
 0.13792586,0.00210445,0.24704314,-0.00002125,0.00001335,0.00001385,0.0
 0004253,-0.00004569,0.00007079,-0.00002885,0.00000430,0.00000462,0.000
 00360,0.00000609,-0.00000509,-0.00001507,0.00002618,0.00000281,0.00001
 118,-0.00000742,-0.00000806,-0.00001175,-0.00000338,-0.00001441,0.0000
 1625,-0.00000724,-0.00000502,0.00000512,0.00000607,0.00001583,-0.00000
 044,0.00000002,0.00000437,-0.00000381,0.00000037,-0.00000266,0.0000017
 5,0.00000466,-0.00000141,-0.00000131,0.00000080,0.00000442,-0.00000059
 ,0.00000337,-0.00000095,0.00000075,0.00000368,-0.00000132,0.00000388,0
 .00000191,-0.00000286,0.00003658,-0.00004358,-0.00001497,-0.00000607,0
 .00000935,0.00000169,-0.00000836,0.00001156,0.00000532,0.00000160,-0.0
 0000119,-0.00000222,-0.00000146,0.00000317,0.00000382,-0.00000037,-0.0
 0000198,-0.00000072,-0.00000846,0.00000857,0.00000225,-0.00000362,0.00
 000136,-0.00000037,0.00000308,-0.00000077,0.00000201,0.00000135,-0.000
 00160,-0.00000090,0.00021184,0.00034340,0.00122572,0.00184030,-0.00104
 872,-0.00640886,-0.00034434,-0.00024402,0.00026832,0.00016174,0.000164
 61,0.00153857,-0.01756425,0.01385665,-0.01276774,-0.12714952,-0.010113
 58,-0.10893562,-0.01012522,-0.00318274,-0.01676445,0.01252861,0.000362
 86,0.01425824,0.14048080,0.00001545,-0.00001112,0.00000456,-0.00007843
 ,0.00001399,-0.00004448,0.00004073,0.00000876,0.00001164,-0.00000395,-
 0.00000884,0.00000342,0.00001177,-0.00002745,-0.00000632,-0.00001903,0
 .00001017,0.00000519,0.00001600,0.00000151,0.00000558,-0.00002709,0.00
 001047,0.00000025,0.00000534,-0.00002200,-0.00001726,-0.00000215,0.000
 00004,0.00000131,0.00000427,-0.00000123,-0.00000045,-0.00000179,-0.000
 00674,-0.00000110,-0.00000206,0.00000383,0.00000346,-0.00000020,-0.000
 00315,-0.00000023,-0.00000092,-0.00000243,-0.00000017,-0.00000518,-0.0
 0000543,-0.00000072,-0.00003469,0.00003752,0.00000080,0.00000513,-0.00
 000845,0.00000172,0.00000842,-0.00000936,-0.00000125,-0.00000084,0.000
 00131,0.00000160,0.00000112,-0.00000301,-0.00000338,-0.00000094,0.0000
 0147,0.00000131,0.00000873,-0.00000667,-0.00000029,0.00000310,-0.00000
 110,0.00000012,-0.00000235,0.00000115,-0.00000068,-0.00000194,0.000000
 56,0.00000040,-0.00005710,-0.00072043,-0.00085196,-0.00159981,0.001295
 66,0.00560682,0.00012311,-0.00021185,-0.00076586,-0.00081333,0.0001146
 3,-0.00117679,0.02848901,-0.00893763,0.02514363,-0.01131675,-0.0510536
 0,-0.01581740,-0.01442574,0.00065271,-0.02129628,-0.00064524,0.0006446
 4,0.00088174,0.00010777,0.05784826,-0.00003357,0.00001797,-0.00000192,
 0.00007556,-0.00002371,0.00003200,-0.00005477,-0.00000610,-0.00000638,
 0.00000534,0.00001278,0.00000267,-0.00001838,0.00004553,0.00000540,0.0
 0002587,-0.00001177,0.00000149,-0.00002254,-0.00000630,-0.00001138,0.0
 0003497,-0.00001314,-0.00000647,-0.00000085,0.00002598,0.00001148,0.00
 000294,-0.00000219,0.00000042,-0.00000423,0.00000020,-0.00000227,0.000
 00609,0.00001155,0.00000296,-0.00000279,-0.00000387,0.00000400,0.,0.00
 000463,-0.00000094,0.00000118,0.00000512,-0.00000150,0.00000881,0.0000
 0877,-0.00000243,0.00004575,-0.00006313,-0.00001806,-0.00000727,0.0000
 1543,0.00000223,-0.00001120,0.00001602,0.00000675,0.00000234,-0.000001
 15,-0.00000210,-0.00000205,0.00000444,0.00000511,0.,-0.00000263,-0.000
 00173,-0.00001073,0.00001237,0.00000318,-0.00000487,0.00000201,-0.0000
 0052,0.00000432,-0.00000142,0.00000304,0.00000275,-0.00000169,-0.00000
 153,0.00012464,0.00043144,0.00017825,0.00319748,-0.00082893,0.00147938
 ,-0.00025597,-0.00020603,-0.00015769,-0.00162532,0.00061897,0.00098595
 ,-0.00420562,0.00865129,0.00268371,-0.11061315,-0.01312016,-0.21385997
 ,0.00121168,-0.00059694,0.00110333,-0.01541553,-0.00272429,-0.01971233
 ,0.12778894,0.00809948,0.22742120,-0.02115858,0.03045462,0.00067409,-0
 .13596068,0.04267226,0.00132477,0.01601596,-0.00322504,-0.00005759,-0.
 00015079,-0.00550568,-0.00039671,-0.00241005,0.00031051,-0.00001045,-0
 .00369461,-0.00261891,-0.00056338,-0.00117049,-0.00130074,-0.00009867,
 -0.00027684,0.00026743,0.00007827,-0.00132631,-0.00387728,0.00003800,0
 .00029777,-0.00117823,-0.00007515,-0.00066994,0.00103093,0.00006192,0.
 00097331,-0.00058466,0.00003262,-0.00070174,0.00176116,0.00003579,-0.0
 0019022,-0.00039593,-0.00002711,-0.00005231,0.00007400,0.00000551,-0.0
 0005461,-0.00006771,-0.00001930,0.00045230,-0.00065074,0.00001163,-0.0
 0004881,0.00013225,-0.00000379,-0.00011684,0.00015267,-0.00000991,0.00
 000755,-0.00000429,0.00000449,-0.00000513,0.00004757,0.00005415,0.0000
 1228,-0.00001889,-0.00001550,-0.00009791,0.00007202,0.00000519,-0.0000
 2521,0.00001534,-0.00000166,0.00002777,-0.00000055,0.00001205,0.000032
 04,0.00000042,-0.00000310,-0.14190859,-0.07480089,-0.00928361,0.018440
 03,0.00903369,-0.00171378,-0.00092893,0.00461192,-0.00065362,-0.001039
 47,0.00508419,0.00049423,-0.00378508,0.00322301,0.00213356,-0.00004192
 ,-0.00031474,0.00122003,-0.00017444,-0.00011469,-0.00009031,-0.0003762
 9,0.00036274,0.00011640,-0.00005689,0.00019036,-0.00024715,0.52939886,
 0.00862846,0.00631097,0.00010148,0.06244616,-0.15251129,-0.00175812,0.
 01170086,-0.02553004,-0.00087608,-0.00362735,-0.00018667,-0.00033319,-
 0.00023646,0.00044658,0.00004892,-0.00336646,-0.00011561,-0.00044593,-
 0.00077594,-0.00208634,-0.00017127,-0.00238686,-0.00111869,0.00019447,
 0.00103120,-0.00028675,0.00016024,0.00102805,-0.00007162,0.00001729,-0
 .00079490,0.00065378,0.00002496,-0.00059319,0.00016175,-0.00000946,0.0
 0094109,-0.00116655,0.00001216,-0.00010582,-0.00005198,-0.00001758,0.0
 0001381,0.00009961,-0.00000787,0.00011779,0.00011179,0.00000717,0.0015
 2216,-0.00150936,-0.00006539,-0.00022324,0.00030345,-0.00001771,-0.000
 35124,0.00036917,0.00002138,0.00002863,-0.00005356,-0.00006844,-0.0000
 2988,0.00011407,0.00014614,0.00001304,-0.00005756,-0.00002770,-0.00038
 532,0.00027218,0.00002919,-0.00012143,0.00002474,-0.00001554,0.0000802
 3,-0.00001682,0.00002100,0.00005876,-0.00002361,-0.00000295,-0.0408682
 8,-0.14733724,-0.00122396,-0.00841594,-0.05695603,-0.00412057,0.002758
 41,-0.00113206,-0.00025992,-0.00447952,0.00496064,-0.00176360,-0.00691
 946,0.00309951,0.00356088,-0.00016423,-0.00140366,0.00142473,-0.000013
 08,0.00028535,-0.00011128,-0.00042460,0.00070645,0.00019980,-0.0001884
 5,0.00040142,-0.00034072,-0.02084332,0.46736409,-0.00016829,0.00067397
 ,0.00611427,0.00054362,-0.00289697,-0.07342818,0.00097904,-0.00126310,
 0.00165342,-0.00017189,-0.00048795,0.00523085,0.00003453,0.00003087,-0
 .00150136,-0.00043184,-0.00056100,0.00907539,-0.00005166,-0.00017171,0
 .00159316,0.00008700,0.00018005,-0.00459766,0.00005446,-0.00006255,-0.
 00306332,0.00003929,0.00005270,0.00010240,-0.00006404,0.00007374,-0.00
 010026,-0.00003560,-0.00000524,-0.00032465,0.00005456,-0.00004555,-0.0
 0069314,0.00002226,-0.00005603,0.00026472,-0.00000378,-0.00000151,0.00
 009425,-0.00000977,-0.00001702,0.00034672,0.00002431,0.00009740,-0.000
 80847,-0.00011526,0.00013786,0.00002843,0.00011593,-0.00017031,0.00001
 375,-0.00001169,-0.00001024,0.00002109,-0.00000100,-0.00002643,-0.0000
 8022,0.00001599,0.00000993,0.00000891,-0.00001829,-0.00002417,0.000032
 23,0.00001018,-0.00000050,-0.00001330,0.00000091,-0.00000576,-0.000014
 31,-0.00001115,0.00001728,-0.00001120,-0.00956542,-0.00666906,-0.06315
 363,0.00208095,0.00258618,-0.00426487,-0.00109977,0.00198765,0.0010674
 1,0.00163665,0.00389792,0.00084592,-0.00132013,-0.00020774,0.00089844,
 0.00146350,-0.00110097,0.00018428,-0.00000884,0.00034624,-0.00017879,-
 0.00006084,-0.00001041,-0.00001515,-0.00033434,0.00021398,-0.00024030,
 -0.00858557,-0.01268265,0.55401663,0.00049039,0.00169443,0.00013432,-0
 .01451012,0.00460771,0.01560403,-0.00048241,-0.00142226,-0.00044193,-0
 .00066856,0.00053654,-0.00043193,0.00011031,0.00006163,0.00013207,-0.0
 0034801,0.00011410,-0.00092237,0.00024889,-0.00062620,-0.00016303,0.00
 017367,-0.00030334,0.00053417,0.00040247,-0.00009700,-0.00008295,0.000
 04873,-0.00006054,0.00003293,-0.00011628,0.00012013,0.00000438,-0.0000
 4639,-0.00004459,-0.00004062,0.00029042,-0.00013594,-0.00012536,-0.000
 00778,-0.00000106,-0.00000536,0.00001476,-0.00001214,0.00001261,-0.000
 00641,-0.00000751,0.00001558,0.00010501,-0.00015844,0.00006368,-0.0000
 0309,0.00003283,-0.00001484,-0.00003358,0.00004625,-0.00001139,0.00000
 398,0.00000269,0.00000172,0.00000198,0.00001067,0.00002054,0.00000048,
 -0.00000562,-0.00000735,-0.00002368,0.00003839,-0.00000038,-0.00001163
 ,0.00000246,-0.00000075,0.00000366,-0.00000415,0.00000514,0.00001144,-
 0.00000259,-0.00000482,-0.01648578,-0.01520663,0.01419448,-0.00251489,
 0.00297553,0.00071482,0.00020585,-0.00027925,-0.00002831,0.00026750,-0
 .00041483,-0.00006336,0.00095616,0.00065940,-0.00082415,0.00026649,-0.
 00001118,-0.00031328,-0.00003862,0.00006734,0.00002440,0.00005996,-0.0
 0007945,0.00002730,-0.00002778,0.00003054,-0.00002193,-0.13622788,-0.0
 0251644,0.11863247,0.15647844,0.00008834,-0.00272118,-0.00026415,0.016
 95289,0.00167903,-0.01948045,0.00016313,-0.00011170,0.00042399,0.00000
 929,0.00017083,0.00066750,0.00059270,-0.00025887,-0.00021298,0.0004810
 2,-0.00019471,0.00152859,-0.00059425,-0.00094780,-0.00072306,0.0001828
 1,0.00000075,-0.00065531,0.00022003,-0.00012842,-0.00016943,0.00011228
 ,0.00030780,-0.00002011,0.00015478,-0.00017212,0.00002239,-0.00031036,
 0.00011130,-0.00014448,-0.00017546,-0.00039252,0.00000601,0.00001533,0
 .00000101,0.00001013,-0.00002580,0.00001457,0.00000352,-0.00001225,-0.
 00002349,0.00005985,-0.00031720,0.00044170,-0.00012743,0.00002272,-0.0
 0007664,0.00001290,0.00010781,-0.00012887,0.00001871,-0.00000989,0.000
 00087,0.00000208,0.00000156,-0.00003461,-0.00005355,-0.00000602,0.0000
 1558,0.00001334,0.00006281,-0.00007110,0.00000653,0.00002646,-0.000002
 29,-0.00000009,-0.00001405,0.00000325,-0.00000843,-0.00001775,0.000005
 08,-0.00000027,-0.02738828,-0.01776507,0.02265397,-0.00505192,0.003969
 18,0.00290778,0.00044695,-0.00044751,-0.00030537,0.00030632,-0.0003828
 4,0.00002098,0.00160765,-0.00068442,-0.00159092,0.00042769,0.00021042,
 -0.00034849,-0.00015807,0.00020281,0.00002689,0.00004276,-0.00011027,-
 0.00001664,-0.00008753,0.00002878,-0.00003304,0.00360962,-0.04534129,-
 0.00156977,0.00927919,0.06058541,-0.00070836,0.00014934,-0.00028155,-0
 .00082614,-0.00151425,0.00290028,0.00069749,0.00051456,0.00081803,0.00
 017012,-0.00028144,-0.00025430,-0.00015193,0.00000968,-0.00000018,-0.0
 0009409,-0.00002520,-0.00028920,-0.00071748,-0.00000041,-0.00037155,-0
 .00007618,-0.00002597,0.00016544,0.00081092,-0.00049144,0.00032819,-0.
 00005709,0.00003216,0.00003421,-0.00002554,-0.00000859,0.00004859,0.00
 012132,0.00005097,-0.00000009,-0.00047996,0.00035438,0.00009331,-0.000
 01645,0.00000002,-0.00000637,-0.00003218,0.00005323,-0.00001671,0.0000
 1260,-0.00001591,-0.00001618,0.00002667,0.00001455,0.00002139,-0.00000
 651,-0.00001425,0.00000120,-0.00000620,0.00000622,0.00000969,-0.000000
 33,-0.00000378,-0.00001067,-0.00000303,0.00000073,0.00000301,-0.000004
 72,-0.00000123,0.00000334,-0.00001043,-0.00000003,0.00000084,-0.000002
 05,-0.00000061,-0.00000074,-0.00000052,0.00000116,-0.00000092,-0.00000
 271,-0.00000193,0.00000095,-0.00222630,0.00394286,0.00831694,0.0023293
 3,-0.00091528,-0.00017284,-0.00003288,0.00002954,0.00013025,-0.0000954
 4,-0.00027383,-0.00013394,-0.00095418,-0.00138198,0.00015872,-0.000520
 05,0.00032668,0.00004203,0.00000799,-0.00016370,0.00001285,0.00000566,
 0.00003615,-0.00000411,-0.00000265,0.00007426,-0.00001078,0.12012144,0
 .00515390,-0.21213290,-0.13236058,-0.00573383,0.22345767,0.00045136,0.
 00159839,0.00005529,-0.01337201,0.00580431,-0.01609690,-0.00041922,-0.
 00139739,0.00034059,-0.00064263,0.00044313,0.00047244,0.00004768,0.000
 10769,-0.00012322,-0.00036343,0.00005598,0.00098595,0.00013807,-0.0005
 4962,0.00013452,0.00020271,-0.00022810,-0.00059313,0.00054207,0.000002
 06,-0.00001566,0.00005172,-0.00004564,-0.00002162,-0.00012453,0.000120
 82,0.00000318,-0.00004082,-0.00002350,0.00002160,0.00021933,-0.0001188
 5,0.00011691,-0.00000333,-0.00000353,0.00000633,0.00001224,-0.00000181
 ,-0.00001160,0.00000187,-0.00000145,-0.00001390,0.00016431,-0.00020634
 ,-0.00011347,-0.00002750,0.00006337,0.00000868,-0.00002935,0.00003909,
 0.00000476,0.00000599,0.00000781,-0.00000133,0.00000266,0.00000885,0.0
 0002104,-0.00000818,-0.00000592,-0.00000073,-0.00003384,0.00003765,0.0
 0001609,-0.00001189,0.00000462,-0.00000406,0.00001172,-0.00000479,0.00
 000705,0.00000681,-0.00000207,-0.00000676,-0.01808323,-0.01311463,-0.0
 1819655,-0.00072659,0.00379115,0.00032695,0.00019678,0.00005811,0.0005
 1442,0.00101785,-0.00103017,0.00046175,0.00028246,-0.00049038,-0.00022
 796,-0.00001413,0.00009155,-0.00014816,0.00001412,-0.00001229,0.000012
 73,0.00003568,-0.00004226,-0.00001207,0.00002845,-0.00002132,0.0000192
 8,-0.11300734,0.00746276,-0.10372650,0.01141229,-0.00074533,0.01511043
 ,0.13206183,-0.00007711,-0.00254545,0.00008009,0.01525681,-0.00047044,
 0.02044452,0.00032634,-0.00012293,-0.00066376,0.00000416,0.00026245,-0
 .00064927,0.00071173,-0.00035816,0.00023761,0.00046445,-0.00015378,-0.
 00152954,-0.00066779,-0.00086172,0.00056866,0.00013449,-0.00006972,0.0
 0066957,0.00034724,-0.00014108,0.00014243,0.00012421,0.00031077,0.0000
 6740,0.00016766,-0.00016747,-0.00004415,-0.00033137,0.00010830,0.00013
 813,-0.00023265,-0.00039016,-0.00005782,0.00000720,0.00000264,-0.00000
 813,-0.00003020,0.00001102,-0.00000151,-0.00001836,-0.00002557,-0.0000
 5996,-0.00044035,0.00053512,0.00018972,0.00007330,-0.00014802,-0.00001
 155,0.00009581,-0.00009966,-0.00000082,-0.00001215,-0.00000348,0.00000
 254,0.00000165,-0.00003187,-0.00004504,-0.00000090,0.00001608,0.000007
 79,0.00009007,-0.00007634,-0.00001955,0.00003095,-0.00000316,0.0000051
 7,-0.00002485,0.00000318,-0.00000671,-0.00001339,0.00000194,0.00000252
 ,-0.02454957,-0.01580967,-0.02510131,-0.00595447,0.00517679,-0.0045580
 0,0.00021929,0.00012295,0.00040377,0.00142171,0.00068272,0.00160392,0.
 00086916,-0.00039191,0.00051363,0.00008244,0.00001543,-0.00017889,-0.0
 0001470,-0.00000142,0.00000234,0.00004843,-0.00005082,0.00000280,0.000
 03780,-0.00003637,0.00000321,0.01239559,-0.04872881,0.01774085,0.00110
 930,0.00224735,0.00010329,-0.00165195,0.06119130,0.00072074,-0.0002148
 7,-0.00024289,0.00136856,0.00122766,0.00362324,-0.00084065,-0.00050929
 ,0.00074299,-0.00016770,0.00034314,-0.00023845,0.00004284,0.00004685,-
 0.00000899,0.00013050,0.00014939,-0.00029634,0.00064452,-0.00011866,-0
 .00036194,0.00011709,-0.00003981,0.00016678,-0.00075429,0.00049207,0.0
 0039674,0.00006542,-0.00003480,0.00003575,0.00000759,0.00000574,0.0000
 5039,-0.00011912,-0.00002945,-0.00000619,0.00047189,-0.00036173,0.0000
 8351,0.00001187,0.00001247,-0.00000384,0.00003438,-0.00004136,-0.00002
 100,0.00000133,0.00002678,-0.00002222,0.00009139,-0.00014585,0.0000141
 2,-0.00000264,0.00002780,-0.00000074,-0.00003023,0.00003820,-0.0000021
 0,0.00000476,0.00000341,0.00000311,0.00000114,0.00001026,0.00001713,0.
 00000071,-0.00000462,-0.00000444,-0.00001441,0.00002157,0.00000168,-0.
 00000761,0.00000248,-0.00000049,0.00000710,-0.00000082,0.00000463,0.00
 000629,-0.00000255,-0.00000154,-0.00429163,-0.00729302,0.00276652,-0.0
 0076371,0.00199178,0.00135535,0.00028709,-0.00015292,0.00041851,0.0006
 8268,-0.00138332,0.00004948,0.00057140,-0.00032104,-0.00028845,-0.0002
 1642,0.00008996,-0.00018531,0.00003423,-0.00000759,0.00003099,0.000026
 01,-0.00002618,-0.00000315,0.00006302,-0.00007665,0.00010574,-0.104567
 76,0.01319627,-0.21697058,-0.01428996,0.00307263,-0.02284389,0.1206736
 1,-0.00999394,0.23163590\\0.00000325,0.00000035,0.00000251,-0.00000570
 ,-0.00000285,0.00001360,-0.00000460,-0.00000971,-0.00000639,0.00000997
 ,0.00001489,-0.00000387,-0.00001280,-0.00000257,0.00000788,0.00000329,
 0.00001202,0.00000075,-0.00000011,-0.00000096,-0.00000290,-0.00000265,
 0.00000040,-0.00000016,0.00000799,0.00000343,-0.00000428,-0.00000511,-
 0.00000522,-0.00000125,-0.00000296,-0.00000279,-0.00000115,0.00000359,
 -0.00000886,-0.00000211,-0.00000705,0.00000483,0.00000011,-0.00000209,
 0.00000233,0.00000009,-0.00000229,0.00000431,-0.00000045,0.00000082,0.
 00000056,-0.00000329,-0.00000280,-0.00000974,-0.00000557,-0.00000303,-
 0.00000021,0.00000133,0.00000766,-0.00000339,0.00000004,0.00000134,-0.
 00000026,0.00000367,-0.00000416,0.00000258,-0.00000069,-0.00000156,-0.
 00000276,0.00000347,0.00000610,0.00000796,0.00000126,-0.00000352,-0.00
 000099,0.00000482,-0.00000257,-0.00000467,0.00000156,-0.00000310,-0.00
 000476,0.00000663,0.00001853,0.00001029,0.00000336,-0.00000378,-0.0000
 0209,-0.00000716,-0.00000146,-0.00000044,0.00000200,0.00000372,0.00000
 741,-0.00000092,0.00000518,0.00000343,0.00000100,-0.00000540,0.0000059
 6,-0.00000453,-0.00000109,-0.00000348,-0.00000101,0.00000359,0.0000010
 2,-0.00000293,0.00000553,-0.00000056,0.00000150,-0.00001586,-0.0000230
 4,-0.00001425,0.00000508,0.00000226,-0.00000817,0.00000807,0.00000534,
 0.00001552\\\@


 IT IS IMPOSSIBLE TO MEDITATE ON TIME AND THE MYSTERY 
 OF NATURE WITHOUT AN OVERWHELMING EMOTION AT THE
 LIMITATIONS OF HUMAN INTELLIGENCE.

                                         -- ALFRED NORTH WHITEHEAD
 Job cpu time:       0 days 13 hours  9 minutes 18.8 seconds.
 File lengths (MBytes):  RWF=   1727 Int=      0 D2E=      0 Chk=     21 Scr=      1
 Normal termination of Gaussian 09 at Wed Oct 13 18:01:31 2021.
