 Entering Gaussian System, Link 0=g09
 Initial command:
 /cm/shared/apps/gaussian/g09revD.01/g09/l1.exe "//home/sweav003/HartwigDocs/IrCatSilyDir_One/G09-Table2_3.com.o9616048.tmp/Gau-77469.inp" -scrdir="//home/sweav003/HartwigDocs/IrCatSilyDir_One/G09-Table2_3.com.o9616048.tmp/"
 Entering Link 1 = /cm/shared/apps/gaussian/g09revD.01/g09/l1.exe PID=     77470.
  
 Copyright (c) 1988,1990,1992,1993,1995,1998,2003,2009,2013,
            Gaussian, Inc.  All Rights Reserved.
  
 This is part of the Gaussian(R) 09 program.  It is based on
 the Gaussian(R) 03 system (copyright 2003, Gaussian, Inc.),
 the Gaussian(R) 98 system (copyright 1998, Gaussian, Inc.),
 the Gaussian(R) 94 system (copyright 1995, Gaussian, Inc.),
 the Gaussian 92(TM) system (copyright 1992, Gaussian, Inc.),
 the Gaussian 90(TM) system (copyright 1990, Gaussian, Inc.),
 the Gaussian 88(TM) system (copyright 1988, Gaussian, Inc.),
 the Gaussian 86(TM) system (copyright 1986, Carnegie Mellon
 University), and the Gaussian 82(TM) system (copyright 1983,
 Carnegie Mellon University). Gaussian is a federally registered
 trademark of Gaussian, Inc.
  
 This software contains proprietary and confidential information,
 including trade secrets, belonging to Gaussian, Inc.
  
 This software is provided under written license and may be
 used, copied, transmitted, or stored only in accord with that
 written license.
  
 The following legend is applicable only to US Government
 contracts under FAR:
  
                    RESTRICTED RIGHTS LEGEND
  
 Use, reproduction and disclosure by the US Government is
 subject to restrictions as set forth in subparagraphs (a)
 and (c) of the Commercial Computer Software - Restricted
 Rights clause in FAR 52.227-19.
  
 Gaussian, Inc.
 340 Quinnipiac St., Bldg. 40, Wallingford CT 06492
  
  
 ---------------------------------------------------------------
 Warning -- This program may not be used in any manner that
 competes with the business of Gaussian, Inc. or will provide
 assistance to any competitor of Gaussian, Inc.  The licensee
 of this program is prohibited from giving any competitor of
 Gaussian, Inc. access to this program.  By using this program,
 the user acknowledges that Gaussian, Inc. is engaged in the
 business of creating and licensing software in the field of
 computational chemistry and represents and warrants to the
 licensee that it is not a competitor of Gaussian, Inc. and that
 it will not use this program in any manner prohibited above.
 ---------------------------------------------------------------
  

 Cite this work as:
 Gaussian 09, Revision D.01,
 M. J. Frisch, G. W. Trucks, H. B. Schlegel, G. E. Scuseria, 
 M. A. Robb, J. R. Cheeseman, G. Scalmani, V. Barone, B. Mennucci, 
 G. A. Petersson, H. Nakatsuji, M. Caricato, X. Li, H. P. Hratchian, 
 A. F. Izmaylov, J. Bloino, G. Zheng, J. L. Sonnenberg, M. Hada, 
 M. Ehara, K. Toyota, R. Fukuda, J. Hasegawa, M. Ishida, T. Nakajima, 
 Y. Honda, O. Kitao, H. Nakai, T. Vreven, J. A. Montgomery, Jr., 
 J. E. Peralta, F. Ogliaro, M. Bearpark, J. J. Heyd, E. Brothers, 
 K. N. Kudin, V. N. Staroverov, T. Keith, R. Kobayashi, J. Normand, 
 K. Raghavachari, A. Rendell, J. C. Burant, S. S. Iyengar, J. Tomasi, 
 M. Cossi, N. Rega, J. M. Millam, M. Klene, J. E. Knox, J. B. Cross, 
 V. Bakken, C. Adamo, J. Jaramillo, R. Gomperts, R. E. Stratmann, 
 O. Yazyev, A. J. Austin, R. Cammi, C. Pomelli, J. W. Ochterski, 
 R. L. Martin, K. Morokuma, V. G. Zakrzewski, G. A. Voth, 
 P. Salvador, J. J. Dannenberg, S. Dapprich, A. D. Daniels, 
 O. Farkas, J. B. Foresman, J. V. Ortiz, J. Cioslowski, 
 and D. J. Fox, Gaussian, Inc., Wallingford CT, 2013.
 
 ******************************************
 Gaussian 09:  ES64L-G09RevD.01 24-Apr-2013
                13-Oct-2021 
 ******************************************
 %mem=100MW
 %nprocshared=20
 Will use up to   20 processors via shared memory.
 %chk=Table2_3.chk
 ----------------------------------------------------------------------
 # opt freq b3lyp/6-311+g(d,p) pop=(npa,hirshfeld,chelpg,mbs) geom=conn
 ectivity
 ----------------------------------------------------------------------
 1/14=-1,18=20,19=15,26=3,38=1,57=2/1,3;
 2/9=110,12=2,17=6,18=5,40=1/2;
 3/5=4,6=6,7=111,11=2,16=1,25=1,30=1,71=1,74=-5/1,2,3;
 4//1;
 5/5=2,38=5/2;
 6/7=2,8=2,9=2,10=2,15=8,20=3,27=100,28=1,40=-1,79=1/1,2,7;
 7//1,2,3,16;
 1/14=-1,18=20,19=15,26=3/3(2);
 2/9=110/2;
 99//99;
 2/9=110/2;
 3/5=4,6=6,7=111,11=2,16=1,25=1,30=1,71=1,74=-5/1,2,3;
 4/5=5,16=3,69=1/1;
 5/5=2,38=5/2;
 7//1,2,3,16;
 1/14=-1,18=20,19=15,26=3/3(-5);
 2/9=110/2;
 6/7=2,8=2,9=2,10=2,15=8,19=2,20=3,27=100,28=1,40=-1,79=1/1,2,7;
 99/9=1/99;
 --------
 Table2_3
 --------
 Symbolic Z-matrix:
 Charge =  0 Multiplicity = 1
 C                    -3.2882   -0.00751   0.25418 
 C                    -1.90034  -0.0149    0.06 
 C                    -1.21206   1.19195  -0.12356 
 C                    -1.91164   2.4062   -0.11295 
 C                    -3.29951   2.41359   0.08122 
 C                    -3.98779   1.20673   0.26478 
 H                     0.70995   0.25746  -0.32583 
 H                    -3.81372  -0.92897   0.39433 
 C                     0.1758    1.18456  -0.31773 
 C                    -1.22337   3.61305  -0.29651 
 H                    -5.04745   1.21237   0.41304 
 C                     0.1645    3.60566  -0.49068 
 C                     0.86408   2.39142  -0.50129 
 H                    -1.75751   4.54016  -0.28841 
 H                     0.69002   4.52712  -0.63083 
 H                     1.92375   2.38578  -0.64954 
 Si                   -4.26796   4.0945    0.0959 
 H                    -3.58199   5.06283  -0.77168 
 C                    -4.33732   4.78506   1.90751 
 H                    -3.34211   4.94367   2.26709 
 H                    -4.87147   5.71216   1.91561 
 H                    -4.83663   4.08022   2.53901 
 C                    -6.07236   3.80693  -0.55606 
 H                    -6.60651   4.73404  -0.54796 
 H                    -6.03411   3.42606  -1.55524 
 H                    -6.57168   3.1021    0.07544 
 C                    -1.13156  -1.34924   0.04834 
 H                    -1.09331  -1.73011  -0.95084 
 H                    -0.13635  -1.19063   0.40793 
 H                    -1.63087  -2.05407   0.67984 
 

 GradGradGradGradGradGradGradGradGradGradGradGradGradGradGradGradGradGrad
 Berny optimization.
 Initialization pass.
                           ----------------------------
                           !    Initial Parameters    !
                           ! (Angstroms and Degrees)  !
 --------------------------                            --------------------------
 ! Name  Definition              Value          Derivative Info.                !
 --------------------------------------------------------------------------------
 ! R1    R(1,2)                  1.4014         estimate D2E/DX2                !
 ! R2    R(1,6)                  1.4014         estimate D2E/DX2                !
 ! R3    R(1,8)                  1.07           estimate D2E/DX2                !
 ! R4    R(2,3)                  1.4014         estimate D2E/DX2                !
 ! R5    R(2,27)                 1.54           estimate D2E/DX2                !
 ! R6    R(3,4)                  1.4014         estimate D2E/DX2                !
 ! R7    R(3,9)                  1.4014         estimate D2E/DX2                !
 ! R8    R(4,5)                  1.4014         estimate D2E/DX2                !
 ! R9    R(4,10)                 1.4014         estimate D2E/DX2                !
 ! R10   R(5,6)                  1.4014         estimate D2E/DX2                !
 ! R11   R(5,17)                 1.94           estimate D2E/DX2                !
 ! R12   R(6,11)                 1.07           estimate D2E/DX2                !
 ! R13   R(7,9)                  1.07           estimate D2E/DX2                !
 ! R14   R(9,13)                 1.4014         estimate D2E/DX2                !
 ! R15   R(10,12)                1.4014         estimate D2E/DX2                !
 ! R16   R(10,14)                1.07           estimate D2E/DX2                !
 ! R17   R(12,13)                1.4014         estimate D2E/DX2                !
 ! R18   R(12,15)                1.07           estimate D2E/DX2                !
 ! R19   R(13,16)                1.07           estimate D2E/DX2                !
 ! R20   R(17,18)                1.47           estimate D2E/DX2                !
 ! R21   R(17,19)                1.94           estimate D2E/DX2                !
 ! R22   R(17,23)                1.94           estimate D2E/DX2                !
 ! R23   R(19,20)                1.07           estimate D2E/DX2                !
 ! R24   R(19,21)                1.07           estimate D2E/DX2                !
 ! R25   R(19,22)                1.07           estimate D2E/DX2                !
 ! R26   R(23,24)                1.07           estimate D2E/DX2                !
 ! R27   R(23,25)                1.07           estimate D2E/DX2                !
 ! R28   R(23,26)                1.07           estimate D2E/DX2                !
 ! R29   R(27,28)                1.07           estimate D2E/DX2                !
 ! R30   R(27,29)                1.07           estimate D2E/DX2                !
 ! R31   R(27,30)                1.07           estimate D2E/DX2                !
 ! A1    A(2,1,6)              120.0            estimate D2E/DX2                !
 ! A2    A(2,1,8)              120.0            estimate D2E/DX2                !
 ! A3    A(6,1,8)              120.0            estimate D2E/DX2                !
 ! A4    A(1,2,3)              120.0            estimate D2E/DX2                !
 ! A5    A(1,2,27)             120.0            estimate D2E/DX2                !
 ! A6    A(3,2,27)             120.0            estimate D2E/DX2                !
 ! A7    A(2,3,4)              120.0            estimate D2E/DX2                !
 ! A8    A(2,3,9)              120.0            estimate D2E/DX2                !
 ! A9    A(4,3,9)              120.0            estimate D2E/DX2                !
 ! A10   A(3,4,5)              120.0            estimate D2E/DX2                !
 ! A11   A(3,4,10)             120.0            estimate D2E/DX2                !
 ! A12   A(5,4,10)             120.0            estimate D2E/DX2                !
 ! A13   A(4,5,6)              120.0            estimate D2E/DX2                !
 ! A14   A(4,5,17)             120.0            estimate D2E/DX2                !
 ! A15   A(6,5,17)             120.0            estimate D2E/DX2                !
 ! A16   A(1,6,5)              120.0            estimate D2E/DX2                !
 ! A17   A(1,6,11)             120.0            estimate D2E/DX2                !
 ! A18   A(5,6,11)             120.0            estimate D2E/DX2                !
 ! A19   A(3,9,7)              120.0            estimate D2E/DX2                !
 ! A20   A(3,9,13)             120.0            estimate D2E/DX2                !
 ! A21   A(7,9,13)             120.0            estimate D2E/DX2                !
 ! A22   A(4,10,12)            120.0            estimate D2E/DX2                !
 ! A23   A(4,10,14)            120.0            estimate D2E/DX2                !
 ! A24   A(12,10,14)           120.0            estimate D2E/DX2                !
 ! A25   A(10,12,13)           120.0            estimate D2E/DX2                !
 ! A26   A(10,12,15)           120.0            estimate D2E/DX2                !
 ! A27   A(13,12,15)           120.0            estimate D2E/DX2                !
 ! A28   A(9,13,12)            120.0            estimate D2E/DX2                !
 ! A29   A(9,13,16)            120.0            estimate D2E/DX2                !
 ! A30   A(12,13,16)           120.0            estimate D2E/DX2                !
 ! A31   A(5,17,18)            109.4712         estimate D2E/DX2                !
 ! A32   A(5,17,19)            109.4712         estimate D2E/DX2                !
 ! A33   A(5,17,23)            109.4712         estimate D2E/DX2                !
 ! A34   A(18,17,19)           109.4712         estimate D2E/DX2                !
 ! A35   A(18,17,23)           109.4712         estimate D2E/DX2                !
 ! A36   A(19,17,23)           109.4712         estimate D2E/DX2                !
 ! A37   A(17,19,20)           109.4712         estimate D2E/DX2                !
 ! A38   A(17,19,21)           109.4712         estimate D2E/DX2                !
 ! A39   A(17,19,22)           109.4712         estimate D2E/DX2                !
 ! A40   A(20,19,21)           109.4712         estimate D2E/DX2                !
 ! A41   A(20,19,22)           109.4712         estimate D2E/DX2                !
 ! A42   A(21,19,22)           109.4712         estimate D2E/DX2                !
 ! A43   A(17,23,24)           109.4712         estimate D2E/DX2                !
 ! A44   A(17,23,25)           109.4712         estimate D2E/DX2                !
 ! A45   A(17,23,26)           109.4712         estimate D2E/DX2                !
 ! A46   A(24,23,25)           109.4712         estimate D2E/DX2                !
 ! A47   A(24,23,26)           109.4712         estimate D2E/DX2                !
 ! A48   A(25,23,26)           109.4712         estimate D2E/DX2                !
 ! A49   A(2,27,28)            109.4712         estimate D2E/DX2                !
 ! A50   A(2,27,29)            109.4712         estimate D2E/DX2                !
 ! A51   A(2,27,30)            109.4712         estimate D2E/DX2                !
 ! A52   A(28,27,29)           109.4712         estimate D2E/DX2                !
 ! A53   A(28,27,30)           109.4712         estimate D2E/DX2                !
 ! A54   A(29,27,30)           109.4712         estimate D2E/DX2                !
 ! D1    D(6,1,2,3)              0.0001         estimate D2E/DX2                !
 ! D2    D(6,1,2,27)          -179.9999         estimate D2E/DX2                !
 ! D3    D(8,1,2,3)           -180.0            estimate D2E/DX2                !
 ! D4    D(8,1,2,27)             0.0            estimate D2E/DX2                !
 ! D5    D(2,1,6,5)              0.0            estimate D2E/DX2                !
 ! D6    D(2,1,6,11)           180.0            estimate D2E/DX2                !
 ! D7    D(8,1,6,5)           -179.9999         estimate D2E/DX2                !
 ! D8    D(8,1,6,11)             0.0001         estimate D2E/DX2                !
 ! D9    D(1,2,3,4)             -0.0001         estimate D2E/DX2                !
 ! D10   D(1,2,3,9)            179.9999         estimate D2E/DX2                !
 ! D11   D(27,2,3,4)           179.9999         estimate D2E/DX2                !
 ! D12   D(27,2,3,9)            -0.0001         estimate D2E/DX2                !
 ! D13   D(1,2,27,28)           90.0            estimate D2E/DX2                !
 ! D14   D(1,2,27,29)         -150.0            estimate D2E/DX2                !
 ! D15   D(1,2,27,30)          -30.0            estimate D2E/DX2                !
 ! D16   D(3,2,27,28)          -90.0            estimate D2E/DX2                !
 ! D17   D(3,2,27,29)           30.0            estimate D2E/DX2                !
 ! D18   D(3,2,27,30)          150.0            estimate D2E/DX2                !
 ! D19   D(2,3,4,5)              0.0            estimate D2E/DX2                !
 ! D20   D(2,3,4,10)           180.0            estimate D2E/DX2                !
 ! D21   D(9,3,4,5)           -180.0            estimate D2E/DX2                !
 ! D22   D(9,3,4,10)             0.0            estimate D2E/DX2                !
 ! D23   D(2,3,9,7)              0.0            estimate D2E/DX2                !
 ! D24   D(2,3,9,13)          -179.9998         estimate D2E/DX2                !
 ! D25   D(4,3,9,7)           -180.0            estimate D2E/DX2                !
 ! D26   D(4,3,9,13)             0.0002         estimate D2E/DX2                !
 ! D27   D(3,4,5,6)              0.0001         estimate D2E/DX2                !
 ! D28   D(3,4,5,17)          -179.9999         estimate D2E/DX2                !
 ! D29   D(10,4,5,6)          -179.9998         estimate D2E/DX2                !
 ! D30   D(10,4,5,17)            0.0002         estimate D2E/DX2                !
 ! D31   D(3,4,10,12)           -0.0001         estimate D2E/DX2                !
 ! D32   D(3,4,10,14)          179.9999         estimate D2E/DX2                !
 ! D33   D(5,4,10,12)          179.9999         estimate D2E/DX2                !
 ! D34   D(5,4,10,14)           -0.0001         estimate D2E/DX2                !
 ! D35   D(4,5,6,1)             -0.0001         estimate D2E/DX2                !
 ! D36   D(4,5,6,11)           179.9999         estimate D2E/DX2                !
 ! D37   D(17,5,6,1)           179.9999         estimate D2E/DX2                !
 ! D38   D(17,5,6,11)           -0.0001         estimate D2E/DX2                !
 ! D39   D(4,5,17,18)           30.0            estimate D2E/DX2                !
 ! D40   D(4,5,17,19)          -90.0            estimate D2E/DX2                !
 ! D41   D(4,5,17,23)          150.0            estimate D2E/DX2                !
 ! D42   D(6,5,17,18)         -150.0            estimate D2E/DX2                !
 ! D43   D(6,5,17,19)           90.0            estimate D2E/DX2                !
 ! D44   D(6,5,17,23)          -30.0            estimate D2E/DX2                !
 ! D45   D(3,9,13,12)           -0.0002         estimate D2E/DX2                !
 ! D46   D(3,9,13,16)          179.9999         estimate D2E/DX2                !
 ! D47   D(7,9,13,12)          180.0            estimate D2E/DX2                !
 ! D48   D(7,9,13,16)            0.0            estimate D2E/DX2                !
 ! D49   D(4,10,12,13)           0.0001         estimate D2E/DX2                !
 ! D50   D(4,10,12,15)        -179.9998         estimate D2E/DX2                !
 ! D51   D(14,10,12,13)       -180.0            estimate D2E/DX2                !
 ! D52   D(14,10,12,15)          0.0002         estimate D2E/DX2                !
 ! D53   D(10,12,13,9)           0.0001         estimate D2E/DX2                !
 ! D54   D(10,12,13,16)       -180.0            estimate D2E/DX2                !
 ! D55   D(15,12,13,9)         180.0            estimate D2E/DX2                !
 ! D56   D(15,12,13,16)         -0.0001         estimate D2E/DX2                !
 ! D57   D(5,17,19,20)          60.0            estimate D2E/DX2                !
 ! D58   D(5,17,19,21)         180.0            estimate D2E/DX2                !
 ! D59   D(5,17,19,22)         -60.0            estimate D2E/DX2                !
 ! D60   D(18,17,19,20)        -60.0            estimate D2E/DX2                !
 ! D61   D(18,17,19,21)         60.0            estimate D2E/DX2                !
 ! D62   D(18,17,19,22)        180.0            estimate D2E/DX2                !
 ! D63   D(23,17,19,20)       -180.0            estimate D2E/DX2                !
 ! D64   D(23,17,19,21)        -60.0            estimate D2E/DX2                !
 ! D65   D(23,17,19,22)         60.0            estimate D2E/DX2                !
 ! D66   D(5,17,23,24)         180.0            estimate D2E/DX2                !
 ! D67   D(5,17,23,25)         -60.0            estimate D2E/DX2                !
 ! D68   D(5,17,23,26)          60.0            estimate D2E/DX2                !
 ! D69   D(18,17,23,24)        -60.0            estimate D2E/DX2                !
 ! D70   D(18,17,23,25)         60.0            estimate D2E/DX2                !
 ! D71   D(18,17,23,26)        180.0            estimate D2E/DX2                !
 ! D72   D(19,17,23,24)         60.0            estimate D2E/DX2                !
 ! D73   D(19,17,23,25)        180.0            estimate D2E/DX2                !
 ! D74   D(19,17,23,26)        -60.0            estimate D2E/DX2                !
 --------------------------------------------------------------------------------
 Trust Radius=3.00D-01 FncErr=1.00D-07 GrdErr=1.00D-06
 Number of steps in this run=    169 maximum allowed number of steps=    180.
 GradGradGradGradGradGradGradGradGradGradGradGradGradGradGradGradGradGrad

                          Input orientation:                          
 ---------------------------------------------------------------------
 Center     Atomic      Atomic             Coordinates (Angstroms)
 Number     Number       Type             X           Y           Z
 ---------------------------------------------------------------------
      1          6           0       -3.288200   -0.007513    0.254177
      2          6           0       -1.900337   -0.014902    0.060003
      3          6           0       -1.212059    1.191953   -0.123559
      4          6           0       -1.911644    2.406198   -0.112951
      5          6           0       -3.299507    2.413587    0.081219
      6          6           0       -3.987785    1.206732    0.264784
      7          1           0        0.709954    0.257461   -0.325829
      8          1           0       -3.813716   -0.928973    0.394331
      9          6           0        0.175805    1.184563   -0.317730
     10          6           0       -1.223365    3.613053   -0.296513
     11          1           0       -5.047450    1.212374    0.413040
     12          6           0        0.164499    3.605663   -0.490681
     13          6           0        0.864084    2.391419   -0.501289
     14          1           0       -1.757514    4.540156   -0.288415
     15          1           0        0.690015    4.527124   -0.630832
     16          1           0        1.923749    2.385777   -0.649540
     17         14           0       -4.267964    4.094502    0.095901
     18          1           0       -3.581992    5.062827   -0.771676
     19          6           0       -4.337320    4.785060    1.907508
     20          1           0       -3.342110    4.943667    2.267094
     21          1           0       -4.871468    5.712162    1.915605
     22          1           0       -4.836632    4.080225    2.539009
     23          6           0       -6.072362    3.806934   -0.556060
     24          1           0       -6.606511    4.734037   -0.547962
     25          1           0       -6.034110    3.426060   -1.555245
     26          1           0       -6.571675    3.102099    0.075442
     27          6           0       -1.131563   -1.349237    0.048343
     28          1           0       -1.093312   -1.730109   -0.950844
     29          1           0       -0.136353   -1.190632    0.407928
     30          1           0       -1.630875   -2.054074    0.679843
 ---------------------------------------------------------------------
                    Distance matrix (angstroms):
                    1          2          3          4          5
     1  C    0.000000
     2  C    1.401400   0.000000
     3  C    2.427296   1.401400   0.000000
     4  C    2.802800   2.427296   1.401400   0.000000
     5  C    2.427296   2.802800   2.427296   1.401400   0.000000
     6  C    1.401400   2.427296   2.802800   2.427296   1.401400
     7  H    4.048685   2.652671   2.146700   3.396345   4.570596
     8  H    1.070000   2.146700   3.396345   3.872800   3.396345
     9  C    3.707756   2.427296   1.401400   2.427296   3.707756
    10  C    4.204200   3.707756   2.427296   1.401400   2.427296
    11  H    2.146700   3.396345   3.872800   3.396345   2.146700
    12  C    5.052820   4.204200   2.802800   2.427296   3.707756
    13  C    4.854592   3.707756   2.427296   2.802800   4.204200
    14  H    4.828943   4.570596   3.396345   2.146700   2.652671
    15  H    6.096915   5.274200   3.872800   3.396345   4.570596
    16  H    5.805941   4.570596   3.396345   3.872800   5.274200
    17  Si   4.220369   4.742800   4.220369   2.906241   1.940000
    18  H    5.181412   5.413224   4.584791   3.206503   2.797445
    19  C    5.177152   5.691379   5.177152   3.952865   3.168007
    20  H    5.344990   5.615814   4.932312   3.761595   3.343825
    21  H    6.162935   6.713431   6.162935   4.879038   4.088598
    22  H    4.932312   5.615814   5.344990   4.288452   3.343825
    23  C    4.791456   5.691376   5.536040   4.412481   3.168007
    24  H    5.842680   6.713429   6.467349   5.258313   4.088598
    25  H    4.754308   5.615810   5.503920   4.484981   3.343825
    26  H    4.525797   5.615811   5.693308   4.715471   3.343825
    27  C    2.548270   1.540000   2.548270   3.838989   4.342800
    28  H    3.039234   2.148263   3.039234   4.298925   4.806523
    29  H    3.370097   2.148263   2.667646   4.044769   4.806525
    30  H    2.667646   2.148263   3.370097   4.538874   4.806525
                    6          7          8          9         10
     6  C    0.000000
     7  H    4.828943   0.000000
     8  H    2.146700   4.731791   0.000000
     9  C    4.204200   1.070000   4.570596   0.000000
    10  C    3.707756   3.872800   5.274200   2.802800   0.000000
    11  H    1.070000   5.882642   2.471400   5.274200   4.570596
    12  C    4.854592   3.396345   6.096915   2.427296   1.401400
    13  C    5.052820   2.146700   5.805941   1.401400   2.427296
    14  H    4.048685   4.942800   5.882642   3.872800   1.070000
    15  H    5.805941   4.280590   7.148675   3.396345   2.146700
    16  H    6.096915   2.471400   6.707886   2.146700   3.396345
    17  Si   2.906241   6.299239   5.052792   5.327844   3.107308
    18  H    4.013525   6.458415   6.108596   5.419228   2.809047
    19  C    3.952865   7.138761   5.934142   6.187370   3.990992
    20  H    4.288452   6.715877   6.182035   5.760894   3.582136
    21  H    4.879038   8.119734   6.894766   7.138761   4.754828
    22  H    3.761595   7.320208   5.544192   6.455257   4.616724
    23  C    3.432244   7.658432   5.332312   6.780356   4.859807
    24  H    4.467680   8.580195   6.384145   7.658432   5.504371
    25  H    3.524963   7.552077   5.262823   6.717052   4.976207
    26  H    3.210102   7.827842   4.894648   7.025668   5.385522
    27  C    3.838989   2.472381   2.736837   2.874607   4.975106
    28  H    4.298925   2.755511   3.138775   3.241420   5.384648
    29  H    4.538874   1.830739   3.686686   2.503113   4.975261
    30  H    4.044769   3.440065   2.472279   3.840315   5.765038
                   11         12         13         14         15
    11  H    0.000000
    12  C    5.805941   0.000000
    13  C    6.096915   1.401400   0.000000
    14  H    4.731791   2.146700   3.396345   0.000000
    15  H    6.707886   1.070000   2.146700   2.471400   0.000000
    16  H    7.148675   2.146700   1.070000   4.280590   2.471400
    17  Si   3.002472   4.497752   5.440133   2.578501   5.029599
    18  H    4.286852   4.029699   5.193951   1.958430   4.307767
    19  C    3.937233   5.235328   6.211797   3.396682   5.637712
    20  H    4.502027   4.657455   5.645351   3.033874   4.982923
    21  H    4.747290   5.965611   7.054451   3.990992   6.230470
    22  H    3.576137   5.866477   6.677847   4.205572   6.386818
    23  C    2.953192   6.240450   7.079616   4.384879   6.801030
    24  H    3.969421   6.864626   7.829421   4.859808   7.299930
    25  H    3.122186   6.291923   7.054529   4.597319   6.876099
    26  H    2.451183   6.778651   7.491876   5.037514   7.433819
    27  C    4.693509   5.149890   4.275185   5.932130   6.189592
    28  H    5.114058   5.501300   4.584811   6.340047   6.514264
    29  H    5.467480   4.889014   3.828660   5.996248   5.869808
    30  H    4.734327   6.051952   5.232810   6.666140   7.100463
                   16         17         18         19         20
    16  H    0.000000
    17  Si   6.466277   0.000000
    18  H    6.123291   1.470000   0.000000
    19  C    7.176073   1.940000   2.797445   0.000000
    20  H    6.540553   2.508459   3.050552   1.070000   0.000000
    21  H    7.988729   2.508459   3.050552   1.070000   1.747303
    22  H    7.664252   2.508459   3.674271   1.070000   1.747303
    23  C    8.121959   1.940000   2.797445   3.168007   4.088598
    24  H    8.848163   2.508459   3.050552   3.343825   4.315646
    25  H    8.076509   2.508459   3.050552   4.088598   4.915309
    26  H    8.556340   2.508459   3.674271   3.343825   4.315646
    27  C    4.875685   6.282800   6.913147   7.166796   7.029226
    28  H    5.112138   6.715667   7.236684   7.819282   7.742835
    29  H    4.260629   6.715670   7.236688   7.456927   7.166799
    30  H    5.840795   6.715670   7.520907   7.456927   7.376725
                   21         22         23         24         25
    21  H    0.000000
    22  H    1.747303   0.000000
    23  C    3.343825   3.343825   0.000000
    24  H    3.168007   3.617918   1.070000   0.000000
    25  H    4.315646   4.315646   1.070000   1.747303   0.000000
    26  H    3.617918   3.168007   1.070000   1.747303   1.747303
    27  C    8.205908   7.029226   7.166792   8.205905   7.029219
    28  H    8.824873   7.742835   7.456919   8.505460   7.166788
    29  H    8.505468   7.376725   7.819281   8.824873   7.742831
    30  H    8.505468   7.166799   7.456922   8.505464   7.376718
                   26         27         28         29         30
    26  H    0.000000
    27  C    7.029222   0.000000
    28  H    7.376717   1.070000   0.000000
    29  H    7.742833   1.070000   1.747303   0.000000
    30  H    7.166794   1.070000   1.747303   1.747303   0.000000
 Stoichiometry    C13H16Si
 Framework group  C1[X(C13H16Si)]
 Deg. of freedom    84
 Full point group                 C1      NOp   1
 Largest Abelian subgroup         C1      NOp   1
 Largest concise Abelian subgroup C1      NOp   1
                         Standard orientation:                         
 ---------------------------------------------------------------------
 Center     Atomic      Atomic             Coordinates (Angstroms)
 Number     Number       Type             X           Y           Z
 ---------------------------------------------------------------------
      1          6           0        0.765589   -2.309608    0.131625
      2          6           0        1.874436   -1.453028    0.106114
      3          6           0        1.688033   -0.068742   -0.007587
      4          6           0        0.392784    0.458964   -0.095779
      5          6           0       -0.716063   -0.397617   -0.070271
      6          6           0       -0.529660   -1.781903    0.043433
      7          1           0        3.785832    0.384924    0.034241
      8          1           0        0.907912   -3.366542    0.218439
      9          6           0        2.796880    0.787839   -0.033096
     10          6           0        0.206381    1.843250   -0.209479
     11          1           0       -1.376289   -2.435921    0.062911
     12          6           0        1.315228    2.699831   -0.234985
     13          6           0        2.610477    2.172125   -0.146793
     14          1           0       -0.782570    2.246165   -0.276817
     15          1           0        1.172905    3.756764   -0.321795
     16          1           0        3.457106    2.826143   -0.166267
     17         14           0       -2.509115    0.332901   -0.192361
     18          1           0       -2.480573    1.572172   -0.982484
     19          6           0       -3.173565    0.717107    1.589349
     20          1           0       -2.530314    1.428153    2.064260
     21          1           0       -4.162517    1.120022    1.522010
     22          1           0       -3.194340   -0.184947    2.164472
     23          6           0       -3.675384   -0.956285   -1.053415
     24          1           0       -4.664336   -0.553371   -1.120754
     25          1           0       -3.308909   -1.168193   -2.036111
     26          1           0       -3.696159   -1.858339   -0.478292
     27          6           0        3.297787   -2.032925    0.203025
     28          1           0        3.664259   -2.244831   -0.779673
     29          1           0        3.941041   -1.321879    0.677935
     30          1           0        3.277014   -2.934979    0.778147
 ---------------------------------------------------------------------
 Rotational constants (GHZ):      0.9490936      0.4566821      0.3358108
 Standard basis: 6-311+G(d,p) (5D, 7F)
 There are   426 symmetry adapted cartesian basis functions of A   symmetry.
 There are   412 symmetry adapted basis functions of A   symmetry.
   412 basis functions,   646 primitive gaussians,   426 cartesian basis functions
    54 alpha electrons       54 beta electrons
       nuclear repulsion energy       936.5035800919 Hartrees.
 NAtoms=   30 NActive=   30 NUniq=   30 SFac= 1.00D+00 NAtFMM=   60 NAOKFM=F Big=F
 Integral buffers will be    131072 words long.
 Raffenetti 2 integral format.
 Two-electron integral symmetry is turned on.
 One-electron integrals computed using PRISM.
 NBasis=   412 RedAO= T EigKep=  1.18D-06  NBF=   412
 NBsUse=   408 1.00D-06 EigRej=  8.35D-07 NBFU=   408
 ExpMin= 3.31D-02 ExpMax= 6.94D+04 ExpMxC= 2.33D+03 IAcc=3 IRadAn=         5 AccDes= 0.00D+00
 Harris functional with IExCor=  402 and IRadAn=       5 diagonalized for initial guess.
 HarFok:  IExCor=  402 AccDes= 0.00D+00 IRadAn=         5 IDoV= 1 UseB2=F ITyADJ=14
 ICtDFT=  3500011 ScaDFX=  1.000000  1.000000  1.000000  1.000000
 FoFCou: FMM=F IPFlag=           0 FMFlag=      100000 FMFlg1=           0
         NFxFlg=           0 DoJE=T BraDBF=F KetDBF=T FulRan=T
         wScrn=  0.000000 ICntrl=     500 IOpCl=  0 I1Cent=   200000004 NGrid=           0
         NMat0=    1 NMatS0=      1 NMatT0=    0 NMatD0=    1 NMtDS0=    0 NMtDT0=    0
 Petite list used in FoFCou.
 Requested convergence on RMS density matrix=1.00D-08 within 128 cycles.
 Requested convergence on MAX density matrix=1.00D-06.
 Requested convergence on             energy=1.00D-06.
 No special actions if energy rises.
 SCF Done:  E(RB3LYP) =  -794.692739189     A.U. after   15 cycles
            NFock= 15  Conv=0.25D-08     -V/T= 2.0032

 **********************************************************************

            Population analysis using the SCF density.

 **********************************************************************

 Orbital symmetries:
       Occupied  (A) (A) (A) (A) (A) (A) (A) (A) (A) (A) (A) (A)
                 (A) (A) (A) (A) (A) (A) (A) (A) (A) (A) (A) (A)
                 (A) (A) (A) (A) (A) (A) (A) (A) (A) (A) (A) (A)
                 (A) (A) (A) (A) (A) (A) (A) (A) (A) (A) (A) (A)
                 (A) (A) (A) (A) (A) (A)
       Virtual   (A) (A) (A) (A) (A) (A) (A) (A) (A) (A) (A) (A)
                 (A) (A) (A) (A) (A) (A) (A) (A) (A) (A) (A) (A)
                 (A) (A) (A) (A) (A) (A) (A) (A) (A) (A) (A) (A)
                 (A) (A) (A) (A) (A) (A) (A) (A) (A) (A) (A) (A)
                 (A) (A) (A) (A) (A) (A) (A) (A) (A) (A) (A) (A)
                 (A) (A) (A) (A) (A) (A) (A) (A) (A) (A) (A) (A)
                 (A) (A) (A) (A) (A) (A) (A) (A) (A) (A) (A) (A)
                 (A) (A) (A) (A) (A) (A) (A) (A) (A) (A) (A) (A)
                 (A) (A) (A) (A) (A) (A) (A) (A) (A) (A) (A) (A)
                 (A) (A) (A) (A) (A) (A) (A) (A) (A) (A) (A) (A)
                 (A) (A) (A) (A) (A) (A) (A) (A) (A) (A) (A) (A)
                 (A) (A) (A) (A) (A) (A) (A) (A) (A) (A) (A) (A)
                 (A) (A) (A) (A) (A) (A) (A) (A) (A) (A) (A) (A)
                 (A) (A) (A) (A) (A) (A) (A) (A) (A) (A) (A) (A)
                 (A) (A) (A) (A) (A) (A) (A) (A) (A) (A) (A) (A)
                 (A) (A) (A) (A) (A) (A) (A) (A) (A) (A) (A) (A)
                 (A) (A) (A) (A) (A) (A) (A) (A) (A) (A) (A) (A)
                 (A) (A) (A) (A) (A) (A) (A) (A) (A) (A) (A) (A)
                 (A) (A) (A) (A) (A) (A) (A) (A) (A) (A) (A) (A)
                 (A) (A) (A) (A) (A) (A) (A) (A) (A) (A) (A) (A)
                 (A) (A) (A) (A) (A) (A) (A) (A) (A) (A) (A) (A)
                 (A) (A) (A) (A) (A) (A) (A) (A) (A) (A) (A) (A)
                 (A) (A) (A) (A) (A) (A) (A) (A) (A) (A) (A) (A)
                 (A) (A) (A) (A) (A) (A) (A) (A) (A) (A) (A) (A)
                 (A) (A) (A) (A) (A) (A) (A) (A) (A) (A) (A) (A)
                 (A) (A) (A) (A) (A) (A) (A) (A) (A) (A) (A) (A)
                 (A) (A) (A) (A) (A) (A) (A) (A) (A) (A) (A) (A)
                 (A) (A) (A) (A) (A) (A) (A) (A) (A) (A) (A) (A)
                 (A) (A) (A) (A) (A) (A) (A) (A) (A) (A) (A) (A)
                 (A) (A) (A) (A) (A) (A)
 The electronic state is 1-A.
 Alpha  occ. eigenvalues --  -66.09060 -10.18715 -10.17954 -10.17755 -10.17747
 Alpha  occ. eigenvalues --  -10.17685 -10.17667 -10.17561 -10.17398 -10.17299
 Alpha  occ. eigenvalues --  -10.16500 -10.16496 -10.14535 -10.14370  -5.26237
 Alpha  occ. eigenvalues --   -3.62070  -3.62051  -3.62014  -0.88460  -0.82517
 Alpha  occ. eigenvalues --   -0.79193  -0.74928  -0.73475  -0.70928  -0.68576
 Alpha  occ. eigenvalues --   -0.68365  -0.63204  -0.61769  -0.58624  -0.51551
 Alpha  occ. eigenvalues --   -0.51434  -0.50292  -0.47543  -0.45782  -0.44299
 Alpha  occ. eigenvalues --   -0.43387  -0.42083  -0.41641  -0.41505  -0.41057
 Alpha  occ. eigenvalues --   -0.40256  -0.40112  -0.38963  -0.38765  -0.38005
 Alpha  occ. eigenvalues --   -0.36229  -0.33863  -0.33037  -0.31656  -0.30407
 Alpha  occ. eigenvalues --   -0.29482  -0.28107  -0.25370  -0.21380
 Alpha virt. eigenvalues --   -0.05525  -0.01941  -0.00441   0.00082   0.00563
 Alpha virt. eigenvalues --    0.01298   0.02230   0.02474   0.02645   0.03666
 Alpha virt. eigenvalues --    0.04635   0.04866   0.05162   0.05765   0.06149
 Alpha virt. eigenvalues --    0.06666   0.06951   0.07313   0.07764   0.08028
 Alpha virt. eigenvalues --    0.08167   0.08533   0.08883   0.09658   0.09930
 Alpha virt. eigenvalues --    0.10655   0.10827   0.11062   0.11298   0.11892
 Alpha virt. eigenvalues --    0.12248   0.12669   0.13562   0.14043   0.14216
 Alpha virt. eigenvalues --    0.14748   0.14983   0.15555   0.15910   0.16450
 Alpha virt. eigenvalues --    0.16661   0.16835   0.17070   0.17272   0.18122
 Alpha virt. eigenvalues --    0.18533   0.18993   0.19276   0.19741   0.19988
 Alpha virt. eigenvalues --    0.20458   0.20973   0.21485   0.21859   0.22318
 Alpha virt. eigenvalues --    0.22580   0.22909   0.23410   0.23899   0.24270
 Alpha virt. eigenvalues --    0.24627   0.24897   0.25583   0.25932   0.26080
 Alpha virt. eigenvalues --    0.26713   0.27532   0.27980   0.28522   0.29225
 Alpha virt. eigenvalues --    0.29364   0.29933   0.30176   0.30574   0.31002
 Alpha virt. eigenvalues --    0.31602   0.32009   0.32310   0.32931   0.33849
 Alpha virt. eigenvalues --    0.34326   0.34839   0.35485   0.36945   0.37989
 Alpha virt. eigenvalues --    0.39810   0.41864   0.41977   0.43805   0.45117
 Alpha virt. eigenvalues --    0.47349   0.47919   0.49026   0.49742   0.50730
 Alpha virt. eigenvalues --    0.51344   0.51971   0.52667   0.53577   0.54475
 Alpha virt. eigenvalues --    0.54751   0.55746   0.56165   0.56773   0.57006
 Alpha virt. eigenvalues --    0.58505   0.59404   0.59623   0.60277   0.61197
 Alpha virt. eigenvalues --    0.62158   0.62422   0.63281   0.63782   0.64627
 Alpha virt. eigenvalues --    0.65102   0.65176   0.65635   0.67042   0.67188
 Alpha virt. eigenvalues --    0.68822   0.69543   0.69822   0.70727   0.70972
 Alpha virt. eigenvalues --    0.71366   0.72264   0.72290   0.72567   0.73203
 Alpha virt. eigenvalues --    0.74831   0.75308   0.76372   0.77222   0.78359
 Alpha virt. eigenvalues --    0.78608   0.80012   0.80213   0.81623   0.82084
 Alpha virt. eigenvalues --    0.83776   0.84835   0.85906   0.86668   0.87469
 Alpha virt. eigenvalues --    0.88202   0.88315   0.90292   0.91485   0.92299
 Alpha virt. eigenvalues --    0.93614   0.94732   0.94839   0.96172   0.96854
 Alpha virt. eigenvalues --    0.98437   0.99199   1.01259   1.01914   1.03097
 Alpha virt. eigenvalues --    1.04483   1.06836   1.07501   1.08228   1.09641
 Alpha virt. eigenvalues --    1.09781   1.12551   1.13145   1.13942   1.15122
 Alpha virt. eigenvalues --    1.15895   1.17093   1.19893   1.21539   1.25479
 Alpha virt. eigenvalues --    1.27753   1.33774   1.35433   1.38039   1.39991
 Alpha virt. eigenvalues --    1.41362   1.42378   1.44116   1.45997   1.47141
 Alpha virt. eigenvalues --    1.47622   1.48107   1.49478   1.49574   1.52040
 Alpha virt. eigenvalues --    1.52367   1.53153   1.53392   1.54580   1.56427
 Alpha virt. eigenvalues --    1.56765   1.57396   1.58379   1.59983   1.60195
 Alpha virt. eigenvalues --    1.60360   1.61800   1.62413   1.63967   1.64271
 Alpha virt. eigenvalues --    1.65482   1.65678   1.66886   1.67227   1.68856
 Alpha virt. eigenvalues --    1.69406   1.73332   1.75467   1.76233   1.76945
 Alpha virt. eigenvalues --    1.77813   1.78359   1.78936   1.81149   1.82426
 Alpha virt. eigenvalues --    1.82479   1.83094   1.84470   1.86207   1.88287
 Alpha virt. eigenvalues --    1.88794   1.90832   1.92740   1.92990   1.95839
 Alpha virt. eigenvalues --    1.96186   1.97031   1.97799   1.98561   2.00244
 Alpha virt. eigenvalues --    2.00379   2.01942   2.02951   2.05816   2.06427
 Alpha virt. eigenvalues --    2.09887   2.11318   2.11963   2.15218   2.17066
 Alpha virt. eigenvalues --    2.17337   2.19849   2.20509   2.21380   2.23028
 Alpha virt. eigenvalues --    2.25407   2.26604   2.28071   2.29535   2.32407
 Alpha virt. eigenvalues --    2.40183   2.41265   2.42706   2.43328   2.45001
 Alpha virt. eigenvalues --    2.48569   2.49709   2.51273   2.51477   2.52681
 Alpha virt. eigenvalues --    2.53146   2.55043   2.56967   2.57870   2.58606
 Alpha virt. eigenvalues --    2.59832   2.60163   2.61224   2.62032   2.62799
 Alpha virt. eigenvalues --    2.63971   2.65240   2.66178   2.67507   2.68495
 Alpha virt. eigenvalues --    2.71068   2.71209   2.72711   2.74003   2.74352
 Alpha virt. eigenvalues --    2.76118   2.77511   2.79150   2.79622   2.80765
 Alpha virt. eigenvalues --    2.81130   2.82322   2.84089   2.86123   2.87112
 Alpha virt. eigenvalues --    2.88491   2.91527   2.91850   2.92996   2.95434
 Alpha virt. eigenvalues --    2.97270   2.99762   3.00238   3.07336   3.09706
 Alpha virt. eigenvalues --    3.13913   3.15406   3.21172   3.23037   3.24483
 Alpha virt. eigenvalues --    3.27626   3.38569   3.39928   3.41253   3.44513
 Alpha virt. eigenvalues --    3.49679   3.54575   3.57447   3.62117   3.67514
 Alpha virt. eigenvalues --    3.79498   3.79849   3.81734   3.82228   3.82822
 Alpha virt. eigenvalues --    3.86227   3.89045   3.93593   4.05792   4.09582
 Alpha virt. eigenvalues --    4.11111   4.25169   4.29781   4.40935   4.84055
 Alpha virt. eigenvalues --    4.88091   5.82586  11.48295  11.52161  11.54672
 Alpha virt. eigenvalues --   23.51314  23.83902  23.91593  23.97650  24.00912
 Alpha virt. eigenvalues --   24.01350  24.02043  24.02950  24.07589  24.08433
 Alpha virt. eigenvalues --   24.09661  24.16171  24.18458 141.28376
          Condensed to atoms (all electrons):
               1          2          3          4          5          6
     1  C   12.323377  -3.360610  -3.807026   1.887922   0.444428  -1.947895
     2  C   -3.360610  13.071910   0.784477  -2.457459   1.974436   0.207159
     3  C   -3.807026   0.784477  11.484829   0.339108  -2.969260   3.576401
     4  C    1.887922  -2.457459   0.339108   8.981497  -0.787538   0.298863
     5  C    0.444428   1.974436  -2.969260  -0.787538  13.288707  -4.324201
     6  C   -1.947895   0.207159   3.576401   0.298863  -4.324201  12.357791
     7  H    0.003788   0.006050  -0.047696   0.009105   0.004134   0.004480
     8  H    0.313464  -0.017838   0.068616  -0.017362  -0.027880  -0.008170
     9  C   -0.609916  -2.462812   0.398300   0.289682  -2.149664   0.305463
    10  C    1.988859  -2.222185  -3.633067  -0.551352  -0.108000  -3.730682
    11  H   -0.004605  -0.024172  -0.064016   0.027887   0.048726   0.317590
    12  C    0.090262   0.153012   0.033858  -1.949970   0.386759  -0.473853
    13  C   -0.303027  -0.007543  -0.436181  -0.163795   0.020472  -0.050317
    14  H   -0.002986   0.010827   0.032128   0.000194   0.013025   0.019949
    15  H    0.001631   0.010067  -0.000334   0.000548   0.000123  -0.004991
    16  H   -0.000641   0.007472   0.038257   0.002612   0.006001  -0.000957
    17  Si   0.021397  -0.081691   0.062584   0.103168   0.018945   0.152607
    18  H    0.002860  -0.011671  -0.002585   0.054783  -0.109434  -0.002804
    19  C    0.077264  -0.012364  -0.046351  -0.077893  -0.052591  -0.083175
    20  H   -0.004538   0.001271  -0.003705  -0.021960  -0.021527   0.000815
    21  H   -0.002771   0.002522   0.002116   0.017698   0.021060   0.010941
    22  H    0.012193  -0.011708   0.000968   0.002493  -0.009415  -0.029944
    23  C   -0.054054  -0.042563   0.023507   0.084667  -0.117761  -0.016281
    24  H    0.003461   0.002536  -0.000213  -0.003875  -0.019131   0.026802
    25  H   -0.015815  -0.001575   0.000339  -0.001148   0.045713  -0.019770
    26  H    0.015800  -0.005394  -0.007323  -0.000959  -0.000842  -0.027850
    27  C   -0.463350   0.084499  -0.112496  -0.338799   0.050620   0.006985
    28  H    0.055301   0.015987  -0.027005   0.010615   0.014953  -0.014387
    29  H   -0.243360  -0.044628   0.140492  -0.046183  -0.014113   0.015683
    30  H    0.153453  -0.164416  -0.066103   0.000364   0.012045   0.029070
               7          8          9         10         11         12
     1  C    0.003788   0.313464  -0.609916   1.988859  -0.004605   0.090262
     2  C    0.006050  -0.017838  -2.462812  -2.222185  -0.024172   0.153012
     3  C   -0.047696   0.068616   0.398300  -3.633067  -0.064016   0.033858
     4  C    0.009105  -0.017362   0.289682  -0.551352   0.027887  -1.949970
     5  C    0.004134  -0.027880  -2.149664  -0.108000   0.048726   0.386759
     6  C    0.004480  -0.008170   0.305463  -3.730682   0.317590  -0.473853
     7  H    0.560386  -0.000043   0.382048  -0.010878  -0.000001  -0.007696
     8  H   -0.000043   0.551565   0.014625  -0.006810  -0.007880  -0.000994
     9  C    0.382048   0.014625   9.183963   1.669542  -0.007687  -0.849498
    10  C   -0.010878  -0.006810   1.669542  12.454098   0.030616   0.318911
    11  H   -0.000001  -0.007880  -0.007687   0.030616   0.563679   0.003512
    12  C   -0.007696  -0.000994  -0.849498   0.318911   0.003512   7.789305
    13  C   -0.047179   0.001976   0.312307  -0.398903  -0.000964   0.632019
    14  H    0.000077   0.000002  -0.014671   0.321969  -0.000015  -0.074194
    15  H   -0.000337   0.000000  -0.019981  -0.092864   0.000000   0.435980
    16  H   -0.007141   0.000000  -0.114195  -0.015018   0.000000  -0.002825
    17  Si   0.000056  -0.001898   0.072029   0.023712  -0.000282  -0.101150
    18  H   -0.000002   0.000008   0.006671  -0.035089   0.000247  -0.033474
    19  C   -0.000008   0.000254  -0.008085   0.111540  -0.001366   0.047619
    20  H    0.000000   0.000000  -0.000825   0.023058   0.000007   0.019608
    21  H    0.000000   0.000000  -0.000216  -0.033358   0.000016  -0.006339
    22  H    0.000000   0.000002   0.001333   0.024576  -0.000178   0.000946
    23  C   -0.000012   0.000519   0.008397  -0.032808  -0.000407  -0.020434
    24  H    0.000000  -0.000001  -0.000114  -0.001485   0.000063   0.000664
    25  H    0.000000   0.000001  -0.000413  -0.000383  -0.000504  -0.000187
    26  H    0.000000   0.000005  -0.000316   0.007741   0.001653   0.000581
    27  C    0.032857   0.021048  -0.076575  -0.144721   0.002794   0.024988
    28  H   -0.000264   0.000201  -0.072019   0.000551   0.000017  -0.000325
    29  H   -0.001979   0.000394   0.132412  -0.016745   0.000015   0.004828
    30  H    0.000975   0.001181  -0.005281   0.000365   0.000001  -0.001178
              13         14         15         16         17         18
     1  C   -0.303027  -0.002986   0.001631  -0.000641   0.021397   0.002860
     2  C   -0.007543   0.010827   0.010067   0.007472  -0.081691  -0.011671
     3  C   -0.436181   0.032128  -0.000334   0.038257   0.062584  -0.002585
     4  C   -0.163795   0.000194   0.000548   0.002612   0.103168   0.054783
     5  C    0.020472   0.013025   0.000123   0.006001   0.018945  -0.109434
     6  C   -0.050317   0.019949  -0.004991  -0.000957   0.152607  -0.002804
     7  H   -0.047179   0.000077  -0.000337  -0.007141   0.000056  -0.000002
     8  H    0.001976   0.000002   0.000000   0.000000  -0.001898   0.000008
     9  C    0.312307  -0.014671  -0.019981  -0.114195   0.072029   0.006671
    10  C   -0.398903   0.321969  -0.092864  -0.015018   0.023712  -0.035089
    11  H   -0.000964  -0.000015   0.000000   0.000000  -0.000282   0.000247
    12  C    0.632019  -0.074194   0.435980  -0.002825  -0.101150  -0.033474
    13  C    6.358244  -0.007039   0.020391   0.423661   0.001168   0.002035
    14  H   -0.007039   0.569449  -0.007939  -0.000396   0.034589   0.006031
    15  H    0.020391  -0.007939   0.544704  -0.007762  -0.002061   0.000089
    16  H    0.423661  -0.000396  -0.007762   0.544864  -0.000621   0.000003
    17  Si   0.001168   0.034589  -0.002061  -0.000621  12.124284   0.480038
    18  H    0.002035   0.006031   0.000089   0.000003   0.480038   0.878883
    19  C    0.007835  -0.001838   0.000236   0.000014   0.102753  -0.046300
    20  H    0.000307  -0.000339   0.000003   0.000000  -0.011562  -0.001263
    21  H   -0.000494   0.000271  -0.000001   0.000000  -0.004911   0.000196
    22  H    0.000514  -0.000140   0.000000   0.000000  -0.019047   0.002665
    23  C   -0.002762  -0.000191   0.000004   0.000003   0.243624  -0.039281
    24  H   -0.000012   0.000030   0.000000   0.000000  -0.019895  -0.001979
    25  H    0.000084   0.000034   0.000000   0.000000  -0.037842  -0.000985
    26  H    0.000010   0.000025   0.000000   0.000000   0.008738   0.002915
    27  C   -0.088541   0.000052  -0.000264   0.004038  -0.012146  -0.000360
    28  H   -0.012839   0.000000   0.000000   0.000000  -0.000310   0.000000
    29  H    0.038908   0.000002   0.000000   0.000058   0.000284   0.000000
    30  H    0.006516   0.000000   0.000000  -0.000004   0.000255   0.000000
              19         20         21         22         23         24
     1  C    0.077264  -0.004538  -0.002771   0.012193  -0.054054   0.003461
     2  C   -0.012364   0.001271   0.002522  -0.011708  -0.042563   0.002536
     3  C   -0.046351  -0.003705   0.002116   0.000968   0.023507  -0.000213
     4  C   -0.077893  -0.021960   0.017698   0.002493   0.084667  -0.003875
     5  C   -0.052591  -0.021527   0.021060  -0.009415  -0.117761  -0.019131
     6  C   -0.083175   0.000815   0.010941  -0.029944  -0.016281   0.026802
     7  H   -0.000008   0.000000   0.000000   0.000000  -0.000012   0.000000
     8  H    0.000254   0.000000   0.000000   0.000002   0.000519  -0.000001
     9  C   -0.008085  -0.000825  -0.000216   0.001333   0.008397  -0.000114
    10  C    0.111540   0.023058  -0.033358   0.024576  -0.032808  -0.001485
    11  H   -0.001366   0.000007   0.000016  -0.000178  -0.000407   0.000063
    12  C    0.047619   0.019608  -0.006339   0.000946  -0.020434   0.000664
    13  C    0.007835   0.000307  -0.000494   0.000514  -0.002762  -0.000012
    14  H   -0.001838  -0.000339   0.000271  -0.000140  -0.000191   0.000030
    15  H    0.000236   0.000003  -0.000001   0.000000   0.000004   0.000000
    16  H    0.000014   0.000000   0.000000   0.000000   0.000003   0.000000
    17  Si   0.102753  -0.011562  -0.004911  -0.019047   0.243624  -0.019895
    18  H   -0.046300  -0.001263   0.000196   0.002665  -0.039281  -0.001979
    19  C    5.865061   0.360880   0.359902   0.393376  -0.146363   0.004315
    20  H    0.360880   0.511539  -0.016837  -0.017403   0.017162  -0.000112
    21  H    0.359902  -0.016837   0.519001  -0.021519  -0.013316   0.001147
    22  H    0.393376  -0.017403  -0.021519   0.502584  -0.004918   0.000122
    23  C   -0.146363   0.017162  -0.013316  -0.004918   5.720615   0.371011
    24  H    0.004315  -0.000112   0.001147   0.000122   0.371011   0.515882
    25  H    0.012918  -0.000159  -0.000030  -0.000173   0.380346  -0.014129
    26  H   -0.007921  -0.000134   0.000302   0.001330   0.375673  -0.024042
    27  C   -0.002104   0.000080   0.000055  -0.000400  -0.000653   0.000023
    28  H    0.000042   0.000000   0.000000   0.000000  -0.000032   0.000000
    29  H   -0.000040   0.000000   0.000000   0.000000   0.000017   0.000000
    30  H   -0.000022   0.000000   0.000000   0.000000  -0.000005   0.000000
              25         26         27         28         29         30
     1  C   -0.015815   0.015800  -0.463350   0.055301  -0.243360   0.153453
     2  C   -0.001575  -0.005394   0.084499   0.015987  -0.044628  -0.164416
     3  C    0.000339  -0.007323  -0.112496  -0.027005   0.140492  -0.066103
     4  C   -0.001148  -0.000959  -0.338799   0.010615  -0.046183   0.000364
     5  C    0.045713  -0.000842   0.050620   0.014953  -0.014113   0.012045
     6  C   -0.019770  -0.027850   0.006985  -0.014387   0.015683   0.029070
     7  H    0.000000   0.000000   0.032857  -0.000264  -0.001979   0.000975
     8  H    0.000001   0.000005   0.021048   0.000201   0.000394   0.001181
     9  C   -0.000413  -0.000316  -0.076575  -0.072019   0.132412  -0.005281
    10  C   -0.000383   0.007741  -0.144721   0.000551  -0.016745   0.000365
    11  H   -0.000504   0.001653   0.002794   0.000017   0.000015   0.000001
    12  C   -0.000187   0.000581   0.024988  -0.000325   0.004828  -0.001178
    13  C    0.000084   0.000010  -0.088541  -0.012839   0.038908   0.006516
    14  H    0.000034   0.000025   0.000052   0.000000   0.000002   0.000000
    15  H    0.000000   0.000000  -0.000264   0.000000   0.000000   0.000000
    16  H    0.000000   0.000000   0.004038   0.000000   0.000058  -0.000004
    17  Si  -0.037842   0.008738  -0.012146  -0.000310   0.000284   0.000255
    18  H   -0.000985   0.002915  -0.000360   0.000000   0.000000   0.000000
    19  C    0.012918  -0.007921  -0.002104   0.000042  -0.000040  -0.000022
    20  H   -0.000159  -0.000134   0.000080   0.000000   0.000000   0.000000
    21  H   -0.000030   0.000302   0.000055   0.000000   0.000000   0.000000
    22  H   -0.000173   0.001330  -0.000400   0.000000   0.000000   0.000000
    23  C    0.380346   0.375673  -0.000653  -0.000032   0.000017  -0.000005
    24  H   -0.014129  -0.024042   0.000023   0.000000   0.000000   0.000000
    25  H    0.503333  -0.020102  -0.000057   0.000000   0.000000   0.000000
    26  H   -0.020102   0.525493  -0.000047   0.000000   0.000000   0.000000
    27  C   -0.000057  -0.000047   6.346838   0.387971   0.388653   0.404171
    28  H    0.000000   0.000000   0.387971   0.515275  -0.027756  -0.022686
    29  H    0.000000   0.000000   0.388653  -0.027756   0.568836  -0.030153
    30  H    0.000000   0.000000   0.404171  -0.022686  -0.030153   0.537711
 Mulliken charges:
               1
     1  C   -0.574864
     2  C    0.596405
     3  C    0.237382
     4  C    0.307087
     5  C    0.361210
     6  C   -0.595322
     7  H    0.119280
     8  H    0.115016
     9  C   -0.384504
    10  C    0.058809
    11  H    0.115253
    12  C   -0.420734
    13  C   -0.306851
    14  H    0.101092
    15  H    0.122756
    16  H    0.122578
    17  Si   0.843185
    18  H   -0.152200
    19  C   -0.857587
    20  H    0.165633
    21  H    0.164564
    22  H    0.171743
    23  C   -0.733705
    24  H    0.158935
    25  H    0.170503
    26  H    0.154666
    27  C   -0.515161
    28  H    0.176712
    29  H    0.134377
    30  H    0.143743
 Sum of Mulliken charges =   0.00000
 Mulliken charges with hydrogens summed into heavy atoms:
               1
     1  C   -0.459848
     2  C    0.596405
     3  C    0.237382
     4  C    0.307087
     5  C    0.361210
     6  C   -0.480070
     9  C   -0.265225
    10  C    0.159901
    12  C   -0.297978
    13  C   -0.184273
    17  Si   0.690986
    19  C   -0.355647
    23  C   -0.249601
    27  C   -0.060329
 Electronic spatial extent (au):  <R**2>=           3447.7998
 Charge=              0.0000 electrons
 Dipole moment (field-independent basis, Debye):
    X=              0.3907    Y=             -0.4470    Z=              0.1671  Tot=              0.6167
 Quadrupole moment (field-independent basis, Debye-Ang):
   XX=            -85.6831   YY=            -86.7733   ZZ=            -98.1459
   XY=             -0.3882   XZ=              0.0090   YZ=             -0.8402
 Traceless Quadrupole moment (field-independent basis, Debye-Ang):
   XX=              4.5177   YY=              3.4275   ZZ=             -7.9452
   XY=             -0.3882   XZ=              0.0090   YZ=             -0.8402
 Octapole moment (field-independent basis, Debye-Ang**2):
  XXX=             20.4663  YYY=             -0.6534  ZZZ=             -1.3363  XYY=              9.9269
  XXY=              0.4986  XXZ=              1.9392  XZZ=             -1.1993  YZZ=             -4.6929
  YYZ=              2.3959  XYZ=              0.9250
 Hexadecapole moment (field-independent basis, Debye-Ang**3):
 XXXX=          -3029.0761 YYYY=          -1355.5321 ZZZZ=           -345.8348 XXXY=             -7.0057
 XXXZ=             -1.2781 YYYX=             16.1948 YYYZ=            -16.4873 ZZZX=              8.4598
 ZZZY=              3.7640 XXYY=           -744.3559 XXZZ=           -610.4766 YYZZ=           -321.1692
 XXYZ=            -10.2017 YYXZ=             -8.8668 ZZXY=             -6.4790
 N-N= 9.365035800919D+02 E-N=-3.733839579013D+03  KE= 7.921454300269D+02
 There are a total of      247322 grid points.
 ElSum from          density=      108.0000092335
 ElSum from atomic densities=      107.9995096988

 Hirshfeld populations at iteration   1 (CX, CA, CB, DipXYZ):
               1          2          3          4          5          6
     1  C    0.000000   3.027490   3.027490  -0.005810  -0.062930   0.001840
     2  C    0.000000   2.994970   2.994970   0.074722  -0.002087  -0.000261
     3  C    0.000000   3.004514   3.004514  -0.012310   0.002443  -0.001632
     4  C    0.000000   3.001776   3.001776   0.022880  -0.003078   0.001294
     5  C    0.000000   3.053439   3.053439   0.075208  -0.004969   0.005931
     6  C    0.000000   3.022515   3.022515  -0.036078  -0.058909   0.004319
     7  H    0.000001   0.477959   0.477959   0.146948  -0.045438   0.008207
     8  H    0.000001   0.478375   0.478375   0.015235  -0.156996   0.012301
     9  C    0.000000   3.021912   3.021912   0.039763  -0.045347   0.005014
    10  C    0.000000   3.020074   3.020074  -0.059918  -0.002314  -0.003575
    11  H    0.000001   0.478179   0.478179  -0.116580  -0.100463   0.005284
    12  C    0.000000   3.024013   3.024013   0.008668   0.064079  -0.005767
    13  C    0.000000   3.024415   3.024415   0.037240   0.052439  -0.003301
    14  H    0.000000   0.477974   0.477974  -0.120156   0.072774  -0.001971
    15  H    0.000002   0.477324   0.477324  -0.020407   0.159820  -0.013265
    16  H    0.000002   0.477549   0.477549   0.126692   0.100284  -0.003187
    17  Si   0.000000   6.818607   6.818607  -0.040192  -0.014239   0.001039
    18  H    0.000001   0.542873   0.542873   0.004977   0.105287  -0.064911
    19  C    0.000000   3.102257   3.102257  -0.036853   0.018936   0.088834
    20  H    0.000001   0.480732   0.480732   0.094523   0.105767   0.068955
    21  H    0.000001   0.481479   0.481479  -0.146374   0.059234  -0.015624
    22  H    0.000001   0.480536   0.480536  -0.004269  -0.135041   0.083636
    23  C    0.000000   3.101866   3.101866  -0.061234  -0.058158  -0.042891
    24  H    0.000001   0.480447   0.480447  -0.146014   0.065436  -0.008560
    25  H    0.000001   0.480324   0.480324   0.055615  -0.026060  -0.148283
    26  H    0.000001   0.481674   0.481674  -0.004227  -0.130028   0.087597
    27  C    0.000000   3.048318   3.048318  -0.005054  -0.000434  -0.000658
    28  H    0.000001   0.478709   0.478709   0.053860  -0.033700  -0.140782
    29  H    0.000001   0.480365   0.480365   0.094068   0.088801   0.070233
    30  H    0.000001   0.479341   0.479341   0.000421  -0.127908   0.083039
       Tot   0.000020  54.000005  54.000005   0.035344  -0.112800   0.072853

 Dip from Atomic Chgs              0.118518  -0.063246  -0.007110
         Total Dipole              0.153862  -0.176047   0.065744

 Hirshfeld charges, spin densities, dipoles, and CM5 charges using IRadAn=      4:
              Q-H        S-H        Dx         Dy         Dz        Q-CM5   
     1  C   -0.054980   0.000000  -0.005810  -0.062930   0.001840  -0.110363
     2  C    0.010061   0.000000   0.074722  -0.002087  -0.000261  -0.005103
     3  C   -0.009028   0.000000  -0.012310   0.002443  -0.001632  -0.014741
     4  C   -0.003551   0.000000   0.022880  -0.003078   0.001294  -0.010825
     5  C   -0.106877   0.000000   0.075208  -0.004969   0.005931  -0.143446
     6  C   -0.045030   0.000000  -0.036078  -0.058909   0.004319  -0.102107
     7  H    0.044081   0.000000   0.146948  -0.045438   0.008207   0.104252
     8  H    0.043249   0.000000   0.015235  -0.156996   0.012301   0.101626
     9  C   -0.043825   0.000000   0.039763  -0.045347   0.005014  -0.099484
    10  C   -0.040147   0.000000  -0.059918  -0.002314  -0.003575  -0.096560
    11  H    0.043643   0.000000  -0.116580  -0.100463   0.005284   0.099878
    12  C   -0.048025   0.000000   0.008668   0.064079  -0.005767  -0.105481
    13  C   -0.048829   0.000000   0.037240   0.052439  -0.003301  -0.106258
    14  H    0.044052   0.000000  -0.120156   0.072774  -0.001971   0.097518
    15  H    0.045352   0.000000  -0.020407   0.159820  -0.013265   0.102914
    16  H    0.044901   0.000000   0.126692   0.100284  -0.003187   0.102479
    17  Si   0.362786   0.000000  -0.040192  -0.014239   0.001039   0.226698
    18  H   -0.085745   0.000000   0.004977   0.105287  -0.064911  -0.000099
    19  C   -0.204514   0.000000  -0.036853   0.018936   0.088834  -0.326008
    20  H    0.038535   0.000000   0.094523   0.105767   0.068955   0.095463
    21  H    0.037041   0.000000  -0.146374   0.059234  -0.015624   0.093787
    22  H    0.038927   0.000000  -0.004269  -0.135041   0.083636   0.095907
    23  C   -0.203733   0.000000  -0.061234  -0.058158  -0.042891  -0.325516
    24  H    0.039106   0.000000  -0.146014   0.065436  -0.008560   0.095852
    25  H    0.039352   0.000000   0.055615  -0.026060  -0.148283   0.096221
    26  H    0.036651   0.000000  -0.004227  -0.130028   0.087597   0.093805
    27  C   -0.096635   0.000000  -0.005054  -0.000434  -0.000658  -0.249621
    28  H    0.042583   0.000000   0.053860  -0.033700  -0.140782   0.097319
    29  H    0.039271   0.000000   0.094068   0.088801   0.070233   0.095646
    30  H    0.041319   0.000000   0.000421  -0.127908   0.083039   0.096239
       Tot  -0.000009   0.000000   0.035344  -0.112800   0.072853  -0.000009
 Hirshfeld charges with hydrogens summed into heavy atoms:
              Q-H       Q-CM5   
     1  C   -0.011730  -0.008738
     2  C    0.010061  -0.005103
     3  C   -0.009028  -0.014741
     4  C   -0.003551  -0.010825
     5  C   -0.106877  -0.143446
     6  C   -0.001387  -0.002228
     9  C    0.000256   0.004768
    10  C    0.003905   0.000958
    12  C   -0.002673  -0.002567
    13  C   -0.003928  -0.003779
    17  Si   0.277041   0.226599
    19  C   -0.090010  -0.040851
    23  C   -0.088624  -0.039639
    27  C    0.026537   0.039583
 
 EQQ= 0.000000000000E+00 EQD= 0.000000000000E+00 EDD= 0.102909274031E-01
 EQQ+QD+DD= 0.102909274031E-01
 
          MBS Condensed to atoms (all electrons):
               1          2          3          4          5          6
     1  C    4.856087   0.517841  -0.030764  -0.010688  -0.030279   0.485681
     2  C    0.517841   4.810746   0.481432  -0.029563  -0.011675  -0.029745
     3  C   -0.030764   0.481432   4.760691   0.473588  -0.030256  -0.010483
     4  C   -0.010688  -0.029563   0.473588   4.746642   0.472189  -0.029574
     5  C   -0.030279  -0.011675  -0.030256   0.472189   4.986149   0.507735
     6  C    0.485681  -0.029745  -0.010483  -0.029574   0.507735   4.840999
     7  H    0.000040  -0.004537  -0.025971   0.001447  -0.000026  -0.000001
     8  H    0.391203  -0.026744   0.001490   0.000051   0.001519  -0.026072
     9  C    0.000893  -0.032767   0.484208  -0.029930   0.001069   0.000042
    10  C    0.000030   0.001039  -0.030912   0.485021  -0.034746   0.000982
    11  H   -0.027028   0.001483   0.000019   0.001610  -0.028097   0.392095
    12  C    0.000001   0.000036  -0.010464  -0.030080   0.000984  -0.000013
    13  C   -0.000011   0.000938  -0.030224  -0.010611   0.000036   0.000001
    14  H   -0.000002  -0.000025   0.001437  -0.026163  -0.004853   0.000053
    15  H    0.000000   0.000001   0.000042   0.001504  -0.000023   0.000000
    16  H    0.000000  -0.000023   0.001501   0.000044   0.000001   0.000000
    17  Si   0.000889   0.000022   0.000889  -0.020440   0.357703  -0.018717
    18  H   -0.000003   0.000000  -0.000012  -0.000255  -0.007769   0.000167
    19  C   -0.000002   0.000000  -0.000002  -0.000029  -0.006460  -0.000073
    20  H    0.000000   0.000000  -0.000001   0.000042  -0.000167   0.000007
    21  H    0.000000   0.000000   0.000000  -0.000001   0.000212   0.000001
    22  H   -0.000001   0.000000   0.000000   0.000010  -0.000143   0.000055
    23  C    0.000003   0.000000  -0.000001   0.000075  -0.006093  -0.000961
    24  H    0.000000   0.000000   0.000000  -0.000001   0.000193   0.000020
    25  H   -0.000002   0.000000   0.000000   0.000001  -0.000154   0.000091
    26  H   -0.000001   0.000000   0.000000   0.000002  -0.000276  -0.000321
    27  C   -0.027319   0.378198  -0.026796   0.000800   0.000023   0.000847
    28  H   -0.000579  -0.021638  -0.000316  -0.000019   0.000004  -0.000018
    29  H    0.001183  -0.021644  -0.003817   0.000026   0.000001  -0.000028
    30  H   -0.003951  -0.021497   0.001210  -0.000021   0.000001   0.000035
               7          8          9         10         11         12
     1  C    0.000040   0.391203   0.000893   0.000030  -0.027028   0.000001
     2  C   -0.004537  -0.026744  -0.032767   0.001039   0.001483   0.000036
     3  C   -0.025971   0.001490   0.484208  -0.030912   0.000019  -0.010464
     4  C    0.001447   0.000051  -0.029930   0.485021   0.001610  -0.030080
     5  C   -0.000026   0.001519   0.001069  -0.034746  -0.028097   0.000984
     6  C   -0.000001  -0.026072   0.000042   0.000982   0.392095  -0.000013
     7  H    0.555103  -0.000002   0.393636   0.000041   0.000000   0.001471
     8  H   -0.000002   0.560387  -0.000023   0.000001  -0.003530   0.000000
     9  C    0.393636  -0.000023   4.858180  -0.011650   0.000001  -0.030721
    10  C    0.000041   0.000001  -0.011650   4.867210  -0.000021   0.516291
    11  H    0.000000  -0.003530   0.000001  -0.000021   0.563407   0.000000
    12  C    0.001471   0.000000  -0.030721   0.516291   0.000000   4.836662
    13  C   -0.025178   0.000000   0.517731  -0.030579   0.000000   0.487608
    14  H    0.000002   0.000000   0.000046   0.391479  -0.000002  -0.024677
    15  H   -0.000041   0.000000   0.001511  -0.025834   0.000000   0.392781
    16  H   -0.003673   0.000000  -0.025865   0.001509   0.000000  -0.026217
    17  Si   0.000000  -0.000024  -0.000012  -0.008689  -0.004215   0.000079
    18  H    0.000000   0.000000   0.000000  -0.004883   0.000019   0.000065
    19  C    0.000000   0.000000   0.000000  -0.000013   0.000046   0.000000
    20  H    0.000000   0.000000   0.000000   0.000065   0.000001   0.000000
    21  H    0.000000   0.000000   0.000000   0.000001  -0.000003   0.000000
    22  H    0.000000   0.000000   0.000000   0.000000   0.000027   0.000000
    23  C    0.000000   0.000000   0.000000   0.000014   0.000161   0.000000
    24  H    0.000000   0.000000   0.000000   0.000000  -0.000021   0.000000
    25  H    0.000000   0.000000   0.000000   0.000000   0.000003   0.000000
    26  H    0.000000   0.000000   0.000000   0.000000   0.000831   0.000000
    27  C   -0.002708  -0.003702  -0.008516  -0.000008  -0.000019  -0.000001
    28  H   -0.000096   0.000157   0.000157   0.000000   0.000001   0.000000
    29  H    0.000887   0.000043  -0.003436  -0.000001   0.000001  -0.000001
    30  H    0.000013   0.001013   0.000176   0.000000  -0.000002   0.000000
              13         14         15         16         17         18
     1  C   -0.000011  -0.000002   0.000000   0.000000   0.000889  -0.000003
     2  C    0.000938  -0.000025   0.000001  -0.000023   0.000022   0.000000
     3  C   -0.030224   0.001437   0.000042   0.001501   0.000889  -0.000012
     4  C   -0.010611  -0.026163   0.001504   0.000044  -0.020440  -0.000255
     5  C    0.000036  -0.004853  -0.000023   0.000001   0.357703  -0.007769
     6  C    0.000001   0.000053   0.000000   0.000000  -0.018717   0.000167
     7  H   -0.025178   0.000002  -0.000041  -0.003673   0.000000   0.000000
     8  H    0.000000   0.000000   0.000000   0.000000  -0.000024   0.000000
     9  C    0.517731   0.000046   0.001511  -0.025865  -0.000012   0.000000
    10  C   -0.030579   0.391479  -0.025834   0.001509  -0.008689  -0.004883
    11  H    0.000000  -0.000002   0.000000   0.000000  -0.004215   0.000019
    12  C    0.487608  -0.024677   0.392781  -0.026217   0.000079   0.000065
    13  C    4.835802   0.001444  -0.026217   0.392842  -0.000001  -0.000001
    14  H    0.001444   0.548926  -0.003648  -0.000040   0.002390   0.001296
    15  H   -0.026217  -0.003648   0.553753  -0.003659   0.000000   0.000009
    16  H    0.392842  -0.000040  -0.003659   0.554089   0.000000   0.000000
    17  Si  -0.000001   0.002390   0.000000   0.000000  12.173763   0.344884
    18  H   -0.000001   0.001296   0.000009   0.000000   0.344884   0.808044
    19  C    0.000000  -0.000174   0.000000   0.000000   0.342218  -0.008547
    20  H    0.000000   0.000071   0.000000   0.000000  -0.014923  -0.000233
    21  H    0.000000   0.000006   0.000000   0.000000  -0.014913  -0.000153
    22  H    0.000000   0.000003   0.000000   0.000000  -0.015282   0.000384
    23  C    0.000000  -0.000011   0.000000   0.000000   0.344020  -0.008245
    24  H    0.000000   0.000001   0.000000   0.000000  -0.014713  -0.000180
    25  H    0.000000   0.000000   0.000000   0.000000  -0.014923  -0.000197
    26  H    0.000000   0.000000   0.000000   0.000000  -0.015538   0.000380
    27  C    0.000075   0.000000   0.000000   0.000001   0.000000   0.000000
    28  H    0.000002   0.000000   0.000000   0.000000   0.000000   0.000000
    29  H    0.000036   0.000000   0.000000   0.000006   0.000000   0.000000
    30  H   -0.000001   0.000000   0.000000   0.000000   0.000000   0.000000
              19         20         21         22         23         24
     1  C   -0.000002   0.000000   0.000000  -0.000001   0.000003   0.000000
     2  C    0.000000   0.000000   0.000000   0.000000   0.000000   0.000000
     3  C   -0.000002  -0.000001   0.000000   0.000000  -0.000001   0.000000
     4  C   -0.000029   0.000042  -0.000001   0.000010   0.000075  -0.000001
     5  C   -0.006460  -0.000167   0.000212  -0.000143  -0.006093   0.000193
     6  C   -0.000073   0.000007   0.000001   0.000055  -0.000961   0.000020
     7  H    0.000000   0.000000   0.000000   0.000000   0.000000   0.000000
     8  H    0.000000   0.000000   0.000000   0.000000   0.000000   0.000000
     9  C    0.000000   0.000000   0.000000   0.000000   0.000000   0.000000
    10  C   -0.000013   0.000065   0.000001   0.000000   0.000014   0.000000
    11  H    0.000046   0.000001  -0.000003   0.000027   0.000161  -0.000021
    12  C    0.000000   0.000000   0.000000   0.000000   0.000000   0.000000
    13  C    0.000000   0.000000   0.000000   0.000000   0.000000   0.000000
    14  H   -0.000174   0.000071   0.000006   0.000003  -0.000011   0.000001
    15  H    0.000000   0.000000   0.000000   0.000000   0.000000   0.000000
    16  H    0.000000   0.000000   0.000000   0.000000   0.000000   0.000000
    17  Si   0.342218  -0.014923  -0.014913  -0.015282   0.344020  -0.014713
    18  H   -0.008547  -0.000233  -0.000153   0.000384  -0.008245  -0.000180
    19  C    4.997823   0.376052   0.374770   0.376208  -0.006793  -0.000148
    20  H    0.376052   0.577778  -0.021653  -0.021570   0.000215  -0.000001
    21  H    0.374770  -0.021653   0.584435  -0.021769  -0.000164   0.000093
    22  H    0.376208  -0.021570  -0.021769   0.579373  -0.000230   0.000018
    23  C   -0.006793   0.000215  -0.000164  -0.000230   4.996759   0.375942
    24  H   -0.000148  -0.000001   0.000093   0.000018   0.375942   0.580192
    25  H    0.000214  -0.000006  -0.000001  -0.000001   0.376265  -0.021509
    26  H   -0.000220  -0.000001   0.000017   0.000146   0.375561  -0.021661
    27  C    0.000000   0.000000   0.000000   0.000000   0.000000   0.000000
    28  H    0.000000   0.000000   0.000000   0.000000   0.000000   0.000000
    29  H    0.000000   0.000000   0.000000   0.000000   0.000000   0.000000
    30  H    0.000000   0.000000   0.000000   0.000000   0.000000   0.000000
              25         26         27         28         29         30
     1  C   -0.000002  -0.000001  -0.027319  -0.000579   0.001183  -0.003951
     2  C    0.000000   0.000000   0.378198  -0.021638  -0.021644  -0.021497
     3  C    0.000000   0.000000  -0.026796  -0.000316  -0.003817   0.001210
     4  C    0.000001   0.000002   0.000800  -0.000019   0.000026  -0.000021
     5  C   -0.000154  -0.000276   0.000023   0.000004   0.000001   0.000001
     6  C    0.000091  -0.000321   0.000847  -0.000018  -0.000028   0.000035
     7  H    0.000000   0.000000  -0.002708  -0.000096   0.000887   0.000013
     8  H    0.000000   0.000000  -0.003702   0.000157   0.000043   0.001013
     9  C    0.000000   0.000000  -0.008516   0.000157  -0.003436   0.000176
    10  C    0.000000   0.000000  -0.000008   0.000000  -0.000001   0.000000
    11  H    0.000003   0.000831  -0.000019   0.000001   0.000001  -0.000002
    12  C    0.000000   0.000000  -0.000001   0.000000  -0.000001   0.000000
    13  C    0.000000   0.000000   0.000075   0.000002   0.000036  -0.000001
    14  H    0.000000   0.000000   0.000000   0.000000   0.000000   0.000000
    15  H    0.000000   0.000000   0.000000   0.000000   0.000000   0.000000
    16  H    0.000000   0.000000   0.000001   0.000000   0.000006   0.000000
    17  Si  -0.014923  -0.015538   0.000000   0.000000   0.000000   0.000000
    18  H   -0.000197   0.000380   0.000000   0.000000   0.000000   0.000000
    19  C    0.000214  -0.000220   0.000000   0.000000   0.000000   0.000000
    20  H   -0.000006  -0.000001   0.000000   0.000000   0.000000   0.000000
    21  H   -0.000001   0.000017   0.000000   0.000000   0.000000   0.000000
    22  H   -0.000001   0.000146   0.000000   0.000000   0.000000   0.000000
    23  C    0.376265   0.375561   0.000000   0.000000   0.000000   0.000000
    24  H   -0.021509  -0.021661   0.000000   0.000000   0.000000   0.000000
    25  H    0.576514  -0.021792   0.000000   0.000000   0.000000   0.000000
    26  H   -0.021792   0.585035   0.000000   0.000000   0.000000   0.000000
    27  C    0.000000   0.000000   4.825157   0.378770   0.382707   0.382326
    28  H    0.000000   0.000000   0.378770   0.577869  -0.022821  -0.021754
    29  H    0.000000   0.000000   0.382707  -0.022821   0.586654  -0.021870
    30  H    0.000000   0.000000   0.382326  -0.021754  -0.021870   0.580913
 MBS Mulliken charges:
               1
     1  C   -0.123221
     2  C    0.008124
     3  C   -0.006490
     4  C    0.004326
     5  C   -0.166801
     6  C   -0.112804
     7  H    0.109594
     8  H    0.104232
     9  C   -0.114729
    10  C   -0.116349
    11  H    0.103233
    12  C   -0.113803
    13  C   -0.113693
    14  H    0.112439
    15  H    0.109823
    16  H    0.109485
    17  Si   0.575533
    18  H   -0.124768
    19  C   -0.444872
    20  H    0.104324
    21  H    0.099119
    22  H    0.102773
    23  C   -0.446517
    24  H    0.101776
    25  H    0.105498
    26  H    0.097839
    27  C   -0.279837
    28  H    0.110282
    29  H    0.102074
    30  H    0.103408
 Sum of MBS Mulliken charges =   0.00000
 MBS Mulliken charges with hydrogens summed into heavy atoms:
               1
     1  C   -0.018988
     2  C    0.008124
     3  C   -0.006490
     4  C    0.004326
     5  C   -0.166801
     6  C   -0.009571
     9  C   -0.005135
    10  C   -0.003910
    12  C   -0.003980
    13  C   -0.004208
    17  Si   0.450765
    19  C   -0.138655
    23  C   -0.141404
    27  C    0.035927
 Breneman (CHELPG) radii used.
 Generate Potential Derived Charges using the Breneman model, NDens= 1.
 Grid spacing= 0.300 Box extension= 2.800
 NStep X,Y,Z=   49     44     34   Total possible points=       73304
 Number of Points to Fit=   18384

 **********************************************************************

            Electrostatic Properties Using The SCF Density

 **********************************************************************

       Atomic Center    1 is at   0.765589 -2.309608  0.131625
       Atomic Center    2 is at   1.874436 -1.453028  0.106114
       Atomic Center    3 is at   1.688033 -0.068742 -0.007587
       Atomic Center    4 is at   0.392784  0.458964 -0.095779
       Atomic Center    5 is at  -0.716063 -0.397617 -0.070271
       Atomic Center    6 is at  -0.529660 -1.781903  0.043433
       Atomic Center    7 is at   3.785832  0.384924  0.034241
       Atomic Center    8 is at   0.907912 -3.366542  0.218439
       Atomic Center    9 is at   2.796880  0.787839 -0.033096
       Atomic Center   10 is at   0.206381  1.843250 -0.209479
       Atomic Center   11 is at  -1.376289 -2.435921  0.062911
       Atomic Center   12 is at   1.315228  2.699831 -0.234985
       Atomic Center   13 is at   2.610477  2.172125 -0.146793
       Atomic Center   14 is at  -0.782570  2.246165 -0.276817
       Atomic Center   15 is at   1.172905  3.756764 -0.321795
       Atomic Center   16 is at   3.457106  2.826143 -0.166267
       Atomic Center   17 is at  -2.509115  0.332901 -0.192361
       Atomic Center   18 is at  -2.480573  1.572172 -0.982484
       Atomic Center   19 is at  -3.173565  0.717107  1.589349
       Atomic Center   20 is at  -2.530314  1.428153  2.064260
       Atomic Center   21 is at  -4.162517  1.120022  1.522010
       Atomic Center   22 is at  -3.194340 -0.184947  2.164472
       Atomic Center   23 is at  -3.675384 -0.956285 -1.053415
       Atomic Center   24 is at  -4.664336 -0.553371 -1.120754
       Atomic Center   25 is at  -3.308909 -1.168193 -2.036111
       Atomic Center   26 is at  -3.696159 -1.858339 -0.478292
       Atomic Center   27 is at   3.297787 -2.032925  0.203025
       Atomic Center   28 is at   3.664259 -2.244831 -0.779673
       Atomic Center   29 is at   3.941041 -1.321879  0.677935
       Atomic Center   30 is at   3.277014 -2.934979  0.778147
   18384 points will be used for fitting atomic charges
 Fitting point charges to electrostatic potential
 Charges from ESP fit, RMS=   0.00393 RRMS=   0.48710:
 ESP charges:
               1
     1  C   -0.194312
     2  C    0.037515
     3  C    0.083832
     4  C    0.234590
     5  C   -0.340214
     6  C   -0.037457
     7  H    0.131001
     8  H    0.117275
     9  C   -0.199438
    10  C   -0.275538
    11  H    0.088821
    12  C   -0.043874
    13  C   -0.096405
    14  H    0.161973
    15  H    0.079459
    16  H    0.087216
    17  Si   0.721461
    18  H   -0.212744
    19  C   -0.350696
    20  H    0.044336
    21  H    0.072646
    22  H    0.057891
    23  C   -0.405826
    24  H    0.082803
    25  H    0.061463
    26  H    0.089979
    27  C   -0.126202
    28  H    0.043568
    29  H    0.036252
    30  H    0.050624
 Sum of ESP charges =   0.00000
 ESP charges with hydrogens summed into heavy atoms:
               1
[...]
 361,-0.00001976,-0.00000895,-0.00000103,0.00000407,0.00000049,0.000004
 52,-0.00000178,0.00000011,-0.00302606,0.00326719,-0.00024617,0.0006428
 1,0.00020806,-0.00003499,0.00064209,0.00002970,0.00021043,0.00002301,0
 .00011910,0.00020779,-0.00008586,0.00003617,-0.00009966,-0.00000535,-0
 .00002362,-0.00001209,0.11662394,-0.22981039,0.00596224,-0.13055936,0.
 25463868,-0.00011140,-0.00000841,0.00008324,0.00002332,0.00003533,-0.0
 0000487,-0.00006799,-0.00005436,-0.00003933,-0.00006130,0.00016972,0.0
 0021193,-0.00042370,-0.00026045,0.00041443,0.00013041,0.00007118,0.000
 15507,-0.00000778,0.00000041,-0.00000690,0.00000258,0.00000431,0.00000
 559,0.00000370,0.00001997,-0.00002018,0.00000903,0.00003952,-0.0000382
 8,-0.00003213,-0.00016430,-0.00032221,-0.00001679,-0.00000066,0.000001
 95,-0.00000255,-0.00001198,0.00000314,0.00001166,-0.00000340,0.0000221
 5,-0.00000381,-0.00000107,0.00000250,-0.00000084,-0.00000075,0.0000022
 8,-0.00099989,0.00279755,-0.00163204,0.00006249,-0.00000429,-0.0001359
 8,0.00042755,-0.00003027,-0.00010493,0.00012431,-0.00009328,0.00008705
 ,-0.00020484,-0.00030638,-0.00015527,-0.00010174,0.00004420,0.00001778
 ,-0.00414597,0.00806346,-0.04258315,0.00349703,-0.00682122,0.04376509,
 0.00007674,0.00023759,-0.00003718,0.00009055,0.00001620,0.00000558,0.0
 0004142,-0.00011535,-0.00009592,-0.00023566,-0.00016342,0.00025938,0.0
 0076551,0.00022264,0.00099379,-0.00009765,0.00011012,0.00003480,0.0000
 1043,-0.00000564,-0.00001172,-0.00000976,-0.00000984,-0.00000580,0.000
 00116,0.00002545,-0.00001982,0.00011316,-0.00007071,0.00011220,0.00022
 149,0.00032632,-0.00030997,-0.00000881,0.00006244,0.00002865,0.0000376
 1,-0.00002622,0.00000565,0.00000945,0.00002354,-0.00011340,0.00001566,
 0.00000885,-0.00001082,0.00000631,0.00000442,-0.00000935,-0.00072553,-
 0.00978076,-0.01922471,0.00076504,0.00071553,0.00114585,-0.00557525,-0
 .00084081,0.00014781,-0.00005981,-0.00091356,-0.00164638,0.00014083,0.
 00000287,0.00035160,0.00009419,0.00032436,0.00027175,-0.04401930,-0.02
 648702,-0.04763288,0.00202134,0.00804340,0.01591670,0.04560518,-0.0001
 3468,-0.00000636,-0.00003233,0.00005722,0.00005485,0.00002359,-0.00004
 231,-0.00004584,0.00001161,-0.00009518,0.00000386,0.00001139,0.0001121
 2,-0.00006923,0.00021032,0.00036378,0.00011260,0.00003306,-0.00000419,
 0.00000352,-0.00000256,0.00000804,-0.00000369,0.00000759,0.00002249,0.
 00001689,-0.00001495,0.00002941,0.00002568,0.00004824,0.00004235,-0.00
 023807,0.00029626,-0.00003858,0.00001618,0.00000554,-0.00000311,-0.000
 03355,0.00001100,0.00000822,0.00000543,-0.00003609,-0.00000522,-0.0000
 0378,-0.00000528,-0.00000567,0.00000018,-0.00000309,0.00082931,-0.0033
 4236,-0.00301784,0.00001666,0.00003059,0.00046663,-0.00111286,0.000130
 81,0.00013923,0.00000987,0.00009913,-0.00041566,0.00011979,0.00025221,
 0.00030411,-0.00002274,0.00001603,-0.00016085,-0.01960539,-0.10506701,
 -0.11178915,-0.00589732,-0.01326964,-0.02381695,0.02142300,0.11205458,
 0.00015656,0.00016383,0.00006725,0.00003688,-0.00002494,-0.00004215,-0
 .00002173,-0.00005647,0.00000781,-0.00010553,0.00018240,0.00001413,-0.
 00013729,-0.00007241,0.00021851,-0.00038875,-0.00015765,0.00034768,-0.
 00000401,-0.00000164,-0.00000310,-0.00001863,0.00002046,-0.00000370,-0
 .00001174,0.00004326,-0.00000713,0.00004864,-0.00004912,0.00001082,0.0
 0014861,0.00018919,-0.00042611,-0.00000164,0.00003249,0.00000155,0.000
 02829,-0.00000486,0.00000414,0.00001577,0.00003439,-0.00001404,0.00000
 752,0.00000287,-0.00000437,-0.00000028,0.00000429,-0.00000154,0.001147
 09,-0.00041861,-0.00282382,-0.00040069,-0.00000716,0.00019352,-0.00066
 590,-0.00016820,0.00048886,0.00011531,-0.00018658,-0.00004435,0.000060
 99,-0.00000587,-0.00001367,0.00015161,0.00009768,0.00032578,-0.0350271
 0,-0.11013020,-0.24097285,0.00052900,0.00107907,0.00124900,0.03903011,
 0.12133473,0.26128508,0.00031782,0.00033317,0.00002331,0.00008381,-0.0
 0006044,0.00002139,0.00008442,-0.00005231,0.00002704,-0.00023297,-0.00
 011764,-0.00011741,0.00068707,0.00026783,-0.00087667,-0.00058001,-0.00
 015922,-0.00013125,0.00000863,-0.00000133,0.00000963,-0.00002265,0.000
 01389,0.00000749,-0.00004568,0.00004434,0.00001568,-0.00003385,-0.0002
 6481,-0.00010077,-0.00004162,0.00094404,0.00028134,0.00001833,0.000149
 55,-0.00005351,0.00002539,0.00000594,0.00000784,0.00008215,0.00018150,
 0.00011584,0.00001812,0.00000192,-0.00000215,-0.00000484,0.00001998,0.
 00000875,-0.00586856,-0.01209363,0.01750308,-0.00426451,-0.00101341,-0
 .00085028,0.00138821,0.00095158,-0.00042204,0.00011080,0.00045778,0.00
 016771,0.00001198,0.00011768,0.00006217,-0.00012683,-0.00030755,-0.000
 84577,-0.07729439,-0.06212216,0.08453410,0.00606250,0.00952997,-0.0140
 1970,0.00067131,0.00394221,-0.00471763,0.07889155,-0.00005372,0.000048
 97,-0.00006803,0.00003776,0.00002356,-0.00000432,-0.00004734,-0.000038
 70,0.00001531,-0.00003491,0.00005416,0.00005358,-0.00005937,-0.0001413
 2,-0.00015778,0.00027875,-0.00007825,-0.00011792,-0.00000655,0.0000044
 9,0.00000186,0.00000393,0.00000393,-0.00000467,0.00001535,0.00002339,-
 0.00000438,0.00000585,-0.00005858,-0.00005750,0.00062874,-0.00053703,-
 0.00004224,-0.00003522,0.00003742,0.00000842,-0.00000858,-0.00003075,-
 0.00000435,0.00001124,0.00004306,0.00001857,-0.00000322,-0.00000413,0.
 00000703,-0.00000763,0.00000303,-0.00000094,-0.00010861,-0.00374020,0.
 00313222,-0.00095558,0.00043534,-0.00019394,0.00026263,0.00004491,-0.0
 0029802,0.00009065,0.00013495,-0.00009952,-0.00006790,-0.00001704,0.00
 007915,-0.00021211,-0.00001770,-0.00033049,-0.05415868,-0.12514763,0.1
 1048063,-0.01168280,-0.01542505,0.02033492,0.00688505,0.00925737,-0.01
 190345,0.05923319,0.13511403,-0.00027180,-0.00011072,0.00006190,0.0000
 0726,0.00007337,-0.00000989,0.00004049,-0.00000044,0.00000589,-0.00006
 591,-0.00027271,0.00000103,0.00044223,0.00011499,-0.00004109,0.0006160
 0,0.00044125,0.00004664,0.00000661,0.00000153,-0.00000156,0.00002179,-
 0.00002169,0.00000488,0.00001362,-0.00003194,-0.00000177,-0.00004356,0
 .00001735,-0.00001665,-0.00021199,-0.00021127,0.00005646,-0.00001623,0
 .00001631,-0.00001087,-0.00002407,-0.00001148,0.00000781,0.00000925,0.
 00000744,0.00002831,-0.00000515,-0.00000349,-0.00000128,-0.00000169,0.
 00000054,0.00000189,-0.00217911,-0.00261054,0.00152056,-0.00107314,-0.
 00026945,0.00051526,0.00071354,0.00009531,0.00027717,0.00007393,0.0001
 4661,0.00015145,-0.00004749,-0.00004085,-0.00002770,-0.00008357,0.0000
 1746,-0.00007391,0.07219636,0.10711561,-0.18588119,-0.00027687,0.00001
 170,-0.00096732,0.01081307,0.01639690,-0.01984874,-0.08062905,-0.12086
 218,0.20420851,-0.01915195,0.03313890,0.00021329,-0.11341236,0.0432474
 8,0.00073013,0.01391588,-0.00983947,-0.00023728,-0.00208095,-0.0041709
 0,0.00062361,-0.00119860,0.00141599,-0.00010161,-0.00314954,-0.0026902
 4,0.00086656,-0.00002893,-0.00153452,0.00012291,0.00067048,0.00159096,
 -0.00042642,-0.00226843,-0.00310848,0.00009864,0.00033531,-0.00135211,
 0.00002131,-0.00057544,0.00102573,-0.00000220,0.00065886,-0.00062492,-
 0.00002598,0.00047072,0.00101744,-0.00010449,-0.00020557,-0.00038524,0
 .00004640,0.00001062,-0.00003015,0.00000742,-0.00005240,-0.00000666,0.
 00002380,0.00030628,-0.00070615,-0.00005448,-0.00001227,0.00018905,-0.
 00001292,-0.00008808,0.00015601,-0.00001731,0.00001585,0.00001166,0.00
 002250,0.00001191,0.00004618,0.00004911,0.00000991,-0.00002083,-0.0000
 1923,-0.00006205,0.00009117,0.00000770,-0.00001639,0.00002231,-0.00000
 473,0.00002953,-0.00000798,0.00001675,0.00003935,-0.00000206,-0.000016
 11,0.55060044,0.00835285,-0.00391828,-0.00001634,0.05270928,-0.1798241
 8,0.00140438,0.01008617,-0.02821457,0.00075172,-0.00446210,-0.00020753
 ,0.00053158,0.00017204,-0.00032606,-0.00007269,-0.00166551,0.00156867,
 0.00045981,-0.00011694,-0.00152822,0.00012126,-0.00238655,0.00089934,-
 0.00014166,0.00136083,0.00034840,-0.00023931,0.00126669,-0.00063001,-0
 .00005741,-0.00033202,0.00029172,0.00000467,-0.00055672,0.00013848,0.0
 0001119,0.00097452,-0.00131399,-0.00001129,-0.00017294,-0.00023771,0.0
 0003475,0.00000450,-0.00004083,0.00000101,0.00000029,0.00004072,0.0000
 1484,0.00016391,-0.00036207,-0.00002876,-0.00000901,0.00007911,-0.0000
 1152,-0.00004331,0.00005794,-0.00003013,0.00000766,0.00000632,0.000015
 11,0.00001255,0.00001929,0.00002406,0.00000553,-0.00001111,-0.00001130
 ,-0.00004774,0.00006395,0.00000214,-0.00001528,0.00001157,-0.00000293,
 0.00001788,-0.00000580,0.00000811,0.00001990,-0.00000095,-0.00000639,0
 .04623930,0.50515693,0.00128966,-0.00156405,0.00746430,0.00021159,0.00
 200561,-0.07119587,-0.00110652,0.00210769,0.00284296,0.00075999,0.0003
 7524,0.00494641,-0.00006403,-0.00016199,-0.00149774,0.00081333,0.00047
 579,0.00942976,0.00007069,0.00020587,0.00088510,-0.00025515,-0.0003297
 8,-0.00529948,-0.00009357,0.00004258,-0.00273411,-0.00010055,0.0001615
 8,-0.00004395,0.00001359,-0.00005553,-0.00014568,-0.00003857,0.0000068
 0,-0.00032575,-0.00008858,-0.00002348,-0.00030887,0.00006515,0.0000159
 5,0.00020899,0.00000242,0.00000720,0.00003834,0.00002695,0.00001478,0.
 00034581,-0.00007983,0.00006897,-0.00096075,-0.00010458,0.00016366,0.0
 0004565,0.00012583,-0.00021583,0.00004464,-0.00000730,0.00000941,0.000
 01735,-0.00000947,-0.00004529,-0.00008465,0.00000374,0.00001492,0.0000
 1633,0.00000322,-0.00002447,0.00004100,0.00000831,-0.00000526,-0.00001
 089,0.00000106,-0.00000748,-0.00000728,-0.00002182,0.00001993,-0.00000
 681,-0.00332356,-0.00161535,0.52889573,-0.00022555,0.00242774,0.000047
 33,-0.01115974,0.00436442,0.01153188,-0.00050434,-0.00161099,-0.000194
 78,-0.00067540,0.00048383,-0.00021111,0.00019035,0.00012678,0.00011224
 ,-0.00044932,0.00003642,-0.00125632,-0.00020391,-0.00072206,-0.0002305
 2,0.00021349,0.00015179,0.00079989,0.00073894,-0.00003933,-0.00005673,
 0.00013998,0.00004625,0.00000487,-0.00012460,0.00013683,0.00003056,-0.
 00015733,0.00007019,-0.00004571,0.00009983,-0.00028546,-0.00002515,-0.
 00000760,0.00000637,0.00000807,0.00000582,0.00001442,0.00000382,0.0000
 0671,-0.00000823,0.00001045,0.00019458,-0.00022206,0.00011118,-0.00001
 883,0.00003816,-0.00002067,-0.00005773,0.00008279,-0.00001003,0.000003
 81,-0.00000767,-0.00000937,0.00000258,0.00002136,0.00003036,-0.0000009
 3,-0.00001040,-0.00000737,-0.00004570,0.00005654,-0.00000094,-0.000018
 27,0.00000664,-0.00000143,0.00000693,-0.00000660,0.00000408,0.00001414
 ,-0.00000712,-0.00000510,-0.11581831,0.01504843,0.11574161,0.12746065,
 -0.00033586,-0.00269625,0.00014884,0.01644163,-0.00347213,-0.02464769,
 0.00028969,0.00023491,0.00042493,0.00020468,0.00016518,0.00084624,0.00
 057238,-0.00032686,-0.00024179,0.00058201,-0.00022998,0.00125867,-0.00
 083747,-0.00076490,-0.00052579,0.00020665,0.00010824,-0.00036180,0.000
 26996,-0.00002701,-0.00018170,0.00015149,0.00034435,-0.00002030,0.0001
 3763,-0.00019157,0.00001647,-0.00030100,0.00018431,-0.00013383,-0.0003
 4363,-0.00031105,0.00012759,0.00002142,0.00000665,0.00002747,-0.000028
 87,0.00003047,0.,-0.00000488,-0.00001974,0.00005104,-0.00026481,0.0004
 8318,-0.00011210,0.00001117,-0.00009020,0.00001696,0.00008658,-0.00013
 214,0.00002412,-0.00001005,-0.00000121,-0.00000167,-0.00000848,-0.0000
 3733,-0.00004739,-0.00000329,0.00001628,0.00001211,0.00004969,-0.00007
 741,0.00000827,0.00002539,-0.00000462,-0.00000241,-0.00001437,0.000003
 92,-0.00000820,-0.00001658,0.00000672,0.00000091,0.01670362,-0.0509298
 7,-0.02812770,-0.02068487,0.05447052,-0.00068591,0.00002229,-0.0002828
 1,-0.00119580,-0.00097920,0.00358301,0.00082189,0.00049644,0.00062686,
 0.00016032,-0.00026406,-0.00018663,-0.00005978,-0.00007325,0.00000751,
 -0.00019174,0.00002275,-0.00023327,-0.00056353,0.00022647,-0.00017963,
 -0.00009859,-0.00000095,0.00006114,0.00059740,-0.00055594,0.00019787,-
 0.00010869,0.00000963,0.00002657,-0.00000138,-0.00001027,0.00004653,0.
 00016839,-0.00000449,0.00002156,-0.00039589,0.00046412,0.00003533,-0.0
 0001328,-0.00000513,-0.00000872,-0.00002709,0.00004111,-0.00001016,-0.
 00000242,-0.00002121,-0.00002740,-0.00008886,0.00015120,0.00001837,0.0
 0001014,-0.00004224,0.00000754,0.00002195,-0.00002712,0.00000905,-0.00
 000338,0.00000033,-0.00000373,-0.00000212,-0.00000975,-0.00000921,-0.0
 0000429,0.00000513,0.00000560,0.00001686,-0.00002272,-0.00000151,0.000
 00786,-0.00000231,0.00000003,-0.00000586,0.00000314,-0.00000165,-0.000
 00565,0.00000111,0.00000112,0.11471302,-0.02702471,-0.22510814,-0.1267
 2775,0.02953027,0.24456480,-0.00017682,0.00239326,-0.00026215,-0.01232
 121,0.00356388,-0.01015431,-0.00052971,-0.00161166,0.00047273,-0.00065
 084,0.00052227,0.00024377,0.00017309,0.00013270,-0.00014865,-0.0002796
 7,0.00012499,0.00126749,-0.00008009,-0.00070321,0.00027823,0.00014368,
 0.00008873,-0.00081518,0.00066101,0.00003739,-0.00001385,0.00014795,0.
 00004550,-0.00000986,-0.00013121,0.00014043,-0.00001679,-0.00017034,0.
 00007433,0.00005074,0.00015120,-0.00033440,0.00004631,-0.00000550,0.00
 000508,-0.00000429,0.00000833,0.00000759,-0.00000960,0.00000567,-0.000
 00595,-0.00001107,0.00018845,-0.00024694,-0.00015219,-0.00003644,0.000
 08062,0.00000456,-0.00002666,0.00004252,0.00001450,0.00000507,-0.00000
 018,-0.00000906,0.00000151,0.00001199,0.00001825,-0.00000775,-0.000005
 49,0.00000262,-0.00004594,0.00005305,0.00001667,-0.00001627,0.00000733
 ,-0.00000365,0.00001520,-0.00000697,0.00000707,0.00000636,-0.00000611,
 -0.00000657,-0.14505005,0.00671400,-0.12666457,0.01153646,-0.00127294,
 0.01365963,0.15956495,-0.00029379,-0.00271170,0.00008399,0.01950770,-0
 .00140463,0.02302024,0.00017970,0.00017305,-0.00045692,0.00003653,0.00
 014434,-0.00091039,0.00061195,-0.00029077,0.00023486,0.00045281,-0.000
 32703,-0.00133083,-0.00075736,-0.00069716,0.00067015,0.00024984,0.0001
 3842,0.00034066,0.00024516,0.00004189,0.00021658,0.00016703,0.00032110
 ,-0.00000940,0.00014608,-0.00019985,-0.00002030,-0.00030008,0.00020422
 ,0.00015323,-0.00031891,-0.00036177,-0.00004381,0.00000588,0.00001595,
 -0.00003379,-0.00002654,0.00002532,-0.00000282,-0.00001151,-0.00002176
 ,-0.00005115,-0.00024227,0.00046306,0.00011515,0.00003532,-0.00011800,
 0.00000154,0.00006010,-0.00008039,0.00001264,-0.00001058,-0.00000709,-
 0.00000265,-0.00000860,-0.00002576,-0.00003404,0.00000146,0.00001275,0
 .00000627,0.00005084,-0.00006145,-0.00001283,0.00002015,-0.00000406,0.
 00000298,-0.00001711,0.00000324,-0.00000274,-0.00001054,0.00000035,0.0
 0000353,0.00861261,-0.04742368,0.01237792,-0.00283389,-0.00038084,-0.0
 0258592,-0.01159432,0.05078223,0.00070047,-0.00009908,-0.00033313,0.00
 146810,0.00096596,0.00260576,-0.00067874,-0.00027029,0.00075156,-0.000
 11646,0.00018626,-0.00012283,-0.00000975,0.00008592,-0.00002107,0.0001
 5908,-0.00003010,-0.00029979,0.00062018,-0.00007956,-0.00031464,0.0000
 6378,-0.00001676,0.00011615,-0.00068182,0.00056020,0.00022960,0.000082
 00,-0.00004530,0.00000794,0.00001232,0.00001221,0.00005009,-0.00012497
 ,-0.00001585,0.00002265,0.00041129,-0.00039958,0.00002825,0.00001054,0
 .00000485,-0.00000390,0.00002759,-0.00004648,-0.00000888,-0.00000111,0
 .00002141,-0.00002289,0.00009344,-0.00016766,0.00002771,-0.00000314,0.
 00003046,-0.00000385,-0.00003208,0.00004556,-0.00000642,0.00000475,0.0
 0000029,0.00000262,0.00000307,0.00001349,0.00001618,0.00000228,-0.0000
 0592,-0.00000500,-0.00001450,0.00002297,-0.00000075,-0.00000794,0.0000
 0241,0.00000041,0.00000709,-0.00000158,0.00000281,0.00000594,-0.000002
 60,-0.00000027,-0.12584085,0.01152977,-0.19932505,-0.01756166,0.000934
 67,-0.02211579,0.13871979,-0.01212035,0.21600650,0.00061400,0.00207137
 ,-0.00012278,0.01051195,0.01323794,-0.00127014,-0.00188613,0.00249197,
 0.00008250,0.00044745,0.00061172,-0.00003006,0.00005186,0.00003035,-0.
 00000373,0.00033013,0.00000274,-0.00003530,0.00050935,-0.00040268,-0.0
 0004050,-0.00007143,-0.00001124,0.00001398,-0.00092634,0.00024668,0.00
 005837,-0.00020033,0.00006690,-0.00000312,0.00003606,-0.00005931,-0.00
 000087,0.00001141,-0.00009410,0.00000338,0.00035013,-0.00009685,-0.000
 00700,0.00004860,0.00005423,-0.00000726,0.00002402,-0.00004943,0.00000
 013,-0.00000710,0.00001692,-0.00000045,-0.00010750,0.00010120,0.000016
 12,0.00002397,-0.00002515,0.00000144,0.00002104,-0.00003158,-0.0000100
 0,0.00000026,0.00000931,0.00000976,0.00000368,-0.00000961,-0.00000888,
 0.00000057,0.00000476,0.00000045,0.00003491,-0.00002794,-0.00000398,0.
 00000896,-0.00000629,0.00000144,-0.00000725,0.00000433,-0.00000334,-0.
 00000606,0.00000438,0.00000328,-0.16390382,-0.13334822,0.01282097,-0.0
 1114673,-0.01162689,0.00000453,-0.01308043,-0.01395765,0.00268130,0.17
 831474,-0.00278181,0.00140090,0.00007579,-0.01953872,-0.02309822,0.002
 06712,0.00393284,-0.00332937,-0.00005364,-0.00152822,-0.00073809,0.000
 14874,0.00026862,0.00028617,-0.00001946,0.00035101,-0.00004740,-0.0000
 3538,-0.00000184,0.00021358,-0.00002761,0.00135829,0.00076074,-0.00007
 836,0.00102980,0.00019696,-0.00006866,0.00046246,-0.00031613,-0.000020
 12,0.00000222,0.00000313,-0.00000004,-0.00003790,0.00009916,-0.0000036
 0,-0.00017687,-0.00006364,0.00002407,-0.00008209,-0.00014620,0.0000111
 2,-0.00001908,-0.00000711,-0.00000018,-0.00003589,-0.00003980,0.000004
 24,-0.00016102,0.00017728,0.00000973,0.00003200,-0.00001627,-0.0000022
 7,0.00003180,-0.00003606,-0.00000362,0.00000157,0.00001205,0.00001561,
 0.00000298,-0.00001293,-0.00001247,0.00000210,0.00000466,-0.00000197,0
 .00004408,-0.00002906,-0.00000331,0.00001769,0.00000426,-0.00000043,-0
 .00000486,-0.00000175,0.00000531,0.00000515,0.00000164,-0.00000765,-0.
 12902871,-0.19370756,0.01410231,0.00331974,0.00363834,0.00065530,0.001
 74249,0.00179000,-0.00111531,0.14079216,0.21300070,0.00006187,-0.00019
 530,-0.00020153,0.00011719,0.00015391,-0.00160648,0.00001961,0.0000577
 5,0.00125068,0.00007114,0.00000698,0.00036670,-0.00001623,-0.00001691,
 0.00006406,-0.00004892,-0.00000341,-0.00024745,-0.00006185,-0.00000408
 ,-0.00042540,-0.00003203,-0.00006077,0.00038800,0.00002724,-0.00001613
 ,0.00016258,-0.00001870,0.00000608,-0.00011771,-0.00000206,0.00000200,
 -0.00001818,-0.00000093,-0.00000151,-0.00003198,-0.00000124,0.00001926
 ,0.00020777,0.00000209,0.00000011,-0.00001934,-0.00000222,0.00000233,-
 0.00002212,0.00000223,0.00000075,0.00000458,0.00001887,-0.00000939,0.0
 0003683,-0.00000300,-0.00000381,-0.00000545,-0.00000919,0.00000749,-0.
 00000307,-0.00000011,-0.00000176,-0.00000159,0.00000020,0.00000284,0.0
 0000247,0.00000129,-0.00000162,-0.00000310,-0.00000633,0.00000318,0.00
 000021,-0.00000155,-0.00000023,-0.00000030,-0.00000127,0.00000050,-0.0
 0000246,0.00000241,-0.00000039,0.00000017,0.01262401,0.01435538,-0.048
 16735,0.01792830,0.02098381,-0.00104423,-0.01652056,-0.01962179,0.0027
 1599,-0.01415024,-0.01566527,0.04671771\\0.00000259,-0.00000286,0.0000
 0045,-0.00000488,-0.00000142,-0.00000611,0.00000467,0.00000110,0.00000
 077,0.00000609,0.00000748,0.00000075,-0.00000883,-0.00000330,0.0000017
 5,0.00000542,0.00000270,-0.00000218,-0.00000036,0.00000316,-0.00000046
 ,-0.00000039,-0.00000060,-0.00000498,-0.00000141,0.00000010,-0.0000016
 5,-0.00000333,-0.00000404,-0.00000013,0.00000048,-0.00000095,-0.000001
 11,0.00000119,-0.00000186,0.00000167,0.00000159,0.00000535,0.00000046,
 -0.00000158,0.00000248,0.00000265,-0.00000125,0.00000120,0.00000228,0.
 00000041,0.00000135,0.00000084,0.00000243,0.00000144,0.00000303,-0.000
 00068,0.00000119,0.00000205,-0.00000051,0.00000083,0.00000760,0.000000
 04,-0.00000359,-0.00000025,0.00000042,-0.00000303,0.00000368,-0.000000
 04,-0.00000354,0.00000039,-0.00000581,-0.00000165,-0.00000063,0.000000
 24,-0.00000042,0.00000332,0.00000284,0.00000124,0.00000089,0.00000082,
 -0.00000034,-0.00000067,0.00000006,-0.00000182,-0.00000395,-0.00000111
 ,0.00000131,-0.00000316,0.00000014,-0.00000095,-0.00000354,0.00000075,
 -0.00000057,-0.00000373\\\@


 FORGIVE MY NONSENSE AS I ALSO FORGIVE THOSE WHO THINK THEY TALK SENSE

                                                       -- ROBERT FROST
 Job cpu time:       0 days  4 hours  6 minutes 24.3 seconds.
 File lengths (MBytes):  RWF=    479 Int=      0 D2E=      0 Chk=     14 Scr=      1
 Normal termination of Gaussian 09 at Wed Oct 13 17:07:34 2021.
