 Entering Gaussian System, Link 0=g09
 Initial command:
 /cm/shared/apps/gaussian/g09revD.01/g09/l1.exe "//home/sweav003/CHB/CHActivation_Mkhalid/OtherCharges/G09-Table6_4.com.o9447133.tmp/Gau-31786.inp" -scrdir="//home/sweav003/CHB/CHActivation_Mkhalid/OtherCharges/G09-Table6_4.com.o9447133.tmp/"
 Entering Link 1 = /cm/shared/apps/gaussian/g09revD.01/g09/l1.exe PID=     31787.
  
 Copyright (c) 1988,1990,1992,1993,1995,1998,2003,2009,2013,
            Gaussian, Inc.  All Rights Reserved.
  
 This is part of the Gaussian(R) 09 program.  It is based on
 the Gaussian(R) 03 system (copyright 2003, Gaussian, Inc.),
 the Gaussian(R) 98 system (copyright 1998, Gaussian, Inc.),
 the Gaussian(R) 94 system (copyright 1995, Gaussian, Inc.),
 the Gaussian 92(TM) system (copyright 1992, Gaussian, Inc.),
 the Gaussian 90(TM) system (copyright 1990, Gaussian, Inc.),
 the Gaussian 88(TM) system (copyright 1988, Gaussian, Inc.),
 the Gaussian 86(TM) system (copyright 1986, Carnegie Mellon
 University), and the Gaussian 82(TM) system (copyright 1983,
 Carnegie Mellon University). Gaussian is a federally registered
 trademark of Gaussian, Inc.
  
 This software contains proprietary and confidential information,
 including trade secrets, belonging to Gaussian, Inc.
  
 This software is provided under written license and may be
 used, copied, transmitted, or stored only in accord with that
 written license.
  
 The following legend is applicable only to US Government
 contracts under FAR:
  
                    RESTRICTED RIGHTS LEGEND
  
 Use, reproduction and disclosure by the US Government is
 subject to restrictions as set forth in subparagraphs (a)
 and (c) of the Commercial Computer Software - Restricted
 Rights clause in FAR 52.227-19.
  
 Gaussian, Inc.
 340 Quinnipiac St., Bldg. 40, Wallingford CT 06492
  
  
 ---------------------------------------------------------------
 Warning -- This program may not be used in any manner that
 competes with the business of Gaussian, Inc. or will provide
 assistance to any competitor of Gaussian, Inc.  The licensee
 of this program is prohibited from giving any competitor of
 Gaussian, Inc. access to this program.  By using this program,
 the user acknowledges that Gaussian, Inc. is engaged in the
 business of creating and licensing software in the field of
 computational chemistry and represents and warrants to the
 licensee that it is not a competitor of Gaussian, Inc. and that
 it will not use this program in any manner prohibited above.
 ---------------------------------------------------------------
  

 Cite this work as:
 Gaussian 09, Revision D.01,
 M. J. Frisch, G. W. Trucks, H. B. Schlegel, G. E. Scuseria, 
 M. A. Robb, J. R. Cheeseman, G. Scalmani, V. Barone, B. Mennucci, 
 G. A. Petersson, H. Nakatsuji, M. Caricato, X. Li, H. P. Hratchian, 
 A. F. Izmaylov, J. Bloino, G. Zheng, J. L. Sonnenberg, M. Hada, 
 M. Ehara, K. Toyota, R. Fukuda, J. Hasegawa, M. Ishida, T. Nakajima, 
 Y. Honda, O. Kitao, H. Nakai, T. Vreven, J. A. Montgomery, Jr., 
 J. E. Peralta, F. Ogliaro, M. Bearpark, J. J. Heyd, E. Brothers, 
 K. N. Kudin, V. N. Staroverov, T. Keith, R. Kobayashi, J. Normand, 
 K. Raghavachari, A. Rendell, J. C. Burant, S. S. Iyengar, J. Tomasi, 
 M. Cossi, N. Rega, J. M. Millam, M. Klene, J. E. Knox, J. B. Cross, 
 V. Bakken, C. Adamo, J. Jaramillo, R. Gomperts, R. E. Stratmann, 
 O. Yazyev, A. J. Austin, R. Cammi, C. Pomelli, J. W. Ochterski, 
 R. L. Martin, K. Morokuma, V. G. Zakrzewski, G. A. Voth, 
 P. Salvador, J. J. Dannenberg, S. Dapprich, A. D. Daniels, 
 O. Farkas, J. B. Foresman, J. V. Ortiz, J. Cioslowski, 
 and D. J. Fox, Gaussian, Inc., Wallingford CT, 2013.
 
 ******************************************
 Gaussian 09:  ES64L-G09RevD.01 24-Apr-2013
                23-Jul-2021 
 ******************************************
 %mem=100MW
 %nprocshared=20
 Will use up to   20 processors via shared memory.
 ---------------------------------------------------------------------
 # b3lyp/6-311+g(d,p) geom=connectivity pop=(hirshfeld,chelpg,mbs,npa)
 ---------------------------------------------------------------------
 1/38=1,57=2/1;
 2/12=2,17=6,18=5,40=1/2;
 3/5=4,6=6,7=111,11=2,16=1,25=1,30=1,74=-5/1,2,3;
 4//1;
 5/5=2,38=5/2;
 6/7=2,8=2,9=2,10=2,15=8,20=3,27=100,28=1,40=-1,79=1/1,2,7;
 99/5=1,9=1/99;
 --------
 Table6_4
 --------
 Symbolic Z-matrix:
 Charge =  0 Multiplicity = 1
 6                     0.63994   0.10648  -0.00033 
 6                    -0.21916   1.16271  -0.00011 
 6                    -1.54719   0.61637   0.00001 
 6                    -1.39936  -0.73204   0.00012 
 8                    -0.07364  -1.06202   0.00004 
 1                     0.05745   2.20535  -0.00026 
 1                    -2.47959   1.15837   0.00103 
 1                    -2.08999  -1.55799  -0.00078 
 6                     2.12143  -0.01579   0.00012 
 1                     2.47562  -0.55511   0.88417 
 1                     2.47621  -0.55706  -0.88246 
 1                     2.57545   0.97616  -0.00082 
 
                          Input orientation:                          
 ---------------------------------------------------------------------
 Center     Atomic      Atomic             Coordinates (Angstroms)
 Number     Number       Type             X           Y           Z
 ---------------------------------------------------------------------
      1          6           0        0.639940    0.106482   -0.000333
      2          6           0       -0.219160    1.162714   -0.000114
      3          6           0       -1.547190    0.616372    0.000009
      4          6           0       -1.399364   -0.732035    0.000119
      5          8           0       -0.073639   -1.062020    0.000037
      6          1           0        0.057454    2.205350   -0.000258
      7          1           0       -2.479594    1.158370    0.001028
      8          1           0       -2.089991   -1.557987   -0.000781
      9          6           0        2.121434   -0.015794    0.000124
     10          1           0        2.475623   -0.555106    0.884167
     11          1           0        2.476211   -0.557064   -0.882464
     12          1           0        2.575447    0.976162   -0.000816
 ---------------------------------------------------------------------
                    Distance matrix (angstroms):
                    1          2          3          4          5
     1  C    0.000000
     2  C    1.361499   0.000000
     3  C    2.245780   1.436020   0.000000
     4  C    2.204965   2.232253   1.356486   0.000000
     5  O    1.369157   2.229488   2.233462   1.366176   0.000000
     6  H    2.178196   1.078705   2.258259   3.278803   3.269999
     7  H    3.292106   2.260438   1.078490   2.177276   3.273951
     8  H    3.197340   3.301851   2.241087   1.076644   2.076454
     9  C    1.486532   2.620546   3.722692   3.592912   2.431653
    10  H    2.142375   3.315828   4.282186   3.978488   2.745430
    11  H    2.142508   3.316806   4.282927   3.978649   2.745091
    12  H    2.121917   2.800827   4.138307   4.326322   3.342431
                    6          7          8          9         10
     6  H    0.000000
     7  H    2.744591   0.000000
     8  H    4.332923   2.744155   0.000000
     9  C    3.032078   4.748486   4.484915   0.000000
    10  H    3.774899   5.316964   4.757492   1.094458   0.000000
    11  H    3.776189   5.318202   4.757038   1.094441   1.766632
    12  H    2.801998   5.058324   5.309258   1.090920   1.771424
                   11         12
    11  H    0.000000
    12  H    1.771421   0.000000
 Stoichiometry    C5H6O
 Framework group  C1[X(C5H6O)]
 Deg. of freedom    30
 Full point group                 C1      NOp   1
 Largest Abelian subgroup         C1      NOp   1
 Largest concise Abelian subgroup C1      NOp   1
                         Standard orientation:                         
 ---------------------------------------------------------------------
 Center     Atomic      Atomic             Coordinates (Angstroms)
 Number     Number       Type             X           Y           Z
 ---------------------------------------------------------------------
      1          6           0        0.639940    0.106482   -0.000333
      2          6           0       -0.219160    1.162714   -0.000114
      3          6           0       -1.547190    0.616372    0.000009
      4          6           0       -1.399364   -0.732035    0.000119
      5          8           0       -0.073639   -1.062020    0.000037
      6          1           0        0.057453    2.205350   -0.000258
      7          1           0       -2.479594    1.158369    0.001028
      8          1           0       -2.089991   -1.557988   -0.000781
      9          6           0        2.121434   -0.015793    0.000124
     10          1           0        2.475623   -0.555105    0.884167
     11          1           0        2.476211   -0.557063   -0.882464
     12          1           0        2.575447    0.976163   -0.000816
 ---------------------------------------------------------------------
 Rotational constants (GHZ):      8.8331434      3.5362096      2.5655842
 Standard basis: 6-311+G(d,p) (5D, 7F)
 There are   174 symmetry adapted cartesian basis functions of A   symmetry.
 There are   168 symmetry adapted basis functions of A   symmetry.
   168 basis functions,   264 primitive gaussians,   174 cartesian basis functions
    22 alpha electrons       22 beta electrons
       nuclear repulsion energy       222.3883178360 Hartrees.
 NAtoms=   12 NActive=   12 NUniq=   12 SFac= 1.00D+00 NAtFMM=   60 NAOKFM=F Big=F
 Integral buffers will be    131072 words long.
 Raffenetti 2 integral format.
 Two-electron integral symmetry is turned on.
 One-electron integrals computed using PRISM.
 NBasis=   168 RedAO= T EigKep=  1.13D-05  NBF=   168
 NBsUse=   168 1.00D-06 EigRej= -1.00D+00 NBFU=   168
 ExpMin= 4.38D-02 ExpMax= 8.59D+03 ExpMxC= 1.30D+03 IAcc=2 IRadAn=         4 AccDes= 0.00D+00
 Harris functional with IExCor=  402 and IRadAn=       4 diagonalized for initial guess.
 HarFok:  IExCor=  402 AccDes= 0.00D+00 IRadAn=         4 IDoV= 1 UseB2=F ITyADJ=14
 ICtDFT=  3500011 ScaDFX=  1.000000  1.000000  1.000000  1.000000
 FoFCou: FMM=F IPFlag=           0 FMFlag=      100000 FMFlg1=           0
         NFxFlg=           0 DoJE=T BraDBF=F KetDBF=T FulRan=T
         wScrn=  0.000000 ICntrl=     500 IOpCl=  0 I1Cent=   200000004 NGrid=           0
         NMat0=    1 NMatS0=      1 NMatT0=    0 NMatD0=    1 NMtDS0=    0 NMtDT0=    0
 Petite list used in FoFCou.
 Keep R1 ints in memory in canonical form, NReq=103564060.
 Requested convergence on RMS density matrix=1.00D-08 within 128 cycles.
 Requested convergence on MAX density matrix=1.00D-06.
 Requested convergence on             energy=1.00D-06.
 No special actions if energy rises.
 CoulSu:  requested number of processors reduced to:   4 ShMem   1 Linda.
 CalDSu:  requested number of processors reduced to:   3 ShMem   1 Linda.
 CalDSu:  requested number of processors reduced to:   3 ShMem   1 Linda.
 CalDSu:  requested number of processors reduced to:   3 ShMem   1 Linda.
 CalDSu:  requested number of processors reduced to:   3 ShMem   1 Linda.
 CalDSu:  requested number of processors reduced to:   3 ShMem   1 Linda.
 CalDSu:  requested number of processors reduced to:   3 ShMem   1 Linda.
 CalDSu:  requested number of processors reduced to:   3 ShMem   1 Linda.
 CalDSu:  requested number of processors reduced to:   3 ShMem   1 Linda.
 CalDSu:  requested number of processors reduced to:   3 ShMem   1 Linda.
 CalDSu:  requested number of processors reduced to:   3 ShMem   1 Linda.
 CalDSu:  requested number of processors reduced to:   3 ShMem   1 Linda.
 CalDSu:  requested number of processors reduced to:   3 ShMem   1 Linda.
 SCF Done:  E(RB3LYP) =  -269.420665980     A.U. after   12 cycles
            NFock= 12  Conv=0.76D-08     -V/T= 2.0042

 **********************************************************************

            Population analysis using the SCF density.

 **********************************************************************

 Orbital symmetries:
       Occupied  (A) (A) (A) (A) (A) (A) (A) (A) (A) (A) (A) (A)
                 (A) (A) (A) (A) (A) (A) (A) (A) (A) (A)
       Virtual   (A) (A) (A) (A) (A) (A) (A) (A) (A) (A) (A) (A)
                 (A) (A) (A) (A) (A) (A) (A) (A) (A) (A) (A) (A)
                 (A) (A) (A) (A) (A) (A) (A) (A) (A) (A) (A) (A)
                 (A) (A) (A) (A) (A) (A) (A) (A) (A) (A) (A) (A)
                 (A) (A) (A) (A) (A) (A) (A) (A) (A) (A) (A) (A)
                 (A) (A) (A) (A) (A) (A) (A) (A) (A) (A) (A) (A)
                 (A) (A) (A) (A) (A) (A) (A) (A) (A) (A) (A) (A)
                 (A) (A) (A) (A) (A) (A) (A) (A) (A) (A) (A) (A)
                 (A) (A) (A) (A) (A) (A) (A) (A) (A) (A) (A) (A)
                 (A) (A) (A) (A) (A) (A) (A) (A) (A) (A) (A) (A)
                 (A) (A) (A) (A) (A) (A) (A) (A) (A) (A) (A) (A)
                 (A) (A) (A) (A) (A) (A) (A) (A) (A) (A) (A) (A)
                 (A) (A)
 The electronic state is 1-A.
 Alpha  occ. eigenvalues --  -19.18583 -10.22791 -10.21860 -10.17981 -10.17130
 Alpha  occ. eigenvalues --  -10.16834  -1.11059  -0.80222  -0.78279  -0.69181
 Alpha  occ. eigenvalues --   -0.60308  -0.55533  -0.52631  -0.46405  -0.44672
 Alpha  occ. eigenvalues --   -0.41047  -0.40913  -0.40782  -0.39107  -0.37064
 Alpha  occ. eigenvalues --   -0.28299  -0.22668
 Alpha virt. eigenvalues --    0.00145   0.00484   0.01879   0.03057   0.03982
 Alpha virt. eigenvalues --    0.04539   0.05244   0.06270   0.06737   0.08229
 Alpha virt. eigenvalues --    0.08426   0.08494   0.09490   0.11347   0.13137
 Alpha virt. eigenvalues --    0.13671   0.14549   0.14631   0.15986   0.16945
 Alpha virt. eigenvalues --    0.18119   0.19304   0.19404   0.20197   0.21103
 Alpha virt. eigenvalues --    0.21420   0.22192   0.22580   0.24946   0.26590
 Alpha virt. eigenvalues --    0.28032   0.28663   0.31973   0.32731   0.34688
 Alpha virt. eigenvalues --    0.37614   0.41947   0.42514   0.44115   0.45243
 Alpha virt. eigenvalues --    0.49372   0.51299   0.53962   0.54803   0.57892
 Alpha virt. eigenvalues --    0.58115   0.59547   0.60911   0.61671   0.63704
 Alpha virt. eigenvalues --    0.65837   0.68706   0.71659   0.73298   0.74423
 Alpha virt. eigenvalues --    0.78098   0.79703   0.82792   0.82973   0.86819
 Alpha virt. eigenvalues --    0.86840   0.92790   0.94155   1.02078   1.04082
 Alpha virt. eigenvalues --    1.08042   1.08811   1.10590   1.17278   1.19427
 Alpha virt. eigenvalues --    1.20015   1.27019   1.33947   1.34439   1.39432
 Alpha virt. eigenvalues --    1.44769   1.49985   1.51846   1.52332   1.55638
 Alpha virt. eigenvalues --    1.56545   1.62955   1.63324   1.67848   1.70249
 Alpha virt. eigenvalues --    1.73181   1.75271   1.75578   1.78324   1.83647
 Alpha virt. eigenvalues --    1.84856   1.88095   1.92484   1.96867   1.99883
 Alpha virt. eigenvalues --    2.02252   2.06219   2.08368   2.14618   2.20398
 Alpha virt. eigenvalues --    2.28982   2.33335   2.37282   2.42163   2.48192
 Alpha virt. eigenvalues --    2.49004   2.49515   2.51887   2.53573   2.56720
 Alpha virt. eigenvalues --    2.67532   2.68068   2.70579   2.73821   2.74691
 Alpha virt. eigenvalues --    2.76422   2.78378   2.82109   2.92656   2.98561
 Alpha virt. eigenvalues --    3.01178   3.06419   3.15323   3.15652   3.18213
 Alpha virt. eigenvalues --    3.30560   3.34266   3.47378   3.53181   3.61326
 Alpha virt. eigenvalues --    3.79090   3.82793   3.99993   4.04392   4.08715
 Alpha virt. eigenvalues --    4.25377   4.40866   4.97402   5.43425   5.80266
 Alpha virt. eigenvalues --   23.68106  23.81554  23.95586  24.15775  24.22556
 Alpha virt. eigenvalues --   49.88709
          Condensed to atoms (all electrons):
               1          2          3          4          5          6
     1  C    5.886515  -0.191222   0.047214   0.021410   0.112185   0.013375
     2  C   -0.191222   6.053722   0.319757  -0.226142   0.117714   0.316821
     3  C    0.047214   0.319757   4.931044   0.644502  -0.103550   0.024149
     4  C    0.021410  -0.226142   0.644502   5.005018   0.195207  -0.017561
     5  O    0.112185   0.117714  -0.103550   0.195207   8.018915   0.010319
     6  H    0.013375   0.316821   0.024149  -0.017561   0.010319   0.531736
     7  H   -0.003748   0.001687   0.356948  -0.016636   0.010624  -0.003344
     8  H    0.032273  -0.020450  -0.015562   0.412283  -0.052919  -0.000133
     9  C    0.142051  -0.369508  -0.040255   0.052268  -0.259977   0.006554
    10  H   -0.001263  -0.015153  -0.000487   0.002683  -0.004302   0.000013
    11  H   -0.001568  -0.015034  -0.000540   0.002708  -0.004331   0.000014
    12  H   -0.104050   0.011148   0.003510  -0.001070   0.013531   0.000063
               7          8          9         10         11         12
     1  C   -0.003748   0.032273   0.142051  -0.001263  -0.001568  -0.104050
     2  C    0.001687  -0.020450  -0.369508  -0.015153  -0.015034   0.011148
     3  C    0.356948  -0.015562  -0.040255  -0.000487  -0.000540   0.003510
     4  C   -0.016636   0.412283   0.052268   0.002683   0.002708  -0.001070
     5  O    0.010624  -0.052919  -0.259977  -0.004302  -0.004331   0.013531
     6  H   -0.003344  -0.000133   0.006554   0.000013   0.000014   0.000063
     7  H    0.524185  -0.002240   0.005027   0.000012   0.000012  -0.000030
     8  H   -0.002240   0.510984   0.002967  -0.000023  -0.000022   0.000024
     9  C    0.005027   0.002967   5.855954   0.381852   0.382130   0.448004
    10  H    0.000012  -0.000023   0.381852   0.541099  -0.036266  -0.023734
    11  H    0.000012  -0.000022   0.382130  -0.036266   0.541105  -0.023736
    12  H   -0.000030   0.000024   0.448004  -0.023734  -0.023736   0.527354
 Mulliken charges:
               1
     1  C    0.046829
     2  C    0.016660
     3  C   -0.166732
     4  C   -0.074671
     5  O   -0.053414
     6  H    0.117993
     7  H    0.127503
     8  H    0.132817
     9  C   -0.607066
    10  H    0.155567
    11  H    0.155528
    12  H    0.148986
 Sum of Mulliken charges =   0.00000
 Mulliken charges with hydrogens summed into heavy atoms:
               1
     1  C    0.046829
     2  C    0.134653
     3  C   -0.039229
     4  C    0.058146
     5  O   -0.053414
     9  C   -0.146985
 Electronic spatial extent (au):  <R**2>=            505.1437
 Charge=              0.0000 electrons
 Dipole moment (field-independent basis, Debye):
    X=              0.3094    Y=              0.6312    Z=              0.0002  Tot=              0.7029
 Quadrupole moment (field-independent basis, Debye-Ang):
   XX=            -30.8481   YY=            -34.6687   ZZ=            -38.5906
   XY=              1.0958   XZ=             -0.0003   YZ=              0.0028
 Traceless Quadrupole moment (field-independent basis, Debye-Ang):
   XX=              3.8544   YY=              0.0337   ZZ=             -3.8881
   XY=              1.0958   XZ=             -0.0003   YZ=              0.0028
 Octapole moment (field-independent basis, Debye-Ang**2):
  XXX=             -1.7232  YYY=              0.4163  ZZZ=              0.0038  XYY=             -3.1547
  XXY=             -2.9451  XXZ=              0.0018  XZZ=              4.0874  YZZ=             -3.7448
  YYZ=             -0.0036  XYZ=             -0.0070
 Hexadecapole moment (field-independent basis, Debye-Ang**3):
 XXXX=           -434.7915 YYYY=           -179.1516 ZZZZ=            -51.3165 XXXY=              1.1204
 XXXZ=             -0.0138 YYYX=              8.3752 YYYZ=              0.0071 ZZZX=              0.0082
 ZZZY=              0.0033 XXYY=            -95.1642 XXZZ=            -89.3505 YYZZ=            -43.2881
 XXYZ=              0.0184 YYXZ=             -0.0042 ZZXY=             -1.5763
 N-N= 2.223883178360D+02 E-N=-1.072547073063D+03  KE= 2.682989355227D+02
 There are a total of       98306 grid points.
 ElSum from          density=       44.0000554121
 ElSum from atomic densities=       44.0001407405

 Hirshfeld populations at iteration   1 (CX, CA, CB, DipXYZ):
               1          2          3          4          5          6
     1  C    0.000000   2.969915   2.969915   0.050211  -0.123087   0.000012
     2  C    0.000000   3.046782   3.046782  -0.013906   0.112522   0.000043
     3  C    0.000001   3.043425   3.043425  -0.072212   0.098215   0.000006
     4  C    0.000001   2.997332   2.997332   0.052235  -0.122228  -0.000069
     5  O    0.000001   4.052346   4.052346  -0.043309   0.118320   0.000000
     6  H    0.000002   0.474210   0.474210   0.039384   0.163850  -0.000018
     7  H    0.000003   0.472956   0.472956  -0.145094   0.088595   0.000192
     8  H    0.000004   0.469078   0.469078  -0.114693  -0.133921  -0.000181
     9  C    0.000000   3.046648   3.046648   0.002261   0.003096  -0.000008
    10  H    0.000001   0.476070   0.476070   0.054521  -0.074851   0.122568
    11  H    0.000001   0.476070   0.476070   0.054620  -0.075122  -0.122366
    12  H    0.000001   0.475196   0.475196   0.068605   0.139667  -0.000130
       Tot   0.000014  22.000028  22.000028  -0.067377   0.195055   0.000049

 Dip from Atomic Chgs              0.189080   0.053074   0.000019
         Total Dipole              0.121703   0.248129   0.000068

 Hirshfeld charges, spin densities, dipoles, and CM5 charges using IRadAn=      4:
              Q-H        S-H        Dx         Dy         Dz        Q-CM5   
     1  C    0.060170   0.000000   0.050211  -0.123087   0.000012   0.070317
     2  C   -0.093565   0.000000  -0.013906   0.112522   0.000043  -0.143685
     3  C   -0.086850   0.000000  -0.072212   0.098215   0.000006  -0.138588
     4  C    0.005337   0.000000   0.052235  -0.122228  -0.000069  -0.022771
     5  O   -0.104692   0.000000  -0.043309   0.118320   0.000000  -0.177911
     6  H    0.051580   0.000000   0.039384   0.163850  -0.000018   0.107755
     7  H    0.054088   0.000000  -0.145094   0.088595   0.000192   0.109885
     8  H    0.061845   0.000000  -0.114693  -0.133921  -0.000181   0.125022
     9  C   -0.093295   0.000000   0.002261   0.003096  -0.000008  -0.234100
    10  H    0.047860   0.000000   0.054521  -0.074851   0.122568   0.100914
    11  H    0.047860   0.000000   0.054620  -0.075122  -0.122366   0.100916
    12  H    0.049608   0.000000   0.068605   0.139667  -0.000130   0.102191
       Tot  -0.000055   0.000000  -0.067377   0.195055   0.000049  -0.000055
 Hirshfeld charges with hydrogens summed into heavy atoms:
              Q-H       Q-CM5   
     1  C    0.060170   0.070317
     2  C   -0.041985  -0.035930
     3  C   -0.032763  -0.028704
     4  C    0.067182   0.102250
     5  O   -0.104692  -0.177911
     9  C    0.052033   0.069922
 
 EQQ= 0.000000000000E+00 EQD= 0.000000000000E+00 EDD= 0.195778471285E-02
 EQQ+QD+DD= 0.195778471285E-02
 
          MBS Condensed to atoms (all electrons):
               1          2          3          4          5          6
     1  C    4.788937   0.554426  -0.055298  -0.071932   0.319709  -0.020425
     2  C    0.554426   4.899326   0.459553  -0.057233  -0.040703   0.389820
     3  C   -0.055298   0.459553   4.878545   0.557041  -0.039528  -0.018237
     4  C   -0.071932  -0.057233   0.557041   4.846621   0.321574   0.001789
     5  O    0.319709  -0.040703  -0.039528   0.321574   7.782623   0.000861
     6  H   -0.020425   0.389820  -0.018237   0.001789   0.000861   0.533096
     7  H    0.001725  -0.017926   0.389842  -0.019707   0.000839  -0.001334
     8  H    0.002536   0.001567  -0.019986   0.389688  -0.019028  -0.000029
     9  C    0.393949  -0.021994   0.000954   0.001776  -0.021199  -0.001012
    10  H   -0.023102   0.000462  -0.000027   0.000047  -0.000675   0.000015
    11  H   -0.023096   0.000467  -0.000027   0.000047  -0.000675   0.000015
    12  H   -0.020243  -0.002582   0.000040  -0.000053   0.000713   0.000299
               7          8          9         10         11         12
     1  C    0.001725   0.002536   0.393949  -0.023102  -0.023096  -0.020243
     2  C   -0.017926   0.001567  -0.021994   0.000462   0.000467  -0.002582
     3  C    0.389842  -0.019986   0.000954  -0.000027  -0.000027   0.000040
     4  C   -0.019707   0.389688   0.001776   0.000047   0.000047  -0.000053
     5  O    0.000839  -0.019028  -0.021199  -0.000675  -0.000675   0.000713
     6  H   -0.001334  -0.000029  -0.001012   0.000015   0.000015   0.000299
     7  H    0.528198  -0.001052  -0.000012   0.000001   0.000001  -0.000001
     8  H   -0.001052   0.509079  -0.000028  -0.000001  -0.000001   0.000001
     9  C   -0.000012  -0.000028   4.781978   0.373376   0.373389   0.376355
    10  H    0.000001  -0.000001   0.373376   0.583915  -0.023066  -0.020428
    11  H    0.000001  -0.000001   0.373389  -0.023066   0.583892  -0.020427
    12  H   -0.000001   0.000001   0.376355  -0.020428  -0.020427   0.580174
 MBS Mulliken charges:
               1
     1  C    0.152814
     2  C   -0.165183
     3  C   -0.152873
     4  C    0.030341
     5  O   -0.304511
     6  H    0.115144
     7  H    0.119426
     8  H    0.137254
     9  C   -0.257531
    10  H    0.109483
    11  H    0.109482
    12  H    0.106154
 Sum of MBS Mulliken charges =   0.00000
 MBS Mulliken charges with hydrogens summed into heavy atoms:
               1
     1  C    0.152814
     2  C   -0.050039
     3  C   -0.033447
     4  C    0.167595
     5  O   -0.304511
     9  C    0.067588
 Breneman (CHELPG) radii used.
 Generate Potential Derived Charges using the Breneman model, NDens= 1.
 Grid spacing= 0.300 Box extension= 2.800
 NStep X,Y,Z=   36     33     26   Total possible points=       30888
 Number of Points to Fit=    9575

 **********************************************************************

            Electrostatic Properties Using The SCF Density

 **********************************************************************

       Atomic Center    1 is at   0.639940  0.106482 -0.000333
       Atomic Center    2 is at  -0.219160  1.162714 -0.000114
       Atomic Center    3 is at  -1.547190  0.616372  0.000009
       Atomic Center    4 is at  -1.399364 -0.732035  0.000119
       Atomic Center    5 is at  -0.073639 -1.062020  0.000037
       Atomic Center    6 is at   0.057453  2.205350 -0.000258
       Atomic Center    7 is at  -2.479594  1.158369  0.001028
       Atomic Center    8 is at  -2.089991 -1.557988 -0.000781
       Atomic Center    9 is at   2.121434 -0.015793  0.000124
       Atomic Center   10 is at   2.475623 -0.555105  0.884167
       Atomic Center   11 is at   2.476211 -0.557063 -0.882464
       Atomic Center   12 is at   2.575447  0.976163 -0.000816
    9575 points will be used for fitting atomic charges
 Fitting point charges to electrostatic potential
 Charges from ESP fit, RMS=   0.00406 RRMS=   0.43575:
 ESP charges:
               1
     1  C    0.310040
     2  C   -0.260346
     3  C   -0.114327
     4  C   -0.077530
     5  O   -0.201678
     6  H    0.134284
     7  H    0.110302
     8  H    0.137741
     9  C   -0.379821
    10  H    0.114597
    11  H    0.114470
    12  H    0.112269
 Sum of ESP charges =   0.00000
 ESP charges with hydrogens summed into heavy atoms:
               1
     1  C    0.310040
     2  C   -0.126063
     3  C   -0.004026
     4  C    0.060210
     5  O   -0.201678
     9  C   -0.038484
 Charge=   0.00000 Dipole=     0.2525     0.6163     0.0002 Tot=     0.6660
 -----------------------------------------------------------------

              Electrostatic Properties (Atomic Units)

 -----------------------------------------------------------------
    Center     Electric         -------- Electric Field --------
               Potential          X             Y             Z
 -----------------------------------------------------------------
    1 Atom    -14.722381
    2 Atom    -14.782131
    3 Atom    -14.779524
    4 Atom    -14.731804
    5 Atom    -22.310606
    6 Atom     -1.097388
    7 Atom     -1.096118
    8 Atom     -1.084499
    9 Atom    -14.765536
   10 Atom     -1.107496
   11 Atom     -1.107499
   12 Atom     -1.104355
 -----------------------------------------------------------------
 ******************************Gaussian NBO Version 3.1******************************
             N A T U R A L   A T O M I C   O R B I T A L   A N D
          N A T U R A L   B O N D   O R B I T A L   A N A L Y S I S
 ******************************Gaussian NBO Version 3.1******************************
       /RESON  / : Allow strongly delocalized NBO set

 Analyzing the SCF density

 Job title: Table6_4                                                        

 Storage needed:     85464 in NPA ( 104856760 available)


 NATURAL POPULATIONS:  Natural atomic orbital occupancies 
                                                          
   NAO  Atom  No  lang   Type(AO)    Occupancy      Energy
 ----------------------------------------------------------
     1    C    1  S      Cor( 1S)     1.99899     -10.09888
     2    C    1  S      Val( 2S)     0.85557      -0.15367
     3    C    1  S      Ryd( 3S)     0.00148       0.74340
     4    C    1  S      Ryd( 4S)     0.00013       1.71180
     5    C    1  S      Ryd( 5S)     0.00002      22.14470
     6    C    1  px     Val( 2p)     0.98341      -0.05245
     7    C    1  px     Ryd( 4p)     0.00439       1.38781
     8    C    1  px     Ryd( 3p)     0.00041       0.50442
     9    C    1  px     Ryd( 5p)     0.00021       2.80486
    10    C    1  py     Val( 2p)     0.80502      -0.03115
    11    C    1  py     Ryd( 4p)     0.00776       0.84159
    12    C    1  py     Ryd( 3p)     0.00037       0.50440
    13    C    1  py     Ryd( 5p)     0.00015       2.99242
    14    C    1  pz     Val( 2p)     1.02848      -0.11803
    15    C    1  pz     Ryd( 4p)     0.00267       0.61703
    16    C    1  pz     Ryd( 3p)     0.00038       0.43983
    17    C    1  pz     Ryd( 5p)     0.00014       2.58297
    18    C    1  dxy    Ryd( 3d)     0.00195       2.64663
    19    C    1  dxz    Ryd( 3d)     0.00117       1.67860
    20    C    1  dyz    Ryd( 3d)     0.00171       1.60315
    21    C    1  dx2y2  Ryd( 3d)     0.00164       2.37524
    22    C    1  dz2    Ryd( 3d)     0.00068       2.01505

    23    C    2  S      Cor( 1S)     1.99901     -10.02212
    24    C    2  S      Val( 2S)     0.95966      -0.15852
    25    C    2  S      Ryd( 3S)     0.00106       0.73378
    26    C    2  S      Ryd( 4S)     0.00008       0.86236
    27    C    2  S      Ryd( 5S)     0.00001      23.11084
    28    C    2  px     Val( 2p)     1.05060      -0.05841
    29    C    2  px     Ryd( 4p)     0.00404       0.69460
    30    C    2  px     Ryd( 3p)     0.00032       0.48810
    31    C    2  px     Ryd( 5p)     0.00018       2.99868
    32    C    2  py     Val( 2p)     1.18740      -0.06070
    33    C    2  py     Ryd( 4p)     0.00387       1.06289
    34    C    2  py     Ryd( 3p)     0.00046       0.56588
    35    C    2  py     Ryd( 5p)     0.00007       2.91304
    36    C    2  pz     Val( 2p)     1.09835      -0.11061
    37    C    2  pz     Ryd( 4p)     0.00207       0.48268
    38    C    2  pz     Ryd( 3p)     0.00044       0.35606
    39    C    2  pz     Ryd( 5p)     0.00005       2.65455
    40    C    2  dxy    Ryd( 3d)     0.00088       2.63703
    41    C    2  dxz    Ryd( 3d)     0.00056       1.62840
    42    C    2  dyz    Ryd( 3d)     0.00074       1.68881
    43    C    2  dx2y2  Ryd( 3d)     0.00055       2.44818
    44    C    2  dz2    Ryd( 3d)     0.00046       2.11814

    45    C    3  S      Cor( 1S)     1.99917     -10.02836
    46    C    3  S      Val( 2S)     0.97142      -0.17244
    47    C    3  S      Ryd( 3S)     0.00141       0.71787
    48    C    3  S      Ryd( 4S)     0.00010       1.85950
    49    C    3  S      Ryd( 5S)     0.00001      22.06891
    50    C    3  px     Val( 2p)     1.14035      -0.05234
    51    C    3  px     Ryd( 4p)     0.00348       1.02615
    52    C    3  px     Ryd( 3p)     0.00036       0.51644
    53    C    3  px     Ryd( 5p)     0.00009       2.86888
    54    C    3  py     Val( 2p)     1.09386      -0.06538
    55    C    3  py     Ryd( 4p)     0.00500       0.81980
    56    C    3  py     Ryd( 3p)     0.00027       0.48581
    57    C    3  py     Ryd( 5p)     0.00017       2.93904
    58    C    3  pz     Val( 2p)     1.08040      -0.11194
    59    C    3  pz     Ryd( 4p)     0.00197       0.52549
    60    C    3  pz     Ryd( 3p)     0.00037       0.34518
    61    C    3  pz     Ryd( 5p)     0.00004       2.61787
    62    C    3  dxy    Ryd( 3d)     0.00054       2.43768
    63    C    3  dxz    Ryd( 3d)     0.00060       1.64474
    64    C    3  dyz    Ryd( 3d)     0.00068       1.66119
    65    C    3  dx2y2  Ryd( 3d)     0.00086       2.63511
    66    C    3  dz2    Ryd( 3d)     0.00046       2.11056

    67    C    4  S      Cor( 1S)     1.99906     -10.09181
    68    C    4  S      Val( 2S)     0.93248      -0.18768
    69    C    4  S      Ryd( 3S)     0.00139       0.82610
    70    C    4  S      Ryd( 4S)     0.00012       1.91631
    71    C    4  S      Ryd( 5S)     0.00001      21.95409
    72    C    4  px     Val( 2p)     0.76338      -0.02982
    73    C    4  px     Ryd( 4p)     0.00674       0.92493
    74    C    4  px     Ryd( 3p)     0.00016       0.85923
    75    C    4  px     Ryd( 5p)     0.00007       2.37182
    76    C    4  py     Val( 2p)     1.10302      -0.06325
    77    C    4  py     Ryd( 4p)     0.00589       1.03756
    78    C    4  py     Ryd( 3p)     0.00049       0.93907
    79    C    4  py     Ryd( 5p)     0.00025       2.25419
    80    C    4  pz     Val( 2p)     1.06705      -0.12852
    81    C    4  pz     Ryd( 3p)     0.00366       0.56892
    82    C    4  pz     Ryd( 4p)     0.00055       0.62941
    83    C    4  pz     Ryd( 5p)     0.00003       2.30598
    84    C    4  dxy    Ryd( 3d)     0.00179       2.36212
    85    C    4  dxz    Ryd( 3d)     0.00172       1.55142
    86    C    4  dyz    Ryd( 3d)     0.00086       1.66591
    87    C    4  dx2y2  Ryd( 3d)     0.00176       2.65183
    88    C    4  dz2    Ryd( 3d)     0.00074       2.04003

    89    O    5  S      Cor( 1S)     1.99972     -18.96544
    90    O    5  S      Val( 2S)     1.59885      -0.89705
    91    O    5  S      Ryd( 3S)     0.00229       0.66743
    92    O    5  S      Ryd( 4S)     0.00004       1.28810
    93    O    5  S      Ryd( 5S)     0.00000      49.63158
    94    O    5  px     Val( 2p)     1.44458      -0.33116
    95    O    5  px     Ryd( 3p)     0.00226       0.80678
    96    O    5  px     Ryd( 4p)     0.00053       0.98632
    97    O    5  px     Ryd( 5p)     0.00001       5.28779
    98    O    5  py     Val( 2p)     1.70525      -0.35895
    99    O    5  py     Ryd( 3p)     0.00398       0.50380
   100    O    5  py     Ryd( 4p)     0.00079       0.91713
   101    O    5  py     Ryd( 5p)     0.00006       5.14707
   102    O    5  pz     Val( 2p)     1.71109      -0.32920
   103    O    5  pz     Ryd( 3p)     0.00202       0.44449
   104    O    5  pz     Ryd( 4p)     0.00023       0.80610
   105    O    5  pz     Ryd( 5p)     0.00001       4.90173
   106    O    5  dxy    Ryd( 3d)     0.00118       3.39850
   107    O    5  dxz    Ryd( 3d)     0.00045       2.93138
   108    O    5  dyz    Ryd( 3d)     0.00099       2.91018
   109    O    5  dx2y2  Ryd( 3d)     0.00117       3.40041
   110    O    5  dz2    Ryd( 3d)     0.00066       3.28784

   111    H    6  S      Val( 1S)     0.77813       0.05159
   112    H    6  S      Ryd( 2S)     0.00037       0.64201
   113    H    6  S      Ryd( 3S)     0.00023       1.98051
   114    H    6  px     Ryd( 2p)     0.00013       1.96544
   115    H    6  py     Ryd( 2p)     0.00044       2.72051
   116    H    6  pz     Ryd( 2p)     0.00019       1.60049

   117    H    7  S      Val( 1S)     0.77733       0.05307
   118    H    7  S      Ryd( 2S)     0.00044       0.43241
   119    H    7  S      Ryd( 3S)     0.00024       2.19091
   120    H    7  px     Ryd( 2p)     0.00038       2.53477
   121    H    7  py     Ryd( 2p)     0.00019       2.10894
   122    H    7  pz     Ryd( 2p)     0.00019       1.59328

   123    H    8  S      Val( 1S)     0.80140       0.02481
   124    H    8  S      Ryd( 2S)     0.00027       1.01894
   125    H    8  S      Ryd( 3S)     0.00018       1.58886
   126    H    8  px     Ryd( 2p)     0.00036       2.27661
   127    H    8  py     Ryd( 2p)     0.00035       2.37723
   128    H    8  pz     Ryd( 2p)     0.00033       1.58371

   129    C    9  S      Cor( 1S)     1.99929     -10.03559
   130    C    9  S      Val( 2S)     1.08582      -0.25379
   131    C    9  S      Ryd( 4S)     0.00078       0.97337
   132    C    9  S      Ryd( 3S)     0.00009       0.92238
   133    C    9  S      Ryd( 5S)     0.00000      22.95007
   134    C    9  px     Val( 2p)     1.08267      -0.09975
   135    C    9  px     Ryd( 4p)     0.00113       0.53121
   136    C    9  px     Ryd( 3p)     0.00021       0.34133
   137    C    9  px     Ryd( 5p)     0.00009       2.92077
   138    C    9  py     Val( 2p)     1.22074      -0.10482
   139    C    9  py     Ryd( 4p)     0.00272       0.56292
   140    C    9  py     Ryd( 3p)     0.00004       0.37997
   141    C    9  py     Ryd( 5p)     0.00002       2.95262
   142    C    9  pz     Val( 2p)     1.21710      -0.10651
   143    C    9  pz     Ryd( 4p)     0.00059       0.51496
   144    C    9  pz     Ryd( 3p)     0.00007       0.32210
   145    C    9  pz     Ryd( 5p)     0.00008       2.94138
   146    C    9  dxy    Ryd( 3d)     0.00036       2.08763
   147    C    9  dxz    Ryd( 3d)     0.00055       1.90376
   148    C    9  dyz    Ryd( 3d)     0.00073       2.07186
   149    C    9  dx2y2  Ryd( 3d)     0.00082       2.27187
   150    C    9  dz2    Ryd( 3d)     0.00070       2.11687

   151    H   10  S      Val( 1S)     0.78088       0.02716
   152    H   10  S      Ryd( 2S)     0.00104       0.67809
   153    H   10  S      Ryd( 3S)     0.00014       2.05017
   154    H   10  px     Ryd( 2p)     0.00018       1.82233
   155    H   10  py     Ryd( 2p)     0.00015       1.99021
   156    H   10  pz     Ryd( 2p)     0.00023       2.37292

   157    H   11  S      Val( 1S)     0.78088       0.02718
   158    H   11  S      Ryd( 2S)     0.00104       0.67825
   159    H   11  S      Ryd( 3S)     0.00014       2.04989
   160    H   11  px     Ryd( 2p)     0.00018       1.82277
   161    H   11  py     Ryd( 2p)     0.00015       1.99175
   162    H   11  pz     Ryd( 2p)     0.00023       2.37103

   163    H   12  S      Val( 1S)     0.78129       0.02474
   164    H   12  S      Ryd( 2S)     0.00047       0.55558
   165    H   12  S      Ryd( 3S)     0.00008       2.16103
   166    H   12  px     Ryd( 2p)     0.00018       1.88371
   167    H   12  py     Ryd( 2p)     0.00024       2.53112
   168    H   12  pz     Ryd( 2p)     0.00009       1.72651

 WARNING:  1 low occupancy (<1.9990e) core orbital  found on  C    1

 WARNING:  Population inversion found on atom  C    1
           Population inversion found on atom  C    2
           Population inversion found on atom  C    3
           Population inversion found on atom  C    4
           Population inversion found on atom  C    9


 Summary of Natural Population Analysis:                  
                                                          
                                       Natural Population 
                Natural  -----------------------------------------------
    Atom  No    Charge         Core      Valence    Rydberg      Total
 -----------------------------------------------------------------------
      C    1    0.30325      1.99899     3.67248    0.02527     5.69675
      C    2   -0.31086      1.99901     4.29601    0.01584     6.31086
      C    3   -0.30161      1.99917     4.28603    0.01641     6.30161
      C    4    0.10875      1.99906     3.86594    0.02625     5.89125
      O    5   -0.47617      1.99972     6.45977    0.01668     8.47617
      H    6    0.22052      0.00000     0.77813    0.00135     0.77948
      H    7    0.22123      0.00000     0.77733    0.00144     0.77877
      H    8    0.19711      0.00000     0.80140    0.00149     0.80289
      C    9   -0.61462      1.99929     4.60633    0.00900     6.61462
      H   10    0.21737      0.00000     0.78088    0.00175     0.78263
      H   11    0.21737      0.00000     0.78088    0.00175     0.78263
      H   12    0.21765      0.00000     0.78129    0.00106     0.78235
 =======================================================================
   * Total *    0.00000     11.99524    31.88648    0.11828    44.00000

                                 Natural Population      
 --------------------------------------------------------
   Core                      11.99524 ( 99.9603% of  12)
   Valence                   31.88648 ( 99.6453% of  32)
   Natural Minimal Basis     43.88172 ( 99.7312% of  44)
   Natural Rydberg Basis      0.11828 (  0.2688% of  44)
 --------------------------------------------------------

    Atom  No          Natural Electron Configuration
 ----------------------------------------------------------------------------
      C    1      [core]2S( 0.86)2p( 2.82)3d( 0.01)4p( 0.01)
      C    2      [core]2S( 0.96)2p( 3.34)4p( 0.01)
      C    3      [core]2S( 0.97)2p( 3.31)4p( 0.01)
      C    4      [core]2S( 0.93)2p( 2.93)3d( 0.01)4p( 0.01)
      O    5      [core]2S( 1.60)2p( 4.86)3p( 0.01)
      H    6            1S( 0.78)
      H    7            1S( 0.78)
      H    8            1S( 0.80)
      C    9      [core]2S( 1.09)2p( 3.52)
      H   10            1S( 0.78)
      H   11            1S( 0.78)
      H   12            1S( 0.78)


 NBO analysis skipped by request.
 1\1\GINC-COREV2-22-035\SP\RB3LYP\6-311+G(d,p)\C5H6O1\ROOT\23-Jul-2021\
 0\\# b3lyp/6-311+g(d,p) geom=connectivity pop=(hirshfeld,chelpg,mbs,np
 a)\\Table6_4\\0,1\C,0,0.63994,0.106482,-0.000333\C,0,-0.21916,1.162714
 ,-0.000114\C,0,-1.54719,0.616372,0.000009\C,0,-1.399364,-0.732035,0.00
 0119\O,0,-0.073639,-1.06202,0.000037\H,0,0.057454,2.20535,-0.000258\H,
 0,-2.479594,1.15837,0.001028\H,0,-2.089991,-1.557987,-0.000781\C,0,2.1
 21434,-0.015794,0.000124\H,0,2.475623,-0.555106,0.884167\H,0,2.476211,
 -0.557064,-0.882464\H,0,2.575447,0.976162,-0.000816\\Version=ES64L-G09
 RevD.01\State=1-A\HF=-269.420666\RMSD=7.583e-09\Dipole=0.1217241,0.248
 325,0.0000698\Quadrupole=2.865656,0.0250871,-2.8907431,0.8146974,-0.00
 02242,0.0020472\PG=C01 [X(C5H6O1)]\\@


 A true friend is someone who is there for
 you when he'd rather be anywhere else.
                               -- Len Wein
 Job cpu time:       0 days  0 hours  1 minutes 52.6 seconds.
 File lengths (MBytes):  RWF=     66 Int=      0 D2E=      0 Chk=      2 Scr=      1
 Normal termination of Gaussian 09 at Fri Jul 23 17:36:06 2021.
