 Entering Gaussian System, Link 0=g09
 Initial command:
 /cm/shared/apps/gaussian/g09revD.01/g09/l1.exe "//home/sweav003/HartwigDocs/IrCatHeteroarenes/G09-Chart3_3.com.o9624836.tmp/Gau-54088.inp" -scrdir="//home/sweav003/HartwigDocs/IrCatHeteroarenes/G09-Chart3_3.com.o9624836.tmp/"
 Entering Link 1 = /cm/shared/apps/gaussian/g09revD.01/g09/l1.exe PID=     54089.
  
 Copyright (c) 1988,1990,1992,1993,1995,1998,2003,2009,2013,
            Gaussian, Inc.  All Rights Reserved.
  
 This is part of the Gaussian(R) 09 program.  It is based on
 the Gaussian(R) 03 system (copyright 2003, Gaussian, Inc.),
 the Gaussian(R) 98 system (copyright 1998, Gaussian, Inc.),
 the Gaussian(R) 94 system (copyright 1995, Gaussian, Inc.),
 the Gaussian 92(TM) system (copyright 1992, Gaussian, Inc.),
 the Gaussian 90(TM) system (copyright 1990, Gaussian, Inc.),
 the Gaussian 88(TM) system (copyright 1988, Gaussian, Inc.),
 the Gaussian 86(TM) system (copyright 1986, Carnegie Mellon
 University), and the Gaussian 82(TM) system (copyright 1983,
 Carnegie Mellon University). Gaussian is a federally registered
 trademark of Gaussian, Inc.
  
 This software contains proprietary and confidential information,
 including trade secrets, belonging to Gaussian, Inc.
  
 This software is provided under written license and may be
 used, copied, transmitted, or stored only in accord with that
 written license.
  
 The following legend is applicable only to US Government
 contracts under FAR:
  
                    RESTRICTED RIGHTS LEGEND
  
 Use, reproduction and disclosure by the US Government is
 subject to restrictions as set forth in subparagraphs (a)
 and (c) of the Commercial Computer Software - Restricted
 Rights clause in FAR 52.227-19.
  
 Gaussian, Inc.
 340 Quinnipiac St., Bldg. 40, Wallingford CT 06492
  
  
 ---------------------------------------------------------------
 Warning -- This program may not be used in any manner that
 competes with the business of Gaussian, Inc. or will provide
 assistance to any competitor of Gaussian, Inc.  The licensee
 of this program is prohibited from giving any competitor of
 Gaussian, Inc. access to this program.  By using this program,
 the user acknowledges that Gaussian, Inc. is engaged in the
 business of creating and licensing software in the field of
 computational chemistry and represents and warrants to the
 licensee that it is not a competitor of Gaussian, Inc. and that
 it will not use this program in any manner prohibited above.
 ---------------------------------------------------------------
  

 Cite this work as:
 Gaussian 09, Revision D.01,
 M. J. Frisch, G. W. Trucks, H. B. Schlegel, G. E. Scuseria, 
 M. A. Robb, J. R. Cheeseman, G. Scalmani, V. Barone, B. Mennucci, 
 G. A. Petersson, H. Nakatsuji, M. Caricato, X. Li, H. P. Hratchian, 
 A. F. Izmaylov, J. Bloino, G. Zheng, J. L. Sonnenberg, M. Hada, 
 M. Ehara, K. Toyota, R. Fukuda, J. Hasegawa, M. Ishida, T. Nakajima, 
 Y. Honda, O. Kitao, H. Nakai, T. Vreven, J. A. Montgomery, Jr., 
 J. E. Peralta, F. Ogliaro, M. Bearpark, J. J. Heyd, E. Brothers, 
 K. N. Kudin, V. N. Staroverov, T. Keith, R. Kobayashi, J. Normand, 
 K. Raghavachari, A. Rendell, J. C. Burant, S. S. Iyengar, J. Tomasi, 
 M. Cossi, N. Rega, J. M. Millam, M. Klene, J. E. Knox, J. B. Cross, 
 V. Bakken, C. Adamo, J. Jaramillo, R. Gomperts, R. E. Stratmann, 
 O. Yazyev, A. J. Austin, R. Cammi, C. Pomelli, J. W. Ochterski, 
 R. L. Martin, K. Morokuma, V. G. Zakrzewski, G. A. Voth, 
 P. Salvador, J. J. Dannenberg, S. Dapprich, A. D. Daniels, 
 O. Farkas, J. B. Foresman, J. V. Ortiz, J. Cioslowski, 
 and D. J. Fox, Gaussian, Inc., Wallingford CT, 2013.
 
 ******************************************
 Gaussian 09:  ES64L-G09RevD.01 24-Apr-2013
                 1-Nov-2021 
 ******************************************
 %mem=100MW
 %nprocshared=20
 Will use up to   20 processors via shared memory.
 %chk=Chart3_3.chk
 ----------------------------------------------------------------------
 # opt freq b3lyp/6-311+g(d,p) geom=connectivity pop=(hirshfeld,chelpg,
 mbs,npa)
 ----------------------------------------------------------------------
 1/14=-1,18=20,19=15,26=3,38=1,57=2/1,3;
 2/9=110,12=2,17=6,18=5,40=1/2;
 3/5=4,6=6,7=111,11=2,16=1,25=1,30=1,71=1,74=-5/1,2,3;
 4//1;
 5/5=2,38=5/2;
 6/7=2,8=2,9=2,10=2,15=8,20=3,27=100,28=1,40=-1,79=1/1,2,7;
 7//1,2,3,16;
 1/14=-1,18=20,19=15,26=3/3(2);
 2/9=110/2;
 99//99;
 2/9=110/2;
 3/5=4,6=6,7=111,11=2,16=1,25=1,30=1,71=1,74=-5/1,2,3;
 4/5=5,16=3,69=1/1;
 5/5=2,38=5/2;
 7//1,2,3,16;
 1/14=-1,18=20,19=15,26=3/3(-5);
 2/9=110/2;
 6/7=2,8=2,9=2,10=2,15=8,19=2,20=3,27=100,28=1,40=-1,79=1/1,2,7;
 99/9=1/99;
 -------------------
 Title Card Required
 -------------------
 Symbolic Z-matrix:
 Charge =  0 Multiplicity = 1
 C                    -2.8242   -0.89692   0.37713 
 C                    -1.48316  -1.12018   0.07834 
 C                    -0.75808  -0.24757  -0.67476 
 C                    -1.27493   0.97689  -1.08784 
 C                    -2.62062   1.25945  -0.77461 
 C                    -3.40101   0.31364  -0.05995 
 H                    -3.05539   2.18851  -1.07909 
 C                     0.57886  -1.93369   0.05393 
 N                    -0.62261  -2.23141   0.49405 
 C                     1.86202  -2.65012   0.51416 
 H                     2.58126  -2.63746  -0.27795 
 H                     2.26403  -2.14762   1.36902 
 H                     1.63232  -3.66308   0.77119 
 H                    -3.39621  -1.61625   0.9251 
 N                     0.56044  -0.82094  -0.93091 
 H                     0.6248   -1.173    -1.86468 
 H                    -4.42934   0.52107   0.15077 
 C                    -0.40981   1.98477  -1.86716 
 H                     0.61388   1.87692  -1.57504 
 H                    -0.5028    1.79809  -2.91663 
 H                    -0.73941   2.97958  -1.65127 
 

 GradGradGradGradGradGradGradGradGradGradGradGradGradGradGradGradGradGrad
 Berny optimization.
 Initialization pass.
                           ----------------------------
                           !    Initial Parameters    !
                           ! (Angstroms and Degrees)  !
 --------------------------                            --------------------------
 ! Name  Definition              Value          Derivative Info.                !
 --------------------------------------------------------------------------------
 ! R1    R(1,2)                  1.3919         estimate D2E/DX2                !
 ! R2    R(1,6)                  1.4104         estimate D2E/DX2                !
 ! R3    R(1,14)                 1.07           estimate D2E/DX2                !
 ! R4    R(2,3)                  1.3618         estimate D2E/DX2                !
 ! R5    R(2,9)                  1.4657         estimate D2E/DX2                !
 ! R6    R(3,4)                  1.3918         estimate D2E/DX2                !
 ! R7    R(3,15)                 1.4604         estimate D2E/DX2                !
 ! R8    R(4,5)                  1.4103         estimate D2E/DX2                !
 ! R9    R(4,18)                 1.54           estimate D2E/DX2                !
 ! R10   R(5,6)                  1.4193         estimate D2E/DX2                !
 ! R11   R(5,7)                  1.07           estimate D2E/DX2                !
 ! R12   R(6,17)                 1.07           estimate D2E/DX2                !
 ! R13   R(8,9)                  1.3137         estimate D2E/DX2                !
 ! R14   R(8,10)                 1.54           estimate D2E/DX2                !
 ! R15   R(8,15)                 1.4861         estimate D2E/DX2                !
 ! R16   R(10,11)                1.07           estimate D2E/DX2                !
 ! R17   R(10,12)                1.07           estimate D2E/DX2                !
 ! R18   R(10,13)                1.07           estimate D2E/DX2                !
 ! R19   R(15,16)                1.0            estimate D2E/DX2                !
 ! R20   R(18,19)                1.07           estimate D2E/DX2                !
 ! R21   R(18,20)                1.07           estimate D2E/DX2                !
 ! R22   R(18,21)                1.07           estimate D2E/DX2                !
 ! A1    A(2,1,6)              117.7207         estimate D2E/DX2                !
 ! A2    A(2,1,14)             121.1409         estimate D2E/DX2                !
 ! A3    A(6,1,14)             121.1372         estimate D2E/DX2                !
 ! A4    A(1,2,3)              121.9328         estimate D2E/DX2                !
 ! A5    A(1,2,9)              128.7845         estimate D2E/DX2                !
 ! A6    A(3,2,9)              109.2725         estimate D2E/DX2                !
 ! A7    A(2,3,4)              122.0166         estimate D2E/DX2                !
 ! A8    A(2,3,15)             109.0345         estimate D2E/DX2                !
 ! A9    A(4,3,15)             128.9489         estimate D2E/DX2                !
 ! A10   A(3,4,5)              117.6913         estimate D2E/DX2                !
 ! A11   A(3,4,18)             121.1553         estimate D2E/DX2                !
 ! A12   A(5,4,18)             121.1524         estimate D2E/DX2                !
 ! A13   A(4,5,6)              120.1987         estimate D2E/DX2                !
 ! A14   A(4,5,7)              119.9002         estimate D2E/DX2                !
 ! A15   A(6,5,7)              119.9008         estimate D2E/DX2                !
 ! A16   A(1,6,5)              120.2094         estimate D2E/DX2                !
 ! A17   A(1,6,17)             119.8948         estimate D2E/DX2                !
 ! A18   A(5,6,17)             119.8954         estimate D2E/DX2                !
 ! A19   A(9,8,10)             123.8122         estimate D2E/DX2                !
 ! A20   A(9,8,15)             112.3568         estimate D2E/DX2                !
 ! A21   A(10,8,15)            123.8296         estimate D2E/DX2                !
 ! A22   A(2,9,8)              105.6722         estimate D2E/DX2                !
 ! A23   A(8,10,11)            109.4712         estimate D2E/DX2                !
 ! A24   A(8,10,12)            109.4712         estimate D2E/DX2                !
 ! A25   A(8,10,13)            109.4712         estimate D2E/DX2                !
 ! A26   A(11,10,12)           109.4712         estimate D2E/DX2                !
 ! A27   A(11,10,13)           109.4712         estimate D2E/DX2                !
 ! A28   A(12,10,13)           109.4712         estimate D2E/DX2                !
 ! A29   A(3,15,8)             100.8905         estimate D2E/DX2                !
 ! A30   A(3,15,16)            111.1067         estimate D2E/DX2                !
 ! A31   A(8,15,16)            110.757          estimate D2E/DX2                !
 ! A32   A(4,18,19)            109.4712         estimate D2E/DX2                !
 ! A33   A(4,18,20)            109.4712         estimate D2E/DX2                !
 ! A34   A(4,18,21)            109.4712         estimate D2E/DX2                !
 ! A35   A(19,18,20)           109.4712         estimate D2E/DX2                !
 ! A36   A(19,18,21)           109.4712         estimate D2E/DX2                !
 ! A37   A(20,18,21)           109.4712         estimate D2E/DX2                !
 ! D1    D(6,1,2,3)             -3.7314         estimate D2E/DX2                !
 ! D2    D(6,1,2,9)            174.9807         estimate D2E/DX2                !
 ! D3    D(14,1,2,3)           176.6527         estimate D2E/DX2                !
 ! D4    D(14,1,2,9)            -4.6351         estimate D2E/DX2                !
 ! D5    D(2,1,6,5)             -0.2062         estimate D2E/DX2                !
 ! D6    D(2,1,6,17)           179.9996         estimate D2E/DX2                !
 ! D7    D(14,1,6,5)           179.4096         estimate D2E/DX2                !
 ! D8    D(14,1,6,17)           -0.3846         estimate D2E/DX2                !
 ! D9    D(1,2,3,4)              6.0302         estimate D2E/DX2                !
 ! D10   D(1,2,3,15)          -174.04           estimate D2E/DX2                !
 ! D11   D(9,2,3,4)           -172.9063         estimate D2E/DX2                !
 ! D12   D(9,2,3,15)             7.0235         estimate D2E/DX2                !
 ! D13   D(1,2,9,8)           -174.819          estimate D2E/DX2                !
 ! D14   D(3,2,9,8)              4.0232         estimate D2E/DX2                !
 ! D15   D(2,3,4,5)             -4.054          estimate D2E/DX2                !
 ! D16   D(2,3,4,18)           176.2985         estimate D2E/DX2                !
 ! D17   D(15,3,4,5)           176.0313         estimate D2E/DX2                !
 ! D18   D(15,3,4,18)           -3.6161         estimate D2E/DX2                !
 ! D19   D(2,3,15,8)           -13.842          estimate D2E/DX2                !
 ! D20   D(2,3,15,16)          103.6177         estimate D2E/DX2                !
 ! D21   D(4,3,15,8)           166.0815         estimate D2E/DX2                !
 ! D22   D(4,3,15,16)          -76.4588         estimate D2E/DX2                !
 ! D23   D(3,4,5,6)              0.1057         estimate D2E/DX2                !
 ! D24   D(3,4,5,7)           -179.7197         estimate D2E/DX2                !
 ! D25   D(18,4,5,6)           179.7532         estimate D2E/DX2                !
 ! D26   D(18,4,5,7)            -0.0723         estimate D2E/DX2                !
 ! D27   D(3,4,18,19)          -30.1824         estimate D2E/DX2                !
 ! D28   D(3,4,18,20)           89.8176         estimate D2E/DX2                !
 ! D29   D(3,4,18,21)         -150.1824         estimate D2E/DX2                !
 ! D30   D(5,4,18,19)          150.1824         estimate D2E/DX2                !
 ! D31   D(5,4,18,20)          -89.8176         estimate D2E/DX2                !
 ! D32   D(5,4,18,21)           30.1824         estimate D2E/DX2                !
 ! D33   D(4,5,6,1)              1.9502         estimate D2E/DX2                !
 ! D34   D(4,5,6,17)          -178.2556         estimate D2E/DX2                !
 ! D35   D(7,5,6,1)           -178.2243         estimate D2E/DX2                !
 ! D36   D(7,5,6,17)             1.5699         estimate D2E/DX2                !
 ! D37   D(10,8,9,2)           166.0478         estimate D2E/DX2                !
 ! D38   D(15,8,9,2)           -13.5435         estimate D2E/DX2                !
 ! D39   D(9,8,10,11)          150.2275         estimate D2E/DX2                !
 ! D40   D(9,8,10,12)          -89.7725         estimate D2E/DX2                !
 ! D41   D(9,8,10,13)           30.2275         estimate D2E/DX2                !
 ! D42   D(15,8,10,11)         -30.2275         estimate D2E/DX2                !
 ! D43   D(15,8,10,12)          89.7725         estimate D2E/DX2                !
 ! D44   D(15,8,10,13)        -150.2275         estimate D2E/DX2                !
 ! D45   D(9,8,15,3)            17.2491         estimate D2E/DX2                !
 ! D46   D(9,8,15,16)         -100.4666         estimate D2E/DX2                !
 ! D47   D(10,8,15,3)         -162.3421         estimate D2E/DX2                !
 ! D48   D(10,8,15,16)          79.9422         estimate D2E/DX2                !
 --------------------------------------------------------------------------------
 Trust Radius=3.00D-01 FncErr=1.00D-07 GrdErr=1.00D-06
 Number of steps in this run=    117 maximum allowed number of steps=    126.
 GradGradGradGradGradGradGradGradGradGradGradGradGradGradGradGradGradGrad

                          Input orientation:                          
 ---------------------------------------------------------------------
 Center     Atomic      Atomic             Coordinates (Angstroms)
 Number     Number       Type             X           Y           Z
 ---------------------------------------------------------------------
      1          6           0       -2.824197   -0.896921    0.377133
      2          6           0       -1.483163   -1.120183    0.078341
      3          6           0       -0.758076   -0.247565   -0.674763
      4          6           0       -1.274930    0.976889   -1.087839
      5          6           0       -2.620620    1.259447   -0.774609
      6          6           0       -3.401009    0.313639   -0.059952
      7          1           0       -3.055394    2.188513   -1.079091
      8          6           0        0.578859   -1.933688    0.053927
      9          7           0       -0.622607   -2.231407    0.494047
     10          6           0        1.862020   -2.650124    0.514163
     11          1           0        2.581257   -2.637460   -0.277946
     12          1           0        2.264030   -2.147618    1.369017
     13          1           0        1.632319   -3.663076    0.771194
     14          1           0       -3.396213   -1.616250    0.925096
     15          7           0        0.560438   -0.820945   -0.930914
     16          1           0        0.624803   -1.173000   -1.864678
     17          1           0       -4.429341    0.521073    0.150773
     18          6           0       -0.409807    1.984770   -1.867158
     19          1           0        0.613882    1.876919   -1.575044
     20          1           0       -0.502804    1.798086   -2.916634
     21          1           0       -0.739405    2.979585   -1.651270
 ---------------------------------------------------------------------
                    Distance matrix (angstroms):
                    1          2          3          4          5
     1  C    0.000000
     2  C    1.391939   0.000000
     3  C    2.407697   1.361756   0.000000
     4  C    2.838580   2.408536   1.391782   0.000000
     5  C    2.453136   2.771998   2.397942   1.410261   0.000000
     6  C    1.410394   2.398563   2.770928   2.452889   1.419258
     7  H    3.419641   3.841748   3.372777   2.153639   1.070000
     8  C    3.572133   2.216826   2.271870   3.634779   4.595569
     9  N    2.577115   1.465670   2.306534   3.636076   4.217536
    10  C    5.005309   3.704174   3.748431   5.055896   6.086028
    11  H    5.716427   4.352996   4.125555   5.346926   6.518596
    12  H    5.332742   4.094255   4.113437   5.321929   6.329537
    13  H    5.259984   4.080757   4.412538   5.782506   6.686422
    14  H    1.070000   2.150078   3.375295   3.908467   3.429311
    15  N    3.629396   2.298792   1.460430   2.573987   3.804155
    16  H    4.122806   2.867338   2.045649   2.972286   4.199741
    17  H    2.153702   3.373267   3.840638   3.419391   2.161712
    18  C    4.378386   3.818087   2.554685   1.540000   2.570497
    19  H    4.829655   4.014212   2.684438   2.148263   3.388801
    20  H    4.847765   4.295028   3.045625   2.148263   3.059992
    21  H    4.846450   4.511411   3.371707   2.148263   2.695622
                    6          7          8          9         10
     6  C    0.000000
     7  H    2.161769   0.000000
     8  C    4.571957   5.611066   0.000000
     9  N    3.808372   5.284781   1.313720   0.000000
    10  C    6.067369   7.080383   1.540000   2.519741   0.000000
    11  H    6.674130   7.463490   2.148263   3.320481   1.070000
    12  H    6.339748   7.286394   2.148263   3.017493   1.070000
    13  H    6.468343   7.722648   2.148263   2.685363   1.070000
    14  H    2.166752   4.313832   4.081776   2.873519   5.374641
    15  N    4.211760   4.706701   1.486085   2.327985   2.669880
    16  H    4.655566   5.045865   2.064413   2.870512   3.061288
    17  H    1.070000   2.486092   5.578288   4.710118   7.054768
    18  C    3.873753   2.767976   4.474632   4.837016   5.684551
    19  H    4.567132   3.715729   4.144334   4.763233   5.139723
    20  H    4.331721   3.169339   4.890845   5.280522   6.095025
    21  H    4.089461   2.513362   5.365237   5.636530   6.568876
                   11         12         13         14         15
    11  H    0.000000
    12  H    1.747303   0.000000
    13  H    1.747303   1.747303   0.000000
    14  H    6.182259   5.702436   5.431327   0.000000
    15  N    2.794602   3.154675   3.481926   4.442114   0.000000
    16  H    2.913773   3.754162   3.763428   4.914049   1.000000
    17  H    7.701208   7.308026   7.391599   2.497014   5.279105
    18  C    5.730363   5.890574   6.559675   5.448178   3.112870
    19  H    5.092411   5.252370   6.101934   5.876546   2.774208
    20  H    6.012335   6.449090   6.926984   5.898169   3.454401
    21  H    6.668134   6.665656   7.457771   5.900677   4.080751
                   16         17         18         19         20
    16  H    0.000000
    17  H    5.698797   0.000000
    18  C    3.322940   4.729810   0.000000
    19  H    3.063660   5.500078   1.070000   0.000000
    20  H    3.347455   5.143679   1.070000   1.747303   0.000000
    21  H    4.376136   4.786153   1.070000   1.747303   1.747303
                   21
    21  H    0.000000
 Stoichiometry    C9H10N2
 Framework group  C1[X(C9H10N2)]
 Deg. of freedom    57
 Full point group                 C1      NOp   1
 Largest Abelian subgroup         C1      NOp   1
 Largest concise Abelian subgroup C1      NOp   1
                         Standard orientation:                         
 ---------------------------------------------------------------------
 Center     Atomic      Atomic             Coordinates (Angstroms)
 Number     Number       Type             X           Y           Z
 ---------------------------------------------------------------------
      1          6           0       -0.893622   -1.955882   -0.036800
      2          6           0        0.116842   -0.999700   -0.083419
      3          6           0       -0.154598    0.334526   -0.106655
      4          6           0       -1.448232    0.826972    0.038488
      5          6           0       -2.499736   -0.108752    0.125646
      6          6           0       -2.224162   -1.499778    0.067336
      7          1           0       -3.508609    0.231093    0.233258
      8          6           0        2.091888    0.005435   -0.026699
      9          7           0        1.569007   -1.198113   -0.089380
     10          6           0        3.571279    0.281093    0.300433
     11          1           0        3.882172    1.182134   -0.185747
     12          1           0        3.688651    0.388003    1.358589
     13          1           0        4.170902   -0.535330   -0.044250
     14          1           0       -0.668275   -3.001276   -0.072410
     15          7           0        1.092025    1.070946   -0.297639
     16          1           0        1.173773    1.403000   -1.237351
     17          1           0       -3.028134   -2.204795    0.105811
     18          6           0       -1.722767    2.341299    0.093657
     19          1           0       -0.879914    2.841160    0.523353
     20          1           0       -1.889151    2.709938   -0.896960
     21          1           0       -2.589983    2.524962    0.692910
 ---------------------------------------------------------------------
 Rotational constants (GHZ):      2.0609645      0.9170665      0.6478822
 Standard basis: 6-311+G(d,p) (5D, 7F)
 There are   313 symmetry adapted cartesian basis functions of A   symmetry.
 There are   302 symmetry adapted basis functions of A   symmetry.
   302 basis functions,   476 primitive gaussians,   313 cartesian basis functions
    39 alpha electrons       39 beta electrons
       nuclear repulsion energy       569.8378496196 Hartrees.
 NAtoms=   21 NActive=   21 NUniq=   21 SFac= 1.00D+00 NAtFMM=   60 NAOKFM=F Big=F
 Integral buffers will be    131072 words long.
 Raffenetti 2 integral format.
 Two-electron integral symmetry is turned on.
 One-electron integrals computed using PRISM.
 NBasis=   302 RedAO= T EigKep=  1.24D-06  NBF=   302
 NBsUse=   301 1.00D-06 EigRej=  7.75D-07 NBFU=   301
 ExpMin= 4.38D-02 ExpMax= 6.29D+03 ExpMxC= 9.49D+02 IAcc=2 IRadAn=         4 AccDes= 0.00D+00
 Harris functional with IExCor=  402 and IRadAn=       4 diagonalized for initial guess.
 HarFok:  IExCor=  402 AccDes= 0.00D+00 IRadAn=         4 IDoV= 1 UseB2=F ITyADJ=14
 ICtDFT=  3500011 ScaDFX=  1.000000  1.000000  1.000000  1.000000
 FoFCou: FMM=F IPFlag=           0 FMFlag=      100000 FMFlg1=           0
         NFxFlg=           0 DoJE=T BraDBF=F KetDBF=T FulRan=T
         wScrn=  0.000000 ICntrl=     500 IOpCl=  0 I1Cent=   200000004 NGrid=           0
         NMat0=    1 NMatS0=      1 NMatT0=    0 NMatD0=    1 NMtDS0=    0 NMtDT0=    0
 Petite list used in FoFCou.
 Requested convergence on RMS density matrix=1.00D-08 within 128 cycles.
 Requested convergence on MAX density matrix=1.00D-06.
 Requested convergence on             energy=1.00D-06.
 No special actions if energy rises.
 SCF Done:  E(RB3LYP) =  -458.586853300     A.U. after   15 cycles
            NFock= 15  Conv=0.81D-08     -V/T= 2.0047

 **********************************************************************

            Population analysis using the SCF density.

 **********************************************************************

 Orbital symmetries:
       Occupied  (A) (A) (A) (A) (A) (A) (A) (A) (A) (A) (A) (A)
                 (A) (A) (A) (A) (A) (A) (A) (A) (A) (A) (A) (A)
                 (A) (A) (A) (A) (A) (A) (A) (A) (A) (A) (A) (A)
                 (A) (A) (A)
       Virtual   (A) (A) (A) (A) (A) (A) (A) (A) (A) (A) (A) (A)
                 (A) (A) (A) (A) (A) (A) (A) (A) (A) (A) (A) (A)
                 (A) (A) (A) (A) (A) (A) (A) (A) (A) (A) (A) (A)
                 (A) (A) (A) (A) (A) (A) (A) (A) (A) (A) (A) (A)
                 (A) (A) (A) (A) (A) (A) (A) (A) (A) (A) (A) (A)
                 (A) (A) (A) (A) (A) (A) (A) (A) (A) (A) (A) (A)
                 (A) (A) (A) (A) (A) (A) (A) (A) (A) (A) (A) (A)
                 (A) (A) (A) (A) (A) (A) (A) (A) (A) (A) (A) (A)
                 (A) (A) (A) (A) (A) (A) (A) (A) (A) (A) (A) (A)
                 (A) (A) (A) (A) (A) (A) (A) (A) (A) (A) (A) (A)
                 (A) (A) (A) (A) (A) (A) (A) (A) (A) (A) (A) (A)
                 (A) (A) (A) (A) (A) (A) (A) (A) (A) (A) (A) (A)
                 (A) (A) (A) (A) (A) (A) (A) (A) (A) (A) (A) (A)
                 (A) (A) (A) (A) (A) (A) (A) (A) (A) (A) (A) (A)
                 (A) (A) (A) (A) (A) (A) (A) (A) (A) (A) (A) (A)
                 (A) (A) (A) (A) (A) (A) (A) (A) (A) (A) (A) (A)
                 (A) (A) (A) (A) (A) (A) (A) (A) (A) (A) (A) (A)
                 (A) (A) (A) (A) (A) (A) (A) (A) (A) (A) (A) (A)
                 (A) (A) (A) (A) (A) (A) (A) (A) (A) (A) (A) (A)
                 (A) (A) (A) (A) (A) (A) (A) (A) (A) (A) (A) (A)
                 (A) (A) (A) (A) (A) (A) (A) (A) (A) (A) (A) (A)
                 (A) (A) (A) (A) (A) (A) (A) (A) (A) (A)
 The electronic state is 1-A.
 Alpha  occ. eigenvalues --  -14.34446 -14.31294 -10.25925 -10.20419 -10.20075
 Alpha  occ. eigenvalues --  -10.19188 -10.18464 -10.17880 -10.17694 -10.17614
 Alpha  occ. eigenvalues --  -10.16593  -0.99100  -0.86527  -0.85366  -0.77327
 Alpha  occ. eigenvalues --   -0.76325  -0.71807  -0.69365  -0.60561  -0.59810
 Alpha  occ. eigenvalues --   -0.57190  -0.52744  -0.49155  -0.48005  -0.46493
 Alpha  occ. eigenvalues --   -0.44250  -0.43279  -0.42269  -0.41356  -0.41019
 Alpha  occ. eigenvalues --   -0.39601  -0.39202  -0.36752  -0.36023  -0.32860
 Alpha  occ. eigenvalues --   -0.30411  -0.27270  -0.24113  -0.23478
 Alpha virt. eigenvalues --   -0.03859  -0.01312  -0.00419   0.01025   0.01496
 Alpha virt. eigenvalues --    0.02054   0.02878   0.03892   0.04502   0.04604
 Alpha virt. eigenvalues --    0.05270   0.06409   0.06639   0.07350   0.07820
 Alpha virt. eigenvalues --    0.08057   0.08609   0.10083   0.10506   0.11449
 Alpha virt. eigenvalues --    0.11875   0.12095   0.12946   0.13413   0.14010
 Alpha virt. eigenvalues --    0.14210   0.15227   0.15906   0.16120   0.17242
 Alpha virt. eigenvalues --    0.17738   0.18056   0.18361   0.18890   0.19207
 Alpha virt. eigenvalues --    0.19667   0.19950   0.20576   0.21136   0.21746
 Alpha virt. eigenvalues --    0.22144   0.22256   0.22567   0.22872   0.23931
 Alpha virt. eigenvalues --    0.24619   0.24919   0.25621   0.26061   0.26614
 Alpha virt. eigenvalues --    0.26772   0.27371   0.27696   0.28308   0.29177
 Alpha virt. eigenvalues --    0.30055   0.30881   0.31167   0.32476   0.33153
 Alpha virt. eigenvalues --    0.33837   0.34464   0.37036   0.37716   0.38544
 Alpha virt. eigenvalues --    0.41021   0.43291   0.44197   0.44675   0.46592
 Alpha virt. eigenvalues --    0.48332   0.50149   0.52493   0.52960   0.53645
 Alpha virt. eigenvalues --    0.54505   0.55569   0.57045   0.58340   0.59052
 Alpha virt. eigenvalues --    0.60045   0.60763   0.61220   0.62917   0.63621
 Alpha virt. eigenvalues --    0.64275   0.65409   0.67330   0.67551   0.67938
 Alpha virt. eigenvalues --    0.68963   0.70237   0.71129   0.72118   0.72792
 Alpha virt. eigenvalues --    0.74031   0.75802   0.76698   0.78709   0.79989
 Alpha virt. eigenvalues --    0.81854   0.82457   0.82923   0.84408   0.85372
 Alpha virt. eigenvalues --    0.86773   0.88263   0.90102   0.91543   0.91729
 Alpha virt. eigenvalues --    0.92782   0.93442   0.95727   0.96373   0.97348
 Alpha virt. eigenvalues --    0.99174   1.00357   1.01349   1.02566   1.05153
 Alpha virt. eigenvalues --    1.07626   1.08840   1.11110   1.12143   1.17771
 Alpha virt. eigenvalues --    1.20471   1.22923   1.27717   1.30210   1.34175
 Alpha virt. eigenvalues --    1.34568   1.37582   1.39483   1.42279   1.44364
 Alpha virt. eigenvalues --    1.46817   1.49048   1.49950   1.51071   1.51468
 Alpha virt. eigenvalues --    1.53002   1.54010   1.55479   1.56281   1.57261
 Alpha virt. eigenvalues --    1.57692   1.59988   1.60776   1.62475   1.63773
 Alpha virt. eigenvalues --    1.66273   1.67706   1.68333   1.70499   1.73010
 Alpha virt. eigenvalues --    1.74175   1.77161   1.78558   1.80141   1.83437
 Alpha virt. eigenvalues --    1.85109   1.86017   1.88289   1.90336   1.91002
 Alpha virt. eigenvalues --    1.92193   1.92786   1.94770   1.97437   1.99556
 Alpha virt. eigenvalues --    2.00185   2.02964   2.03384   2.06262   2.10665
 Alpha virt. eigenvalues --    2.12268   2.15444   2.18215   2.19885   2.21303
 Alpha virt. eigenvalues --    2.23532   2.28009   2.32695   2.34294   2.35869
 Alpha virt. eigenvalues --    2.38607   2.40633   2.47052   2.47477   2.48024
 Alpha virt. eigenvalues --    2.49679   2.51700   2.52750   2.53871   2.55809
 Alpha virt. eigenvalues --    2.56733   2.59063   2.60167   2.60754   2.61561
 Alpha virt. eigenvalues --    2.63638   2.64508   2.67952   2.68848   2.70373
 Alpha virt. eigenvalues --    2.71312   2.74086   2.74745   2.75669   2.77689
 Alpha virt. eigenvalues --    2.79767   2.81164   2.83972   2.85643   2.87374
 Alpha virt. eigenvalues --    2.89660   2.92800   2.93616   2.95311   2.96399
 Alpha virt. eigenvalues --    2.98002   3.01312   3.09319   3.10555   3.14859
 Alpha virt. eigenvalues --    3.17846   3.20395   3.34628   3.37152   3.43944
 Alpha virt. eigenvalues --    3.47389   3.53794   3.56323   3.66360   3.75648
 Alpha virt. eigenvalues --    3.83206   3.85817   3.86896   3.87447   3.94785
 Alpha virt. eigenvalues --    3.97881   4.03803   4.08468   4.14080   4.17652
 Alpha virt. eigenvalues --    4.32210   4.48567   4.70471   4.83455   4.84110
 Alpha virt. eigenvalues --    5.11231  23.55090  23.76398  23.92268  23.94120
 Alpha virt. eigenvalues --   23.98354  24.00638  24.07910  24.08970  24.19764
 Alpha virt. eigenvalues --   35.54390  35.65578
          Condensed to atoms (all electrons):
               1          2          3          4          5          6
     1  C   15.059463  -0.942110  -6.545126  -0.446297   0.713261   0.008481
     2  C   -0.942110  19.279243  -8.733914  -3.945049  -2.730625   0.359631
     3  C   -6.545126  -8.733914  20.790403   2.553012  -0.931471  -0.319887
     4  C   -0.446297  -3.945049   2.553012   9.047134   0.349589  -0.360820
     5  C    0.713261  -2.730625  -0.931471   0.349589   9.541309   0.640406
     6  C    0.008481   0.359631  -0.319887  -0.360820   0.640406   5.429299
     7  H   -0.060262   0.041804   0.054507  -0.021122   0.282120   0.021092
     8  C   -0.603870   1.064509  -1.272540  -0.287687  -0.039577   0.079412
     9  N   -1.176465  -0.616109   1.814011   0.292170   0.026281   0.009204
    10  C    0.117450   0.745321  -1.348467  -0.302807  -0.101263   0.041447
    11  H   -0.008896  -0.072690   0.066396   0.013195   0.001072  -0.000030
    12  H    0.004537   0.032200  -0.023851  -0.008367  -0.000620   0.000110
    13  H    0.005313   0.026350  -0.030791   0.000592   0.000265  -0.000076
    14  H    0.260460   0.078754   0.029853  -0.012566  -0.016372   0.000012
    15  N    0.217554   0.842872  -0.704585  -0.410497  -0.212860   0.039772
    16  H   -0.000274   0.134380  -0.075679  -0.059582  -0.000173   0.000428
    17  H   -0.077129   0.055834  -0.006607   0.014991  -0.049496   0.400817
    18  C    0.187736  -0.212749   0.050162  -0.229014  -0.620151  -0.183223
    19  H   -0.005817   0.028296   0.105203  -0.074137  -0.099436   0.000119
    20  H   -0.004065   0.020110   0.009392  -0.016207  -0.005679  -0.001516
    21  H    0.004649  -0.006589  -0.030054  -0.127016   0.102865   0.018207
               7          8          9         10         11         12
     1  C   -0.060262  -0.603870  -1.176465   0.117450  -0.008896   0.004537
     2  C    0.041804   1.064509  -0.616109   0.745321  -0.072690   0.032200
     3  C    0.054507  -1.272540   1.814011  -1.348467   0.066396  -0.023851
     4  C   -0.021122  -0.287687   0.292170  -0.302807   0.013195  -0.008367
     5  C    0.282120  -0.039577   0.026281  -0.101263   0.001072  -0.000620
     6  C    0.021092   0.079412   0.009204   0.041447  -0.000030   0.000110
     7  H    0.543458   0.005452   0.000525   0.000227   0.000000   0.000000
     8  C    0.005452   7.383583   0.216673  -0.603914  -0.065899   0.020038
     9  N    0.000525   0.216673   7.030034  -0.342995   0.025267  -0.013341
    10  C    0.000227  -0.603914  -0.342995   6.919860   0.429298   0.347479
    11  H    0.000000  -0.065899   0.025267   0.429298   0.543317  -0.027697
    12  H    0.000000   0.020038  -0.013341   0.347479  -0.027697   0.511943
    13  H    0.000000  -0.034891  -0.015322   0.418605  -0.027649  -0.019918
    14  H   -0.000219   0.017035   0.000187   0.000403   0.000003  -0.000002
    15  N   -0.000720   0.143614  -0.191679  -0.005337  -0.016450   0.007787
    16  H   -0.000002   0.009309  -0.007414  -0.017465   0.001640  -0.000468
    17  H   -0.006550   0.003866  -0.000765   0.000157   0.000000   0.000000
    18  C    0.018794  -0.153113   0.001671   0.030997  -0.001413   0.000048
    19  H    0.000252  -0.004470   0.000189  -0.001026   0.000009   0.000008
    20  H    0.000318   0.003774  -0.000327   0.000623   0.000000   0.000000
    21  H    0.001359   0.000913   0.000148  -0.000088   0.000000  -0.000001
              13         14         15         16         17         18
     1  C    0.005313   0.260460   0.217554  -0.000274  -0.077129   0.187736
     2  C    0.026350   0.078754   0.842872   0.134380   0.055834  -0.212749
     3  C   -0.030791   0.029853  -0.704585  -0.075679  -0.006607   0.050162
     4  C    0.000592  -0.012566  -0.410497  -0.059582   0.014991  -0.229014
     5  C    0.000265  -0.016372  -0.212860  -0.000173  -0.049496  -0.620151
     6  C   -0.000076   0.000012   0.039772   0.000428   0.400817  -0.183223
     7  H    0.000000  -0.000219  -0.000720  -0.000002  -0.006550   0.018794
     8  C   -0.034891   0.017035   0.143614   0.009309   0.003866  -0.153113
     9  N   -0.015322   0.000187  -0.191679  -0.007414  -0.000765   0.001671
    10  C    0.418605   0.000403  -0.005337  -0.017465   0.000157   0.030997
    11  H   -0.027649   0.000003  -0.016450   0.001640   0.000000  -0.001413
    12  H   -0.019918  -0.000002   0.007787  -0.000468   0.000000   0.000048
    13  H    0.502378   0.000003   0.006715   0.000041   0.000000  -0.000025
    14  H    0.000003   0.524216  -0.001637   0.000030  -0.006803  -0.001155
    15  N    0.006715  -0.001637   7.080911   0.344417   0.000616   0.076209
    16  H    0.000041   0.000030   0.344417   0.410628  -0.000009  -0.012159
    17  H    0.000000  -0.006803   0.000616  -0.000009   0.537348   0.005714
    18  C   -0.000025  -0.001155   0.076209  -0.012159   0.005714   6.368459
    19  H    0.000000   0.000001  -0.004389  -0.000385   0.000010   0.427260
    20  H    0.000000  -0.000002  -0.001385   0.000931   0.000013   0.347923
    21  H    0.000000   0.000000   0.002656  -0.000132  -0.000021   0.404955
              19         20         21
     1  C   -0.005817  -0.004065   0.004649
     2  C    0.028296   0.020110  -0.006589
     3  C    0.105203   0.009392  -0.030054
     4  C   -0.074137  -0.016207  -0.127016
     5  C   -0.099436  -0.005679   0.102865
     6  C    0.000119  -0.001516   0.018207
     7  H    0.000252   0.000318   0.001359
     8  C   -0.004470   0.003774   0.000913
     9  N    0.000189  -0.000327   0.000148
    10  C   -0.001026   0.000623  -0.000088
    11  H    0.000009   0.000000   0.000000
    12  H    0.000008   0.000000  -0.000001
    13  H    0.000000   0.000000   0.000000
    14  H    0.000001  -0.000002   0.000000
    15  N   -0.004389  -0.001385   0.002656
    16  H   -0.000385   0.000931  -0.000132
    17  H    0.000010   0.000013  -0.000021
    18  C    0.427260   0.347923   0.404955
    19  H    0.519492  -0.026892  -0.026595
    20  H   -0.026892   0.534776  -0.025931
    21  H   -0.026595  -0.025931   0.539839
 Mulliken charges:
               1
     1  C   -0.708595
     2  C    0.550529
     3  C    0.550033
     4  C    0.030484
     5  C   -0.849446
     6  C   -0.182885
     7  H    0.118965
     8  C    0.117784
     9  N   -0.051945
    10  C   -0.328504
    11  H    0.140527
    12  H    0.170114
    13  H    0.168410
    14  H    0.127800
    15  N   -0.213584
    16  H    0.271938
    17  H    0.128013
    18  C   -0.506927
    19  H    0.162308
    20  H    0.164145
    21  H    0.140835
 Sum of Mulliken charges =   0.00000
 Mulliken charges with hydrogens summed into heavy atoms:
               1
     1  C   -0.580795
     2  C    0.550529
     3  C    0.550033
     4  C    0.030484
     5  C   -0.730481
     6  C   -0.054871
     8  C    0.117784
     9  N   -0.051945
    10  C    0.150547
    15  N    0.058354
    18  C   -0.039639
 Electronic spatial extent (au):  <R**2>=           1769.5652
 Charge=              0.0000 electrons
 Dipole moment (field-independent basis, Debye):
    X=              0.1383    Y=              2.0709    Z=             -0.8164  Tot=              2.2303
 Quadrupole moment (field-independent basis, Debye-Ang):
   XX=            -56.8736   YY=            -65.9581   ZZ=            -66.1386
   XY=              4.0128   XZ=             -0.9982   YZ=             -1.9422
 Traceless Quadrupole moment (field-independent basis, Debye-Ang):
   XX=              6.1165   YY=             -2.9680   ZZ=             -3.1485
   XY=              4.0128   XZ=             -0.9982   YZ=             -1.9422
 Octapole moment (field-independent basis, Debye-Ang**2):
  XXX=             18.2517  YYY=             -0.4342  ZZZ=             -3.1458  XYY=            -12.6743
  XXY=              9.8416  XXZ=              3.8610  XZZ=             10.3961  YZZ=              8.6740
  YYZ=             -4.1529  XYZ=             -2.6069
 Hexadecapole moment (field-independent basis, Debye-Ang**3):
 XXXX=          -1456.3138 YYYY=           -743.9877 ZZZZ=            -99.5893 XXXY=             20.4990
 XXXZ=             -2.9741 YYYX=             24.6237 YYYZ=             -5.0605 ZZZX=              2.6195
 ZZZY=             -6.5993 XXYY=           -394.0721 XXZZ=           -289.7824 YYZZ=           -144.8436
 XXYZ=             -2.2157 YYXZ=             -6.5715 ZZXY=             -0.4416
 N-N= 5.698378496196D+02 E-N=-2.204976493775D+03  KE= 4.564282536323D+02
 There are a total of      173106 grid points.
 ElSum from          density=       78.0000576167
 ElSum from atomic densities=       78.0001567098

 Hirshfeld populations at iteration   1 (CX, CA, CB, DipXYZ):
               1          2          3          4          5          6
     1  C    0.000000   3.025446   3.025446   0.019743  -0.060138  -0.000895
     2  C    0.000000   2.987361   2.987361   0.059597  -0.047159   0.003261
     3  C    0.000000   2.987883   2.987883   0.059181   0.091665  -0.005350
     4  C    0.000000   3.000728   3.000728  -0.005900   0.080206   0.002850
     5  C    0.000000   3.028547   3.028547  -0.055558   0.020722   0.008650
     6  C    0.000000   3.025549   3.025549  -0.046145  -0.038941   0.004429
     7  H    0.000002   0.477717   0.477717  -0.153614   0.047393   0.015861
     8  C    0.000000   2.931042   2.931042   0.034539   0.115295   0.021666
     9  N    0.000002   3.611762   3.611762  -0.141759   0.139443  -0.029913
    10  C    0.000000   3.042440   3.042440   0.003642  -0.004990   0.010465
    11  H    0.000000   0.477991   0.477991   0.052776   0.126693  -0.070478
    12  H    0.000001   0.472121   0.472121   0.027225   0.015003   0.160430
    13  H    0.000001   0.473455   0.473455   0.101530  -0.111509  -0.047851
    14  H    0.000003   0.474771   0.474771   0.024674  -0.161676  -0.006625
    15  N    0.000000   3.581674   3.581674  -0.023941  -0.102894  -0.104146
    16  H    0.000001   0.434498   0.434498   0.014896   0.069930  -0.200290
    17  H    0.000002   0.477252   0.477252  -0.122863  -0.108388   0.005476
    18  C    0.000000   3.049510   3.049510  -0.006139  -0.003937   0.002936
    19  H    0.000001   0.480755   0.480755   0.099751   0.076879   0.064919
    20  H    0.000001   0.480384   0.480384  -0.025504   0.054837  -0.140295
    21  H    0.000001   0.479143   0.479143  -0.122226   0.029447   0.087115
       Tot   0.000015  39.000029  39.000029  -0.206096   0.227880  -0.217785

 Dip from Atomic Chgs              0.260642   0.586830  -0.103569
         Total Dipole              0.054546   0.814709  -0.321354

 Hirshfeld charges, spin densities, dipoles, and CM5 charges using IRadAn=      4:
              Q-H        S-H        Dx         Dy         Dz        Q-CM5   
     1  C   -0.050893   0.000000   0.019743  -0.060138  -0.000895  -0.100959
     2  C    0.025277   0.000000   0.059597  -0.047159   0.003261   0.082670
     3  C    0.024235   0.000000   0.059181   0.091665  -0.005350   0.080204
     4  C   -0.001456   0.000000  -0.005900   0.080206   0.002850  -0.012213
     5  C   -0.057093   0.000000  -0.055558   0.020722   0.008650  -0.112030
     6  C   -0.051097   0.000000  -0.046145  -0.038941   0.004429  -0.107829
     7  H    0.044566   0.000000  -0.153614   0.047393   0.015861   0.102723
     8  C    0.137917   0.000000   0.034539   0.115295   0.021666   0.255083
     9  N   -0.223523   0.000000  -0.141759   0.139443  -0.029913  -0.381588
    10  C   -0.084880   0.000000   0.003642  -0.004990   0.010465  -0.229020
    11  H    0.044018   0.000000   0.052776   0.126693  -0.070478   0.100570
    12  H    0.055758   0.000000   0.027225   0.015003   0.160430   0.111691
    13  H    0.053091   0.000000   0.101530  -0.111509  -0.047851   0.110134
    14  H    0.050457   0.000000   0.024674  -0.161676  -0.006625   0.109709
    15  N   -0.163349   0.000000  -0.023941  -0.102894  -0.104146  -0.480354
    16  H    0.131004   0.000000   0.014896   0.069930  -0.200290   0.331435
    17  H    0.045496   0.000000  -0.122863  -0.108388   0.005476   0.102907
    18  C   -0.099021   0.000000  -0.006139  -0.003937   0.002936  -0.249627
    19  H    0.038490   0.000000   0.099751   0.076879   0.064919   0.095688
    20  H    0.039231   0.000000  -0.025504   0.054837  -0.140295   0.094140
    21  H    0.041715   0.000000  -0.122226   0.029447   0.087115   0.096606
       Tot  -0.000058   0.000000  -0.206096   0.227880  -0.217785  -0.000058
 Hirshfeld charges with hydrogens summed into heavy atoms:
              Q-H       Q-CM5   
     1  C   -0.000436   0.008750
     2  C    0.025277   0.082670
     3  C    0.024235   0.080204
     4  C   -0.001456  -0.012213
     5  C   -0.012528  -0.009307
     6  C   -0.005601  -0.004921
     8  C    0.137917   0.255083
     9  N   -0.223523  -0.381588
    10  C    0.067987   0.093375
    15  N   -0.032345  -0.148919
    18  C    0.020415   0.036808
 
 EQQ= 0.000000000000E+00 EQD= 0.000000000000E+00 EDD= 0.500669484443E-02
 EQQ+QD+DD= 0.500669484443E-02
 
          MBS Condensed to atoms (all electrons):
               1          2          3          4          5          6
     1  C    4.834555   0.500455  -0.032834  -0.009058  -0.029573   0.504311
     2  C    0.500455   4.751270   0.505081  -0.030268  -0.011855  -0.031012
     3  C   -0.032834   0.505081   4.791981   0.501558  -0.031920  -0.011627
     4  C   -0.009058  -0.030268   0.501558   4.801378   0.502847  -0.028738
     5  C   -0.029573  -0.011855  -0.031920   0.502847   4.859706   0.496159
     6  C    0.504311  -0.031012  -0.011627  -0.028738   0.496159   4.840928
     7  H    0.001391   0.000068   0.001458  -0.026451   0.391781  -0.024943
     8  C    0.001391  -0.057784  -0.054462   0.001311  -0.000008  -0.000019
     9  N   -0.018257   0.347833  -0.041172   0.000685   0.000020   0.000444
    10  C   -0.000006   0.001515   0.000865  -0.000004   0.000000   0.000000
    11  H    0.000000  -0.000048   0.000009  -0.000001   0.000000   0.000000
    12  H    0.000001  -0.000035   0.000022   0.000000   0.000000   0.000000
    13  H   -0.000001   0.000017  -0.000030   0.000000   0.000000   0.000000
    14  H    0.390153  -0.025295   0.001569   0.000023   0.001351  -0.023104
    15  N    0.000761  -0.049208   0.350384  -0.018723   0.000459   0.000023
    16  H   -0.000037   0.001329  -0.026787  -0.000585  -0.000027   0.000005
    17  H   -0.025541   0.001475   0.000061   0.001390  -0.025096   0.392358
    18  C    0.000013   0.000833  -0.026796   0.374404  -0.025250   0.000767
    19  H    0.000000   0.000056  -0.003918  -0.021844   0.001159  -0.000025
    20  H    0.000003  -0.000023  -0.000376  -0.021852  -0.000454  -0.000016
    21  H    0.000001  -0.000025   0.001258  -0.021783  -0.003722   0.000030
               7          8          9         10         11         12
     1  C    0.001391   0.001391  -0.018257  -0.000006   0.000000   0.000001
     2  C    0.000068  -0.057784   0.347833   0.001515  -0.000048  -0.000035
     3  C    0.001458  -0.054462  -0.041172   0.000865   0.000009   0.000022
     4  C   -0.026451   0.001311   0.000685  -0.000004  -0.000001   0.000000
     5  C    0.391781  -0.000008   0.000020   0.000000   0.000000   0.000000
     6  C   -0.024943  -0.000019   0.000444   0.000000   0.000000   0.000000
     7  H    0.553307   0.000000   0.000000   0.000000   0.000000   0.000000
     8  C    0.000000   4.742332   0.491322   0.372615  -0.021487  -0.020063
     9  N    0.000000   0.491322   6.671174  -0.025457   0.000919  -0.000621
    10  C    0.000000   0.372615  -0.025457   4.808126   0.377550   0.379433
    11  H    0.000000  -0.021487   0.000919   0.377550   0.575332  -0.021622
    12  H    0.000000  -0.020063  -0.000621   0.379433  -0.021622   0.553409
    13  H    0.000000  -0.019226  -0.000949   0.379134  -0.020643  -0.020874
    14  H   -0.000036  -0.000011  -0.000859  -0.000001   0.000000   0.000000
    15  N   -0.000008   0.333789  -0.039180  -0.019660  -0.000676   0.000030
    16  H    0.000001  -0.023481   0.000296   0.000341   0.000082   0.000028
    17  H   -0.003317   0.000000  -0.000008   0.000000   0.000000   0.000000
    18  C   -0.003314   0.000008  -0.000006   0.000000   0.000000   0.000000
    19  H    0.000032  -0.000012   0.000001   0.000000   0.000000   0.000000
    20  H    0.000141  -0.000001   0.000000   0.000000   0.000000   0.000000
    21  H    0.001052   0.000000   0.000000   0.000000   0.000000   0.000000
              13         14         15         16         17         18
     1  C   -0.000001   0.390153   0.000761  -0.000037  -0.025541   0.000013
     2  C    0.000017  -0.025295  -0.049208   0.001329   0.001475   0.000833
     3  C   -0.000030   0.001569   0.350384  -0.026787   0.000061  -0.026796
     4  C    0.000000   0.000023  -0.018723  -0.000585   0.001390   0.374404
     5  C    0.000000   0.001351   0.000459  -0.000027  -0.025096  -0.025250
     6  C    0.000000  -0.023104   0.000023   0.000005   0.392358   0.000767
     7  H    0.000000  -0.000036  -0.000008   0.000001  -0.003317  -0.003314
     8  C   -0.019226  -0.000011   0.333789  -0.023481   0.000000   0.000008
     9  N   -0.000949  -0.000859  -0.039180   0.000296  -0.000008  -0.000006
    10  C    0.379134  -0.000001  -0.019660   0.000341   0.000000   0.000000
    11  H   -0.020643   0.000000  -0.000676   0.000082   0.000000   0.000000
    12  H   -0.020874   0.000000   0.000030   0.000028   0.000000   0.000000
    13  H    0.550633   0.000000   0.000751  -0.000080   0.000000   0.000000
    14  H    0.000000   0.535753  -0.000016   0.000001  -0.003439   0.000001
    15  N    0.000751  -0.000016   6.561343   0.326898   0.000000  -0.002078
    16  H   -0.000080   0.000001   0.326898   0.435937   0.000000   0.000210
    17  H    0.000000  -0.003439   0.000000   0.000000   0.549556  -0.000016
    18  C    0.000000   0.000001  -0.002078   0.000210  -0.000016   4.821049
    19  H    0.000000   0.000000   0.002054  -0.000252   0.000000   0.380937
    20  H    0.000000   0.000000   0.000011   0.000149   0.000001   0.378695
    21  H    0.000000   0.000000   0.000035  -0.000009  -0.000002   0.382069
              19         20         21
     1  C    0.000000   0.000003   0.000001
     2  C    0.000056  -0.000023  -0.000025
     3  C   -0.003918  -0.000376   0.001258
     4  C   -0.021844  -0.021852  -0.021783
     5  C    0.001159  -0.000454  -0.003722
     6  C   -0.000025  -0.000016   0.000030
     7  H    0.000032   0.000141   0.001052
     8  C   -0.000012  -0.000001   0.000000
     9  N    0.000001   0.000000   0.000000
    10  C    0.000000   0.000000   0.000000
    11  H    0.000000   0.000000   0.000000
    12  H    0.000000   0.000000   0.000000
    13  H    0.000000   0.000000   0.000000
    14  H    0.000000   0.000000   0.000000
    15  N    0.002054   0.000011   0.000035
    16  H   -0.000252   0.000149  -0.000009
    17  H    0.000000   0.000001  -0.000002
    18  C    0.380937   0.378695   0.382069
    19  H    0.572228  -0.022439  -0.021619
    20  H   -0.022439   0.582237  -0.022069
    21  H   -0.021619  -0.022069   0.580660
 MBS Mulliken charges:
               1
     1  C   -0.117728
     2  C    0.095619
     3  C    0.075679
     4  C   -0.004293
     5  C   -0.125576
     6  C   -0.115539
     7  H    0.108838
     8  C    0.253786
     9  N   -0.386185
    10  C   -0.274452
    11  H    0.110584
    12  H    0.130291
    13  H    0.131267
    14  H    0.123909
    15  N   -0.446989
    16  H    0.285981
    17  H    0.112577
    18  C   -0.281526
    19  H    0.113643
    20  H    0.105994
    21  H    0.104121
 Sum of MBS Mulliken charges =   0.00000
 MBS Mulliken charges with hydrogens summed into heavy atoms:
               1
     1  C    0.006181
     2  C    0.095619
     3  C    0.075679
     4  C   -0.004293
     5  C   -0.016738
     6  C   -0.002962
     8  C    0.253786
     9  N   -0.386185
    10  C    0.097690
    15  N   -0.161008
    18  C    0.042231
 Breneman (CHELPG) radii used.
 Generate Potential Derived Charges using the Breneman model, NDens= 1.
 Grid spacing= 0.300 Box extension= 2.800
 NStep X,Y,Z=   46     40     29   Total possible points=       53360
 Number of Points to Fit=   14208

 **********************************************************************

            Electrostatic Properties Using The SCF Density

 **********************************************************************

       Atomic Center    1 is at  -0.893622 -1.955882 -0.036800
       Atomic Center    2 is at   0.116842 -0.999700 -0.083419
       Atomic Center    3 is at  -0.154598  0.334526 -0.106655
       Atomic Center    4 is at  -1.448232  0.826972  0.038488
       Atomic Center    5 is at  -2.499736 -0.108752  0.125646
       Atomic Center    6 is at  -2.224162 -1.499778  0.067336
       Atomic Center    7 is at  -3.508609  0.231093  0.233258
       Atomic Center    8 is at   2.091888  0.005435 -0.026699
       Atomic Center    9 is at   1.569007 -1.198113 -0.089380
       Atomic Center   10 is at   3.571279  0.281093  0.300433
       Atomic Center   11 is at   3.882172  1.182134 -0.185747
       Atomic Center   12 is at   3.688651  0.388003  1.358589
       Atomic Center   13 is at   4.170902 -0.535330 -0.044250
       Atomic Center   14 is at  -0.668275 -3.001276 -0.072410
       Atomic Center   15 is at   1.092025  1.070946 -0.297639
       Atomic Center   16 is at   1.173773  1.403000 -1.237351
       Atomic Center   17 is at  -3.028134 -2.204795  0.105811
       Atomic Center   18 is at  -1.722767  2.341299  0.093657
       Atomic Center   19 is at  -0.879914  2.841160  0.523353
       Atomic Center   20 is at  -1.889151  2.709938 -0.896960
       Atomic Center   21 is at  -2.589983  2.524962  0.692910
   14208 points will be used for fitting atomic charges
 Fitting point charges to electrostatic potential
 Charges from ESP fit, RMS=   0.00415 RRMS=   0.30011:
 ESP charges:
               1
     1  C   -0.327539
     2  C    0.448160
     3  C    0.090915
     4  C    0.022653
     5  C   -0.289918
     6  C   -0.044214
     7  H    0.151941
     8  C    0.685365
     9  N   -0.710197
    10  C   -0.343852
    11  H    0.084910
    12  H    0.114889
    13  H    0.108786
    14  H    0.166854
    15  N   -0.661164
    16  H    0.329433
    17  H    0.098051
    18  C    0.155553
    19  H   -0.030359
    20  H   -0.024186
    21  H   -0.026080
 Sum of ESP charges =   0.00000
 ESP charges with hydrogens summed into heavy atoms:
               1
     1  C   -0.160685
     2  C    0.448160
     3  C    0.090915
     4  C    0.022653
     5  C   -0.137977
     6  C    0.053836
     8  C    0.685365
     9  N   -0.710197
    10  C   -0.035267
    15  N   -0.331731
    18  C    0.074929
 Charge=   0.00000 Dipole=     0.0718     1.9362    -0.8213 Tot=     2.1044
 -----------------------------------------------------------------

              Electrostatic Properties (Atomic Units)

 -----------------------------------------------------------------
    Center     Electric         -------- Electric Field --------
               Potential          X             Y             Z
 -----------------------------------------------------------------
    1 Atom    -14.774472
    2 Atom    -14.751283
    3 Atom    -14.747408
    4 Atom    -14.757798
    5 Atom    -14.773471
    6 Atom    -14.771656
    7 Atom     -1.108227
    8 Atom    -14.691446
    9 Atom    -18.409811
   10 Atom    -14.761795
   11 Atom     -1.101491
   12 Atom     -1.096496
   13 Atom     -1.102745
   14 Atom     -1.109405
   15 Atom    -18.368522
   16 Atom     -1.011237
   17 Atom     -1.110689
   18 Atom    -14.780477
   19 Atom     -1.119951
   20 Atom     -1.115630
   21 Atom     -1.117735
 -----------------------------------------------------------------
 ******************************Gaussian NBO Version 3.1******************************
             N A T U R A L   A T O M I C   O R B I T A L   A N D
          N A T U R A L   B O N D   O R B I T A L   A N A L Y S I S
 ******************************Gaussian NBO Version 3.1******************************
       /RESON  / : Allow strongly delocalized NBO set

 Analyzing the SCF density

 Job title: Title Card Required                                             

 Storage needed:    275258 in NPA ( 104855185 available)


 NATURAL POPULATIONS:  Natural atomic orbital occupancies 
                                                          
   NAO  Atom  No  lang   Type(AO)    Occupancy      Energy
 ----------------------------------------------------------
     1    C    1  S      Cor( 1S)     1.99908     -10.02757
     2    C    1  S      Val( 2S)     0.94552      -0.15381
     3    C    1  S      Ryd( 4S)     0.00152       0.91555
     4    C    1  S      Ryd( 3S)     0.00017       0.62770
     5    C    1  S      Ryd( 5S)     0.00001      23.00834
     6    C    1  px     Val( 2p)     1.06159      -0.04445
     7    C    1  px     Ryd( 4p)     0.00457       0.80893
     8    C    1  px     Ryd( 3p)     0.00056       0.38216
     9    C    1  px     Ryd( 5p)     0.00014       3.09142
    10    C    1  py     Val( 2p)     1.17375      -0.05042
    11    C    1  py     Ryd( 4p)     0.00579       1.09610
    12    C    1  py     Ryd( 3p)     0.00033       0.34094
    13    C    1  py     Ryd( 5p)     0.00008       3.12878
    14    C    1  pz     Val( 2p)     1.01135      -0.10542
    15    C    1  pz     Ryd( 4p)     0.00124       0.52713
    16    C    1  pz     Ryd( 3p)     0.00033       0.29079
    17    C    1  pz     Ryd( 5p)     0.00002       2.71933
    18    C    1  dxy    Ryd( 3d)     0.00078       2.59552
    19    C    1  dxz    Ryd( 3d)     0.00048       1.68024
    20    C    1  dyz    Ryd( 3d)     0.00046       1.64495
    21    C    1  dx2y2  Ryd( 3d)     0.00067       2.50728
    22    C    1  dz2    Ryd( 3d)     0.00042       2.09001

    23    C    2  S      Cor( 1S)     1.99868     -10.05494
    24    C    2  S      Val( 2S)     0.84800      -0.11031
    25    C    2  S      Ryd( 4S)     0.00221       0.81820
    26    C    2  S      Ryd( 3S)     0.00017       0.79561
    27    C    2  S      Ryd( 5S)     0.00002      22.74149
    28    C    2  px     Val( 2p)     0.92882      -0.04139
    29    C    2  px     Ryd( 4p)     0.00594       1.24156
    30    C    2  px     Ryd( 3p)     0.00045       0.60759
    31    C    2  px     Ryd( 5p)     0.00015       3.02930
    32    C    2  py     Val( 2p)     1.07964      -0.05506
    33    C    2  py     Ryd( 4p)     0.00825       1.14706
    34    C    2  py     Ryd( 3p)     0.00082       0.51893
    35    C    2  py     Ryd( 5p)     0.00015       3.08027
    36    C    2  pz     Val( 2p)     1.00910      -0.10583
    37    C    2  pz     Ryd( 4p)     0.00070       0.61186
    38    C    2  pz     Ryd( 3p)     0.00053       0.46074
    39    C    2  pz     Ryd( 5p)     0.00004       2.59163
    40    C    2  dxy    Ryd( 3d)     0.00139       2.52726
    41    C    2  dxz    Ryd( 3d)     0.00144       1.63829
    42    C    2  dyz    Ryd( 3d)     0.00066       1.69306
    43    C    2  dx2y2  Ryd( 3d)     0.00125       2.62998
    44    C    2  dz2    Ryd( 3d)     0.00053       2.11735

    45    C    3  S      Cor( 1S)     1.99860     -10.05399
    46    C    3  S      Val( 2S)     0.83086      -0.10567
    47    C    3  S      Ryd( 4S)     0.00129       0.82684
    48    C    3  S      Ryd( 3S)     0.00022       0.76372
    49    C    3  S      Ryd( 5S)     0.00002      22.83359
    50    C    3  px     Val( 2p)     0.97961      -0.05066
    51    C    3  px     Ryd( 4p)     0.00327       1.27467
    52    C    3  px     Ryd( 3p)     0.00032       0.50108
    53    C    3  px     Ryd( 5p)     0.00015       3.23053
    54    C    3  py     Val( 2p)     1.02517      -0.05972
    55    C    3  py     Ryd( 4p)     0.00623       1.06614
    56    C    3  py     Ryd( 3p)     0.00020       0.56668
    57    C    3  py     Ryd( 5p)     0.00020       3.20950
    58    C    3  pz     Val( 2p)     1.03458      -0.11268
    59    C    3  pz     Ryd( 4p)     0.00120       0.60374
    60    C    3  pz     Ryd( 3p)     0.00041       0.38843
    61    C    3  pz     Ryd( 5p)     0.00001       2.76662
    62    C    3  dxy    Ryd( 3d)     0.00124       2.43639
    63    C    3  dxz    Ryd( 3d)     0.00109       1.76166
    64    C    3  dyz    Ryd( 3d)     0.00073       1.67341
    65    C    3  dx2y2  Ryd( 3d)     0.00120       2.69311
    66    C    3  dz2    Ryd( 3d)     0.00062       2.09506

    67    C    4  S      Cor( 1S)     1.99895     -10.04612
    68    C    4  S      Val( 2S)     0.88889      -0.13963
    69    C    4  S      Ryd( 4S)     0.00078       0.82891
    70    C    4  S      Ryd( 3S)     0.00025       0.68360
    71    C    4  S      Ryd( 5S)     0.00001      23.04259
    72    C    4  px     Val( 2p)     1.07034      -0.04603
    73    C    4  px     Ryd( 4p)     0.00351       0.89222
    74    C    4  px     Ryd( 3p)     0.00034       0.61403
    75    C    4  px     Ryd( 5p)     0.00015       3.14842
    76    C    4  py     Val( 2p)     1.06058      -0.05893
    77    C    4  py     Ryd( 4p)     0.00525       1.29533
    78    C    4  py     Ryd( 3p)     0.00039       0.70926
    79    C    4  py     Ryd( 5p)     0.00012       3.07110
    80    C    4  pz     Val( 2p)     0.99635      -0.10210
    81    C    4  pz     Ryd( 3p)     0.00135       0.59411
    82    C    4  pz     Ryd( 4p)     0.00041       0.61924
    83    C    4  pz     Ryd( 5p)     0.00003       2.49414
    84    C    4  dxy    Ryd( 3d)     0.00084       2.56754
    85    C    4  dxz    Ryd( 3d)     0.00061       1.71275
    86    C    4  dyz    Ryd( 3d)     0.00066       1.67996
    87    C    4  dx2y2  Ryd( 3d)     0.00073       2.47506
    88    C    4  dz2    Ryd( 3d)     0.00036       2.09507

    89    C    5  S      Cor( 1S)     1.99911     -10.03080
    90    C    5  S      Val( 2S)     0.94766      -0.16048
    91    C    5  S      Ryd( 4S)     0.00116       0.86977
    92    C    5  S      Ryd( 3S)     0.00014       0.76660
    93    C    5  S      Ryd( 5S)     0.00001      23.00729
    94    C    5  px     Val( 2p)     1.15013      -0.04782
    95    C    5  px     Ryd( 4p)     0.00556       1.01198
    96    C    5  px     Ryd( 3p)     0.00038       0.33033
    97    C    5  px     Ryd( 5p)     0.00005       3.21776
    98    C    5  py     Val( 2p)     1.06763      -0.04772
    99    C    5  py     Ryd( 4p)     0.00458       0.79925
   100    C    5  py     Ryd( 3p)     0.00045       0.40850
   101    C    5  py     Ryd( 5p)     0.00013       3.16185
   102    C    5  pz     Val( 2p)     1.02729      -0.10876
   103    C    5  pz     Ryd( 4p)     0.00127       0.51784
   104    C    5  pz     Ryd( 3p)     0.00038       0.29338
   105    C    5  pz     Ryd( 5p)     0.00001       2.72568
   106    C    5  dxy    Ryd( 3d)     0.00071       2.51856
   107    C    5  dxz    Ryd( 3d)     0.00040       1.64768
   108    C    5  dyz    Ryd( 3d)     0.00047       1.67004
   109    C    5  dx2y2  Ryd( 3d)     0.00074       2.50634
   110    C    5  dz2    Ryd( 3d)     0.00041       2.03646

   111    C    6  S      Cor( 1S)     1.99924     -10.03677
   112    C    6  S      Val( 2S)     0.95827      -0.17084
   113    C    6  S      Ryd( 3S)     0.00129       0.79822
   114    C    6  S      Ryd( 4S)     0.00014       1.05933
   115    C    6  S      Ryd( 5S)     0.00000      22.75932
   116    C    6  px     Val( 2p)     1.11018      -0.04387
   117    C    6  px     Ryd( 4p)     0.00569       0.91265
   118    C    6  px     Ryd( 3p)     0.00040       0.35355
   119    C    6  px     Ryd( 5p)     0.00010       3.15856
   120    C    6  py     Val( 2p)     1.09974      -0.04431
   121    C    6  py     Ryd( 4p)     0.00511       0.87583
   122    C    6  py     Ryd( 3p)     0.00038       0.36296
   123    C    6  py     Ryd( 5p)     0.00010       3.14063
   124    C    6  pz     Val( 2p)     1.00975      -0.10817
   125    C    6  pz     Ryd( 4p)     0.00110       0.51863
   126    C    6  pz     Ryd( 3p)     0.00027       0.33478
   127    C    6  pz     Ryd( 5p)     0.00001       2.66896
   128    C    6  dxy    Ryd( 3d)     0.00083       2.47589
   129    C    6  dxz    Ryd( 3d)     0.00044       1.64786
   130    C    6  dyz    Ryd( 3d)     0.00042       1.64643
   131    C    6  dx2y2  Ryd( 3d)     0.00059       2.53711
   132    C    6  dz2    Ryd( 3d)     0.00041       2.02812

   133    H    7  S      Val( 1S)     0.79465       0.05639
   134    H    7  S      Ryd( 2S)     0.00061       0.90571
   135    H    7  S      Ryd( 3S)     0.00019       1.82531
   136    H    7  px     Ryd( 2p)     0.00039       2.66199
   137    H    7  py     Ryd( 2p)     0.00014       2.07531
   138    H    7  pz     Ryd( 2p)     0.00022       1.62467

   139    C    8  S      Cor( 1S)     1.99935     -10.14017
   140    C    8  S      Val( 2S)     0.87240      -0.19831
   141    C    8  S      Ryd( 3S)     0.00242       0.67881
   142    C    8  S      Ryd( 4S)     0.00030       0.77635
   143    C    8  S      Ryd( 5S)     0.00002      23.08868
   144    C    8  px     Val( 2p)     0.93489      -0.06272
   145    C    8  px     Ryd( 4p)     0.00465       1.09283
   146    C    8  px     Ryd( 3p)     0.00053       0.53412
   147    C    8  px     Ryd( 5p)     0.00013       2.87119
   148    C    8  py     Val( 2p)     0.82141      -0.02864
   149    C    8  py     Ryd( 4p)     0.01266       0.71276
   150    C    8  py     Ryd( 3p)     0.00062       0.46680
   151    C    8  py     Ryd( 5p)     0.00013       3.02420
   152    C    8  pz     Val( 2p)     0.88899      -0.12840
   153    C    8  pz     Ryd( 4p)     0.00191       0.60076
   154    C    8  pz     Ryd( 3p)     0.00048       0.46278
   155    C    8  pz     Ryd( 5p)     0.00007       2.58645
   156    C    8  dxy    Ryd( 3d)     0.00208       2.35623
   157    C    8  dxz    Ryd( 3d)     0.00105       1.72971
   158    C    8  dyz    Ryd( 3d)     0.00199       1.67031
   159    C    8  dx2y2  Ryd( 3d)     0.00216       2.27581
   160    C    8  dz2    Ryd( 3d)     0.00067       1.90596

   161    N    9  S      Cor( 1S)     1.99936     -14.11856
   162    N    9  S      Val( 2S)     1.43744      -0.54346
   163    N    9  S      Ryd( 3S)     0.00239       1.21051
   164    N    9  S      Ryd( 4S)     0.00013       1.25121
   165    N    9  S      Ryd( 5S)     0.00000      35.19412
   166    N    9  px     Val( 2p)     1.25165      -0.15477
   167    N    9  px     Ryd( 3p)     0.00351       0.78900
   168    N    9  px     Ryd( 4p)     0.00027       0.79707
   169    N    9  px     Ryd( 5p)     0.00004       4.27862
   170    N    9  py     Val( 2p)     1.56972      -0.21651
   171    N    9  py     Ryd( 3p)     0.00473       0.62917
   172    N    9  py     Ryd( 4p)     0.00027       0.74681
   173    N    9  py     Ryd( 5p)     0.00008       4.20714
   174    N    9  pz     Val( 2p)     1.20769      -0.17714
   175    N    9  pz     Ryd( 3p)     0.00092       0.55052
   176    N    9  pz     Ryd( 4p)     0.00017       0.65859
   177    N    9  pz     Ryd( 5p)     0.00003       3.84756
   178    N    9  dxy    Ryd( 3d)     0.00141       2.67040
   179    N    9  dxz    Ryd( 3d)     0.00034       2.18910
   180    N    9  dyz    Ryd( 3d)     0.00194       2.24798
   181    N    9  dx2y2  Ryd( 3d)     0.00160       2.86767
   182    N    9  dz2    Ryd( 3d)     0.00086       2.60592

   183    C   10  S      Cor( 1S)     1.99923     -10.03749
   184    C   10  S      Val( 2S)     1.08965      -0.26064
   185    C   10  S      Ryd( 4S)     0.00053       0.95504
   186    C   10  S      Ryd( 3S)     0.00017       0.50027
   187    C   10  S      Ryd( 5S)     0.00000      23.34768
   188    C   10  px     Val( 2p)     1.07501      -0.11056
   189    C   10  px     Ryd( 4p)     0.00103       0.50767
   190    C   10  px     Ryd( 3p)     0.00024       0.27182
   191    C   10  px     Ryd( 5p)     0.00008       2.92575
   192    C   10  py     Val( 2p)     1.22205      -0.10694
   193    C   10  py     Ryd( 4p)     0.00274       0.51761
   194    C   10  py     Ryd( 3p)     0.00016       0.32540
   195    C   10  py     Ryd( 5p)     0.00005       3.00532
   196    C   10  pz     Val( 2p)     1.21334      -0.11079
   197    C   10  pz     Ryd( 4p)     0.00085       0.50801
   198    C   10  pz     Ryd( 3p)     0.00007       0.28730
   199    C   10  pz     Ryd( 5p)     0.00007       3.00402
   200    C   10  dxy    Ryd( 3d)     0.00052       2.14373
   201    C   10  dxz    Ryd( 3d)     0.00037       1.87083
   202    C   10  dyz    Ryd( 3d)     0.00054       2.02815
   203    C   10  dx2y2  Ryd( 3d)     0.00076       2.13063
   204    C   10  dz2    Ryd( 3d)     0.00094       2.23136

   205    H   11  S      Val( 1S)     0.78852       0.02763
   206    H   11  S      Ryd( 2S)     0.00074       0.61008
   207    H   11  S      Ryd( 3S)     0.00011       2.07677
   208    H   11  px     Ryd( 2p)     0.00016       1.79328
   209    H   11  py     Ryd( 2p)     0.00022       2.44516
   210    H   11  pz     Ryd( 2p)     0.00013       1.97349

   211    H   12  S      Val( 1S)     0.77213       0.03337
   212    H   12  S      Ryd( 2S)     0.00059       0.71220
   213    H   12  S      Ryd( 3S)     0.00012       1.98128
   214    H   12  px     Ryd( 2p)     0.00015       1.71057
   215    H   12  py     Ryd( 2p)     0.00010       1.79986
   216    H   12  pz     Ryd( 2p)     0.00027       2.68804

   217    H   13  S      Val( 1S)     0.77055       0.04042
   218    H   13  S      Ryd( 2S)     0.00089       0.70918
   219    H   13  S      Ryd( 3S)     0.00011       2.00497
   220    H   13  px     Ryd( 2p)     0.00018       2.02713
   221    H   13  py     Ryd( 2p)     0.00020       2.31498
   222    H   13  pz     Ryd( 2p)     0.00010       1.88346

   223    H   14  S      Val( 1S)     0.78096       0.06211
   224    H   14  S      Ryd( 2S)     0.00105       0.89109
   225    H   14  S      Ryd( 3S)     0.00020       1.82938
   226    H   14  px     Ryd( 2p)     0.00013       2.04381
   227    H   14  py     Ryd( 2p)     0.00039       2.72065
   228    H   14  pz     Ryd( 2p)     0.00019       1.62332

   229    N   15  S      Cor( 1S)     1.99938     -14.17017
   230    N   15  S      Val( 2S)     1.36599      -0.58029
   231    N   15  S      Ryd( 4S)     0.00112       1.30134
   232    N   15  S      Ryd( 3S)     0.00025       1.02414
   233    N   15  S      Ryd( 5S)     0.00000      35.26830
   234    N   15  px     Val( 2p)     1.23436      -0.21187
   235    N   15  px     Ryd( 3p)     0.00262       0.67668
   236    N   15  px     Ryd( 4p)     0.00066       0.72440
   237    N   15  px     Ryd( 5p)     0.00002       4.22210
   238    N   15  py     Val( 2p)     1.57220      -0.24972
   239    N   15  py     Ryd( 3p)     0.00638       0.44548
   240    N   15  py     Ryd( 4p)     0.00164       0.64831
   241    N   15  py     Ryd( 5p)     0.00005       4.08283
   242    N   15  pz     Val( 2p)     1.47385      -0.22404
   243    N   15  pz     Ryd( 4p)     0.00212       0.54243
   244    N   15  pz     Ryd( 3p)     0.00050       0.51708
   245    N   15  pz     Ryd( 5p)     0.00003       4.10816
   246    N   15  dxy    Ryd( 3d)     0.00120       2.76248
   247    N   15  dxz    Ryd( 3d)     0.00042       2.29787
   248    N   15  dyz    Ryd( 3d)     0.00104       2.41964
   249    N   15  dx2y2  Ryd( 3d)     0.00055       2.44379
   250    N   15  dz2    Ryd( 3d)     0.00141       2.80376

   251    H   16  S      Val( 1S)     0.60515       0.08149
   252    H   16  S      Ryd( 3S)     0.00062       1.52482
   253    H   16  S      Ryd( 2S)     0.00013       1.45488
   254    H   16  px     Ryd( 2p)     0.00056       1.77711
   255    H   16  py     Ryd( 2p)     0.00084       1.89941
   256    H   16  pz     Ryd( 2p)     0.00078       2.48969

   257    H   17  S      Val( 1S)     0.79421       0.05936
   258    H   17  S      Ryd( 2S)     0.00058       0.62013
   259    H   17  S      Ryd( 3S)     0.00020       2.13733
   260    H   17  px     Ryd( 2p)     0.00029       2.40311
   261    H   17  py     Ryd( 2p)     0.00025       2.30095
   262    H   17  pz     Ryd( 2p)     0.00022       1.60894

   263    C   18  S      Cor( 1S)     1.99929     -10.01832
   264    C   18  S      Val( 2S)     1.07326      -0.23462
   265    C   18  S      Ryd( 4S)     0.00052       0.82756
   266    C   18  S      Ryd( 3S)     0.00012       0.62577
   267    C   18  S      Ryd( 5S)     0.00000      23.33980
   268    C   18  px     Val( 2p)     1.21985      -0.09317
   269    C   18  px     Ryd( 3p)     0.00286       0.55643
   270    C   18  px     Ryd( 4p)     0.00010       0.60166
   271    C   18  px     Ryd( 5p)     0.00003       2.80990
   272    C   18  py     Val( 2p)     1.07045      -0.08616
   273    C   18  py     Ryd( 4p)     0.00138       0.53817
   274    C   18  py     Ryd( 3p)     0.00031       0.50429
   275    C   18  py     Ryd( 5p)     0.00006       2.69082
   276    C   18  pz     Val( 2p)     1.21061      -0.09248
   277    C   18  pz     Ryd( 3p)     0.00049       0.54330
   278    C   18  pz     Ryd( 4p)     0.00008       0.59252
   279    C   18  pz     Ryd( 5p)     0.00006       2.75067
   280    C   18  dxy    Ryd( 3d)     0.00050       2.09601
   281    C   18  dxz    Ryd( 3d)     0.00068       2.15691
   282    C   18  dyz    Ryd( 3d)     0.00057       1.92490
   283    C   18  dx2y2  Ryd( 3d)     0.00069       2.21572
   284    C   18  dz2    Ryd( 3d)     0.00065       2.12161

   285    H   19  S      Val( 1S)     0.78332       0.05099
   286    H   19  S      Ryd( 2S)     0.00087       1.11099
   287    H   19  S      Ryd( 3S)     0.00017       1.61259
   288    H   19  px     Ryd( 2p)     0.00023       2.35544
   289    H   19  py     Ryd( 2p)     0.00016       1.96790
   290    H   19  pz     Ryd( 2p)     0.00011       1.94502

   291    H   20  S      Val( 1S)     0.79191       0.03945
   292    H   20  S      Ryd( 2S)     0.00069       0.65111
   293    H   20  S      Ryd( 3S)     0.00012       2.12505
   294    H   20  px     Ryd( 2p)     0.00012       1.85175
   295    H   20  py     Ryd( 2p)     0.00021       1.88207
   296    H   20  pz     Ryd( 2p)     0.00026       2.58308

   297    H   21  S      Val( 1S)     0.79299       0.04181
   298    H   21  S      Ryd( 2S)     0.00075       0.79138
   299    H   21  S      Ryd( 3S)     0.00009       1.95897
   300    H   21  px     Ryd( 2p)     0.00020       2.40920
   301    H   21  py     Ryd( 2p)     0.00014       1.78034
   302    H   21  pz     Ryd( 2p)     0.00015       2.08305

 WARNING:  1 low occupancy (<1.9990e) core orbital  found on  C    2
           1 low occupancy (<1.9990e) core orbital  found on  C    3
           1 low occupancy (<1.9990e) core orbital  found on  C    4

 WARNING:  Population inversion found on atom  C    1
           Population inversion found on atom  C    2
           Population inversion found on atom  C    3
           Population inversion found on atom  C    4
           Population inversion found on atom  C    5
           Population inversion found on atom  C    6
           Population inversion found on atom  C    8
           Population inversion found on atom  C   10
           Population inversion found on atom  N   15
           Population inversion found on atom  H   16
           Population inversion found on atom  C   18


 Summary of Natural Population Analysis:                  
                                                          
                                       Natural Population 
                Natural  -----------------------------------------------
    Atom  No    Charge         Core      Valence    Rydberg      Total
 -----------------------------------------------------------------------
      C    1   -0.20887      1.99908     4.19221    0.01758     6.20887
      C    2    0.11105      1.99868     3.86556    0.02471     5.88895
      C    3    0.11279      1.99860     3.87023    0.01838     5.88721
      C    4   -0.03091      1.99895     4.01616    0.01580     6.03091
      C    5   -0.20866      1.99911     4.19270    0.01684     6.20866
      C    6   -0.19448      1.99924     4.17794    0.01730     6.19448
      H    7    0.20378      0.00000     0.79465    0.00156     0.79622
      C    8    0.45110      1.99935     3.51768    0.03187     5.54890
      N    9   -0.48456      1.99936     5.46651    0.01869     7.48456
      C   10   -0.60840      1.99923     4.60005    0.00912     6.60840
      H   11    0.21013      0.00000     0.78852    0.00134     0.78987
      H   12    0.22664      0.00000     0.77213    0.00123     0.77336
      H   13    0.22798      0.00000     0.77055    0.00147     0.77202
      H   14    0.21708      0.00000     0.78096    0.00196     0.78292
      N   15   -0.66578      1.99938     5.64639    0.02000     7.66578
      H   16    0.39193      0.00000     0.60515    0.00292     0.60807
      H   17    0.20426      0.00000     0.79421    0.00153     0.79574
      C   18   -0.58259      1.99929     4.57417    0.00912     6.58259
      H   19    0.21514      0.00000     0.78332    0.00154     0.78486
      H   20    0.20669      0.00000     0.79191    0.00140     0.79331
      H   21    0.20567      0.00000     0.79299    0.00134     0.79433
 =======================================================================
   * Total *    0.00000     21.99026    55.79402    0.21571    78.00000

                                 Natural Population      
 --------------------------------------------------------
   Core                      21.99026 ( 99.9557% of  22)
   Valence                   55.79402 ( 99.6322% of  56)
   Natural Minimal Basis     77.78429 ( 99.7234% of  78)
   Natural Rydberg Basis      0.21571 (  0.2766% of  78)
 --------------------------------------------------------

    Atom  No          Natural Electron Configuration
 ----------------------------------------------------------------------------
      C    1      [core]2S( 0.95)2p( 3.25)4p( 0.01)
      C    2      [core]2S( 0.85)2p( 3.02)3d( 0.01)4p( 0.01)
      C    3      [core]2S( 0.83)2p( 3.04)4p( 0.01)
      C    4      [core]2S( 0.89)2p( 3.13)4p( 0.01)
      C    5      [core]2S( 0.95)2p( 3.25)4p( 0.01)
      C    6      [core]2S( 0.96)2p( 3.22)4p( 0.01)
      H    7            1S( 0.79)
      C    8      [core]2S( 0.87)2p( 2.65)3d( 0.01)4p( 0.02)
      N    9      [core]2S( 1.44)2p( 4.03)3p( 0.01)3d( 0.01)
      C   10      [core]2S( 1.09)2p( 3.51)
      H   11            1S( 0.79)
      H   12            1S( 0.77)
      H   13            1S( 0.77)
      H   14            1S( 0.78)
      N   15      [core]2S( 1.37)2p( 4.28)3p( 0.01)
      H   16            1S( 0.61)
      H   17            1S( 0.79)
      C   18      [core]2S( 1.07)2p( 3.50)
      H   19            1S( 0.78)
      H   20            1S( 0.79)
      H   21            1S( 0.79)


 NBO analysis skipped by request.
 Calling FoFJK, ICntrl=      2127 FMM=F ISym2X=0 I1Cent= 0 IOpClX= 0 NMat=1 NMatS=1 NMatT=0.
 ***** Axes restored to original set *****
 -------------------------------------------------------------------
 Center     Atomic                   Forces (Hartrees/Bohr)
 Number     Number              X              Y              Z
 -------------------------------------------------------------------
      1        6          -0.001645868    0.015693694   -0.005396852
      2        6           0.005044673   -0.043763543    0.018965195
      3        6           0.021158103    0.009275068   -0.028996151
      4        6           0.002947567    0.016477931   -0.012874346
      5        6           0.006118412   -0.026738867    0.011486666
      6        6           0.024367486   -0.004308169   -0.006906202
      7        1          -0.003261941    0.008916149   -0.002359908
      8        6          -0.027309314   -0.010976872   -0.016746509
      9        7           0.011178306    0.031544774    0.006591942
     10        6          -0.032104807    0.014703205   -0.024220821
     11        1           0.012584863    0.000471277   -0.009311853
     12        1           0.005504609    0.008519005    0.011399007
     13        1          -0.004304288   -0.012107376    0.004552869
     14        1          -0.003992324   -0.005913538    0.005844002
     15        7          -0.009654093    0.006277034    0.056045900
[...]
 ,0.00183066,-0.00008304,0.00038898,-0.00066897,-0.00032687,0.00034832,
 -0.00006302,0.00038120,-0.00052463,0.00007881,-0.00009265,-0.00016418,
 0.06810244,-0.13237955,0.01859579,-0.00072047,0.00688673,-0.00434629,0
 .03355356,0.54421160,-0.00017696,0.00005438,0.00126118,0.00444448,0.00
 383473,0.00600380,0.00340309,0.00207545,-0.00111206,-0.00117458,0.0010
 6919,0.00117089,0.00062254,0.00026621,-0.00040348,-0.00001344,-0.00067
 242,-0.00013063,-0.00015972,-0.00012356,-0.00021187,-0.00926462,0.0181
 8069,-0.07593069,0.00881469,-0.00951991,0.00230867,-0.01637320,-0.0177
 4052,0.54590564,0.00030297,-0.00002130,-0.00038143,-0.00156950,-0.0002
 7094,-0.00157894,-0.00148676,0.00042629,-0.00004749,0.00028443,-0.0003
 8660,0.00000347,-0.00037721,0.00000868,0.00010735,0.00000608,0.0003829
 7,-0.00008782,0.00000423,0.00003026,0.00002050,-0.01255050,0.00714868,
 0.02562179,-0.00113402,0.00285845,-0.00002168,-0.07296365,0.02739664,0
 .07764448,0.08177455,-0.00055002,0.00024985,0.00026675,0.00119343,-0.0
 0040770,0.00049529,0.00161381,-0.00074407,-0.00002177,-0.00045034,0.00
 070027,0.00000022,0.00062757,0.00007156,-0.00024407,-0.00001439,-0.000
 57744,0.00030320,-0.00000209,-0.00002450,-0.00002712,0.00715856,-0.005
 98630,-0.01718955,-0.00088163,-0.00063411,0.00021463,0.02763600,-0.070
 60991,-0.06981507,-0.03259711,0.07256066,0.00005641,-0.00011963,-0.000
 02141,-0.00057035,-0.00008984,0.00008053,0.00022752,-0.00011936,0.0001
 3150,0.00011448,-0.00014580,-0.00009061,-0.00011898,-0.00008291,0.0000
 9391,-0.00004030,0.00011653,-0.00004932,0.00000399,-0.00000477,0.00000
 812,-0.00013160,0.00239276,0.00686114,-0.00062419,-0.00048077,-0.00012
 121,0.07721186,-0.06863319,-0.25009998,-0.08543667,0.07729941,0.271153
 56,0.00049714,0.00021910,0.00002745,-0.00062641,0.00156624,0.00127647,
 -0.00168997,0.00080869,0.00025770,0.00036821,-0.00033677,0.00023021,-0
 .00043640,0.00002079,0.00011008,-0.00002834,0.00032010,-0.00031337,-0.
 00001449,-0.00000064,-0.00003796,-0.02254687,-0.01333571,-0.00987484,-
 0.00116073,0.00161363,-0.00214920,-0.18178834,-0.09443533,-0.08865553,
 0.00904664,0.00569142,0.00457334,0.20160684,-0.00050628,0.00001056,-0.
 00012659,0.00107584,-0.00084754,-0.00075167,0.00100894,-0.00033869,-0.
 00003770,-0.00051217,0.00032254,-0.00034173,0.00051585,0.00011898,-0.0
 0020017,0.00004969,-0.00042990,0.00030326,0.00000922,0.00001419,0.0000
 2514,0.01586733,0.01194829,0.01090627,0.00036208,-0.00057210,0.0002829
 9,-0.09351764,-0.11125996,-0.05863211,-0.00671712,-0.00551888,-0.00386
 796,0.10133686,0.11793139,0.00033357,-0.00010270,0.00002285,-0.0003073
 8,0.00011401,-0.00042019,-0.00084020,0.00045830,-0.00006944,0.00026192
 ,-0.00026566,0.00020345,-0.00032473,-0.00003922,0.00010587,0.00003508,
 0.00029707,-0.00016233,-0.00000813,-0.00000364,-0.00001187,-0.00146216
 ,-0.00022315,-0.00107661,0.00141630,-0.00046410,-0.00016510,-0.0889212
 0,-0.05947169,-0.10065199,-0.02177440,-0.01505758,-0.01358998,0.097505
 13,0.06643658,0.10596918,0.00012785,-0.00018280,0.00005203,-0.00013538
 ,0.00005257,-0.00010974,0.00044800,0.00132268,-0.00071631,-0.00040203,
 -0.00008756,0.00019468,-0.00007681,0.00006934,-0.00003937,0.00000681,0
 .00010998,-0.00006166,-0.00004816,0.00000364,0.00000776,0.00882888,0.0
 2422763,-0.01754285,0.00164801,-0.00125824,0.00023662,-0.06387597,-0.0
 5764959,0.03951924,-0.00329355,-0.00839654,0.00446751,-0.00530801,-0.0
 1762724,0.01389964,0.06785934,-0.00013847,0.00013458,-0.00008001,0.000
 38707,-0.00015341,-0.00026178,-0.00081172,-0.00019593,0.00075423,0.000
 36183,0.00013294,-0.00013024,0.00003190,-0.00009798,0.00000688,0.00002
 305,-0.00008873,0.00005729,0.00004035,-0.00001138,-0.00001279,-0.00637
 626,-0.01801812,0.01131660,-0.00217333,0.00195832,-0.00060846,-0.05211
 623,-0.22168569,0.11965715,0.00274218,0.01045670,-0.00611592,-0.002965
 47,-0.01170746,0.00777872,0.05685388,0.23985016,0.00002602,-0.00006737
 ,-0.00003544,-0.00030810,-0.00016398,-0.00021740,0.00054808,0.00013759
 ,0.00044075,-0.00007198,-0.00000077,0.00011114,-0.00001771,-0.00000398
 ,-0.00006325,-0.00001008,0.00003260,0.00000261,-0.00001387,-0.00000226
 ,-0.00000805,0.00063464,0.00245504,-0.00370743,0.00077746,-0.00087315,
 0.00016862,0.03623208,0.12126032,-0.12814236,0.00621507,0.02299613,-0.
 01452714,-0.00317101,-0.01386053,0.00965778,-0.04027797,-0.13196039,0.
 13542529,-0.14026757,-0.09512323,0.08690014,-0.01051305,-0.02232449,0.
 01741189,-0.00350246,0.00266087,0.00119152,-0.00095828,0.00073612,-0.0
 0043132,0.00018689,0.00345678,0.00012355,0.01127225,0.00920074,-0.0079
 1539,0.00036144,0.00055582,-0.00033908,-0.00038881,-0.00048470,0.00025
 599,0.00254605,-0.00015711,-0.00163340,0.00004199,0.00007476,0.0000040
 7,-0.00001302,-0.00000886,0.00000176,0.00001038,-0.00000065,0.00000714
 ,-0.00003079,0.00002911,-0.00000641,0.14207942,-0.09540110,-0.16842469
 ,0.10682453,0.00368166,0.00717999,-0.00300013,0.00213747,0.00173522,0.
 00195972,0.00040688,-0.00037350,-0.00045347,0.00411307,-0.00088786,0.0
 0390984,-0.01578843,-0.01107156,0.01277234,-0.00067894,-0.00060806,0.0
 0075200,-0.00016505,0.00005032,-0.00027791,-0.00138420,-0.00044110,-0.
 00137142,-0.00000516,0.00001285,0.00011826,-0.00004481,0.00001519,0.00
 001508,-0.00000746,0.00001046,-0.00001023,0.00001554,-0.00000702,0.000
 00374,0.10312825,0.17313802,0.08706469,0.10674517,-0.12328920,0.001988
 02,0.00451710,0.00066233,0.00150209,0.00180661,0.00457372,-0.00023637,
 -0.00054746,-0.00054623,-0.00026533,0.00409972,0.00535315,0.00690648,0
 .00554916,-0.00251965,0.00039338,0.00039524,-0.00001930,0.00006622,-0.
 00018539,-0.00040688,-0.00090545,-0.00172681,-0.00214230,0.00005142,0.
 00009516,0.00013816,-0.00001777,-0.00000700,0.00001059,0.00005187,-0.0
 0000064,-0.00000799,0.00000164,-0.00000015,0.00000661,-0.09524161,-0.1
 1815244,0.12179986,-0.00334568,0.00100956,0.00115430,-0.05721670,-0.02
 647526,0.03421806,-0.24749502,0.05375946,0.02752272,-0.02283894,0.0181
 2816,-0.00494495,0.01326582,0.00069208,-0.00262206,-0.00528680,-0.0061
 8930,0.00480003,0.00005873,0.00023076,0.00024548,-0.11558376,0.0092843
 0,0.01179744,-0.03706811,-0.01720253,0.02773811,0.00721488,0.02860898,
 -0.01865406,0.00181284,-0.00122777,0.00017423,0.00232821,-0.00145880,0
 .00062090,-0.00548642,0.00417154,-0.00053494,-0.00102228,0.00038820,0.
 00003391,0.78438505,-0.00660376,0.00046281,0.00323736,0.00667275,-0.00
 287202,0.00383412,0.06182200,-0.12403434,0.03090038,0.03402713,-0.0068
 4974,-0.00737258,-0.00053247,-0.00026843,0.00364562,0.00430976,-0.0037
 1560,0.00013941,0.00192861,0.00016938,0.00016007,0.01767186,-0.2091557
 5,0.08579781,-0.05553490,-0.02621796,0.04563245,-0.00091666,-0.0185144
 4,0.01208172,-0.00154527,0.00136535,0.00009375,-0.00070547,0.00046388,
 0.00028122,0.00265975,-0.00072034,0.00037551,-0.00071876,0.00017556,0.
 00003968,0.04834841,0.49934254,0.00566245,0.00104917,0.00044953,0.0145
 7859,0.01339504,-0.00530017,0.02278851,0.03320862,-0.06817770,-0.01437
 775,-0.00277715,0.00308811,-0.00188776,0.00329071,0.00421086,-0.001430
 83,0.00316902,-0.00284624,-0.00076118,0.00065103,0.00121484,0.00682024
 ,0.08827579,-0.11015675,0.05046307,0.03455955,-0.01144571,-0.00113468,
 0.00355041,-0.00036378,-0.00045000,0.00098873,0.00025988,0.00098720,-0
 .00049036,0.00065315,0.00035806,-0.00005675,0.00114238,0.00069119,-0.0
 0028092,-0.00014169,-0.23852271,-0.27502164,0.29181888,0.00026902,-0.0
 0151454,0.00110643,-0.00518021,0.00310612,0.00039023,-0.01022217,-0.01
 622243,0.01031867,0.00112918,-0.00060308,-0.00003691,-0.00053994,-0.00
 033562,0.00033722,0.00019561,0.00041499,-0.00037607,0.00002196,0.00002
 543,0.00001323,0.00562312,-0.00238739,-0.00282865,0.00332121,0.0035412
 8,-0.00122669,0.00030235,-0.00029262,0.00006213,0.00016674,0.00023200,
 0.00006038,-0.00022574,0.00012680,-0.00044927,-0.00027134,-0.00006389,
 -0.00002403,-0.00035519,0.00023184,0.00003234,-0.31626356,-0.10996757,
 0.15733905,0.32149486,0.00002103,0.00117113,-0.00011082,0.00524873,-0.
 00201699,0.00118730,0.00660870,0.01085503,-0.01304036,0.00028230,0.000
 00957,-0.00022438,-0.00025685,-0.00006832,0.00008065,0.00015679,-0.000
 08393,-0.00014664,0.00007664,-0.00001836,0.00005950,-0.02507880,0.0002
 4072,0.00177808,-0.00094870,-0.00409921,0.00645266,0.00018676,0.000822
 98,-0.00059706,0.00047460,-0.00082970,-0.00024930,0.00011905,-0.000126
 36,0.00025196,-0.00006291,0.00010310,-0.00033005,0.00038951,0.00001485
 ,0.00001690,-0.10991600,-0.11302411,0.09979454,0.12320658,0.10766890,0
 .00019786,0.00032837,0.00074038,-0.00089307,0.00181501,0.00171596,-0.0
 0326884,-0.00642990,-0.00311775,-0.00055561,0.00002863,-0.00008598,0.0
 0028855,0.00010250,-0.00020347,-0.00022173,-0.00021897,-0.00006021,-0.
 00001748,0.00007426,0.00008021,0.01062641,-0.00482085,-0.00924478,0.00
 143893,0.00515087,0.00285268,-0.00022346,-0.00045666,0.00024752,0.0002
 0301,-0.00021390,-0.00012039,-0.00073169,0.00028480,-0.00043204,-0.000
 02439,-0.00033006,-0.00028074,-0.00006147,0.00006261,0.00021411,0.1573
 6410,0.09983697,-0.10346011,-0.16414292,-0.09518211,0.11156967,-0.0087
 9227,0.00054105,0.00301937,0.00183403,0.00272105,-0.00004625,0.0005384
 5,-0.00031380,-0.00015924,0.00075032,-0.00210980,0.00262063,-0.0127654
 9,0.00536215,0.00107707,-0.31533589,0.05613433,0.04802716,0.00058153,-
 0.00079739,-0.00072840,0.00004895,0.00029617,-0.00034859,-0.00064325,0
 .00001635,0.00048239,-0.00004164,-0.00007904,-0.00002364,-0.00001800,0
 .00000467,0.00001112,-0.00004875,0.00001773,-0.00000308,0.00000756,0.0
 0000430,0.00000089,0.00046904,-0.00042522,-0.00120308,0.00001970,-0.00
 017398,0.00004619,0.00001671,-0.00001545,0.00000671,0.33410219,0.02643
 824,-0.00137044,-0.00518838,0.00177685,-0.00239426,0.00521067,0.000072
 82,-0.00109420,0.00024150,-0.00151998,-0.00095391,0.00425966,-0.020784
 24,0.00693763,0.00305870,0.05605187,-0.06309090,0.00107961,-0.00015253
 ,-0.00022816,-0.00194110,0.00008474,-0.00060596,0.00000836,0.00137010,
 0.00053307,-0.00008315,0.00005838,0.00001570,-0.00019477,0.00006874,-0
 .00004430,0.00000117,0.00001463,0.00000132,0.00000395,-0.00001204,0.00
 001282,0.00000755,-0.00112500,-0.00033299,-0.00218588,-0.00007230,0.00
 022742,-0.00022045,0.00002916,-0.00001913,0.00000793,-0.06143012,0.062
 18511,-0.01234109,0.00229628,0.00496924,0.00051342,0.00493807,0.004179
 39,-0.00038710,0.00035264,-0.00074943,0.00227084,0.00443120,0.00220352
 ,0.01658666,-0.00449788,-0.00015939,0.04807485,0.00105565,-0.04847938,
 -0.00111101,-0.00175459,-0.00221337,-0.00022374,-0.00005310,-0.0004544
 6,-0.00031986,0.00030783,0.00097035,-0.00010485,-0.00015517,-0.0001619
 7,0.00003431,-0.00002131,0.00000788,-0.00006261,0.00004411,-0.00000691
 ,0.00001063,0.00000283,0.00001492,-0.00078800,-0.00238805,-0.00292213,
 -0.00001498,-0.00019058,-0.00006166,-0.00001960,0.00002080,0.00000172,
 -0.05295665,-0.00442095,0.04272693,-0.00164451,-0.00033660,0.00038419,
 -0.00062460,0.00397886,-0.00057024,0.01204286,0.00356721,-0.00468921,-
 0.12231394,-0.03685797,0.03755653,-0.01718411,-0.02172479,0.01903155,-
 0.00219829,0.00312466,0.00108426,0.00089668,-0.00168963,-0.00058699,0.
 00050870,-0.00009464,-0.00008338,-0.00007698,0.00183283,-0.00109384,0.
 00008735,0.00004425,-0.00000959,-0.00002720,0.00000016,0.00002599,-0.0
 0003390,-0.00000918,-0.00000643,-0.00000566,0.00000341,-0.00000146,0.0
 0005778,-0.00017509,-0.00024277,0.00038096,0.00038047,-0.00116371,0.00
 004159,0.00006425,0.00009981,-0.00048056,-0.00069327,0.00065733,0.5312
 4142,0.00052021,-0.00074935,-0.00030348,0.00453727,0.00023675,0.001843
 03,-0.01482038,-0.02018223,0.01810354,-0.04280924,-0.13499850,0.052108
 91,-0.00255236,0.00515303,0.00011958,0.00301160,0.00278617,0.00221090,
 0.00097099,-0.00046643,-0.00273857,-0.00112743,-0.00039313,0.00057703,
 -0.00022758,-0.00164020,0.00098143,0.00003053,0.00010551,0.00001627,0.
 00000831,0.00000924,-0.00000813,0.00000846,0.00002063,-0.00002293,-0.0
 0004043,0.00002741,-0.00000658,-0.00023430,-0.00026555,-0.00045260,-0.
 00324028,0.00233138,-0.00215120,0.00015195,0.00054810,-0.00005518,0.00
 043271,0.00041470,-0.00015161,-0.03984210,0.52796980,-0.00012849,-0.00
 005743,-0.00093752,-0.00090472,0.00201066,0.00462490,0.00620879,0.0127
 9326,-0.00625110,0.04109613,0.05040330,-0.10973328,0.00767001,0.005660
 34,-0.00146518,0.00115818,0.00217405,0.00634845,-0.00216833,-0.0019661
 6,-0.00281066,0.00053082,0.00027432,-0.00028661,0.00013250,0.00038798,
 -0.00036433,-0.00000075,0.00001239,0.00014001,-0.00000150,-0.00002758,
 0.00000172,0.00000552,0.00000421,-0.00000235,0.00002459,-0.00001926,0.
 00000069,-0.00020783,-0.00046912,-0.00080314,0.00098313,-0.00319203,-0
 .00126453,0.00005333,-0.00003779,0.00053396,-0.00001019,0.00017479,0.0
 0027057,0.02180762,0.00970134,0.51294878,-0.00006848,-0.00003403,-0.00
 008254,-0.00051223,0.00007871,0.00071886,-0.00063987,0.00230933,-0.000
 23437,-0.01562360,-0.00704688,-0.00557825,0.00001911,-0.00241085,0.000
 78222,-0.00009474,0.00037678,0.00121626,0.00001035,-0.00043326,-0.0006
 2181,0.00009817,0.00001532,-0.00024340,0.00012230,-0.00000335,-0.00003
 933,0.00000057,0.00000813,0.00000716,0.00001209,-0.00001063,-0.0000024
 7,0.00003401,-0.00001152,0.00001251,0.00000601,-0.00000360,0.00000805,
 -0.00001900,-0.00012021,-0.00012616,0.00118065,-0.00085956,-0.00006776
 ,0.00013474,-0.00027149,-0.00010306,-0.00012947,-0.00009388,0.00014145
 ,-0.19121248,-0.06662306,-0.10645043,0.21008067,-0.00072865,0.00010399
 ,-0.00003407,0.00016549,0.00083580,0.00021136,-0.00177654,0.00084606,0
 .00099438,-0.01625360,-0.00760047,-0.00984691,0.00089817,-0.00167026,0
 .00021038,-0.00018883,-0.00019300,0.00084365,-0.00018057,0.00010817,-0
 .00009182,0.00013123,-0.00056423,0.00046684,0.00038217,0.00023859,-0.0
 0036978,0.00002937,0.00006203,-0.00004753,0.00001128,-0.00003523,0.000
 00166,0.00003957,-0.00002332,0.00002993,0.00000066,0.00001169,-0.00000
 420,-0.00000102,-0.00001242,-0.00005000,0.00097330,0.00021562,-0.00053
 248,0.00019046,-0.00102999,-0.00017710,-0.00006358,-0.00005051,0.00017
 620,-0.06860265,-0.07857684,-0.04876864,0.07769987,0.08274296,0.000361
 41,-0.00002473,0.00000763,-0.00013650,-0.00048546,-0.00036432,-0.00006
 750,0.00006914,0.00055471,0.01668520,0.00689663,0.01152056,0.00043237,
 0.00149338,-0.00089467,0.00026170,-0.00030176,-0.00099152,0.00017493,0
 .00007670,0.00024747,-0.00003712,-0.00014072,-0.00005933,0.00011173,-0
 .00009216,0.00010155,-0.00000986,0.00000292,-0.00000635,-0.00000586,-0
 .00000443,-0.00000918,-0.00000183,0.00000227,0.00001336,0.00000138,0.0
 0000414,-0.00000001,0.00002121,0.00003788,0.00008043,-0.00047222,-0.00
 002450,0.00009007,0.00004677,-0.00008532,0.00015536,0.00008710,0.00006
 505,-0.00010932,-0.10520647,-0.04739324,-0.11929125,0.11420700,0.05177
 111,0.12972282,0.00000922,0.00004186,0.00007567,-0.00069541,-0.0004658
 4,-0.00016623,-0.00026455,0.00149985,-0.00118758,-0.01012158,0.0062839
 8,0.01545020,-0.00017427,-0.00193085,0.00169126,-0.00076094,-0.0007615
 8,-0.00085384,0.00034309,0.00029746,0.00061658,0.00013549,0.00033550,-
 0.00007673,-0.00002300,-0.00001464,0.00002477,-0.00000822,-0.00002033,
 0.00000051,0.00002091,-0.00000691,-0.00000360,0.00000847,-0.00000305,-
 0.00000527,0.00000262,-0.00001167,0.00000122,0.00005926,0.00005430,0.0
 0015988,0.00106188,-0.00067180,0.00024348,0.00008382,0.00010060,-0.000
 01007,-0.00014702,-0.00012289,0.00008458,-0.07890679,0.04428934,0.0755
 8312,0.01026138,-0.01170721,-0.02049947,0.08610170,-0.00059370,0.00020
 087,0.00019727,-0.00000742,0.00014005,-0.00088756,-0.00061029,-0.00000
 522,0.00038375,-0.00905758,0.01129041,0.01908138,0.00017426,-0.0013463
 2,0.00095515,-0.00065988,-0.00068964,-0.00031174,-0.00019302,0.0001907
 0,0.00005846,-0.00003229,-0.00039181,-0.00002183,0.00012239,0.00030120
 ,-0.00009036,0.00002213,0.00002538,-0.00002373,0.00001404,-0.00000975,
 0.00000326,0.00000593,-0.00001524,0.00000299,-0.00000117,0.00000559,-0
 .00000030,0.00001517,0.00004978,0.00003702,0.00058793,0.00029680,-0.00
 038929,0.00019455,-0.00004285,0.00038748,-0.00011056,-0.00013299,0.000
 01953,0.04304281,-0.09770804,-0.09070691,0.00422825,-0.00584720,-0.008
 56898,-0.04493693,0.10474698,0.00042131,-0.00019491,-0.00016830,0.0003
 6566,-0.00003625,0.00051636,0.00232421,-0.00048225,0.00103342,0.007759
 03,-0.00473525,-0.01286816,-0.00117459,0.00123674,-0.00103957,0.000370
 77,0.00069605,0.00017492,-0.00003727,-0.00017901,-0.00016477,-0.000134
 42,0.00051685,-0.00026914,-0.00043865,-0.00021777,0.00018671,-0.000020
 65,-0.00005593,0.00003899,-0.00003173,0.00005169,0.00001324,-0.0000202
 9,0.00001804,-0.00002564,-0.00000087,-0.00000452,0.00000949,-0.0000346
 2,-0.00002740,-0.00005982,-0.00118411,-0.00000731,0.00012404,-0.000492
 79,0.00046157,-0.00077816,0.00011377,0.00014280,-0.00001045,0.07626877
 ,-0.09300233,-0.21247678,0.00620670,-0.00882263,-0.01507823,-0.0865729
 1,0.10058355,0.23170631,0.00000928,0.00001709,-0.00001155,0.00062969,-
 0.00036331,0.00019275,-0.00291482,-0.00184850,0.00225157,0.01106842,-0
 .01609742,0.00595562,0.00103670,-0.00128232,0.00043826,0.00016628,-0.0
 0006870,-0.00006566,-0.00003104,0.00045280,-0.00018088,0.00000739,-0.0
 0042536,0.00026884,0.00013646,-0.00018117,-0.00000128,0.00000612,0.000
 02718,-0.00001705,0.00000193,-0.00001133,-0.00000044,0.00000805,-0.000
 00670,0.00001006,-0.00000097,0.00001203,-0.00000597,-0.00001407,0.0000
 3845,-0.00001339,-0.00010146,0.00040945,-0.00018166,0.00025725,-0.0003
 8534,0.00002841,0.00003385,0.00004071,-0.00004458,-0.13054833,0.117555
 79,-0.04538149,-0.01366018,0.01898108,-0.00595395,-0.00698607,0.007795
 40,-0.00368733,0.14089551,-0.00015761,0.00021186,-0.00007858,0.0013670
 1,-0.00018414,0.00004261,-0.00353530,-0.00108291,0.00231345,0.01203753
 ,-0.01770923,0.00618117,0.00214193,0.00118097,-0.00136898,-0.00037322,
 -0.00013432,0.00006342,-0.00099008,0.00073922,0.00001391,-0.00001309,0
 .00020719,-0.00008064,-0.00024686,-0.00061135,0.00029159,-0.00000646,-
 0.00001537,0.00001263,0.00001204,-0.00000693,-0.00000603,0.00002238,-0
 .00000282,0.00000619,0.00000285,-0.00000724,0.00000505,-0.00006901,0.0
 0004252,0.00000662,-0.00040044,0.00032199,-0.00001237,-0.00006404,-0.0
 0007544,-0.00019470,-0.00001155,-0.00001003,-0.00001189,0.11398698,-0.
 20462245,0.06164828,-0.00679405,0.01043857,-0.00329793,0.00775080,-0.0
 1105871,0.00405826,-0.12465980,0.22237862,0.00009329,-0.00012973,0.000
 05239,-0.00083319,0.00054251,0.00047738,0.00325352,0.00182230,-0.00093
 440,-0.01075770,0.01427452,-0.00683988,-0.00159388,-0.00037637,0.00060
 671,0.00011431,-0.00002193,-0.00022524,0.00067795,-0.00040552,0.000320
 46,0.00002401,0.00003933,0.00003483,0.00003721,0.00027169,-0.00041225,
 0.00000278,0.00000287,0.00000031,-0.00001469,0.00001334,0.00000715,-0.
 00000664,0.00000181,-0.00000321,-0.00000060,0.00000247,0.00000154,0.00
 005064,-0.00002491,0.00001937,0.00029762,-0.00024743,0.00016661,-0.000
 16285,-0.00010013,-0.00032792,-0.00001329,-0.00002706,-0.00001603,-0.0
 4326198,0.06062381,-0.06918235,-0.00975064,0.01403966,-0.00568977,0.01
 544442,-0.02070915,0.00913555,0.04639970,-0.06959206,0.07280873\\0.000
 00436,-0.00000351,-0.00000269,0.00000090,0.00000658,-0.00000039,0.0000
 0765,-0.00000140,-0.00000878,-0.00001279,-0.00000713,0.00000629,0.0000
 0410,0.00000152,-0.00000113,-0.00000031,0.00000088,0.00000275,0.000000
 60,0.00000034,0.00000046,0.00000644,0.00001348,-0.00001435,-0.00000123
 ,-0.00000826,0.00000590,0.00001063,-0.00000598,0.00000461,-0.00000134,
 0.00000002,0.00000065,-0.00000363,0.00000269,-0.00000206,-0.00000283,0
 .00000006,-0.00000111,-0.00000029,-0.00000124,-0.00000030,-0.00000730,
 -0.00000416,0.00002027,-0.00000475,0.00000072,-0.00000896,-0.00000018,
 -0.00000212,0.00000103,0.00000718,0.00001479,-0.00000981,-0.00000262,-
 0.00000168,0.00000285,-0.00000150,-0.00000169,0.00000307,-0.00000310,-
 0.00000390,0.00000170\\\@


 WHEN ALL ELSE FAILS, TRY THE BOSS'S SUGGESTION.
 Job cpu time:       0 days  1 hours  0 minutes 52.5 seconds.
 File lengths (MBytes):  RWF=    222 Int=      0 D2E=      0 Chk=      8 Scr=      1
 Normal termination of Gaussian 09 at Mon Nov  1 17:03:54 2021.
