 Entering Gaussian System, Link 0=g09
 Initial command:
 /cm/shared/apps/gaussian/g09revD.01/g09/l1.exe "//home/sweav003/HartwigDocs/IrCatHeteroarenes/G09-Chart1_2.com.o9624828.tmp/Gau-132877.inp" -scrdir="//home/sweav003/HartwigDocs/IrCatHeteroarenes/G09-Chart1_2.com.o9624828.tmp/"
 Entering Link 1 = /cm/shared/apps/gaussian/g09revD.01/g09/l1.exe PID=    132878.
  
 Copyright (c) 1988,1990,1992,1993,1995,1998,2003,2009,2013,
            Gaussian, Inc.  All Rights Reserved.
  
 This is part of the Gaussian(R) 09 program.  It is based on
 the Gaussian(R) 03 system (copyright 2003, Gaussian, Inc.),
 the Gaussian(R) 98 system (copyright 1998, Gaussian, Inc.),
 the Gaussian(R) 94 system (copyright 1995, Gaussian, Inc.),
 the Gaussian 92(TM) system (copyright 1992, Gaussian, Inc.),
 the Gaussian 90(TM) system (copyright 1990, Gaussian, Inc.),
 the Gaussian 88(TM) system (copyright 1988, Gaussian, Inc.),
 the Gaussian 86(TM) system (copyright 1986, Carnegie Mellon
 University), and the Gaussian 82(TM) system (copyright 1983,
 Carnegie Mellon University). Gaussian is a federally registered
 trademark of Gaussian, Inc.
  
 This software contains proprietary and confidential information,
 including trade secrets, belonging to Gaussian, Inc.
  
 This software is provided under written license and may be
 used, copied, transmitted, or stored only in accord with that
 written license.
  
 The following legend is applicable only to US Government
 contracts under FAR:
  
                    RESTRICTED RIGHTS LEGEND
  
 Use, reproduction and disclosure by the US Government is
 subject to restrictions as set forth in subparagraphs (a)
 and (c) of the Commercial Computer Software - Restricted
 Rights clause in FAR 52.227-19.
  
 Gaussian, Inc.
 340 Quinnipiac St., Bldg. 40, Wallingford CT 06492
  
  
 ---------------------------------------------------------------
 Warning -- This program may not be used in any manner that
 competes with the business of Gaussian, Inc. or will provide
 assistance to any competitor of Gaussian, Inc.  The licensee
 of this program is prohibited from giving any competitor of
 Gaussian, Inc. access to this program.  By using this program,
 the user acknowledges that Gaussian, Inc. is engaged in the
 business of creating and licensing software in the field of
 computational chemistry and represents and warrants to the
 licensee that it is not a competitor of Gaussian, Inc. and that
 it will not use this program in any manner prohibited above.
 ---------------------------------------------------------------
  

 Cite this work as:
 Gaussian 09, Revision D.01,
 M. J. Frisch, G. W. Trucks, H. B. Schlegel, G. E. Scuseria, 
 M. A. Robb, J. R. Cheeseman, G. Scalmani, V. Barone, B. Mennucci, 
 G. A. Petersson, H. Nakatsuji, M. Caricato, X. Li, H. P. Hratchian, 
 A. F. Izmaylov, J. Bloino, G. Zheng, J. L. Sonnenberg, M. Hada, 
 M. Ehara, K. Toyota, R. Fukuda, J. Hasegawa, M. Ishida, T. Nakajima, 
 Y. Honda, O. Kitao, H. Nakai, T. Vreven, J. A. Montgomery, Jr., 
 J. E. Peralta, F. Ogliaro, M. Bearpark, J. J. Heyd, E. Brothers, 
 K. N. Kudin, V. N. Staroverov, T. Keith, R. Kobayashi, J. Normand, 
 K. Raghavachari, A. Rendell, J. C. Burant, S. S. Iyengar, J. Tomasi, 
 M. Cossi, N. Rega, J. M. Millam, M. Klene, J. E. Knox, J. B. Cross, 
 V. Bakken, C. Adamo, J. Jaramillo, R. Gomperts, R. E. Stratmann, 
 O. Yazyev, A. J. Austin, R. Cammi, C. Pomelli, J. W. Ochterski, 
 R. L. Martin, K. Morokuma, V. G. Zakrzewski, G. A. Voth, 
 P. Salvador, J. J. Dannenberg, S. Dapprich, A. D. Daniels, 
 O. Farkas, J. B. Foresman, J. V. Ortiz, J. Cioslowski, 
 and D. J. Fox, Gaussian, Inc., Wallingford CT, 2013.
 
 ******************************************
 Gaussian 09:  ES64L-G09RevD.01 24-Apr-2013
                 1-Nov-2021 
 ******************************************
 %chk=Chart1_2.chk
 ----------------------------------------------------------------------
 # opt freq b3lyp/6-311+g(d,p) geom=connectivity pop=(hirshfeld,chelpg,
 mbs,npa)
 ----------------------------------------------------------------------
 1/14=-1,18=20,19=15,26=3,38=1,57=2/1,3;
 2/9=110,12=2,17=6,18=5,40=1/2;
 3/5=4,6=6,7=111,11=2,16=1,25=1,30=1,71=1,74=-5/1,2,3;
 4//1;
 5/5=2,38=5/2;
 6/7=2,8=2,9=2,10=2,15=8,20=3,27=100,28=1,40=-1,79=1/1,2,7;
 7//1,2,3,16;
 1/14=-1,18=20,19=15,26=3/3(2);
 2/9=110/2;
 99//99;
 2/9=110/2;
 3/5=4,6=6,7=111,11=2,16=1,25=1,30=1,71=1,74=-5/1,2,3;
 4/5=5,16=3,69=1/1;
 5/5=2,38=5/2;
 7//1,2,3,16;
 1/14=-1,18=20,19=15,26=3/3(-5);
 2/9=110/2;
 6/7=2,8=2,9=2,10=2,15=8,19=2,20=3,27=100,28=1,40=-1,79=1/1,2,7;
 99/9=1/99;
 -------------------
 Title Card Required
 -------------------
 Symbolic Z-matrix:
 Charge =  0 Multiplicity = 1
 C                    -2.78615  -1.1542    0.35196 
 C                    -1.43358  -1.29929   0.05721 
 C                    -0.73153  -0.35737  -0.62252 
 C                    -1.30792   0.85732  -0.98844 
 C                    -2.67067   1.06031  -0.68698 
 C                    -3.4143    0.04777  -0.02966 
 H                    -0.73533   1.61128  -1.48702 
 H                    -3.14533   1.98046  -0.95701 
 H                    -4.45302   0.19762   0.17893 
 C                     0.63843  -2.00096  -0.03219 
 O                     0.60407  -0.80919  -0.87446 
 N                    -0.53775  -2.3866    0.39646 
 C                     1.94317  -2.73621   0.32647 
 H                     2.64863  -2.6197   -0.46956 
 H                     2.34936  -2.32354   1.22626 
 H                     1.73809  -3.77625   0.47192 
 C                    -3.56755  -2.26652   1.07567 
 H                    -3.14496  -3.21797   0.82857 
 H                    -3.50851  -2.11382   2.13307 
 H                    -4.5921   -2.24062   0.76822 
 

 GradGradGradGradGradGradGradGradGradGradGradGradGradGradGradGradGradGrad
 Berny optimization.
 Initialization pass.
                           ----------------------------
                           !    Initial Parameters    !
                           ! (Angstroms and Degrees)  !
 --------------------------                            --------------------------
 ! Name  Definition              Value          Derivative Info.                !
 --------------------------------------------------------------------------------
 ! R1    R(1,2)                  1.3919         estimate D2E/DX2                !
 ! R2    R(1,6)                  1.4089         estimate D2E/DX2                !
 ! R3    R(1,17)                 1.54           estimate D2E/DX2                !
 ! R4    R(2,3)                  1.3572         estimate D2E/DX2                !
 ! R5    R(2,12)                 1.4491         estimate D2E/DX2                !
 ! R6    R(3,4)                  1.3934         estimate D2E/DX2                !
 ! R7    R(3,11)                 1.4323         estimate D2E/DX2                !
 ! R8    R(4,5)                  1.4104         estimate D2E/DX2                !
 ! R9    R(4,7)                  1.07           estimate D2E/DX2                !
 ! R10   R(5,6)                  1.4178         estimate D2E/DX2                !
 ! R11   R(5,8)                  1.07           estimate D2E/DX2                !
 ! R12   R(6,9)                  1.07           estimate D2E/DX2                !
 ! R13   R(10,11)                1.4598         estimate D2E/DX2                !
 ! R14   R(10,12)                1.3099         estimate D2E/DX2                !
 ! R15   R(10,13)                1.54           estimate D2E/DX2                !
 ! R16   R(13,14)                1.07           estimate D2E/DX2                !
 ! R17   R(13,15)                1.07           estimate D2E/DX2                !
 ! R18   R(13,16)                1.07           estimate D2E/DX2                !
 ! R19   R(17,18)                1.07           estimate D2E/DX2                !
 ! R20   R(17,19)                1.07           estimate D2E/DX2                !
 ! R21   R(17,20)                1.07           estimate D2E/DX2                !
 ! A1    A(2,1,6)              117.6988         estimate D2E/DX2                !
 ! A2    A(2,1,17)             121.1512         estimate D2E/DX2                !
 ! A3    A(6,1,17)             121.1494         estimate D2E/DX2                !
 ! A4    A(1,2,3)              122.4366         estimate D2E/DX2                !
 ! A5    A(1,2,12)             129.0038         estimate D2E/DX2                !
 ! A6    A(3,2,12)             108.5544         estimate D2E/DX2                !
 ! A7    A(2,3,4)              121.5018         estimate D2E/DX2                !
 ! A8    A(2,3,11)             110.5804         estimate D2E/DX2                !
 ! A9    A(4,3,11)             127.9178         estimate D2E/DX2                !
 ! A10   A(3,4,5)              117.9709         estimate D2E/DX2                !
 ! A11   A(3,4,7)              121.0151         estimate D2E/DX2                !
 ! A12   A(5,4,7)              121.0134         estimate D2E/DX2                !
 ! A13   A(4,5,6)              120.2037         estimate D2E/DX2                !
 ! A14   A(4,5,8)              119.8979         estimate D2E/DX2                !
 ! A15   A(6,5,8)              119.8983         estimate D2E/DX2                !
 ! A16   A(1,6,5)              120.0657         estimate D2E/DX2                !
 ! A17   A(1,6,9)              119.9669         estimate D2E/DX2                !
 ! A18   A(5,6,9)              119.9672         estimate D2E/DX2                !
 ! A19   A(11,10,12)           114.0813         estimate D2E/DX2                !
 ! A20   A(11,10,13)           122.9634         estimate D2E/DX2                !
 ! A21   A(12,10,13)           122.9547         estimate D2E/DX2                !
 ! A22   A(3,11,10)            100.2527         estimate D2E/DX2                !
 ! A23   A(2,12,10)            104.9264         estimate D2E/DX2                !
 ! A24   A(10,13,14)           109.4712         estimate D2E/DX2                !
 ! A25   A(10,13,15)           109.4712         estimate D2E/DX2                !
 ! A26   A(10,13,16)           109.4712         estimate D2E/DX2                !
 ! A27   A(14,13,15)           109.4712         estimate D2E/DX2                !
 ! A28   A(14,13,16)           109.4712         estimate D2E/DX2                !
 ! A29   A(15,13,16)           109.4712         estimate D2E/DX2                !
 ! A30   A(1,17,18)            109.4712         estimate D2E/DX2                !
 ! A31   A(1,17,19)            109.4712         estimate D2E/DX2                !
 ! A32   A(1,17,20)            109.4712         estimate D2E/DX2                !
 ! A33   A(18,17,19)           109.4712         estimate D2E/DX2                !
 ! A34   A(18,17,20)           109.4712         estimate D2E/DX2                !
 ! A35   A(19,17,20)           109.4712         estimate D2E/DX2                !
 ! D1    D(6,1,2,3)             -2.7363         estimate D2E/DX2                !
 ! D2    D(6,1,2,12)           176.3334         estimate D2E/DX2                !
 ! D3    D(17,1,2,3)           177.5249         estimate D2E/DX2                !
 ! D4    D(17,1,2,12)           -3.4053         estimate D2E/DX2                !
 ! D5    D(2,1,6,5)             -0.1615         estimate D2E/DX2                !
 ! D6    D(2,1,6,9)            179.989          estimate D2E/DX2                !
 ! D7    D(17,1,6,5)           179.5773         estimate D2E/DX2                !
 ! D8    D(17,1,6,9)            -0.2722         estimate D2E/DX2                !
 ! D9    D(2,1,17,18)          -30.1351         estimate D2E/DX2                !
 ! D10   D(2,1,17,19)           89.8649         estimate D2E/DX2                !
 ! D11   D(2,1,17,20)         -150.1351         estimate D2E/DX2                !
 ! D12   D(6,1,17,18)          150.1351         estimate D2E/DX2                !
 ! D13   D(6,1,17,19)          -89.8649         estimate D2E/DX2                !
 ! D14   D(6,1,17,20)           30.1351         estimate D2E/DX2                !
 ! D15   D(1,2,3,4)              4.3928         estimate D2E/DX2                !
 ! D16   D(1,2,3,11)          -175.5463         estimate D2E/DX2                !
 ! D17   D(12,2,3,4)          -174.8446         estimate D2E/DX2                !
 ! D18   D(12,2,3,11)            5.2162         estimate D2E/DX2                !
 ! D19   D(1,2,12,10)         -175.984          estimate D2E/DX2                !
 ! D20   D(3,2,12,10)            3.1878         estimate D2E/DX2                !
 ! D21   D(2,3,4,5)             -2.9412         estimate D2E/DX2                !
 ! D22   D(2,3,4,7)            177.3394         estimate D2E/DX2                !
 ! D23   D(11,3,4,5)           176.9867         estimate D2E/DX2                !
 ! D24   D(11,3,4,7)            -2.7327         estimate D2E/DX2                !
 ! D25   D(2,3,11,10)          -10.4535         estimate D2E/DX2                !
 ! D26   D(4,3,11,10)          169.6122         estimate D2E/DX2                !
 ! D27   D(3,4,5,6)              0.075          estimate D2E/DX2                !
 ! D28   D(3,4,5,8)           -179.796          estimate D2E/DX2                !
 ! D29   D(7,4,5,6)            179.7944         estimate D2E/DX2                !
 ! D30   D(7,4,5,8)             -0.0766         estimate D2E/DX2                !
 ! D31   D(4,5,6,1)              1.4276         estimate D2E/DX2                !
 ! D32   D(4,5,6,9)           -178.7229         estimate D2E/DX2                !
 ! D33   D(8,5,6,1)           -178.7014         estimate D2E/DX2                !
 ! D34   D(8,5,6,9)              1.1481         estimate D2E/DX2                !
 ! D35   D(12,10,11,3)          13.2103         estimate D2E/DX2                !
 ! D36   D(13,10,11,3)        -166.5101         estimate D2E/DX2                !
 ! D37   D(11,10,12,2)         -10.5249         estimate D2E/DX2                !
 ! D38   D(13,10,12,2)         169.1955         estimate D2E/DX2                !
 ! D39   D(11,10,13,14)        -30.1521         estimate D2E/DX2                !
 ! D40   D(11,10,13,15)         89.8479         estimate D2E/DX2                !
 ! D41   D(11,10,13,16)       -150.1521         estimate D2E/DX2                !
 ! D42   D(12,10,13,14)        150.1521         estimate D2E/DX2                !
 ! D43   D(12,10,13,15)        -89.8479         estimate D2E/DX2                !
 ! D44   D(12,10,13,16)         30.1521         estimate D2E/DX2                !
 --------------------------------------------------------------------------------
 Trust Radius=3.00D-01 FncErr=1.00D-07 GrdErr=1.00D-06
 Number of steps in this run=    110 maximum allowed number of steps=    120.
 GradGradGradGradGradGradGradGradGradGradGradGradGradGradGradGradGradGrad

                          Input orientation:                          
 ---------------------------------------------------------------------
 Center     Atomic      Atomic             Coordinates (Angstroms)
 Number     Number       Type             X           Y           Z
 ---------------------------------------------------------------------
      1          6           0       -2.786145   -1.154203    0.351960
      2          6           0       -1.433582   -1.299286    0.057210
      3          6           0       -0.731530   -0.357372   -0.622520
      4          6           0       -1.307923    0.857316   -0.988437
      5          6           0       -2.670668    1.060307   -0.686979
      6          6           0       -3.414301    0.047766   -0.029658
      7          1           0       -0.735333    1.611280   -1.487015
      8          1           0       -3.145328    1.980461   -0.957006
      9          1           0       -4.453018    0.197623    0.178932
     10          6           0        0.638426   -2.000960   -0.032188
     11          8           0        0.604071   -0.809186   -0.874462
     12          7           0       -0.537754   -2.386600    0.396456
     13          6           0        1.943175   -2.736211    0.326472
     14          1           0        2.648625   -2.619700   -0.469558
     15          1           0        2.349359   -2.323538    1.226258
     16          1           0        1.738086   -3.776252    0.471915
     17          6           0       -3.567548   -2.266520    1.075673
     18          1           0       -3.144958   -3.217970    0.828567
     19          1           0       -3.508512   -2.113815    2.133073
     20          1           0       -4.592097   -2.240620    0.768218
 ---------------------------------------------------------------------
                    Distance matrix (angstroms):
                    1          2          3          4          5
     1  C    0.000000
     2  C    1.391888   0.000000
     3  C    2.409564   1.357244   0.000000
     4  C    2.833375   2.400020   1.393410   0.000000
     5  C    2.448833   2.766202   2.402962   1.410375   0.000000
     6  C    1.408880   2.396944   2.777208   2.451827   1.417850
     7  H    3.903275   3.368022   2.150105   1.070000   2.165445
     8  H    3.415922   3.836071   3.376946   2.153717   1.070000
     9  H    2.153099   3.372320   3.847053   3.419001   2.161202
    10  C    3.548557   2.189420   2.219607   3.587817   4.555240
    11  O    3.621700   2.293521   1.432285   2.538885   3.775456
    12  N    2.564380   1.449086   2.278954   3.610274   4.195750
    13  C    4.986970   3.679639   3.703175   5.021161   6.060378
    14  H    5.688524   4.322661   4.070255   5.292746   6.471832
    15  H    5.339021   4.089793   4.095811   5.329016   6.349138
    16  H    5.230506   4.045593   4.357239   5.734174   6.646236
    17  C    1.540000   2.554725   3.817291   4.373192   3.870286
    18  H    2.148263   2.684241   4.014139   4.825366   4.563494
    19  H    2.148263   3.045981   4.288359   4.838806   4.327785
    20  H    2.148263   3.371626   4.514948   4.844465   4.087249
                    6          7          8          9         10
     6  C    0.000000
     7  H    3.427146   0.000000
     8  H    2.160470   2.495051   0.000000
     9  H    1.070000   4.312190   2.485743   0.000000
    10  C    4.541132   4.129408   5.569901   5.549877   0.000000
    11  O    4.194683   2.833351   4.674070   5.262836   1.459771
    12  N    3.792391   4.423748   5.263319   4.696255   1.309906
    13  C    6.048132   5.418839   7.056002   7.038496   1.540000
    14  H    6.638370   5.512494   7.414107   7.667541   2.148263
    15  H    6.357686   5.688582   7.313182   7.329766   2.148263
    16  H    6.435975   6.243453   7.683052   7.362559   2.148263
    17  C    2.569273   5.442990   4.727251   2.767707   4.357534
    18  H    3.387348   5.872807   5.496540   3.714743   4.066449
    19  H    3.059202   5.888284   5.142333   3.170726   4.679550
    20  H    2.694535   5.898969   4.784042   2.512295   5.296835
                   11         12         13         14         15
    11  O    0.000000
    12  N    2.325346   0.000000
    13  C    2.636071   2.506418   0.000000
    14  H    2.760818   3.310186   1.070000   0.000000
    15  H    3.122870   3.004658   1.070000   1.747303   0.000000
    16  H    3.449957   2.667634   1.070000   1.747303   1.747303
    17  C    4.830037   3.107315   5.581216   6.415083   5.919097
    18  H    4.770510   2.770453   5.135493   5.967300   5.580832
    19  H    5.259340   3.451906   5.776856   6.703726   5.931352
    20  H    5.634498   4.073968   6.568906   7.355532   6.957046
                   16         17         18         19         20
    16  H    0.000000
    17  C    5.549195   0.000000
    18  H    4.927778   1.070000   0.000000
    19  H    5.748906   1.070000   1.747303   0.000000
    20  H    6.520520   1.070000   1.747303   1.747303   0.000000
 Stoichiometry    C9H9NO
 Framework group  C1[X(C9H9NO)]
 Deg. of freedom    54
 Full point group                 C1      NOp   1
 Largest Abelian subgroup         C1      NOp   1
 Largest concise Abelian subgroup C1      NOp   1
                         Standard orientation:                         
 ---------------------------------------------------------------------
 Center     Atomic      Atomic             Coordinates (Angstroms)
 Number     Number       Type             X           Y           Z
 ---------------------------------------------------------------------
      1          6           0        1.425663    0.859473   -0.006253
      2          6           0        0.135347    0.339894   -0.056029
      3          6           0       -0.111722   -0.994469   -0.079361
      4          6           0        0.916712   -1.927492    0.036312
      5          6           0        2.240200   -1.446682    0.116066
      6          6           0        2.496047   -0.052584    0.079617
      7          1           0        0.709066   -2.976899    0.059321
      8          1           0        3.053860   -2.136193    0.202268
      9          1           0        3.502922    0.307259    0.119795
     10          6           0       -2.041015    0.102104   -0.034515
     11          8           0       -1.513531   -1.244318   -0.234111
     12          7           0       -1.131218    1.043721   -0.073027
     13          6           0       -3.534553    0.389665    0.206841
     14          1           0       -4.125283   -0.351170   -0.290252
     15          1           0       -3.737880    0.362296    1.256988
     16          1           0       -3.778213    1.357668   -0.178517
     17          6           0        1.674380    2.378929   -0.037747
     18          1           0        0.897489    2.855976   -0.597895
     19          1           0        1.679048    2.760374    0.961942
     20          1           0        2.619414    2.576163   -0.499168
 ---------------------------------------------------------------------
 Rotational constants (GHZ):      2.0622683      0.9331813      0.6510059
 Standard basis: 6-311+G(d,p) (5D, 7F)
 There are   307 symmetry adapted cartesian basis functions of A   symmetry.
 There are   296 symmetry adapted basis functions of A   symmetry.
   296 basis functions,   468 primitive gaussians,   307 cartesian basis functions
    39 alpha electrons       39 beta electrons
       nuclear repulsion energy       570.9906497305 Hartrees.
 NAtoms=   20 NActive=   20 NUniq=   20 SFac= 1.00D+00 NAtFMM=   60 NAOKFM=F Big=F
 Integral buffers will be    131072 words long.
 Raffenetti 2 integral format.
 Two-electron integral symmetry is turned on.
 One-electron integrals computed using PRISM.
 NBasis=   296 RedAO= T EigKep=  1.73D-06  NBF=   296
 NBsUse=   295 1.00D-06 EigRej=  4.97D-07 NBFU=   295
 ExpMin= 4.38D-02 ExpMax= 8.59D+03 ExpMxC= 1.30D+03 IAcc=2 IRadAn=         4 AccDes= 0.00D+00
 Harris functional with IExCor=  402 and IRadAn=       4 diagonalized for initial guess.
 HarFok:  IExCor=  402 AccDes= 0.00D+00 IRadAn=         4 IDoV= 1 UseB2=F ITyADJ=14
 ICtDFT=  3500011 ScaDFX=  1.000000  1.000000  1.000000  1.000000
 FoFCou: FMM=F IPFlag=           0 FMFlag=      100000 FMFlg1=           0
         NFxFlg=           0 DoJE=T BraDBF=F KetDBF=T FulRan=T
         wScrn=  0.000000 ICntrl=     500 IOpCl=  0 I1Cent=   200000004 NGrid=           0
         NMat0=    1 NMatS0=      1 NMatT0=    0 NMatD0=    1 NMtDS0=    0 NMtDT0=    0
 Petite list used in FoFCou.
 Requested convergence on RMS density matrix=1.00D-08 within 128 cycles.
 Requested convergence on MAX density matrix=1.00D-06.
 Requested convergence on             energy=1.00D-06.
 No special actions if energy rises.
 SCF Done:  E(RB3LYP) =  -478.470415423     A.U. after   15 cycles
            NFock= 15  Conv=0.58D-08     -V/T= 2.0048

 **********************************************************************

            Population analysis using the SCF density.

 **********************************************************************

 Orbital symmetries:
       Occupied  (A) (A) (A) (A) (A) (A) (A) (A) (A) (A) (A) (A)
                 (A) (A) (A) (A) (A) (A) (A) (A) (A) (A) (A) (A)
                 (A) (A) (A) (A) (A) (A) (A) (A) (A) (A) (A) (A)
                 (A) (A) (A)
       Virtual   (A) (A) (A) (A) (A) (A) (A) (A) (A) (A) (A) (A)
                 (A) (A) (A) (A) (A) (A) (A) (A) (A) (A) (A) (A)
                 (A) (A) (A) (A) (A) (A) (A) (A) (A) (A) (A) (A)
                 (A) (A) (A) (A) (A) (A) (A) (A) (A) (A) (A) (A)
                 (A) (A) (A) (A) (A) (A) (A) (A) (A) (A) (A) (A)
                 (A) (A) (A) (A) (A) (A) (A) (A) (A) (A) (A) (A)
                 (A) (A) (A) (A) (A) (A) (A) (A) (A) (A) (A) (A)
                 (A) (A) (A) (A) (A) (A) (A) (A) (A) (A) (A) (A)
                 (A) (A) (A) (A) (A) (A) (A) (A) (A) (A) (A) (A)
                 (A) (A) (A) (A) (A) (A) (A) (A) (A) (A) (A) (A)
                 (A) (A) (A) (A) (A) (A) (A) (A) (A) (A) (A) (A)
                 (A) (A) (A) (A) (A) (A) (A) (A) (A) (A) (A) (A)
                 (A) (A) (A) (A) (A) (A) (A) (A) (A) (A) (A) (A)
                 (A) (A) (A) (A) (A) (A) (A) (A) (A) (A) (A) (A)
                 (A) (A) (A) (A) (A) (A) (A) (A) (A) (A) (A) (A)
                 (A) (A) (A) (A) (A) (A) (A) (A) (A) (A) (A) (A)
                 (A) (A) (A) (A) (A) (A) (A) (A) (A) (A) (A) (A)
                 (A) (A) (A) (A) (A) (A) (A) (A) (A) (A) (A) (A)
                 (A) (A) (A) (A) (A) (A) (A) (A) (A) (A) (A) (A)
                 (A) (A) (A) (A) (A) (A) (A) (A) (A) (A) (A) (A)
                 (A) (A) (A) (A) (A) (A) (A) (A) (A) (A) (A) (A)
                 (A) (A) (A) (A)
 The electronic state is 1-A.
 Alpha  occ. eigenvalues --  -19.19546 -14.32227 -10.28653 -10.23712 -10.20574
 Alpha  occ. eigenvalues --  -10.19481 -10.19332 -10.18667 -10.18612 -10.17964
 Alpha  occ. eigenvalues --  -10.16296  -1.09275  -0.92129  -0.86288  -0.77855
 Alpha  occ. eigenvalues --   -0.77600  -0.72767  -0.69454  -0.61814  -0.60656
 Alpha  occ. eigenvalues --   -0.58470  -0.52024  -0.50025  -0.48167  -0.47289
 Alpha  occ. eigenvalues --   -0.43529  -0.43334  -0.43207  -0.42189  -0.42062
 Alpha  occ. eigenvalues --   -0.40981  -0.39521  -0.37311  -0.35614  -0.34989
 Alpha  occ. eigenvalues --   -0.32585  -0.29617  -0.25031  -0.24125
 Alpha virt. eigenvalues --   -0.03757  -0.01237   0.00091   0.00922   0.01435
 Alpha virt. eigenvalues --    0.02049   0.03255   0.04292   0.04425   0.04710
 Alpha virt. eigenvalues --    0.05689   0.06029   0.06390   0.07644   0.08036
 Alpha virt. eigenvalues --    0.08116   0.09325   0.10160   0.10417   0.11133
 Alpha virt. eigenvalues --    0.11492   0.12079   0.12898   0.13480   0.14019
 Alpha virt. eigenvalues --    0.14735   0.14964   0.15780   0.16185   0.17147
 Alpha virt. eigenvalues --    0.17626   0.18035   0.18321   0.18547   0.19038
 Alpha virt. eigenvalues --    0.19580   0.20315   0.20869   0.21472   0.21500
 Alpha virt. eigenvalues --    0.22218   0.22345   0.22472   0.23811   0.24679
 Alpha virt. eigenvalues --    0.24919   0.25775   0.26217   0.26548   0.26602
 Alpha virt. eigenvalues --    0.28022   0.28480   0.28595   0.29550   0.30707
 Alpha virt. eigenvalues --    0.31277   0.32350   0.32510   0.33397   0.35453
 Alpha virt. eigenvalues --    0.35698   0.37517   0.37807   0.39607   0.41330
 Alpha virt. eigenvalues --    0.43624   0.44801   0.45088   0.46826   0.48865
 Alpha virt. eigenvalues --    0.50259   0.51905   0.52602   0.53282   0.54992
 Alpha virt. eigenvalues --    0.55240   0.56451   0.58391   0.58777   0.59917
 Alpha virt. eigenvalues --    0.60641   0.61492   0.62914   0.63184   0.64727
 Alpha virt. eigenvalues --    0.66169   0.66527   0.67056   0.69270   0.70121
 Alpha virt. eigenvalues --    0.71131   0.71432   0.73282   0.74159   0.76586
 Alpha virt. eigenvalues --    0.78268   0.78990   0.79903   0.82402   0.83112
 Alpha virt. eigenvalues --    0.84337   0.85752   0.88080   0.89026   0.90126
 Alpha virt. eigenvalues --    0.91457   0.92828   0.93533   0.93700   0.96267
 Alpha virt. eigenvalues --    0.98920   0.99227   1.01259   1.01799   1.02289
 Alpha virt. eigenvalues --    1.06347   1.06692   1.09277   1.10103   1.13556
 Alpha virt. eigenvalues --    1.15979   1.18716   1.20046   1.23712   1.25476
 Alpha virt. eigenvalues --    1.28566   1.32478   1.34715   1.37613   1.38359
 Alpha virt. eigenvalues --    1.42120   1.43594   1.44243   1.47458   1.49749
 Alpha virt. eigenvalues --    1.50060   1.50699   1.53274   1.54668   1.55708
 Alpha virt. eigenvalues --    1.56559   1.57232   1.58980   1.59938   1.60487
 Alpha virt. eigenvalues --    1.62414   1.64633   1.66471   1.67089   1.69446
 Alpha virt. eigenvalues --    1.72351   1.75227   1.76201   1.77972   1.80814
 Alpha virt. eigenvalues --    1.83122   1.85514   1.86877   1.89481   1.89970
 Alpha virt. eigenvalues --    1.91349   1.91836   1.92925   1.94195   1.97416
 Alpha virt. eigenvalues --    1.98960   2.00451   2.02599   2.03625   2.08766
 Alpha virt. eigenvalues --    2.13421   2.16537   2.18449   2.20043   2.21525
 Alpha virt. eigenvalues --    2.22931   2.26555   2.30997   2.34896   2.36669
 Alpha virt. eigenvalues --    2.40252   2.43063   2.46396   2.47457   2.48552
 Alpha virt. eigenvalues --    2.49830   2.52870   2.54292   2.55102   2.57300
 Alpha virt. eigenvalues --    2.58497   2.60489   2.61831   2.63414   2.65187
 Alpha virt. eigenvalues --    2.66027   2.68408   2.70269   2.72766   2.73789
 Alpha virt. eigenvalues --    2.75032   2.76398   2.76866   2.79820   2.82271
 Alpha virt. eigenvalues --    2.82902   2.83726   2.88139   2.89311   2.91766
 Alpha virt. eigenvalues --    2.93728   2.95568   2.98764   3.05556   3.07947
 Alpha virt. eigenvalues --    3.09615   3.11480   3.15620   3.17736   3.20760
 Alpha virt. eigenvalues --    3.28809   3.36479   3.41700   3.46426   3.56350
 Alpha virt. eigenvalues --    3.61710   3.67240   3.82421   3.82786   3.85695
 Alpha virt. eigenvalues --    3.86883   3.89449   3.94108   3.95698   4.06530
 Alpha virt. eigenvalues --    4.10894   4.12694   4.18661   4.30367   4.50204
 Alpha virt. eigenvalues --    4.83483   4.94808   5.00327   5.39898   5.66608
 Alpha virt. eigenvalues --   23.54373  23.74439  23.91885  23.93166  23.97468
 Alpha virt. eigenvalues --   24.00488  24.07546  24.08522  24.19158  35.60880
 Alpha virt. eigenvalues --   49.91102
          Condensed to atoms (all electrons):
               1          2          3          4          5          6
     1  C    8.145709   0.762480  -2.243473   0.472350  -0.454186   0.201509
     2  C    0.762480  11.899762  -2.279204  -3.396141  -0.078310  -1.413496
     3  C   -2.243473  -2.279204  14.879074  -4.667764   0.973996  -1.843430
     4  C    0.472350  -3.396141  -4.667764  16.516996  -0.687897   0.942339
     5  C   -0.454186  -0.078310   0.973996  -0.687897   5.424519   0.452771
     6  C    0.201509  -1.413496  -1.843430   0.942339   0.452771   8.890442
     7  H   -0.011395  -0.010361   0.074753   0.284893   0.015311  -0.020648
     8  H    0.013958  -0.012239   0.036027  -0.050773   0.403517  -0.050179
     9  H   -0.021953   0.052085   0.046091  -0.052704   0.016730   0.275906
    10  C   -0.012235  -0.014203   0.134281  -2.295495   0.251425   0.038668
    11  O   -0.041480   0.021217   0.809363  -0.434853   0.009307  -0.060039
    12  N   -0.503001   0.292695   0.634243   0.166724  -0.000400  -0.089215
    13  C    0.008526  -0.274323  -0.681221  -0.648500   0.038868  -0.027842
    14  H   -0.004704  -0.052599   0.046954   0.003951   0.000396  -0.000268
    15  H    0.008554   0.018311   0.001366   0.007117  -0.000773   0.001699
    16  H    0.003096   0.029044  -0.046337  -0.005317   0.000129  -0.000176
    17  C   -0.422056   0.071487  -0.223337   0.425828  -0.210553  -0.580699
    18  H   -0.092006   0.138549   0.054571  -0.007221   0.000336  -0.113420
    19  H    0.025822   0.021344  -0.005269  -0.008947   0.000084  -0.035511
    20  H   -0.163245  -0.062238  -0.007419   0.015170   0.015000   0.141459
               7          8          9         10         11         12
     1  C   -0.011395   0.013958  -0.021953  -0.012235  -0.041480  -0.503001
     2  C   -0.010361  -0.012239   0.052085  -0.014203   0.021217   0.292695
     3  C    0.074753   0.036027   0.046091   0.134281   0.809363   0.634243
     4  C    0.284893  -0.050773  -0.052704  -2.295495  -0.434853   0.166724
     5  C    0.015311   0.403517   0.016730   0.251425   0.009307  -0.000400
     6  C   -0.020648  -0.050179   0.275906   0.038668  -0.060039  -0.089215
     7  H    0.526253  -0.006903  -0.000208   0.021287  -0.003898   0.000225
     8  H   -0.006903   0.532452  -0.006410   0.002079  -0.000608   0.000545
     9  H   -0.000208  -0.006410   0.539939   0.006024   0.000192  -0.000578
    10  C    0.021287   0.002079   0.006024   8.355800  -0.036754   0.022866
    11  O   -0.003898  -0.000608   0.000192  -0.036754   8.159246   0.002129
    12  N    0.000225   0.000545  -0.000578   0.022866   0.002129   6.818236
    13  C    0.001500   0.000067   0.000229  -0.294149  -0.300304  -0.416862
    14  H    0.000005   0.000000   0.000000  -0.121407  -0.004650   0.023342
    15  H   -0.000003   0.000000   0.000000   0.075478   0.000349  -0.010036
    16  H    0.000001   0.000000   0.000000  -0.048034   0.007691  -0.019431
    17  C   -0.000456   0.006971   0.021857  -0.307383   0.014790   0.121150
    18  H   -0.000001   0.000009   0.000302  -0.008332  -0.000071  -0.008124
    19  H   -0.000001   0.000015   0.000328   0.007858   0.000130   0.000253
    20  H   -0.000002  -0.000012   0.000932  -0.003745   0.000044   0.003725
              13         14         15         16         17         18
     1  C    0.008526  -0.004704   0.008554   0.003096  -0.422056  -0.092006
     2  C   -0.274323  -0.052599   0.018311   0.029044   0.071487   0.138549
     3  C   -0.681221   0.046954   0.001366  -0.046337  -0.223337   0.054571
     4  C   -0.648500   0.003951   0.007117  -0.005317   0.425828  -0.007221
     5  C    0.038868   0.000396  -0.000773   0.000129  -0.210553   0.000336
     6  C   -0.027842  -0.000268   0.001699  -0.000176  -0.580699  -0.113420
     7  H    0.001500   0.000005  -0.000003   0.000001  -0.000456  -0.000001
     8  H    0.000067   0.000000   0.000000   0.000000   0.006971   0.000009
     9  H    0.000229   0.000000   0.000000   0.000000   0.021857   0.000302
    10  C   -0.294149  -0.121407   0.075478  -0.048034  -0.307383  -0.008332
    11  O   -0.300304  -0.004650   0.000349   0.007691   0.014790  -0.000071
    12  N   -0.416862   0.023342  -0.010036  -0.019431   0.121150  -0.008124
    13  C    7.770498   0.484501   0.259424   0.458608  -0.055908   0.000284
    14  H    0.484501   0.518037  -0.025812  -0.026510  -0.000421   0.000001
    15  H    0.259424  -0.025812   0.513026  -0.020349   0.000248   0.000000
    16  H    0.458608  -0.026510  -0.020349   0.495657  -0.000612  -0.000007
    17  C   -0.055908  -0.000421   0.000248  -0.000612   6.473829   0.411001
    18  H    0.000284   0.000001   0.000000  -0.000007   0.411001   0.518888
    19  H    0.002140   0.000001  -0.000005  -0.000001   0.350747  -0.021741
    20  H   -0.000777   0.000000   0.000000   0.000000   0.431018  -0.030087
              19         20
     1  C    0.025822  -0.163245
     2  C    0.021344  -0.062238
     3  C   -0.005269  -0.007419
     4  C   -0.008947   0.015170
     5  C    0.000084   0.015000
     6  C   -0.035511   0.141459
     7  H   -0.000001  -0.000002
     8  H    0.000015  -0.000012
     9  H    0.000328   0.000932
    10  C    0.007858  -0.003745
    11  O    0.000130   0.000044
    12  N    0.000253   0.003725
    13  C    0.002140  -0.000777
    14  H    0.000001   0.000000
    15  H   -0.000005   0.000000
    16  H   -0.000001   0.000000
    17  C    0.350747   0.431018
    18  H   -0.021741  -0.030087
    19  H    0.523738  -0.027840
    20  H   -0.027840   0.551584
 Mulliken charges:
               1
     1  C    0.327729
     2  C    0.286141
     3  C    0.306735
     4  C   -0.579754
     5  C   -0.170269
     6  C   -0.709872
     7  H    0.129648
     8  H    0.131485
     9  H    0.121238
    10  C    0.225968
    11  O   -0.141803
    12  N   -0.038486
    13  C   -0.324759
    14  H    0.159183
    15  H    0.171408
    16  H    0.172550
    17  C   -0.527502
    18  H    0.157067
    19  H    0.166856
    20  H    0.136435
 Sum of Mulliken charges =   0.00000
 Mulliken charges with hydrogens summed into heavy atoms:
               1
     1  C    0.327729
     2  C    0.286141
     3  C    0.306735
     4  C   -0.450106
     5  C   -0.038784
     6  C   -0.588634
    10  C    0.225968
    11  O   -0.141803
    12  N   -0.038486
    13  C    0.178383
    17  C   -0.067144
 Electronic spatial extent (au):  <R**2>=           1743.8096
 Charge=              0.0000 electrons
 Dipole moment (field-independent basis, Debye):
    X=             -0.2751    Y=             -0.1735    Z=              0.4708  Tot=              0.5722
 Quadrupole moment (field-independent basis, Debye-Ang):
   XX=            -52.7088   YY=            -64.5045   ZZ=            -67.1292
   XY=             -0.6626   XZ=             -0.7412   YZ=             -0.4641
 Traceless Quadrupole moment (field-independent basis, Debye-Ang):
   XX=              8.7387   YY=             -3.0570   ZZ=             -5.6817
   XY=             -0.6626   XZ=             -0.7412   YZ=             -0.4641
 Octapole moment (field-independent basis, Debye-Ang**2):
  XXX=            -30.2334  YYY=            -10.9532  ZZZ=              0.5033  XYY=             10.1395
  XXY=              4.7400  XXZ=              3.3125  XZZ=             -9.8059  YZZ=              2.8075
  YYZ=              0.3763  XYZ=             -0.3330
 Hexadecapole moment (field-independent basis, Debye-Ang**3):
 XXXX=          -1375.8172 YYYY=           -723.8278 ZZZZ=            -92.1522 XXXY=            -16.9033
 XXXZ=             -2.9202 YYYX=             -4.5726 YYYZ=             -2.4187 ZZZX=             -4.1076
 ZZZY=              3.4757 XXYY=           -374.9952 XXZZ=           -283.0689 YYZZ=           -145.2114
 XXYZ=             -2.5401 YYXZ=              3.3406 ZZXY=              7.8550
 N-N= 5.709906497305D+02 E-N=-2.255448245795D+03  KE= 4.761917925488D+02
 There are a total of      164792 grid points.
 ElSum from          density=       77.9999842257
 ElSum from atomic densities=       78.0000045642

 Hirshfeld populations at iteration   1 (CX, CA, CB, DipXYZ):
               1          2          3          4          5          6
     1  C    0.000000   2.995421   2.995421  -0.003958   0.081133  -0.000006
     2  C    0.000000   2.990913   2.990913  -0.022659   0.082282  -0.003119
     3  C    0.000000   2.973073   2.973073  -0.130220  -0.063164  -0.015182
     4  C    0.000000   3.028450   3.028450  -0.017267  -0.059092   0.000093
     5  C    0.000000   3.023405   3.023405   0.048937  -0.038800   0.005233
     6  C    0.000000   3.028319   3.028319   0.058918   0.020789   0.003311
     7  H    0.000003   0.473978   0.473978  -0.028387  -0.165286   0.004539
     8  H    0.000002   0.475725   0.475725   0.126905  -0.105835   0.012928
     9  H    0.000002   0.476893   0.476893   0.154100   0.051002   0.006183
    10  C    0.000000   2.921241   2.921241  -0.055971  -0.123969   0.005523
    11  O    0.000003   4.066364   4.066364   0.083966   0.128930   0.018348
    12  N    0.000001   3.607626   3.607626   0.087324  -0.137146  -0.019797
    13  C    0.000000   3.038585   3.038585  -0.005654   0.010133   0.006058
    14  H    0.000001   0.474201   0.474201  -0.095393  -0.105862  -0.073753
    15  H    0.000001   0.471554   0.471554  -0.039760  -0.001307   0.158896
    16  H    0.000001   0.470235   0.470235  -0.053449   0.143291  -0.056032
    17  C    0.000000   3.047396   3.047396   0.003046  -0.002958   0.001139
    18  H    0.000001   0.478709   0.478709  -0.094253   0.074658  -0.082862
    19  H    0.000001   0.478169   0.478169   0.003139   0.059000   0.143747
    20  H    0.000001   0.479736   0.479736   0.132733   0.032515  -0.066578
       Tot   0.000017  38.999992  38.999992   0.152096  -0.119684   0.048666

 Dip from Atomic Chgs             -0.260117   0.051562   0.136580
         Total Dipole             -0.108021  -0.068122   0.185246

 Hirshfeld charges, spin densities, dipoles, and CM5 charges using IRadAn=      4:
              Q-H        S-H        Dx         Dy         Dz        Q-CM5   
     1  C    0.009159   0.000000  -0.003958   0.081133  -0.000006  -0.001227
     2  C    0.018174   0.000000  -0.022659   0.082282  -0.003119   0.075858
     3  C    0.053854   0.000000  -0.130220  -0.063164  -0.015182   0.078438
     4  C   -0.056900   0.000000  -0.017267  -0.059092   0.000093  -0.109069
     5  C   -0.046809   0.000000   0.048937  -0.038800   0.005233  -0.103650
     6  C   -0.056639   0.000000   0.058918   0.020789   0.003311  -0.111602
     7  H    0.052043   0.000000  -0.028387  -0.165286   0.004539   0.111105
     8  H    0.048549   0.000000   0.126905  -0.105835   0.012928   0.105969
     9  H    0.046214   0.000000   0.154100   0.051002   0.006183   0.104380
    10  C    0.157517   0.000000  -0.055971  -0.123969   0.005523   0.247289
    11  O   -0.132727   0.000000   0.083966   0.128930   0.018348  -0.180268
    12  N   -0.215251   0.000000   0.087324  -0.137146  -0.019797  -0.380582
    13  C   -0.077171   0.000000  -0.005654   0.010133   0.006058  -0.222526
    14  H    0.051598   0.000000  -0.095393  -0.105862  -0.073753   0.107893
    15  H    0.056891   0.000000  -0.039760  -0.001307   0.158896   0.112749
    16  H    0.059530   0.000000  -0.053449   0.143291  -0.056032   0.116656
    17  C   -0.094793   0.000000   0.003046  -0.002958   0.001139  -0.245204
    18  H    0.042583   0.000000  -0.094253   0.074658  -0.082862   0.099806
    19  H    0.043663   0.000000   0.003139   0.059000   0.143747   0.098577
    20  H    0.040529   0.000000   0.132733   0.032515  -0.066578   0.095424
       Tot   0.000016   0.000000   0.152096  -0.119684   0.048666   0.000016
 Hirshfeld charges with hydrogens summed into heavy atoms:
              Q-H       Q-CM5   
     1  C    0.009159  -0.001227
     2  C    0.018174   0.075858
     3  C    0.053854   0.078438
     4  C   -0.004856   0.002036
     5  C    0.001740   0.002319
     6  C   -0.010425  -0.007221
    10  C    0.157517   0.247289
    11  O   -0.132727  -0.180268
    12  N   -0.215251  -0.380582
    13  C    0.090848   0.114771
    17  C    0.031982   0.048603
 
 EQQ= 0.000000000000E+00 EQD= 0.000000000000E+00 EDD= 0.200794468020E-02
 EQQ+QD+DD= 0.200794468020E-02
 
          MBS Condensed to atoms (all electrons):
               1          2          3          4          5          6
     1  C    4.791696   0.496250  -0.030374  -0.009118  -0.028979   0.506450
     2  C    0.496250   4.759201   0.505877  -0.032914  -0.011538  -0.031958
     3  C   -0.030374   0.505877   4.754603   0.497012  -0.029662  -0.011425
     4  C   -0.009118  -0.032914   0.497012   4.842062   0.504827  -0.030081
     5  C   -0.028979  -0.011538  -0.029662   0.504827   4.835007   0.494945
     6  C    0.506450  -0.031958  -0.011425  -0.030081   0.494945   4.856658
     7  H    0.000030   0.001481  -0.025606   0.390233  -0.022558   0.001361
     8  H    0.001403   0.000057   0.001398  -0.025256   0.392791  -0.024885
     9  H   -0.026300   0.001475   0.000070   0.001406  -0.024982   0.392043
    10  C    0.001603  -0.062455  -0.057577   0.001613  -0.000011  -0.000017
    11  O    0.000367  -0.034471   0.290315  -0.014043   0.000231   0.000007
    12  N   -0.018671   0.352994  -0.044311   0.000722   0.000030   0.000446
    13  C   -0.000006   0.001500   0.001050  -0.000005   0.000000   0.000000
    14  H    0.000000  -0.000054   0.000001  -0.000001   0.000000   0.000000
    15  H    0.000001  -0.000024   0.000011   0.000000   0.000000   0.000000
    16  H   -0.000001   0.000036  -0.000031   0.000000   0.000000   0.000000
    17  C    0.373974  -0.026048   0.000835   0.000013   0.000777  -0.025129
    18  H   -0.021317  -0.003964   0.000052   0.000000  -0.000026   0.001149
    19  H   -0.021498  -0.000389  -0.000018   0.000004  -0.000017  -0.000515
    20  H   -0.021793   0.001236  -0.000024   0.000001   0.000030  -0.003773
               7          8          9         10         11         12
     1  C    0.000030   0.001403  -0.026300   0.001603   0.000367  -0.018671
     2  C    0.001481   0.000057   0.001475  -0.062455  -0.034471   0.352994
     3  C   -0.025606   0.001398   0.000070  -0.057577   0.290315  -0.044311
     4  C    0.390233  -0.025256   0.001406   0.001613  -0.014043   0.000722
     5  C   -0.022558   0.392791  -0.024982  -0.000011   0.000231   0.000030
     6  C    0.001361  -0.024885   0.392043  -0.000017   0.000007   0.000446
     7  H    0.535492  -0.003552  -0.000036  -0.000034  -0.000614  -0.000021
     8  H   -0.003552   0.544660  -0.003305   0.000000  -0.000003   0.000000
     9  H   -0.000036  -0.003305   0.551001   0.000000   0.000000  -0.000008
    10  C   -0.000034   0.000000   0.000000   4.741904   0.271891   0.493332
    11  O   -0.000614  -0.000003   0.000000   0.271891   7.846802  -0.026546
    12  N   -0.000021   0.000000  -0.000008   0.493332  -0.026546   6.653105
    13  C    0.000000   0.000000   0.000000   0.370329  -0.013570  -0.026404
    14  H    0.000000   0.000000   0.000000  -0.021352  -0.000285   0.000919
    15  H    0.000000   0.000000   0.000000  -0.020704   0.000050  -0.000542
    16  H    0.000000   0.000000   0.000000  -0.018336   0.000413  -0.001317
    17  C    0.000000  -0.000017  -0.003288   0.000020  -0.000001  -0.001757
    18  H    0.000000   0.000000   0.000033  -0.000022   0.000000   0.001510
    19  H    0.000000   0.000001   0.000141   0.000003   0.000000   0.000112
    20  H    0.000000  -0.000001   0.001039   0.000000   0.000000   0.000028
              13         14         15         16         17         18
     1  C   -0.000006   0.000000   0.000001  -0.000001   0.373974  -0.021317
     2  C    0.001500  -0.000054  -0.000024   0.000036  -0.026048  -0.003964
     3  C    0.001050   0.000001   0.000011  -0.000031   0.000835   0.000052
     4  C   -0.000005  -0.000001   0.000000   0.000000   0.000013   0.000000
     5  C    0.000000   0.000000   0.000000   0.000000   0.000777  -0.000026
     6  C    0.000000   0.000000   0.000000   0.000000  -0.025129   0.001149
     7  H    0.000000   0.000000   0.000000   0.000000   0.000000   0.000000
     8  H    0.000000   0.000000   0.000000   0.000000  -0.000017   0.000000
     9  H    0.000000   0.000000   0.000000   0.000000  -0.003288   0.000033
    10  C    0.370329  -0.021352  -0.020704  -0.018336   0.000020  -0.000022
    11  O   -0.013570  -0.000285   0.000050   0.000413  -0.000001   0.000000
    12  N   -0.026404   0.000919  -0.000542  -0.001317  -0.001757   0.001510
    13  C    4.802826   0.377183   0.379182   0.380811   0.000000   0.000000
    14  H    0.377183   0.561515  -0.021092  -0.020161   0.000000   0.000000
    15  H    0.379182  -0.021092   0.552921  -0.021071   0.000000   0.000000
    16  H    0.380811  -0.020161  -0.021071   0.540612   0.000000   0.000000
    17  C    0.000000   0.000000   0.000000   0.000000   4.814747   0.382538
    18  H    0.000000   0.000000   0.000000   0.000000   0.382538   0.563866
    19  H    0.000000   0.000000   0.000000   0.000000   0.378905  -0.021661
    20  H    0.000000   0.000000   0.000000   0.000000   0.382168  -0.021991
              19         20
     1  C   -0.021498  -0.021793
     2  C   -0.000389   0.001236
     3  C   -0.000018  -0.000024
     4  C    0.000004   0.000001
     5  C   -0.000017   0.000030
     6  C   -0.000515  -0.003773
     7  H    0.000000   0.000000
     8  H    0.000001  -0.000001
     9  H    0.000141   0.001039
    10  C    0.000003   0.000000
    11  O    0.000000   0.000000
    12  N    0.000112   0.000028
    13  C    0.000000   0.000000
    14  H    0.000000   0.000000
    15  H    0.000000   0.000000
    16  H    0.000000   0.000000
    17  C    0.378905   0.382168
    18  H   -0.021661  -0.021991
    19  H    0.573636  -0.022008
    20  H   -0.022008   0.583302
 MBS Mulliken charges:
               1
     1  C    0.006283
     2  C    0.083707
     3  C    0.147803
     4  C   -0.126476
     5  C   -0.110863
     6  C   -0.125275
     7  H    0.123824
     8  H    0.116709
     9  H    0.110711
    10  C    0.299813
    11  O   -0.320541
    12  N   -0.383621
    13  C   -0.272896
    14  H    0.123326
    15  H    0.131267
    16  H    0.139044
    17  C   -0.277738
    18  H    0.119833
    19  H    0.113304
    20  H    0.101787
 Sum of MBS Mulliken charges =   0.00000
 MBS Mulliken charges with hydrogens summed into heavy atoms:
               1
     1  C    0.006283
     2  C    0.083707
     3  C    0.147803
     4  C   -0.002652
     5  C    0.005845
     6  C   -0.014564
    10  C    0.299813
    11  O   -0.320541
    12  N   -0.383621
    13  C    0.120741
    17  C    0.057186
 Breneman (CHELPG) radii used.
 Generate Potential Derived Charges using the Breneman model, NDens= 1.
 Grid spacing= 0.300 Box extension= 2.800
 NStep X,Y,Z=   46     40     26   Total possible points=       47840
 Number of Points to Fit=   13786

 **********************************************************************

            Electrostatic Properties Using The SCF Density

 **********************************************************************

       Atomic Center    1 is at   1.425663  0.859473 -0.006253
       Atomic Center    2 is at   0.135347  0.339894 -0.056029
       Atomic Center    3 is at  -0.111722 -0.994469 -0.079361
       Atomic Center    4 is at   0.916712 -1.927492  0.036312
       Atomic Center    5 is at   2.240200 -1.446682  0.116066
       Atomic Center    6 is at   2.496047 -0.052584  0.079617
       Atomic Center    7 is at   0.709066 -2.976899  0.059321
       Atomic Center    8 is at   3.053860 -2.136193  0.202268
       Atomic Center    9 is at   3.502922  0.307259  0.119795
       Atomic Center   10 is at  -2.041015  0.102104 -0.034515
       Atomic Center   11 is at  -1.513531 -1.244318 -0.234111
       Atomic Center   12 is at  -1.131218  1.043721 -0.073027
       Atomic Center   13 is at  -3.534553  0.389665  0.206841
       Atomic Center   14 is at  -4.125283 -0.351170 -0.290252
       Atomic Center   15 is at  -3.737880  0.362296  1.256988
       Atomic Center   16 is at  -3.778213  1.357668 -0.178517
       Atomic Center   17 is at   1.674380  2.378929 -0.037747
       Atomic Center   18 is at   0.897489  2.855976 -0.597895
       Atomic Center   19 is at   1.679048  2.760374  0.961942
       Atomic Center   20 is at   2.619414  2.576163 -0.499168
   13786 points will be used for fitting atomic charges
 Fitting point charges to electrostatic potential
 Charges from ESP fit, RMS=   0.00385 RRMS=   0.35564:
 ESP charges:
               1
     1  C    0.036419
     2  C    0.215454
     3  C    0.280498
     4  C   -0.279750
     5  C   -0.075610
     6  C   -0.264782
     7  H    0.162145
     8  H    0.109608
     9  H    0.151628
    10  C    0.614467
    11  O   -0.408586
    12  N   -0.613896
    13  C   -0.292549
    14  H    0.096365
    15  H    0.095571
    16  H    0.109668
    17  C    0.043970
    18  H    0.018235
    19  H    0.002891
    20  H   -0.001747
 Sum of ESP charges =   0.00000
 ESP charges with hydrogens summed into heavy atoms:
               1
     1  C    0.036419
     2  C    0.215454
     3  C    0.280498
     4  C   -0.117605
     5  C    0.033998
     6  C   -0.113154
    10  C    0.614467
    11  O   -0.408586
    12  N   -0.613896
    13  C    0.009056
    17  C    0.063349
 Charge=   0.00000 Dipole=    -0.2030    -0.2684     0.4698 Tot=     0.5779
 -----------------------------------------------------------------

              Electrostatic Properties (Atomic Units)

 -----------------------------------------------------------------
    Center     Electric         -------- Electric Field --------
               Potential          X             Y             Z
 -----------------------------------------------------------------
    1 Atom    -14.755102
    2 Atom    -14.746096
    3 Atom    -14.714121
    4 Atom    -14.763525
    5 Atom    -14.764081
    6 Atom    -14.770800
    7 Atom     -1.098612
    8 Atom     -1.103402
    9 Atom     -1.105546
   10 Atom    -14.664229
   11 Atom    -22.303255
   12 Atom    -18.400463
   13 Atom    -14.752932
   14 Atom     -1.096174
   15 Atom     -1.090721
   16 Atom     -1.093080
   17 Atom    -14.783380
   18 Atom     -1.124460
   19 Atom     -1.119447
   20 Atom     -1.120633
 -----------------------------------------------------------------
 ******************************Gaussian NBO Version 3.1******************************
             N A T U R A L   A T O M I C   O R B I T A L   A N D
          N A T U R A L   B O N D   O R B I T A L   A N A L Y S I S
 ******************************Gaussian NBO Version 3.1******************************
       /RESON  / : Allow strongly delocalized NBO set

 Analyzing the SCF density

 Job title: Title Card Required                                             

 Storage needed:    264364 in NPA (  33552232 available)


 NATURAL POPULATIONS:  Natural atomic orbital occupancies 
                                                          
   NAO  Atom  No  lang   Type(AO)    Occupancy      Energy
 ----------------------------------------------------------
     1    C    1  S      Cor( 1S)     1.99897     -10.04954
     2    C    1  S      Val( 2S)     0.89107      -0.14250
     3    C    1  S      Ryd( 4S)     0.00081       0.82420
     4    C    1  S      Ryd( 3S)     0.00018       0.79153
     5    C    1  S      Ryd( 5S)     0.00001      22.99610
     6    C    1  px     Val( 2p)     1.06382      -0.04452
     7    C    1  px     Ryd( 4p)     0.00352       0.90430
     8    C    1  px     Ryd( 3p)     0.00040       0.70759
     9    C    1  px     Ryd( 5p)     0.00013       3.06031
    10    C    1  py     Val( 2p)     1.06286      -0.05965
    11    C    1  py     Ryd( 4p)     0.00514       1.31082
    12    C    1  py     Ryd( 3p)     0.00043       0.79443
    13    C    1  py     Ryd( 5p)     0.00011       2.99546
    14    C    1  pz     Val( 2p)     0.97843      -0.10292
    15    C    1  pz     Ryd( 3p)     0.00117       0.59192
    16    C    1  pz     Ryd( 4p)     0.00042       0.69437
    17    C    1  pz     Ryd( 5p)     0.00003       2.41038
    18    C    1  dxy    Ryd( 3d)     0.00085       2.57816
    19    C    1  dxz    Ryd( 3d)     0.00054       1.68406
    20    C    1  dyz    Ryd( 3d)     0.00072       1.66786
    21    C    1  dx2y2  Ryd( 3d)     0.00072       2.48342
    22    C    1  dz2    Ryd( 3d)     0.00037       2.12226

    23    C    2  S      Cor( 1S)     1.99860     -10.05640
    24    C    2  S      Val( 2S)     0.83939      -0.10869
    25    C    2  S      Ryd( 4S)     0.00204       0.91545
    26    C    2  S      Ryd( 3S)     0.00011       0.72027
    27    C    2  S      Ryd( 5S)     0.00002      22.83331
    28    C    2  px     Val( 2p)     1.00550      -0.05880
    29    C    2  px     Ryd( 4p)     0.00469       1.27937
    30    C    2  px     Ryd( 3p)     0.00034       0.57359
    31    C    2  px     Ryd( 5p)     0.00016       3.11380
    32    C    2  py     Val( 2p)     1.03015      -0.06841
    33    C    2  py     Ryd( 4p)     0.00802       1.17065
    34    C    2  py     Ryd( 3p)     0.00059       0.48494
    35    C    2  py     Ryd( 5p)     0.00016       3.13928
    36    C    2  pz     Val( 2p)     1.03964      -0.11456
    37    C    2  pz     Ryd( 4p)     0.00059       0.61354
    38    C    2  pz     Ryd( 3p)     0.00048       0.37822
    39    C    2  pz     Ryd( 5p)     0.00003       2.69531
    40    C    2  dxy    Ryd( 3d)     0.00120       2.45638
    41    C    2  dxz    Ryd( 3d)     0.00147       1.65839
    42    C    2  dyz    Ryd( 3d)     0.00071       1.65081
    43    C    2  dx2y2  Ryd( 3d)     0.00145       2.74187
    44    C    2  dz2    Ryd( 3d)     0.00054       2.12819

    45    C    3  S      Cor( 1S)     1.99843     -10.09922
    46    C    3  S      Val( 2S)     0.83102      -0.13331
    47    C    3  S      Ryd( 3S)     0.00169       0.89676
    48    C    3  S      Ryd( 4S)     0.00013       1.49013
    49    C    3  S      Ryd( 5S)     0.00002      21.99572
    50    C    3  px     Val( 2p)     0.77287      -0.05460
    51    C    3  px     Ryd( 4p)     0.00521       1.23736
    52    C    3  px     Ryd( 3p)     0.00027       0.73392
    53    C    3  px     Ryd( 5p)     0.00021       2.82974
    54    C    3  py     Val( 2p)     1.07391      -0.07011
    55    C    3  py     Ryd( 4p)     0.00681       1.14655
    56    C    3  py     Ryd( 3p)     0.00034       0.70317
    57    C    3  py     Ryd( 5p)     0.00017       2.87811
    58    C    3  pz     Val( 2p)     1.01635      -0.12626
    59    C    3  pz     Ryd( 4p)     0.00066       0.63304
    60    C    3  pz     Ryd( 3p)     0.00026       0.62837
    61    C    3  pz     Ryd( 5p)     0.00008       2.50006
    62    C    3  dxy    Ryd( 3d)     0.00150       2.48272
    63    C    3  dxz    Ryd( 3d)     0.00205       1.62189
    64    C    3  dyz    Ryd( 3d)     0.00073       1.67652
    65    C    3  dx2y2  Ryd( 3d)     0.00186       2.60457
    66    C    3  dz2    Ryd( 3d)     0.00077       2.09024

    67    C    4  S      Cor( 1S)     1.99909     -10.03997
    68    C    4  S      Val( 2S)     0.94983      -0.16898
    69    C    4  S      Ryd( 4S)     0.00150       0.90823
    70    C    4  S      Ryd( 3S)     0.00015       0.66162
    71    C    4  S      Ryd( 5S)     0.00001      23.00418
    72    C    4  px     Val( 2p)     1.06398      -0.05934
    73    C    4  px     Ryd( 4p)     0.00409       0.84590
    74    C    4  px     Ryd( 3p)     0.00035       0.42925
    75    C    4  px     Ryd( 5p)     0.00014       3.04005
    76    C    4  py     Val( 2p)     1.17427      -0.06469
    77    C    4  py     Ryd( 4p)     0.00525       1.11542
    78    C    4  py     Ryd( 3p)     0.00022       0.42406
    79    C    4  py     Ryd( 5p)     0.00009       3.01417
    80    C    4  pz     Val( 2p)     1.04042      -0.11751
    81    C    4  pz     Ryd( 4p)     0.00141       0.53839
    82    C    4  pz     Ryd( 3p)     0.00030       0.28224
    83    C    4  pz     Ryd( 5p)     0.00002       2.69859
    84    C    4  dxy    Ryd( 3d)     0.00081       2.59979
    85    C    4  dxz    Ryd( 3d)     0.00053       1.67411
    86    C    4  dyz    Ryd( 3d)     0.00049       1.63891
    87    C    4  dx2y2  Ryd( 3d)     0.00062       2.50061
    88    C    4  dz2    Ryd( 3d)     0.00045       2.07495

    89    C    5  S      Cor( 1S)     1.99923     -10.04419
    90    C    5  S      Val( 2S)     0.95830      -0.17753
    91    C    5  S      Ryd( 3S)     0.00135       0.79708
    92    C    5  S      Ryd( 4S)     0.00011       1.11953
    93    C    5  S      Ryd( 5S)     0.00000      22.71272
    94    C    5  px     Val( 2p)     1.10627      -0.05067
    95    C    5  px     Ryd( 4p)     0.00551       0.92378
    96    C    5  px     Ryd( 3p)     0.00037       0.35811
    97    C    5  px     Ryd( 5p)     0.00010       3.14575
    98    C    5  py     Val( 2p)     1.10030      -0.05083
    99    C    5  py     Ryd( 4p)     0.00510       0.86361
   100    C    5  py     Ryd( 3p)     0.00036       0.36034
   101    C    5  py     Ryd( 5p)     0.00010       3.13438
   102    C    5  pz     Val( 2p)     1.00784      -0.11430
   103    C    5  pz     Ryd( 4p)     0.00113       0.51966
   104    C    5  pz     Ryd( 3p)     0.00028       0.31893
   105    C    5  pz     Ryd( 5p)     0.00001       2.66977
   106    C    5  dxy    Ryd( 3d)     0.00080       2.47169
   107    C    5  dxz    Ryd( 3d)     0.00045       1.64089
   108    C    5  dyz    Ryd( 3d)     0.00044       1.64214
   109    C    5  dx2y2  Ryd( 3d)     0.00060       2.53258
   110    C    5  dz2    Ryd( 3d)     0.00041       2.02572

   111    C    6  S      Cor( 1S)     1.99911     -10.03347
   112    C    6  S      Val( 2S)     0.94743      -0.16318
   113    C    6  S      Ryd( 4S)     0.00114       0.85374
   114    C    6  S      Ryd( 3S)     0.00013       0.75264
   115    C    6  S      Ryd( 5S)     0.00001      23.02813
   116    C    6  px     Val( 2p)     1.15421      -0.05169
   117    C    6  px     Ryd( 4p)     0.00559       1.01139
   118    C    6  px     Ryd( 3p)     0.00032       0.33535
   119    C    6  px     Ryd( 5p)     0.00005       3.21913
   120    C    6  py     Val( 2p)     1.06801      -0.05135
   121    C    6  py     Ryd( 4p)     0.00448       0.81017
   122    C    6  py     Ryd( 3p)     0.00045       0.41180
   123    C    6  py     Ryd( 5p)     0.00013       3.15476
   124    C    6  pz     Val( 2p)     1.02721      -0.11211
   125    C    6  pz     Ryd( 4p)     0.00109       0.51601
   126    C    6  pz     Ryd( 3p)     0.00036       0.29059
   127    C    6  pz     Ryd( 5p)     0.00002       2.71632
   128    C    6  dxy    Ryd( 3d)     0.00070       2.52213
   129    C    6  dxz    Ryd( 3d)     0.00041       1.63316
   130    C    6  dyz    Ryd( 3d)     0.00046       1.66044
   131    C    6  dx2y2  Ryd( 3d)     0.00074       2.51205
   132    C    6  dz2    Ryd( 3d)     0.00041       2.04098

   133    H    7  S      Val( 1S)     0.78023       0.05128
   134    H    7  S      Ryd( 2S)     0.00078       0.83517
   135    H    7  S      Ryd( 3S)     0.00020       1.84965
   136    H    7  px     Ryd( 2p)     0.00013       2.03218
   137    H    7  py     Ryd( 2p)     0.00039       2.71662
   138    H    7  pz     Ryd( 2p)     0.00019       1.61458

   139    H    8  S      Val( 1S)     0.79142       0.05394
   140    H    8  S      Ryd( 2S)     0.00056       0.60829
   141    H    8  S      Ryd( 3S)     0.00020       2.13565
   142    H    8  px     Ryd( 2p)     0.00029       2.40880
   143    H    8  py     Ryd( 2p)     0.00024       2.28305
   144    H    8  pz     Ryd( 2p)     0.00022       1.60720

   145    H    9  S      Val( 1S)     0.79279       0.05444
   146    H    9  S      Ryd( 2S)     0.00057       0.92885
   147    H    9  S      Ryd( 3S)     0.00019       1.80297
   148    H    9  px     Ryd( 2p)     0.00039       2.65961
   149    H    9  py     Ryd( 2p)     0.00014       2.08216
   150    H    9  pz     Ryd( 2p)     0.00021       1.61377

   151    C   10  S      Cor( 1S)     1.99924     -10.17536
   152    C   10  S      Val( 2S)     0.86579      -0.21617
   153    C   10  S      Ryd( 3S)     0.00236       0.68870
   154    C   10  S      Ryd( 4S)     0.00016       1.21610
   155    C   10  S      Ryd( 5S)     0.00002      22.73280
   156    C   10  px     Val( 2p)     0.94248      -0.06872
   157    C   10  px     Ryd( 4p)     0.00481       1.14385
   158    C   10  px     Ryd( 3p)     0.00049       0.61317
   159    C   10  px     Ryd( 5p)     0.00011       2.74969
   160    C   10  py     Val( 2p)     0.69616      -0.04009
   161    C   10  py     Ryd( 4p)     0.01358       0.78046
   162    C   10  py     Ryd( 3p)     0.00077       0.57072
   163    C   10  py     Ryd( 5p)     0.00009       2.87088
   164    C   10  pz     Val( 2p)     0.89493      -0.14321
   165    C   10  pz     Ryd( 4p)     0.00158       0.61423
   166    C   10  pz     Ryd( 3p)     0.00036       0.54885
   167    C   10  pz     Ryd( 5p)     0.00009       2.46082
   168    C   10  dxy    Ryd( 3d)     0.00217       2.42527
   169    C   10  dxz    Ryd( 3d)     0.00164       1.64160
   170    C   10  dyz    Ryd( 3d)     0.00239       1.59052
   171    C   10  dx2y2  Ryd( 3d)     0.00308       2.19343
   172    C   10  dz2    Ryd( 3d)     0.00073       1.91120

   173    O   11  S      Cor( 1S)     1.99978     -18.98483
   174    O   11  S      Val( 2S)     1.66378      -0.92874
   175    O   11  S      Ryd( 3S)     0.00220       0.91798
   176    O   11  S      Ryd( 4S)     0.00006       1.14086
   177    O   11  S      Ryd( 5S)     0.00000      49.63315
   178    O   11  px     Val( 2p)     1.44305      -0.32575
   179    O   11  px     Ryd( 3p)     0.00181       0.63807
   180    O   11  px     Ryd( 4p)     0.00049       1.15094
   181    O   11  px     Ryd( 5p)     0.00005       5.01819
   182    O   11  py     Val( 2p)     1.63378      -0.34853
   183    O   11  py     Ryd( 3p)     0.00299       0.48160
   184    O   11  py     Ryd( 4p)     0.00077       1.13321
   185    O   11  py     Ryd( 5p)     0.00009       4.97239
   186    O   11  pz     Val( 2p)     1.75888      -0.33389
   187    O   11  pz     Ryd( 3p)     0.00101       0.39282
   188    O   11  pz     Ryd( 4p)     0.00047       0.91473
   189    O   11  pz     Ryd( 5p)     0.00001       4.84989
   190    O   11  dxy    Ryd( 3d)     0.00083       3.17084
   191    O   11  dxz    Ryd( 3d)     0.00040       2.91485
   192    O   11  dyz    Ryd( 3d)     0.00083       2.91343
   193    O   11  dx2y2  Ryd( 3d)     0.00118       3.38676
   194    O   11  dz2    Ryd( 3d)     0.00061       3.18522

   195    N   12  S      Cor( 1S)     1.99936     -14.12754
   196    N   12  S      Val( 2S)     1.43641      -0.55423
   197    N   12  S      Ryd( 4S)     0.00133       1.31503
   198    N   12  S      Ryd( 3S)     0.00014       1.25787
   199    N   12  S      Ryd( 5S)     0.00000      35.23934
   200    N   12  px     Val( 2p)     1.18343      -0.16338
   201    N   12  px     Ryd( 4p)     0.00295       0.90342
   202    N   12  px     Ryd( 3p)     0.00021       0.88201
   203    N   12  px     Ryd( 5p)     0.00005       4.34343
   204    N   12  py     Val( 2p)     1.62516      -0.23188
   205    N   12  py     Ryd( 3p)     0.00393       0.58567
   206    N   12  py     Ryd( 4p)     0.00029       0.80344
   207    N   12  py     Ryd( 5p)     0.00008       4.08475
   208    N   12  pz     Val( 2p)     1.23468      -0.18856
   209    N   12  pz     Ryd( 3p)     0.00073       0.55578
   210    N   12  pz     Ryd( 4p)     0.00015       0.71367
   211    N   12  pz     Ryd( 5p)     0.00003       3.78759
   212    N   12  dxy    Ryd( 3d)     0.00169       2.99550
   213    N   12  dxz    Ryd( 3d)     0.00034       2.21521
   214    N   12  dyz    Ryd( 3d)     0.00203       2.20312
   215    N   12  dx2y2  Ryd( 3d)     0.00137       2.57663
   216    N   12  dz2    Ryd( 3d)     0.00090       2.60726

   217    C   13  S      Cor( 1S)     1.99922     -10.04730
   218    C   13  S      Val( 2S)     1.09609      -0.27182
   219    C   13  S      Ryd( 4S)     0.00055       0.94880
   220    C   13  S      Ryd( 3S)     0.00011       0.64235
   221    C   13  S      Ryd( 5S)     0.00000      23.24303
   222    C   13  px     Val( 2p)     1.06386      -0.11972
   223    C   13  px     Ryd( 4p)     0.00115       0.48943
   224    C   13  px     Ryd( 3p)     0.00021       0.25644
   225    C   13  px     Ryd( 5p)     0.00008       2.97010
   226    C   13  py     Val( 2p)     1.22829      -0.11648
   227    C   13  py     Ryd( 4p)     0.00206       0.52076
   228    C   13  py     Ryd( 3p)     0.00014       0.28655
   229    C   13  py     Ryd( 5p)     0.00006       3.04072
   230    C   13  pz     Val( 2p)     1.21957      -0.11819
   231    C   13  pz     Ryd( 4p)     0.00068       0.49378
   232    C   13  pz     Ryd( 3p)     0.00005       0.24348
   233    C   13  pz     Ryd( 5p)     0.00006       3.04746
   234    C   13  dxy    Ryd( 3d)     0.00051       2.08091
   235    C   13  dxz    Ryd( 3d)     0.00044       1.88786
   236    C   13  dyz    Ryd( 3d)     0.00053       2.01101
   237    C   13  dx2y2  Ryd( 3d)     0.00077       2.19957
   238    C   13  dz2    Ryd( 3d)     0.00092       2.21148

   239    H   14  S      Val( 1S)     0.77912       0.02860
   240    H   14  S      Ryd( 2S)     0.00072       0.63371
   241    H   14  S      Ryd( 3S)     0.00011       2.05554
   242    H   14  px     Ryd( 2p)     0.00019       2.01928
   243    H   14  py     Ryd( 2p)     0.00018       2.20179
   244    H   14  pz     Ryd( 2p)     0.00012       1.97585

   245    H   15  S      Val( 1S)     0.77336       0.02675
   246    H   15  S      Ryd( 2S)     0.00063       0.60480
   247    H   15  S      Ryd( 3S)     0.00012       2.08236
   248    H   15  px     Ryd( 2p)     0.00016       1.73132
   249    H   15  py     Ryd( 2p)     0.00009       1.78442
   250    H   15  pz     Ryd( 2p)     0.00027       2.66657

   251    H   16  S      Val( 1S)     0.76511       0.03466
   252    H   16  S      Ryd( 2S)     0.00071       0.69615
   253    H   16  S      Ryd( 3S)     0.00011       2.00829
   254    H   16  px     Ryd( 2p)     0.00014       1.75377
   255    H   16  py     Ryd( 2p)     0.00023       2.54482
   256    H   16  pz     Ryd( 2p)     0.00011       1.89211

   257    C   17  S      Cor( 1S)     1.99929     -10.01565
   258    C   17  S      Val( 2S)     1.07413      -0.23179
   259    C   17  S      Ryd( 4S)     0.00060       0.83906
   260    C   17  S      Ryd( 3S)     0.00012       0.58120
   261    C   17  S      Ryd( 5S)     0.00000      23.36437
   262    C   17  px     Val( 2p)     1.21744      -0.08875
   263    C   17  px     Ryd( 4p)     0.00301       0.54808
   264    C   17  px     Ryd( 3p)     0.00024       0.30980
   265    C   17  px     Ryd( 5p)     0.00003       3.09910
   266    C   17  py     Val( 2p)     1.06417      -0.08275
   267    C   17  py     Ryd( 4p)     0.00138       0.52256
   268    C   17  py     Ryd( 3p)     0.00034       0.25086
   269    C   17  py     Ryd( 5p)     0.00007       2.97107
   270    C   17  pz     Val( 2p)     1.21531      -0.08953
   271    C   17  pz     Ryd( 4p)     0.00064       0.53019
   272    C   17  pz     Ryd( 3p)     0.00011       0.28343
   273    C   17  pz     Ryd( 5p)     0.00006       3.05861
   274    C   17  dxy    Ryd( 3d)     0.00044       2.07146
   275    C   17  dxz    Ryd( 3d)     0.00061       2.11693
   276    C   17  dyz    Ryd( 3d)     0.00061       1.95245
   277    C   17  dx2y2  Ryd( 3d)     0.00076       2.25481
   278    C   17  dz2    Ryd( 3d)     0.00068       2.13461

   279    H   18  S      Val( 1S)     0.77927       0.05712
   280    H   18  S      Ryd( 2S)     0.00085       0.83351
   281    H   18  S      Ryd( 3S)     0.00011       1.94652
   282    H   18  px     Ryd( 2p)     0.00021       2.26971
   283    H   18  py     Ryd( 2p)     0.00016       1.95175
   284    H   18  pz     Ryd( 2p)     0.00014       2.05679

   285    H   19  S      Val( 1S)     0.78588       0.04689
   286    H   19  S      Ryd( 2S)     0.00065       0.71057
   287    H   19  S      Ryd( 3S)     0.00010       2.08044
   288    H   19  px     Ryd( 2p)     0.00012       1.82700
   289    H   19  py     Ryd( 2p)     0.00021       1.89145
   290    H   19  pz     Ryd( 2p)     0.00026       2.60144

   291    H   20  S      Val( 1S)     0.79592       0.04274
   292    H   20  S      Ryd( 2S)     0.00068       0.77497
   293    H   20  S      Ryd( 3S)     0.00010       1.98457
   294    H   20  px     Ryd( 2p)     0.00022       2.52417
   295    H   20  py     Ryd( 2p)     0.00015       1.78752
   296    H   20  pz     Ryd( 2p)     0.00013       1.96583

 WARNING:  1 low occupancy (<1.9990e) core orbital  found on  C    1
           1 low occupancy (<1.9990e) core orbital  found on  C    2
           1 low occupancy (<1.9990e) core orbital  found on  C    3

 WARNING:  Population inversion found on atom  C    1
           Population inversion found on atom  C    2
           Population inversion found on atom  C    3
           Population inversion found on atom  C    4
           Population inversion found on atom  C    5
           Population inversion found on atom  C    6
           Population inversion found on atom  C   10
           Population inversion found on atom  N   12
           Population inversion found on atom  C   13
           Population inversion found on atom  C   17


 Summary of Natural Population Analysis:                  
                                                          
                                       Natural Population 
                Natural  -----------------------------------------------
    Atom  No    Charge         Core      Valence    Rydberg      Total
 -----------------------------------------------------------------------
      C    1   -0.01071      1.99897     3.99618    0.01556     6.01071
      C    2    0.06415      1.99860     3.91467    0.02258     5.93585
      C    3    0.28466      1.99843     3.69415    0.02276     5.71534
      C    4   -0.24401      1.99909     4.22850    0.01642     6.24401
      C    5   -0.18907      1.99923     4.17271    0.01713     6.18907
      C    6   -0.21245      1.99911     4.19686    0.01648     6.21245
      H    7    0.21808      0.00000     0.78023    0.00168     0.78192
      H    8    0.20706      0.00000     0.79142    0.00152     0.79294
      H    9    0.20570      0.00000     0.79279    0.00151     0.79430
      C   10    0.56696      1.99924     3.39935    0.03444     5.43304
      O   11   -0.51307      1.99978     6.49949    0.01380     8.51307
      N   12   -0.49526      1.99936     5.47968    0.01623     7.49526
      C   13   -0.61538      1.99922     4.60782    0.00834     6.61538
      H   14    0.21957      0.00000     0.77912    0.00131     0.78043
      H   15    0.22536      0.00000     0.77336    0.00128     0.77464
      H   16    0.23360      0.00000     0.76511    0.00129     0.76640
      C   17   -0.58005      1.99929     4.57105    0.00971     6.58005
      H   18    0.21926      0.00000     0.77927    0.00147     0.78074
      H   19    0.21279      0.00000     0.78588    0.00134     0.78721
      H   20    0.20281      0.00000     0.79592    0.00127     0.79719
 =======================================================================
   * Total *    0.00000     21.99032    55.80356    0.20612    78.00000

                                 Natural Population      
 --------------------------------------------------------
   Core                      21.99032 ( 99.9560% of  22)
   Valence                   55.80356 ( 99.6492% of  56)
   Natural Minimal Basis     77.79388 ( 99.7357% of  78)
   Natural Rydberg Basis      0.20612 (  0.2643% of  78)
 --------------------------------------------------------

    Atom  No          Natural Electron Configuration
 ----------------------------------------------------------------------------
      C    1      [core]2S( 0.89)2p( 3.11)4p( 0.01)
      C    2      [core]2S( 0.84)2p( 3.08)3d( 0.01)4p( 0.01)
      C    3      [core]2S( 0.83)2p( 2.86)3d( 0.01)4p( 0.01)
      C    4      [core]2S( 0.95)2p( 3.28)4p( 0.01)
      C    5      [core]2S( 0.96)2p( 3.21)4p( 0.01)
      C    6      [core]2S( 0.95)2p( 3.25)4p( 0.01)
      H    7            1S( 0.78)
      H    8            1S( 0.79)
      H    9            1S( 0.79)
      C   10      [core]2S( 0.87)2p( 2.53)3d( 0.01)4p( 0.02)
      O   11      [core]2S( 1.66)2p( 4.84)3p( 0.01)
      N   12      [core]2S( 1.44)2p( 4.04)3d( 0.01)
      C   13      [core]2S( 1.10)2p( 3.51)
      H   14            1S( 0.78)
      H   15            1S( 0.77)
      H   16            1S( 0.77)
      C   17      [core]2S( 1.07)2p( 3.50)4p( 0.01)
      H   18            1S( 0.78)
      H   19            1S( 0.79)
      H   20            1S( 0.80)


 NBO analysis skipped by request.
 Calling FoFJK, ICntrl=      2127 FMM=F ISym2X=0 I1Cent= 0 IOpClX= 0 NMat=1 NMatS=1 NMatT=0.
 ***** Axes restored to original set *****
 -------------------------------------------------------------------
 Center     Atomic                   Forces (Hartrees/Bohr)
 Number     Number              X              Y              Z
 -------------------------------------------------------------------
      1        6          -0.022457129   -0.004867214    0.007780822
      2        6           0.011503401   -0.042198153    0.013701413
      3        6           0.025455805    0.021775238   -0.026969351
      4        6          -0.007171292   -0.002388922   -0.000913842
      5        6           0.011741702   -0.023623003    0.007668358
      6        6           0.027978219   -0.001278213   -0.007216494
      7        1           0.004448384    0.006464673   -0.005075595
      8        1          -0.003116771    0.008284590   -0.002606218
      9        1          -0.009279462    0.000997816    0.002139156
     10        6          -0.023141627   -0.009327545   -0.008118224
     11        8          -0.021764109   -0.016322689    0.048746109
     12        7           0.013740553    0.032079060   -0.005605124
     13        6          -0.027761716    0.024521933   -0.023631359
     14        1           0.011909461    0.001454342   -0.009435188
     15        1           0.005620881    0.006872345    0.012339174
     16        1          -0.005827480   -0.011513264    0.002219248
     17        6           0.017882797    0.022825687   -0.017967779
     18        1           0.004707685   -0.013247536   -0.000739389
     19        1          -0.000014960   -0.000298722    0.016192726
     20        1          -0.014454338   -0.000210424   -0.002508440
 -------------------------------------------------------------------
 Cartesian Forces:  Max     0.048746109 RMS     0.016284729

 GradGradGradGradGradGradGradGradGradGradGradGradGradGradGradGradGradGrad
 Berny optimization.
 FormGI is forming the generalized inverse of G from B-inverse, IUseBI=4.
 Internal  Forces:  Max     0.037333571 RMS     0.009932643
 Search for a local minimum.
 Step number   1 out of a maximum of  110
 All quantities printed in internal units (Hartrees-Bohrs-Radians)
 Mixed Optimization -- RFO/linear search
 Second derivative matrix not updated -- first step.
 ITU=  0
     Eigenvalues ---    0.00237   0.00237   0.00885   0.01320   0.01674
     Eigenvalues ---    0.01894   0.01923   0.01931   0.01996   0.02069
     Eigenvalues ---    0.02097   0.02194   0.02215   0.07243   0.07243
     Eigenvalues ---    0.07243   0.07243   0.16000   0.16000   0.16000
     Eigenvalues ---    0.16000   0.16000   0.16000   0.16000   0.16000
     Eigenvalues ---    0.16000   0.22100   0.23543   0.24819   0.24880
     Eigenvalues ---    0.24928   0.25000   0.25000   0.28519   0.28519
     Eigenvalues ---    0.35046   0.37230   0.37230   0.37230   0.37230
     Eigenvalues ---    0.37230   0.37230   0.37230   0.37230   0.37230
     Eigenvalues ---    0.37361   0.39374   0.40395   0.41278   0.43686
     Eigenvalues ---    0.45849   0.46143   0.49003   0.61801
 RFO step:  Lambda=-3.16803600D-02 EMin= 2.36824070D-03
 Linear search not attempted -- first point.
 Iteration  1 RMS(Cart)=  0.08080597 RMS(Int)=  0.00357831
 Iteration  2 RMS(Cart)=  0.00764407 RMS(Int)=  0.00124906
 Iteration  3 RMS(Cart)=  0.00002268 RMS(Int)=  0.00124900
 Iteration  4 RMS(Cart)=  0.00000002 RMS(Int)=  0.00124900
 Variable       Old X    -DE/DX   Delta X   Delta X   Delta X     New X
                                 (Linear)    (Quad)   (Total)
    R1        2.63029   0.00018   0.00000   0.00272   0.00250   2.63279
    R2        2.66240  -0.00907   0.00000  -0.02115  -0.02084   2.64155
    R3        2.91018  -0.01303   0.00000  -0.04113  -0.04113   2.86905
    R4        2.56482   0.02126   0.00000   0.04634   0.04619   2.61101
    R5        2.73838  -0.02446   0.00000  -0.05701  -0.05684   2.68154
    R6        2.63316  -0.00995   0.00000  -0.01794  -0.01826   2.61490
    R7        2.70663  -0.03733   0.00000  -0.08244  -0.08241   2.62422
    R8        2.66522  -0.01378   0.00000  -0.03166  -0.03145   2.63377
    R9        2.02201   0.00930   0.00000   0.02302   0.02302   2.04503
   R10        2.67935  -0.00618   0.00000  -0.01795  -0.01745   2.66190
   R11        2.02201   0.00916   0.00000   0.02269   0.02269   2.04469
   R12        2.02201   0.00956   0.00000   0.02368   0.02368   2.04568
   R13        2.75857  -0.03617   0.00000  -0.09609  -0.09639   2.66217
[...]
 -0.00474872,-0.00040913,0.00217075,-0.01023259,0.02641730,-0.01068534,
 -0.11588484,0.10690828,-0.03829488,0.01099829,-0.01526530,0.00604709,0
 .00101555,-0.00073375,-0.00059515,0.12065524,-0.00292156,-0.00029282,0
 .00365750,-0.00088692,0.00012321,-0.00044589,0.00035210,0.00265520,0.0
 0172617,-0.00055384,0.00088483,0.00116999,0.10716469,-0.24371602,0.084
 31169,0.01215676,-0.01422146,0.00614767,-0.00003175,-0.00032455,-0.001
 98302,-0.11539440,0.25549934,0.00270851,0.00357717,0.00379982,0.000444
 92,-0.00054133,-0.00091116,0.00179440,0.00186185,0.00503409,0.00264558
 ,-0.00364604,0.00438163,-0.03842135,0.08435708,-0.06925755,-0.00750714
 ,0.01104476,-0.00151042,-0.00094202,-0.00185771,-0.00326157,0.03991644
 ,-0.09343030,0.06383681,-0.01112111,0.00004073,0.00254034,0.00115048,0
 .00254947,-0.00032318,0.00077164,-0.00018711,-0.00015551,0.00045913,-0
 .00251573,0.00220703,-0.01305862,0.00436248,0.00050841,-0.32273681,0.0
 4090578,0.03133304,-0.00065412,0.00026786,0.00005721,0.00069741,-0.000
 58861,-0.00050739,0.34333707,0.02624943,-0.00107466,-0.00256575,0.0016
 1288,-0.00301054,0.00436157,0.00019733,-0.00139800,0.00035076,-0.00194
 694,-0.00166336,0.00406389,-0.02319254,0.00596398,0.00211507,0.0402247
 6,-0.05836669,0.00483734,-0.00103259,0.00024396,0.00026523,0.00002671,
 -0.00000916,-0.00186528,-0.04383170,0.05870764,-0.01041419,0.00211503,
 0.00403169,0.00013973,0.00419452,0.00429838,-0.00034557,0.00041935,-0.
 00076270,0.00192581,0.00416552,0.00345226,0.01412869,-0.00280532,0.000
 72794,0.03166984,0.00471511,-0.04203440,0.00069997,0.00003298,0.000266
 14,-0.00081154,-0.00175535,-0.00276063,-0.03520890,-0.00891082,0.03553
 676,0.01345246,-0.00240696,-0.00053235,-0.10517014,0.04726046,-0.00296
 439,-0.02201102,0.04327644,-0.01544709,-0.00521257,-0.00478418,0.00358
 748,-0.00537133,-0.00253512,0.00237809,-0.00181765,0.00888661,-0.00395
 720,0.00049737,-0.00067437,0.00017770,-0.00072073,-0.00002166,0.000106
 53,0.00006181,0.00006982,-0.00015154,0.86788838,0.00789933,-0.00954926
 ,0.00519158,0.00659219,0.00994381,-0.00162496,0.08127027,-0.05528694,0
 .01838314,-0.00553151,0.00254233,0.00053852,0.00069443,-0.00359579,0.0
 0211268,-0.00301295,0.00382713,-0.00104773,0.00037906,-0.00127929,0.00
 037963,-0.00074602,0.00014966,-0.00003180,0.00028691,-0.00067702,-0.00
 000994,-0.06592024,0.45349589,-0.00562593,0.00703229,0.00133919,0.0171
 3753,-0.00888953,0.01036540,-0.03422353,0.02516894,0.00494522,0.003956
 54,0.00040549,0.00072726,0.00078177,0.00268891,-0.00053998,0.00192431,
 -0.00317236,0.00184368,-0.00034300,0.00056770,-0.00059366,0.00046452,-
 0.00016112,-0.00018746,-0.00025885,0.00002867,-0.00056168,-0.08866713,
 -0.11897285,0.26358494,-0.00361324,-0.00330735,0.00317771,-0.06623022,
 -0.02362480,0.02512084,-0.22476689,-0.00247199,0.03112939,-0.02299142,
 0.01599613,-0.00421346,0.01144813,0.00174070,-0.00188835,-0.00453409,-
 0.00603170,0.00352285,0.00094500,-0.00045985,-0.00055755,-0.00045751,0
 .00015983,0.00024862,-0.00010553,-0.00012066,0.00006353,-0.10466548,0.
 00252333,0.00484957,0.43893245,-0.00529234,0.00104246,0.00291652,0.014
 89851,-0.00902760,0.00627884,0.03504358,-0.09749210,0.01361861,0.03899
 732,-0.00015407,-0.00802964,-0.00040650,-0.00201928,0.00388282,0.00385
 651,-0.00286502,-0.00001491,-0.00218524,0.00168071,-0.00214595,0.00231
 625,0.00017416,0.00018131,-0.00007731,0.00037657,-0.00021396,-0.015198
 11,-0.15370850,0.04382307,-0.01142486,0.33443857,0.00415801,0.00256244
 ,0.00302133,0.00608468,0.01315832,0.00147293,0.01258932,0.02031531,-0.
 06957319,-0.01558393,-0.00392070,0.00241165,-0.00082604,0.00350023,0.0
 0410702,-0.00136453,0.00174963,-0.00212312,0.00029522,-0.00245405,-0.0
 0229018,-0.00081719,0.00056628,0.00124356,0.00004205,-0.00020613,0.000
 01040,0.01360972,0.04066137,-0.09305595,-0.05842508,-0.12364158,0.1516
 8951,-0.03354284,0.03565363,-0.01199339,-0.12192118,0.07467899,-0.0267
 8547,-0.00035307,0.02834767,-0.01149667,-0.00016769,0.00076592,0.00027
 682,0.00419812,0.00576102,-0.00391052,-0.00256940,-0.01255576,0.007789
 76,-0.00008700,0.00036404,-0.00015169,0.00053387,0.00007601,-0.0001509
 2,-0.00060808,0.00146576,-0.00044395,-0.40294160,-0.10302549,0.1090256
 1,-0.02497277,-0.06276712,0.04103624,0.60976855,0.01549991,-0.00076377
 ,-0.00339395,0.04155250,-0.17796407,0.04829724,-0.01157605,-0.04601962
 ,0.03158885,-0.00216700,-0.00392679,0.00405873,-0.00495261,-0.00260098
 ,0.00130318,-0.00099007,0.00902287,-0.00117048,0.00103282,-0.00129514,
 0.00049124,0.00014374,-0.00010919,-0.00002165,-0.00011206,0.00051641,0
 .00024127,-0.08239463,-0.12615979,0.03873460,-0.01028544,-0.04960930,0
 .04173643,0.03926373,0.38890792,-0.00203318,-0.00699229,0.00178870,-0.
 01041306,0.04237948,-0.08431520,0.00823335,0.02446071,0.00015459,0.001
 72675,0.00353500,0.00144690,0.00138492,-0.00061031,-0.00169941,0.00207
 245,0.00089549,0.00548544,-0.00048215,0.00061043,-0.00014427,-0.000184
 44,-0.00000959,-0.00006347,0.00033607,-0.00004037,0.00092417,0.0988291
 5,0.04241670,-0.11616519,0.01510052,0.05110824,0.00316290,-0.11158074,
 -0.15295771,0.18912782,0.00011769,0.00074469,-0.00022723,-0.00097303,-
 0.00269603,0.00332525,-0.00048130,-0.00074791,0.00067107,0.00176782,-0
 .00048289,0.00013968,-0.00088757,-0.00030591,0.00031541,-0.00024676,0.
 00038100,-0.00027201,-0.00001392,0.00003110,0.00000983,0.00006759,-0.0
 0003268,-0.00005032,-0.00004221,0.00007242,-0.00007086,-0.20063178,0.0
 6712707,-0.00978071,0.00495727,0.00076176,-0.00109141,-0.03019571,0.01
 264955,-0.00062283,0.51545161,0.00065957,0.00095531,-0.00014170,-0.002
 39339,0.00258436,0.00418028,-0.00604436,-0.00314323,0.00322600,0.00228
 744,0.00000978,0.00018647,-0.00069584,-0.00041140,0.00034352,-0.000102
 17,0.00034032,-0.00050325,-0.00006257,0.00013194,0.00000875,0.00014402
 ,-0.00006655,-0.00014330,-0.00007050,0.00006705,-0.00013848,0.06286511
 ,-0.11242584,0.00992214,0.03462677,-0.02417462,0.00623135,-0.00716731,
 0.00897746,-0.00250138,0.02906390,0.56605781,-0.00018426,-0.00015703,0
 .00101781,0.00317549,0.00423742,0.00752470,0.00328482,0.00228057,-0.00
 051487,-0.00122862,0.00067966,0.00109543,0.00050698,0.00027384,-0.0001
 9355,-0.00003293,-0.00058892,-0.00041848,0.00005611,-0.00000790,0.0001
 2106,-0.00013755,-0.00011166,-0.00022443,-0.00000025,-0.00016405,-0.00
 015761,-0.00766459,0.00915707,-0.07279272,-0.01782462,0.01227704,-0.00
 193908,0.00917146,-0.00604380,0.00267255,-0.01108546,-0.02106624,0.546
 34685,0.00038198,0.00011243,-0.00038961,-0.00144486,-0.00022134,-0.001
 76609,-0.00167847,0.00024835,-0.00003828,0.00028316,-0.00026353,-0.000
 07546,-0.00034755,-0.00001085,0.00005908,0.00000487,0.00034837,-0.0000
 0967,-0.00001026,0.00004432,-0.00003221,0.00000900,0.00002161,0.000026
 41,-0.00002609,0.00006234,0.00003240,-0.01587588,0.00361083,0.02890630
 ,0.00222763,-0.00153557,-0.00035419,-0.00139320,0.00254012,-0.00008941
 ,-0.08262822,0.01734721,0.09259454,0.09381521,-0.00048411,0.00011458,0
 .00020890,0.00079394,-0.00025493,0.00029160,0.00148043,-0.00049512,0.0
 0004680,-0.00041563,0.00050554,0.00004534,0.00053658,0.00006854,-0.000
 13380,-0.00004401,-0.00046095,0.00019164,0.00000855,-0.00003346,0.0000
 1285,-0.00000628,-0.00001368,-0.00002723,0.00000854,-0.00003066,-0.000
 01429,0.00626108,-0.00327403,-0.01513691,-0.00128735,0.00090363,0.0006
 9449,-0.00042500,-0.00003021,0.00031234,0.01738129,-0.05251126,-0.0354
 2660,-0.01996915,0.05156832,-0.00000499,-0.00005589,-0.00001891,-0.000
 39905,-0.00037478,-0.00008682,0.00029159,-0.00007148,0.00002949,0.0001
 1569,-0.00011157,-0.00002626,-0.00010571,-0.00004684,0.00004946,-0.000
 02272,0.00008078,-0.00001686,0.00000807,-0.00001797,0.00000416,0.00000
 194,-0.00000293,0.00000259,0.00000477,0.00000305,0.00000620,0.00074234
 ,0.00125287,0.00567879,-0.00002779,-0.00001372,0.00031175,-0.00128805,
 -0.00046824,-0.00010869,0.09237493,-0.03527460,-0.26196239,-0.10197141
 ,0.04025528,0.28347426,0.00050552,0.00031085,0.00002023,-0.00081880,0.
 00145975,0.00139901,-0.00181774,0.00050004,0.00030411,0.00033905,-0.00
 016441,0.00018194,-0.00037237,0.00000065,0.00007559,-0.00002649,0.0002
 5152,-0.00027566,-0.00001028,0.00005973,-0.00001737,-0.00000268,-0.000
 00868,-0.00003647,-0.00004329,0.00001836,-0.00005845,-0.02366347,-0.01
 723210,-0.01409808,0.00254886,-0.00089092,0.00087347,-0.00118025,0.001
 77190,-0.00166346,-0.15248782,-0.09309713,-0.09049484,0.00903175,0.007
 34153,0.00628961,0.17035741,-0.00039955,-0.00004381,-0.00009101,0.0007
 8835,-0.00041835,-0.00068429,0.00091092,-0.00031254,-0.00004401,-0.000
 44283,0.00027622,-0.00026270,0.00046341,0.00008568,-0.00011790,0.00000
 776,-0.00034556,0.00023389,-0.00000037,-0.00001512,0.00000464,0.000001
 29,0.00001269,0.00002175,0.00001412,-0.00000514,0.00003196,0.01065476,
 0.01081977,0.01124315,-0.00120151,0.00044702,-0.00043632,0.00079881,-0
 .00035484,-0.00041847,-0.09285846,-0.12796916,-0.07584152,-0.00277599,
 -0.00323572,-0.00218362,0.10095740,0.13444350,0.00028142,-0.00005965,0
 .00001657,-0.00013996,0.00004390,-0.00055144,-0.00083693,0.00036772,-0
 .00001444,0.00020287,-0.00018190,0.00014712,-0.00025845,-0.00002458,0.
 00005699,0.00005177,0.00023099,-0.00010094,-0.00001027,0.00001833,-0.0
 0001418,-0.00000312,-0.00000582,-0.00001213,-0.00000212,0.00000428,-0.
 00000211,-0.00101692,0.00030181,-0.00062915,0.00057710,0.00026164,0.00
 044346,0.00148038,-0.00034074,0.00000797,-0.09040309,-0.07594948,-0.11
 661024,-0.01949154,-0.01682622,-0.01579209,0.09843326,0.08482664,0.124
 03040,0.00013161,-0.00013265,0.00003451,-0.00003338,-0.00004293,-0.000
 05352,0.00080753,0.00143115,-0.00074964,-0.00056344,-0.00013795,0.0001
 9136,-0.00004174,0.00012325,-0.00006391,-0.00000080,0.00006720,-0.0000
 2898,0.00002693,-0.00001943,0.00000629,-0.00005944,0.00000064,0.000006
 57,0.00000254,-0.00001380,0.00000935,0.00708345,0.02710368,-0.01514449
 ,-0.00648299,0.00367263,-0.00044046,0.00143440,-0.00125055,0.00036680,
 -0.05387406,-0.03747226,0.01987171,-0.00233081,-0.01117072,0.00399060,
 -0.00236082,-0.01691626,0.01112649,0.05630675,-0.00011662,0.00008735,-
 0.00004323,0.00050910,-0.00018009,-0.00022529,-0.00105436,-0.00003764,
 0.00048954,0.00038297,0.00013271,-0.00007028,-0.00000080,-0.00009335,0
 .00001735,0.00002223,-0.00004594,0.00003011,-0.00002502,0.00002748,-0.
 00000500,0.00003739,-0.00000665,-0.00001396,0.00000555,0.00001209,0.00
 000125,-0.00455275,-0.01516200,0.00692054,0.00372595,-0.00066311,0.000
 25971,-0.00188555,0.00150789,-0.00038957,-0.03111407,-0.25848489,0.110
 35790,0.00050938,0.00715327,-0.00298027,-0.00125541,-0.01340741,0.0073
 4898,0.03477814,0.27914629,0.00002637,-0.00004027,-0.00002696,-0.00032
 632,-0.00012744,-0.00033253,0.00047933,0.00004582,0.00046401,-0.000065
 91,0.00002289,0.00012917,-0.00000235,-0.00000478,-0.00005582,-0.000006
 73,0.00002189,0.00001346,0.00000904,-0.00000599,0.00000967,-0.00001167
 ,-0.00000737,-0.00001561,-0.00000022,0.00000471,0.00001436,0.00048389,
 0.00127431,-0.00350902,-0.00046880,0.00027194,0.00116118,0.00068234,-0
 .00050261,0.00016386,0.01673308,0.11149119,-0.10425913,0.00262392,0.02
 552138,-0.01155532,-0.00100660,-0.01627754,0.00902985,-0.01914033,-0.1
 2168356,0.10876752,-0.12715856,-0.05067843,0.03537462,-0.01876723,-0.0
 2568007,0.01679381,-0.00323685,0.00347657,-0.00005706,-0.00022436,0.00
 018961,-0.00025468,-0.00111966,0.00320444,0.00010400,0.01077567,0.0059
 5299,-0.00387566,0.00004118,-0.00019336,-0.00011808,0.00043494,0.00071
 091,-0.00041383,0.00055977,0.00129549,-0.00157333,0.00001862,-0.001626
 33,0.00073368,-0.00216126,-0.00052211,0.00061823,0.00291045,-0.0009974
 8,-0.00067446,0.00009264,0.00013910,-0.00002098,0.00002148,-0.00003505
 ,0.00000233,0.00004009,-0.00002761,0.00001674,0.00000242,0.00000473,0.
 00000056,0.55622873,-0.04357412,-0.14553422,0.04544821,-0.00672449,0.0
 0549622,0.00056401,0.00330212,0.00250550,0.00117253,-0.00031397,-0.001
 91857,0.00044793,0.00308932,0.00104641,0.00304575,-0.01491858,-0.02108
 740,0.01582483,-0.00012580,-0.00014273,-0.00047764,-0.00046126,-0.0004
 3324,0.00033916,-0.00162110,0.00028504,-0.00215466,-0.00064130,0.00000
 767,-0.00007432,0.00183048,0.00041453,-0.00060334,0.00142008,-0.001148
 50,-0.00147888,0.00004751,0.00007505,0.00013207,-0.00003056,0.00001389
 ,0.00000902,0.00000936,0.00000253,-0.00001565,0.00000688,-0.00000656,0
 .00001126,-0.03800223,0.51225999,0.03186683,0.04671993,-0.09810259,0.0
 0742481,0.00394750,0.00092964,0.00003095,0.00114139,0.00549989,-0.0000
 0595,0.00035681,-0.00130144,0.00015948,0.00302663,0.00680127,0.0064396
 2,0.01209970,-0.00158825,-0.00015126,-0.00046557,-0.00089737,0.0001658
 0,0.00012994,-0.00000754,-0.00013063,-0.00267607,-0.00331385,0.0002461
 8,0.00010188,-0.00046851,-0.00054408,-0.00018249,0.00004275,-0.0018688
 1,-0.00104676,-0.00277649,0.00002427,0.00011563,0.00029792,-0.00004489
 ,0.00000137,0.00000121,0.00004351,-0.00000057,-0.00000600,-0.00000049,
 0.00001169,0.00001304,0.01412712,0.01563867,0.51993208,0.00176925,-0.0
 1549405,-0.00998647,-0.00044354,-0.00120672,0.00108696,0.00080051,0.00
 078752,0.00028226,0.00021351,-0.00074586,0.00017941,-0.00018464,-0.000
 05701,0.00058078,-0.00122813,-0.00000869,0.00013174,0.00001526,-0.0000
 0245,-0.00005577,-0.00005520,-0.00006330,0.00010065,0.00023083,-0.0001
 4473,0.00009503,-0.00063924,-0.00014288,0.00031553,0.00018266,0.000548
 55,-0.00053258,0.00048771,0.00021683,-0.00020706,0.00002789,0.00001481
 ,0.00002532,-0.00001676,0.00000018,0.00000036,0.00000436,0.00001754,-0
 .00000800,-0.00003343,0.00001111,-0.00001305,-0.04901541,0.01777879,0.
 01183197,0.04826658,0.00043865,-0.02207633,-0.00797175,0.00213943,0.00
 017896,0.00066816,0.00022030,-0.00046594,0.00094339,-0.00010362,-0.000
 01931,-0.00013491,0.00024405,0.00005824,0.00123900,-0.00261861,-0.0007
 5659,0.00044267,-0.00006144,-0.00004668,-0.00012201,-0.00009634,-0.000
 16317,0.00012657,-0.00016409,-0.00019697,-0.00058929,-0.00001097,0.000
 23986,-0.00017587,-0.00002357,0.00020150,-0.00017207,-0.00073614,0.000
 41276,-0.00042038,-0.00000665,0.00000950,0.00004243,-0.00002925,0.0000
 0934,0.00000412,-0.00000382,0.00001204,-0.00000504,-0.00001616,0.00000
 916,-0.00001086,0.01885408,-0.23753718,-0.11420123,-0.01820571,0.26163
 673,-0.00194346,0.01625297,0.00837434,0.00003549,-0.00038039,0.0007267
 2,-0.00017891,-0.00022096,-0.00052889,-0.00004053,0.00019660,-0.000009
 38,-0.00020444,-0.00000843,-0.00107527,0.00126643,0.00105385,-0.000893
 40,0.00002463,0.00005416,0.00011377,0.00005745,0.00011728,-0.00005086,
 0.00005362,0.00020155,0.00034177,-0.00014658,-0.00008033,0.00002808,-0
 .00009825,0.00021400,0.00000308,0.00046958,0.00002357,0.00011905,0.000
 01062,-0.00001583,-0.00002610,0.00001831,0.00000252,-0.00000291,0.0000
 0462,0.00000027,-0.00000006,-0.00001659,0.00000593,-0.00000020,0.01153
 353,-0.11321014,-0.10816549,-0.01404241,0.12183677,0.11820341,0.007308
 62,-0.00200310,0.01803686,-0.00074917,-0.00112625,0.00061045,0.0005403
 9,0.00021025,-0.00105703,0.00026825,-0.00064932,0.00041669,-0.00032575
 ,-0.00054380,-0.00029791,-0.00116291,-0.00020766,0.00030080,0.00003583
 ,0.00004361,0.00004255,-0.00006860,-0.00010741,0.00001767,0.00021747,-
 0.00019335,0.00002255,-0.00060478,-0.00025728,0.00009208,0.00026934,0.
 00061336,-0.00011891,0.00044048,0.00016068,-0.00013422,0.00001370,-0.0
 0001248,-0.00003466,0.00000311,0.00001407,-0.00000859,-0.00001607,0.00
 000076,0.00000584,-0.00002166,0.00001652,0.00000722,-0.07714284,0.0131
 6038,-0.08097790,0.00060424,-0.00048465,0.00302811,0.07957409,0.007597
 66,-0.00731229,0.02389726,0.00129172,0.00039933,-0.00065170,-0.0000797
 3,-0.00089956,-0.00041148,-0.00002202,0.00004911,0.00012168,-0.0001135
 7,-0.00119085,-0.00099234,-0.00239479,-0.00118944,0.00113668,-0.000002
 89,0.00008529,0.00015933,-0.00009532,-0.00017986,0.00010981,0.00004888
 ,0.00036227,0.00061208,0.00020205,0.00024948,-0.00013404,0.00006046,-0
 .00005013,0.00010038,-0.00077916,0.00049994,0.00027067,-0.00002962,-0.
 00002102,-0.00003227,-0.00000631,0.00000537,-0.00000077,-0.00003028,0.
 00000280,0.00000276,0.00000852,0.00000233,0.00000097,0.01427787,-0.048
 25209,0.03834442,-0.01009446,0.00461479,-0.02676067,-0.01232624,0.0551
 4537,-0.00262324,0.00423590,-0.01192957,-0.00118716,0.00142672,0.00081
 364,-0.00017306,0.00059948,0.00016508,0.00000964,0.00001700,-0.0001329
 5,0.00012531,0.00038424,0.00031577,0.00153760,-0.00033149,-0.00052874,
 0.00001429,-0.00003558,-0.00003873,0.00007116,0.00011536,-0.00002102,-
 0.00004650,-0.00013849,-0.00020353,0.00026242,-0.00012401,-0.00001635,
 0.00000263,-0.00048697,0.00016855,0.00012434,-0.00051102,0.00007896,-0
 .00000088,0.00001912,0.00001875,-0.00000061,-0.00001356,0.00000788,0.0
 0001779,-0.00000646,0.00000292,0.00002820,-0.00002213,-0.00000518,-0.0
 8175947,0.03774851,-0.26933302,-0.00607698,0.00182400,-0.01610361,0.08
 916068,-0.04386568,0.29339627,-0.01769334,0.00482835,0.00045770,-0.000
 04565,-0.00294545,0.00167949,-0.00054468,0.00105339,-0.00032415,0.0002
 8072,-0.00014257,0.00001806,0.00008796,-0.00040513,0.00013935,0.001039
 73,0.00224083,-0.00130739,0.00005953,-0.00004895,0.00001875,-0.0000181
 7,-0.00003176,0.00001316,0.00090770,-0.00081898,0.00029143,0.00032358,
 0.00000770,-0.00004570,-0.00052992,-0.00040838,0.00024737,0.00015921,-
 0.00010589,0.00003500,-0.00003385,-0.00002993,0.00002235,-0.00002608,0
 .00001112,0.00000610,-0.00002697,0.00000745,-0.00000547,0.00000695,0.0
 0000151,-0.00000376,-0.29229983,0.06576849,0.01136347,-0.00098645,0.00
 066450,0.00016879,-0.00918375,0.00248725,0.00051385,0.31852332,-0.0255
 6384,0.00581583,0.00081489,-0.00124519,-0.00410328,0.00284498,-0.00071
 086,0.00075980,0.00002608,0.00011949,-0.00008311,0.00001345,-0.0001581
 6,0.00000149,-0.00009612,-0.00119445,0.00132235,-0.00047772,0.00005484
 ,-0.00001178,0.00001012,0.00003543,0.00003729,-0.00004085,0.00067788,-
 0.00010281,0.00006305,-0.00033603,-0.00015711,0.00018150,-0.00042457,0
 .00008459,-0.00010176,0.00074586,0.00013695,-0.00017011,0.00001393,-0.
 00000059,0.00000200,-0.00000240,-0.00000246,-0.00000242,0.00000168,0.0
 0000539,0.00000204,-0.00001939,0.00000910,-0.00000596,0.06965690,-0.06
 604632,-0.00306289,0.02679053,-0.00612071,0.00071728,0.00369192,-0.002
 32084,-0.00083494,-0.07213356,0.07077624,0.01547268,-0.00462050,-0.002
 26998,0.00083867,0.00314872,-0.00050302,0.00054772,-0.00028887,0.00060
 213,-0.00011170,0.00006049,-0.00002295,0.00001788,-0.00005201,-0.00022
 773,0.00039126,-0.00109123,0.00039422,-0.00003267,0.00002867,0.0000202
 0,-0.00002006,-0.00002882,-0.00001467,-0.00044898,0.00033083,0.0001864
 5,0.00012431,0.00012007,0.00000712,0.00025521,-0.00010481,-0.00026856,
 -0.00038632,-0.00001814,0.00013982,0.00000068,0.00000984,0.00000353,0.
 00000238,-0.00000592,0.00000449,0.00000780,0.00000209,-0.00000249,0.00
 000656,-0.00000969,-0.00000635,0.00944293,-0.00236730,-0.04755723,0.01
 629232,-0.00332371,-0.00105405,-0.02911227,0.00809291,0.00334488,-0.01
 328840,0.00011738,0.04722420\\-0.00001420,0.00000650,0.00000161,0.0000
 1703,0.00000680,-0.00000236,0.00000157,-0.00001834,0.00000776,-0.00001
 454,0.00000576,-0.00000341,0.00001136,0.00000953,-0.00000757,-0.000006
 48,-0.00001695,0.00000898,-0.00000046,-0.00000127,0.00000133,-0.000003
 69,-0.00000350,0.00000306,0.00000095,-0.00000019,-0.00000005,0.0000025
 0,-0.00000279,0.00001074,0.00000869,0.00001927,-0.00001099,-0.00001331
 ,-0.00000272,-0.00000107,0.00000177,-0.00000465,-0.00001213,-0.0000005
 4,0.00000439,0.00000260,-0.00000144,0.00000180,0.00000038,0.00000425,0
 .00000377,0.00000030,0.00000246,-0.00000095,-0.00000246,0.00000100,-0.
 00000115,0.00000258,0.00000126,-0.00000171,-0.00000118,0.00000181,-0.0
 0000359,0.00000188\\\@


 THEORY:  SUPPOSITION WHICH HAS SCIENTIFIC BASIS,
          BUT NOT EXPERIMENTALLY PROVEN.
 FACT:    A THEORY WHICH HAS BEEN PROVEN BY ENOUGH 
          MONEY TO PAY FOR THE EXPERIMENTS.

                          --  THE WIZARD OF ID
 Job cpu time:       0 days  0 hours 41 minutes 39.4 seconds.
 File lengths (MBytes):  RWF=    212 Int=      0 D2E=      0 Chk=      8 Scr=      1
 Normal termination of Gaussian 09 at Mon Nov  1 18:42:09 2021.
