 Entering Gaussian System, Link 0=g09
 Initial command:
 /cm/shared/apps/gaussian/g09revD.01/g09/l1.exe "//home/sweav003/HartwigDocs/IrCatHeteroarenes/G09-Chart1_3.com.o9626367.tmp/Gau-193719.inp" -scrdir="//home/sweav003/HartwigDocs/IrCatHeteroarenes/G09-Chart1_3.com.o9626367.tmp/"
 Entering Link 1 = /cm/shared/apps/gaussian/g09revD.01/g09/l1.exe PID=    193720.
  
 Copyright (c) 1988,1990,1992,1993,1995,1998,2003,2009,2013,
            Gaussian, Inc.  All Rights Reserved.
  
 This is part of the Gaussian(R) 09 program.  It is based on
 the Gaussian(R) 03 system (copyright 2003, Gaussian, Inc.),
 the Gaussian(R) 98 system (copyright 1998, Gaussian, Inc.),
 the Gaussian(R) 94 system (copyright 1995, Gaussian, Inc.),
 the Gaussian 92(TM) system (copyright 1992, Gaussian, Inc.),
 the Gaussian 90(TM) system (copyright 1990, Gaussian, Inc.),
 the Gaussian 88(TM) system (copyright 1988, Gaussian, Inc.),
 the Gaussian 86(TM) system (copyright 1986, Carnegie Mellon
 University), and the Gaussian 82(TM) system (copyright 1983,
 Carnegie Mellon University). Gaussian is a federally registered
 trademark of Gaussian, Inc.
  
 This software contains proprietary and confidential information,
 including trade secrets, belonging to Gaussian, Inc.
  
 This software is provided under written license and may be
 used, copied, transmitted, or stored only in accord with that
 written license.
  
 The following legend is applicable only to US Government
 contracts under FAR:
  
                    RESTRICTED RIGHTS LEGEND
  
 Use, reproduction and disclosure by the US Government is
 subject to restrictions as set forth in subparagraphs (a)
 and (c) of the Commercial Computer Software - Restricted
 Rights clause in FAR 52.227-19.
  
 Gaussian, Inc.
 340 Quinnipiac St., Bldg. 40, Wallingford CT 06492
  
  
 ---------------------------------------------------------------
 Warning -- This program may not be used in any manner that
 competes with the business of Gaussian, Inc. or will provide
 assistance to any competitor of Gaussian, Inc.  The licensee
 of this program is prohibited from giving any competitor of
 Gaussian, Inc. access to this program.  By using this program,
 the user acknowledges that Gaussian, Inc. is engaged in the
 business of creating and licensing software in the field of
 computational chemistry and represents and warrants to the
 licensee that it is not a competitor of Gaussian, Inc. and that
 it will not use this program in any manner prohibited above.
 ---------------------------------------------------------------
  

 Cite this work as:
 Gaussian 09, Revision D.01,
 M. J. Frisch, G. W. Trucks, H. B. Schlegel, G. E. Scuseria, 
 M. A. Robb, J. R. Cheeseman, G. Scalmani, V. Barone, B. Mennucci, 
 G. A. Petersson, H. Nakatsuji, M. Caricato, X. Li, H. P. Hratchian, 
 A. F. Izmaylov, J. Bloino, G. Zheng, J. L. Sonnenberg, M. Hada, 
 M. Ehara, K. Toyota, R. Fukuda, J. Hasegawa, M. Ishida, T. Nakajima, 
 Y. Honda, O. Kitao, H. Nakai, T. Vreven, J. A. Montgomery, Jr., 
 J. E. Peralta, F. Ogliaro, M. Bearpark, J. J. Heyd, E. Brothers, 
 K. N. Kudin, V. N. Staroverov, T. Keith, R. Kobayashi, J. Normand, 
 K. Raghavachari, A. Rendell, J. C. Burant, S. S. Iyengar, J. Tomasi, 
 M. Cossi, N. Rega, J. M. Millam, M. Klene, J. E. Knox, J. B. Cross, 
 V. Bakken, C. Adamo, J. Jaramillo, R. Gomperts, R. E. Stratmann, 
 O. Yazyev, A. J. Austin, R. Cammi, C. Pomelli, J. W. Ochterski, 
 R. L. Martin, K. Morokuma, V. G. Zakrzewski, G. A. Voth, 
 P. Salvador, J. J. Dannenberg, S. Dapprich, A. D. Daniels, 
 O. Farkas, J. B. Foresman, J. V. Ortiz, J. Cioslowski, 
 and D. J. Fox, Gaussian, Inc., Wallingford CT, 2013.
 
 ******************************************
 Gaussian 09:  ES64L-G09RevD.01 24-Apr-2013
                 9-Nov-2021 
 ******************************************
 %mem=100MW
 %nprocshared=20
 Will use up to   20 processors via shared memory.
 %chk=Chart1_3.chk
 ----------------------------------------------------------------------
 # opt freq b3lyp/6-311+g(d,p) geom=connectivity pop=(hirshfeld,mbs,npa
 )
 ----------------------------------------------------------------------
 1/14=-1,18=20,19=15,26=3,38=1,57=2/1,3;
 2/9=110,12=2,17=6,18=5,40=1/2;
 3/5=4,6=6,7=111,11=2,16=1,25=1,30=1,71=1,74=-5/1,2,3;
 4//1;
 5/5=2,38=5/2;
 6/7=2,8=2,9=2,10=2,27=100,28=1,40=-1,79=1/1,7;
 7//1,2,3,16;
 1/14=-1,18=20,19=15,26=3/3(2);
 2/9=110/2;
 99//99;
 2/9=110/2;
 3/5=4,6=6,7=111,11=2,16=1,25=1,30=1,71=1,74=-5/1,2,3;
 4/5=5,16=3,69=1/1;
 5/5=2,38=5/2;
 7//1,2,3,16;
 1/14=-1,18=20,19=15,26=3/3(-5);
 2/9=110/2;
 6/7=2,8=2,9=2,10=2,19=2,27=100,28=1,40=-1,79=1/1,7;
 99/9=1/99;
 -------------------
 Title Card Required
 -------------------
 Symbolic Z-matrix:
 Charge =  0 Multiplicity = 1
 C                    -2.78618  -1.15426   0.35183 
 C                    -1.4336   -1.29932   0.05714 
 C                    -0.73153  -0.35739  -0.62255 
 C                    -1.30792   0.85731  -0.98845 
 C                    -2.67066   1.06031  -0.68697 
 C                    -3.4143    0.04776  -0.02967 
 H                    -0.73534   1.61127  -1.48703 
 H                    -3.14531   1.98048  -0.95696 
 C                     0.63842  -2.00096  -0.0322 
 O                     0.60407  -0.80919  -0.87447 
 N                    -0.53776  -2.38662   0.39642 
 C                     1.94317  -2.7362    0.3265 
 H                     2.64864  -2.61968  -0.46952 
 H                     2.34933  -2.32352   1.22629 
 H                     1.73809  -3.77624   0.47194 
 H                    -3.32906  -1.92704   0.85483 
 Br                   -5.26842   0.31532   0.3428 
 

 GradGradGradGradGradGradGradGradGradGradGradGradGradGradGradGradGradGrad
 Berny optimization.
 Initialization pass.
                           ----------------------------
                           !    Initial Parameters    !
                           ! (Angstroms and Degrees)  !
 --------------------------                            --------------------------
 ! Name  Definition              Value          Derivative Info.                !
 --------------------------------------------------------------------------------
 ! R1    R(1,2)                  1.3919         estimate D2E/DX2                !
 ! R2    R(1,6)                  1.4089         estimate D2E/DX2                !
 ! R3    R(1,16)                 1.07           estimate D2E/DX2                !
 ! R4    R(2,3)                  1.3572         estimate D2E/DX2                !
 ! R5    R(2,11)                 1.4491         estimate D2E/DX2                !
 ! R6    R(3,4)                  1.3934         estimate D2E/DX2                !
 ! R7    R(3,10)                 1.4323         estimate D2E/DX2                !
 ! R8    R(4,5)                  1.4104         estimate D2E/DX2                !
 ! R9    R(4,7)                  1.07           estimate D2E/DX2                !
 ! R10   R(5,6)                  1.4178         estimate D2E/DX2                !
 ! R11   R(5,8)                  1.07           estimate D2E/DX2                !
 ! R12   R(6,17)                 1.91           estimate D2E/DX2                !
 ! R13   R(9,10)                 1.4598         estimate D2E/DX2                !
 ! R14   R(9,11)                 1.3099         estimate D2E/DX2                !
 ! R15   R(9,12)                 1.54           estimate D2E/DX2                !
 ! R16   R(12,13)                1.07           estimate D2E/DX2                !
 ! R17   R(12,14)                1.07           estimate D2E/DX2                !
 ! R18   R(12,15)                1.07           estimate D2E/DX2                !
 ! A1    A(2,1,6)              117.6987         estimate D2E/DX2                !
 ! A2    A(2,1,16)             121.1513         estimate D2E/DX2                !
 ! A3    A(6,1,16)             121.1493         estimate D2E/DX2                !
 ! A4    A(1,2,3)              122.4366         estimate D2E/DX2                !
 ! A5    A(1,2,11)             129.0039         estimate D2E/DX2                !
 ! A6    A(3,2,11)             108.5544         estimate D2E/DX2                !
 ! A7    A(2,3,4)              121.5017         estimate D2E/DX2                !
 ! A8    A(2,3,10)             110.5804         estimate D2E/DX2                !
 ! A9    A(4,3,10)             127.9179         estimate D2E/DX2                !
 ! A10   A(3,4,5)              117.971          estimate D2E/DX2                !
 ! A11   A(3,4,7)              121.0151         estimate D2E/DX2                !
 ! A12   A(5,4,7)              121.0134         estimate D2E/DX2                !
 ! A13   A(4,5,6)              120.2037         estimate D2E/DX2                !
 ! A14   A(4,5,8)              119.8979         estimate D2E/DX2                !
 ! A15   A(6,5,8)              119.8983         estimate D2E/DX2                !
 ! A16   A(1,6,5)              120.0657         estimate D2E/DX2                !
 ! A17   A(1,6,17)             119.9669         estimate D2E/DX2                !
 ! A18   A(5,6,17)             119.9672         estimate D2E/DX2                !
 ! A19   A(10,9,11)            114.0813         estimate D2E/DX2                !
 ! A20   A(10,9,12)            122.9634         estimate D2E/DX2                !
 ! A21   A(11,9,12)            122.9547         estimate D2E/DX2                !
 ! A22   A(3,10,9)             100.2526         estimate D2E/DX2                !
 ! A23   A(2,11,9)             104.9265         estimate D2E/DX2                !
 ! A24   A(9,12,13)            109.4712         estimate D2E/DX2                !
 ! A25   A(9,12,14)            109.4712         estimate D2E/DX2                !
 ! A26   A(9,12,15)            109.4712         estimate D2E/DX2                !
 ! A27   A(13,12,14)           109.4712         estimate D2E/DX2                !
 ! A28   A(13,12,15)           109.4712         estimate D2E/DX2                !
 ! A29   A(14,12,15)           109.4712         estimate D2E/DX2                !
 ! D1    D(6,1,2,3)             -2.7436         estimate D2E/DX2                !
 ! D2    D(6,1,2,11)           176.3263         estimate D2E/DX2                !
 ! D3    D(16,1,2,3)           177.5378         estimate D2E/DX2                !
 ! D4    D(16,1,2,11)           -3.3922         estimate D2E/DX2                !
 ! D5    D(2,1,6,5)             -0.1534         estimate D2E/DX2                !
 ! D6    D(2,1,6,17)           179.997          estimate D2E/DX2                !
 ! D7    D(16,1,6,5)           179.5651         estimate D2E/DX2                !
 ! D8    D(16,1,6,17)           -0.2845         estimate D2E/DX2                !
 ! D9    D(1,2,3,4)              4.3949         estimate D2E/DX2                !
 ! D10   D(1,2,3,10)          -175.5445         estimate D2E/DX2                !
 ! D11   D(11,2,3,4)          -174.8427         estimate D2E/DX2                !
 ! D12   D(11,2,3,10)            5.2178         estimate D2E/DX2                !
 ! D13   D(1,2,11,9)          -175.9855         estimate D2E/DX2                !
 ! D14   D(3,2,11,9)             3.1866         estimate D2E/DX2                !
 ! D15   D(2,3,4,5)             -2.9387         estimate D2E/DX2                !
 ! D16   D(2,3,4,7)            177.3415         estimate D2E/DX2                !
 ! D17   D(10,3,4,5)           176.9894         estimate D2E/DX2                !
 ! D18   D(10,3,4,7)            -2.7304         estimate D2E/DX2                !
 ! D19   D(2,3,10,9)           -10.4548         estimate D2E/DX2                !
 ! D20   D(4,3,10,9)           169.6107         estimate D2E/DX2                !
 ! D21   D(3,4,5,6)              0.0735         estimate D2E/DX2                !
 ! D22   D(3,4,5,8)           -179.7977         estimate D2E/DX2                !
 ! D23   D(7,4,5,6)            179.7933         estimate D2E/DX2                !
 ! D24   D(7,4,5,8)             -0.0779         estimate D2E/DX2                !
 ! D25   D(4,5,6,1)              1.4238         estimate D2E/DX2                !
 ! D26   D(4,5,6,17)          -178.7266         estimate D2E/DX2                !
 ! D27   D(8,5,6,1)           -178.705          estimate D2E/DX2                !
 ! D28   D(8,5,6,17)             1.1446         estimate D2E/DX2                !
 ! D29   D(11,9,10,3)           13.2108         estimate D2E/DX2                !
 ! D30   D(12,9,10,3)         -166.5096         estimate D2E/DX2                !
 ! D31   D(10,9,11,2)          -10.5245         estimate D2E/DX2                !
 ! D32   D(12,9,11,2)          169.1959         estimate D2E/DX2                !
 ! D33   D(10,9,12,13)         -30.1521         estimate D2E/DX2                !
 ! D34   D(10,9,12,14)          89.8479         estimate D2E/DX2                !
 ! D35   D(10,9,12,15)        -150.1521         estimate D2E/DX2                !
 ! D36   D(11,9,12,13)         150.1521         estimate D2E/DX2                !
 ! D37   D(11,9,12,14)         -89.8479         estimate D2E/DX2                !
 ! D38   D(11,9,12,15)          30.1521         estimate D2E/DX2                !
 --------------------------------------------------------------------------------
 Trust Radius=3.00D-01 FncErr=1.00D-07 GrdErr=1.00D-06
 Number of steps in this run=     95 maximum allowed number of steps=    102.
 GradGradGradGradGradGradGradGradGradGradGradGradGradGradGradGradGradGrad

                          Input orientation:                          
 ---------------------------------------------------------------------
 Center     Atomic      Atomic             Coordinates (Angstroms)
 Number     Number       Type             X           Y           Z
 ---------------------------------------------------------------------
      1          6           0       -2.786177   -1.154265    0.351834
      2          6           0       -1.433597   -1.299317    0.057143
      3          6           0       -0.731535   -0.357386   -0.622552
      4          6           0       -1.307925    0.857307   -0.988453
      5          6           0       -2.670663    1.060308   -0.686970
      6          6           0       -3.414300    0.047758   -0.029669
      7          1           0       -0.735336    1.611271   -1.487033
      8          1           0       -3.145313    1.980477   -0.956961
      9          6           0        0.638425   -2.000961   -0.032195
     10          8           0        0.604074   -0.809189   -0.874472
     11          7           0       -0.537761   -2.386616    0.396421
     12          6           0        1.943174   -2.736196    0.326497
     13          1           0        2.648642   -2.619677   -0.469516
     14          1           0        2.349331   -2.323515    1.226292
     15          1           0        1.738094   -3.776239    0.471938
     16          1           0       -3.329058   -1.927036    0.854828
     17         35           0       -5.268425    0.315318    0.342801
 ---------------------------------------------------------------------
                    Distance matrix (angstroms):
                    1          2          3          4          5
     1  C    0.000000
     2  C    1.391888   0.000000
     3  C    2.409564   1.357244   0.000000
     4  C    2.833376   2.400020   1.393410   0.000000
     5  C    2.448834   2.766201   2.402962   1.410375   0.000000
     6  C    1.408880   2.396943   2.777208   2.451827   1.417850
     7  H    3.903276   3.368022   2.150105   1.070000   2.165444
     8  H    3.415923   3.836070   3.376946   2.153717   1.070000
     9  C    3.548558   2.189420   2.219605   3.587814   4.555234
    10  O    3.621698   2.293520   1.432284   2.538886   3.775457
    11  N    2.564381   1.449086   2.278953   3.610273   4.195747
    12  C    4.986973   3.679640   3.703173   5.021155   6.060367
    13  H    5.688524   4.322661   4.070255   5.292744   6.471830
    14  H    5.339032   4.089797   4.095806   5.329001   6.349108
    15  H    5.230507   4.045593   4.357238   5.734172   6.646231
    16  H    1.070000   2.150140   3.375438   3.903234   3.425617
    17  Br   2.884668   4.170677   4.686983   4.213259   2.892025
                    6          7          8          9         10
     6  C    0.000000
     7  H    3.427146   0.000000
     8  H    2.160469   2.495050   0.000000
     9  C    4.541127   4.129406   5.569894   0.000000
    10  O    4.194685   2.833351   4.674072   1.459771   0.000000
    11  N    3.792388   4.423746   5.263314   1.309906   2.325345
    12  C    6.048122   5.418835   7.055988   1.540000   2.636071
    13  H    6.638369   5.512492   7.414104   2.148263   2.760818
    14  H    6.357659   5.688572   7.313143   2.148263   3.122870
    15  H    6.435972   6.243451   7.683046   2.148263   3.449957
    16  H    2.165506   4.973060   4.311033   4.066103   4.439548
    17  Br   1.910000   5.057339   2.994953   6.355835   6.101845
                   11         12         13         14         15
    11  N    0.000000
    12  C    2.506418   0.000000
    13  H    3.310186   1.070000   0.000000
    14  H    3.004658   1.070000   1.747303   0.000000
    15  H    2.667634   1.070000   1.747303   1.747303   0.000000
    16  H    2.865779   5.360065   6.161699   5.704322   5.407605
    17  Br   5.448165   7.830655   8.482570   8.110130   8.114729
                   16         17
    16  H    0.000000
    17  Br   3.008565   0.000000
 Stoichiometry    C8H6BrNO
 Framework group  C1[X(C8H6BrNO)]
 Deg. of freedom    45
 Full point group                 C1      NOp   1
 Largest Abelian subgroup         C1      NOp   1
 Largest concise Abelian subgroup C1      NOp   1
                         Standard orientation:                         
 ---------------------------------------------------------------------
 Center     Atomic      Atomic             Coordinates (Angstroms)
 Number     Number       Type             X           Y           Z
 ---------------------------------------------------------------------
      1          6           0       -0.213921   -0.844660   -0.088358
      2          6           0        1.115147   -0.431323   -0.097497
      3          6           0        1.470356    0.878430   -0.075468
      4          6           0        0.518944    1.888857    0.048798
      5          6           0       -0.840670    1.515993    0.088533
      6          6           0       -1.208191    0.149167    0.004795
      7          1           0        0.810693    2.916629    0.107677
      8          1           0       -1.597235    2.267078    0.180084
      9          6           0        3.302663   -0.373348   -0.026972
     10          8           0        2.890855    1.016941   -0.195619
     11          7           0        2.320353   -1.235767   -0.111563
     12          6           0        4.762302   -0.789118    0.234156
     13          1           0        5.421928   -0.085188   -0.228744
     14          1           0        4.944433   -0.808694    1.288360
     15          1           0        4.934711   -1.762350   -0.175714
     16          1           0       -0.471493   -1.881625   -0.145462
     17         35           0       -3.052918   -0.345571    0.022622
 ---------------------------------------------------------------------
 Rotational constants (GHZ):      2.9453082      0.3376831      0.3042977
 Standard basis: 6-311+G(d,p) (5D, 7F)
 There are   317 symmetry adapted cartesian basis functions of A   symmetry.
 There are   304 symmetry adapted basis functions of A   symmetry.
   304 basis functions,   502 primitive gaussians,   317 cartesian basis functions
    52 alpha electrons       52 beta electrons
       nuclear repulsion energy       782.2619300613 Hartrees.
 NAtoms=   17 NActive=   17 NUniq=   17 SFac= 1.00D+00 NAtFMM=   60 NAOKFM=F Big=F
 Integral buffers will be    131072 words long.
 Raffenetti 2 integral format.
 Two-electron integral symmetry is turned on.
 One-electron integrals computed using PRISM.
 NBasis=   304 RedAO= T EigKep=  1.33D-06  NBF=   304
 NBsUse=   304 1.00D-06 EigRej= -1.00D+00 NBFU=   304
 ExpMin= 3.50D-02 ExpMax= 4.40D+05 ExpMxC= 1.51D+04 IAcc=3 IRadAn=         5 AccDes= 0.00D+00
 Harris functional with IExCor=  402 and IRadAn=       5 diagonalized for initial guess.
 HarFok:  IExCor=  402 AccDes= 0.00D+00 IRadAn=         5 IDoV= 1 UseB2=F ITyADJ=14
 ICtDFT=  3500011 ScaDFX=  1.000000  1.000000  1.000000  1.000000
 FoFCou: FMM=F IPFlag=           0 FMFlag=      100000 FMFlg1=           0
         NFxFlg=           0 DoJE=T BraDBF=F KetDBF=T FulRan=T
         wScrn=  0.000000 ICntrl=     500 IOpCl=  0 I1Cent=   200000004 NGrid=           0
         NMat0=    1 NMatS0=      1 NMatT0=    0 NMatD0=    1 NMtDS0=    0 NMtDT0=    0
 Petite list used in FoFCou.
 Requested convergence on RMS density matrix=1.00D-08 within 128 cycles.
 Requested convergence on MAX density matrix=1.00D-06.
 Requested convergence on             energy=1.00D-06.
 No special actions if energy rises.
 SCF Done:  E(RB3LYP) =  -3012.68444422     A.U. after   15 cycles
            NFock= 15  Conv=0.87D-08     -V/T= 2.0017

 **********************************************************************

            Population analysis using the SCF density.

 **********************************************************************

 Orbital symmetries:
       Occupied  (A) (A) (A) (A) (A) (A) (A) (A) (A) (A) (A) (A)
                 (A) (A) (A) (A) (A) (A) (A) (A) (A) (A) (A) (A)
                 (A) (A) (A) (A) (A) (A) (A) (A) (A) (A) (A) (A)
                 (A) (A) (A) (A) (A) (A) (A) (A) (A) (A) (A) (A)
                 (A) (A) (A) (A)
       Virtual   (A) (A) (A) (A) (A) (A) (A) (A) (A) (A) (A) (A)
                 (A) (A) (A) (A) (A) (A) (A) (A) (A) (A) (A) (A)
                 (A) (A) (A) (A) (A) (A) (A) (A) (A) (A) (A) (A)
                 (A) (A) (A) (A) (A) (A) (A) (A) (A) (A) (A) (A)
                 (A) (A) (A) (A) (A) (A) (A) (A) (A) (A) (A) (A)
                 (A) (A) (A) (A) (A) (A) (A) (A) (A) (A) (A) (A)
                 (A) (A) (A) (A) (A) (A) (A) (A) (A) (A) (A) (A)
                 (A) (A) (A) (A) (A) (A) (A) (A) (A) (A) (A) (A)
                 (A) (A) (A) (A) (A) (A) (A) (A) (A) (A) (A) (A)
                 (A) (A) (A) (A) (A) (A) (A) (A) (A) (A) (A) (A)
                 (A) (A) (A) (A) (A) (A) (A) (A) (A) (A) (A) (A)
                 (A) (A) (A) (A) (A) (A) (A) (A) (A) (A) (A) (A)
                 (A) (A) (A) (A) (A) (A) (A) (A) (A) (A) (A) (A)
                 (A) (A) (A) (A) (A) (A) (A) (A) (A) (A) (A) (A)
                 (A) (A) (A) (A) (A) (A) (A) (A) (A) (A) (A) (A)
                 (A) (A) (A) (A) (A) (A) (A) (A) (A) (A) (A) (A)
                 (A) (A) (A) (A) (A) (A) (A) (A) (A) (A) (A) (A)
                 (A) (A) (A) (A) (A) (A) (A) (A) (A) (A) (A) (A)
                 (A) (A) (A) (A) (A) (A) (A) (A) (A) (A) (A) (A)
                 (A) (A) (A) (A) (A) (A) (A) (A) (A) (A) (A) (A)
                 (A) (A) (A) (A) (A) (A) (A) (A) (A) (A) (A) (A)
 The electronic state is 1-A.
 Alpha  occ. eigenvalues -- -482.83737 -62.49017 -56.31058 -56.30663 -56.30653
 Alpha  occ. eigenvalues --  -19.20665 -14.33303 -10.29745 -10.25094 -10.24798
 Alpha  occ. eigenvalues --  -10.22500 -10.20672 -10.20525 -10.20315 -10.20049
 Alpha  occ. eigenvalues --   -8.69984  -6.53141  -6.51822  -6.51802  -2.64232
 Alpha  occ. eigenvalues --   -2.63850  -2.63838  -2.62790  -2.62790  -1.10427
 Alpha  occ. eigenvalues --   -0.93275  -0.88541  -0.82100  -0.78315  -0.75925
 Alpha  occ. eigenvalues --   -0.72793  -0.64028  -0.61849  -0.60320  -0.52625
 Alpha  occ. eigenvalues --   -0.52018  -0.49083  -0.48101  -0.46693  -0.43989
 Alpha  occ. eigenvalues --   -0.43893  -0.43473  -0.42234  -0.39233  -0.38620
 Alpha  occ. eigenvalues --   -0.38006  -0.34004  -0.31854  -0.30739  -0.29968
 Alpha  occ. eigenvalues --   -0.26170  -0.25104
 Alpha virt. eigenvalues --   -0.05270  -0.02969  -0.02117  -0.00400   0.00034
 Alpha virt. eigenvalues --    0.00540   0.02139   0.03014   0.04096   0.04483
 Alpha virt. eigenvalues --    0.04548   0.05189   0.05632   0.06142   0.07097
 Alpha virt. eigenvalues --    0.07555   0.08289   0.08849   0.09213   0.10172
 Alpha virt. eigenvalues --    0.10812   0.11319   0.12029   0.12605   0.12766
 Alpha virt. eigenvalues --    0.13257   0.13919   0.14161   0.14582   0.15620
 Alpha virt. eigenvalues --    0.16537   0.16830   0.17205   0.17818   0.18070
 Alpha virt. eigenvalues --    0.18667   0.19390   0.19639   0.20194   0.20394
 Alpha virt. eigenvalues --    0.21891   0.22627   0.22978   0.23454   0.23701
 Alpha virt. eigenvalues --    0.24398   0.24684   0.25317   0.25950   0.27142
 Alpha virt. eigenvalues --    0.27643   0.28085   0.29722   0.30114   0.30513
 Alpha virt. eigenvalues --    0.31523   0.32092   0.33149   0.34568   0.35663
 Alpha virt. eigenvalues --    0.37176   0.38239   0.40422   0.42022   0.42425
 Alpha virt. eigenvalues --    0.43221   0.44028   0.45337   0.46789   0.49247
 Alpha virt. eigenvalues --    0.50147   0.51794   0.52483   0.53827   0.55244
 Alpha virt. eigenvalues --    0.56130   0.56709   0.57521   0.58409   0.58909
 Alpha virt. eigenvalues --    0.59605   0.61222   0.62147   0.63391   0.64003
 Alpha virt. eigenvalues --    0.64943   0.66478   0.67614   0.68632   0.69821
 Alpha virt. eigenvalues --    0.72553   0.73405   0.74174   0.74766   0.76622
 Alpha virt. eigenvalues --    0.78126   0.79022   0.80924   0.81757   0.83176
 Alpha virt. eigenvalues --    0.85519   0.86489   0.87126   0.88343   0.88576
 Alpha virt. eigenvalues --    0.90781   0.91169   0.92976   0.93648   0.98194
 Alpha virt. eigenvalues --    0.98930   1.00128   1.00298   1.01393   1.05265
 Alpha virt. eigenvalues --    1.05940   1.08876   1.10261   1.10539   1.14184
 Alpha virt. eigenvalues --    1.16225   1.18923   1.21883   1.24125   1.25442
 Alpha virt. eigenvalues --    1.27580   1.31501   1.34356   1.40118   1.42727
 Alpha virt. eigenvalues --    1.43646   1.46182   1.48120   1.50690   1.50991
 Alpha virt. eigenvalues --    1.53997   1.54880   1.56682   1.58640   1.59726
 Alpha virt. eigenvalues --    1.60336   1.63387   1.66102   1.67040   1.68675
 Alpha virt. eigenvalues --    1.71344   1.76152   1.80634   1.80965   1.83220
 Alpha virt. eigenvalues --    1.83886   1.88139   1.89694   1.91218   1.92279
 Alpha virt. eigenvalues --    1.93693   1.96417   1.97105   1.97485   2.00886
 Alpha virt. eigenvalues --    2.01590   2.04070   2.08194   2.11133   2.13154
 Alpha virt. eigenvalues --    2.13910   2.14644   2.19967   2.27356   2.28730
 Alpha virt. eigenvalues --    2.29429   2.34286   2.37880   2.38800   2.44135
 Alpha virt. eigenvalues --    2.45589   2.47606   2.49506   2.52446   2.54689
 Alpha virt. eigenvalues --    2.55813   2.60740   2.63133   2.63657   2.66312
 Alpha virt. eigenvalues --    2.68296   2.69528   2.73057   2.73868   2.74176
 Alpha virt. eigenvalues --    2.78428   2.79325   2.79577   2.82690   2.84437
 Alpha virt. eigenvalues --    2.86338   2.89194   2.90381   2.94649   2.99841
 Alpha virt. eigenvalues --    3.05241   3.06475   3.09636   3.12352   3.14458
 Alpha virt. eigenvalues --    3.18246   3.27822   3.34948   3.38028   3.44808
 Alpha virt. eigenvalues --    3.57916   3.59993   3.72144   3.81348   3.81855
 Alpha virt. eigenvalues --    3.86394   3.88503   3.92831   4.04772   4.10005
 Alpha virt. eigenvalues --    4.13596   4.13907   4.15948   4.19179   4.21496
 Alpha virt. eigenvalues --    4.37246   4.47828   4.56902   4.81022   4.93675
 Alpha virt. eigenvalues --    4.99156   5.38513   5.65484   6.75636   7.55222
 Alpha virt. eigenvalues --    7.67310   7.74123  23.49938  23.72920  23.84302
 Alpha virt. eigenvalues --   23.93857  23.96671  24.03454  24.05522  24.17394
 Alpha virt. eigenvalues --   35.59304  48.01116  49.89811 289.74925 289.87176
 Alpha virt. eigenvalues --  289.964521020.82119
          Condensed to atoms (all electrons):
               1          2          3          4          5          6
     1  C   21.536384  -6.396155  -2.642754  -2.123222   0.656428  -1.674018
     2  C   -6.396155  15.535676  -2.377302  -1.582178  -1.134463   1.101870
     3  C   -2.642754  -2.377302  14.822673  -5.074482   1.078941  -1.969030
     4  C   -2.123222  -1.582178  -5.074482  17.537632  -1.623228   2.132384
     5  C    0.656428  -1.134463   1.078941  -1.623228   6.859020  -0.358904
     6  C   -1.674018   1.101870  -1.969030   2.132384  -0.358904   6.969161
     7  H   -0.040925   0.003895   0.070398   0.297563   0.004821  -0.011318
     8  H   -0.108629   0.076195   0.039591  -0.047638   0.406291  -0.017431
     9  C   -1.176255  -0.400626   1.074219  -2.003792   0.363371  -0.554953
    10  O    0.079243   0.214320   0.675617  -0.512551  -0.021315   0.027432
    11  N   -1.062312   0.727170   0.411609   0.176380  -0.037770   0.133519
    12  C   -0.189684  -0.733235  -0.429326  -0.625021   0.066417  -0.097207
    13  H   -0.005560  -0.054688   0.043823   0.004343   0.000178  -0.000078
    14  H    0.002756   0.011012   0.010020   0.007716  -0.000270   0.000455
    15  H    0.008239   0.031535  -0.046604  -0.004897   0.000194  -0.000835
    16  H    0.155235   0.179323   0.015861  -0.014821   0.006103  -0.012194
    17  Br   0.361959  -0.166403   0.087682   0.012247   0.137092  -0.265922
               7          8          9         10         11         12
     1  C   -0.040925  -0.108629  -1.176255   0.079243  -1.062312  -0.189684
     2  C    0.003895   0.076195  -0.400626   0.214320   0.727170  -0.733235
     3  C    0.070398   0.039591   1.074219   0.675617   0.411609  -0.429326
     4  C    0.297563  -0.047638  -2.003792  -0.512551   0.176380  -0.625021
     5  C    0.004821   0.406291   0.363371  -0.021315  -0.037770   0.066417
     6  C   -0.011318  -0.017431  -0.554953   0.027432   0.133519  -0.097207
     7  H    0.514296  -0.006636   0.028362  -0.002976   0.000158   0.002308
     8  H   -0.006636   0.507474   0.008189  -0.000407   0.000408   0.000323
     9  C    0.028362   0.008189   8.667287  -0.138577   0.241386  -0.253114
    10  O   -0.002976  -0.000407  -0.138577   8.163157   0.011981  -0.360266
    11  N    0.000158   0.000408   0.241386   0.011981   6.829939  -0.359146
    12  C    0.002308   0.000323  -0.253114  -0.360266  -0.359146   8.048300
    13  H    0.000006   0.000000  -0.112760  -0.005006   0.022347   0.481287
    14  H   -0.000003   0.000000   0.063178   0.000028  -0.009478   0.276973
    15  H    0.000001   0.000000  -0.048435   0.007577  -0.019785   0.450948
    16  H    0.000038  -0.000133   0.031128   0.000092   0.001366   0.001691
    17  Br  -0.000165  -0.008555  -0.025929   0.000188   0.001480  -0.002960
              13         14         15         16         17
     1  C   -0.005560   0.002756   0.008239   0.155235   0.361959
     2  C   -0.054688   0.011012   0.031535   0.179323  -0.166403
     3  C    0.043823   0.010020  -0.046604   0.015861   0.087682
     4  C    0.004343   0.007716  -0.004897  -0.014821   0.012247
     5  C    0.000178  -0.000270   0.000194   0.006103   0.137092
     6  C   -0.000078   0.000455  -0.000835  -0.012194  -0.265922
     7  H    0.000006  -0.000003   0.000001   0.000038  -0.000165
     8  H    0.000000   0.000000   0.000000  -0.000133  -0.008555
     9  C   -0.112760   0.063178  -0.048435   0.031128  -0.025929
    10  O   -0.005006   0.000028   0.007577   0.000092   0.000188
    11  N    0.022347  -0.009478  -0.019785   0.001366   0.001480
    12  C    0.481287   0.276973   0.450948   0.001691  -0.002960
    13  H    0.516539  -0.025332  -0.025937   0.000003   0.000002
    14  H   -0.025332   0.508684  -0.019458  -0.000002   0.000003
    15  H   -0.025937  -0.019458   0.491475  -0.000001  -0.000002
    16  H    0.000003  -0.000002  -0.000001   0.497415  -0.012324
    17  Br   0.000002   0.000003  -0.000002  -0.012324  35.015850
 Mulliken charges:
               1
     1  C   -1.380728
     2  C    0.964053
     3  C    0.209064
     4  C   -0.556435
     5  C   -0.402907
     6  C    0.597069
     7  H    0.140179
     8  H    0.150957
     9  C    0.237319
    10  O   -0.138538
    11  N   -0.069253
    12  C   -0.278287
    13  H    0.160831
    14  H    0.173717
    15  H    0.175985
    16  H    0.151218
    17  Br  -0.134244
 Sum of Mulliken charges =   0.00000
 Mulliken charges with hydrogens summed into heavy atoms:
               1
     1  C   -1.229510
     2  C    0.964053
     3  C    0.209064
     4  C   -0.416256
     5  C   -0.251950
     6  C    0.597069
     9  C    0.237319
    10  O   -0.138538
    11  N   -0.069253
    12  C    0.232247
    17  Br  -0.134244
 Electronic spatial extent (au):  <R**2>=           3183.5313
 Charge=              0.0000 electrons
 Dipole moment (field-independent basis, Debye):
    X=              2.1824    Y=              1.0630    Z=              0.4823  Tot=              2.4749
 Quadrupole moment (field-independent basis, Debye-Ang):
   XX=            -65.4448   YY=            -74.6056   ZZ=            -78.3729
   XY=             -1.9990   XZ=              1.7239   YZ=              0.4284
 Traceless Quadrupole moment (field-independent basis, Debye-Ang):
   XX=              7.3630   YY=             -1.7978   ZZ=             -5.5651
   XY=             -1.9990   XZ=              1.7239   YZ=              0.4284
 Octapole moment (field-independent basis, Debye-Ang**2):
  XXX=             -7.9326  YYY=              6.8232  ZZZ=              1.4221  XYY=            -38.6420
  XXY=            -19.3700  XXZ=              7.2504  XZZ=            -23.8172  YZZ=             -4.9953
  YYZ=              1.0598  XYZ=             -1.0299
 Hexadecapole moment (field-independent basis, Debye-Ang**3):
 XXXX=          -2680.5528 YYYY=           -498.5759 ZZZZ=           -100.0301 XXXY=            -38.4136
 XXXZ=             21.1068 YYYX=             47.9912 YYYZ=              4.2310 ZZZX=              3.4162
 ZZZY=             -2.5919 XXYY=           -621.5337 XXZZ=           -537.2164 YYZZ=           -113.3018
 XXYZ=             -3.1234 YYXZ=             -1.5907 ZZXY=             11.8268
 N-N= 7.822619300613D+02 E-N=-8.738073991782D+03  KE= 3.007466928908D+03
 There are a total of      144606 grid points.
 ElSum from          density=      104.0001401519
 ElSum from atomic densities=      104.0005220327

 Hirshfeld populations at iteration   1 (CX, CA, CB, DipXYZ):
               1          2          3          4          5          6
     1  C    0.000000   3.012582   3.012582  -0.016555  -0.070294  -0.005350
     2  C    0.000000   2.986086   2.986086   0.013094  -0.077806  -0.005600
     3  C    0.000000   2.972286   2.972286   0.133910   0.055186  -0.010514
     4  C    0.000000   3.020749   3.020749   0.020945   0.067046   0.003262
     5  C    0.000000   3.015111   3.015111  -0.055343   0.037263   0.005328
     6  C    0.000001   2.989699   2.989699  -0.021240  -0.002326  -0.000007
     7  H    0.000002   0.469809   0.469809   0.043108   0.165932   0.010151
     8  H    0.000009   0.469660   0.469660  -0.116279   0.120122   0.014028
     9  C    0.000000   2.918969   2.918969   0.067436   0.120453   0.009001
    10  O    0.000002   4.064867   4.064867  -0.091919  -0.120459   0.012129
    11  N    0.000002   3.607593   3.607593  -0.066742   0.155349  -0.016300
    12  C    0.000000   3.037511   3.037511   0.006458  -0.011117   0.006082
    13  H    0.000001   0.473414   0.473414   0.106479   0.100079  -0.068926
    14  H    0.000001   0.470557   0.470557   0.037345  -0.006845   0.160793
    15  H    0.000001   0.469280   0.469280   0.044302  -0.146181  -0.059557
    16  H    0.000010   0.466780   0.466780  -0.045046  -0.160883  -0.009891
    17  Br   0.000067  17.555117  17.555117  -0.222692  -0.064530   0.000882
       Tot   0.000098  52.000070  52.000070  -0.162739   0.160989   0.045511

 Dip from Atomic Chgs              1.021168   0.256679   0.144282
         Total Dipole              0.858429   0.417668   0.189793

 Hirshfeld charges, spin densities, dipoles, and CM5 charges using IRadAn=      4:
              Q-H        S-H        Dx         Dy         Dz        Q-CM5   
     1  C   -0.025164   0.000000  -0.016555  -0.070294  -0.005350  -0.070629
     2  C    0.027828   0.000000   0.013094  -0.077806  -0.005600   0.083734
     3  C    0.055428   0.000000   0.133910   0.055186  -0.010514   0.079973
     4  C   -0.041497   0.000000   0.020945   0.067046   0.003262  -0.093502
     5  C   -0.030221   0.000000  -0.055343   0.037263   0.005328  -0.082580
     6  C    0.020603   0.000000  -0.021240  -0.002326  -0.000007   0.027564
     7  H    0.060382   0.000000   0.043108   0.165932   0.010151   0.119437
     8  H    0.060680   0.000000  -0.116279   0.120122   0.014028   0.117202
     9  C    0.162062   0.000000   0.067436   0.120453   0.009001   0.251843
    10  O   -0.129734   0.000000  -0.091919  -0.120459   0.012129  -0.177277
    11  N   -0.215186   0.000000  -0.066742   0.155349  -0.016300  -0.378516
    12  C   -0.075021   0.000000   0.006458  -0.011117   0.006082  -0.220375
    13  H    0.053171   0.000000   0.106479   0.100079  -0.068926   0.109466
    14  H    0.058885   0.000000   0.037345  -0.006845   0.160793   0.114742
    15  H    0.061440   0.000000   0.044302  -0.146181  -0.059557   0.118565
    16  H    0.066439   0.000000  -0.045046  -0.160883  -0.009891   0.124869
    17  Br  -0.110234   0.000000  -0.222692  -0.064530   0.000882  -0.124656
       Tot  -0.000140   0.000000  -0.162739   0.160989   0.045511  -0.000140
 Hirshfeld charges with hydrogens summed into heavy atoms:
              Q-H       Q-CM5   
     1  C    0.041276   0.054240
     2  C    0.027828   0.083734
     3  C    0.055428   0.079973
     4  C    0.018885   0.025935
     5  C    0.030458   0.034621
     6  C    0.020603   0.027564
     9  C    0.162062   0.251843
    10  O   -0.129734  -0.177277
    11  N   -0.215186  -0.378516
    12  C    0.098475   0.122398
    17  Br  -0.110234  -0.124656
 
 EQQ= 0.000000000000E+00 EQD= 0.000000000000E+00 EDD= 0.296943755912E-02
 EQQ+QD+DD= 0.296943755912E-02
 
          MBS Condensed to atoms (all electrons):
               1          2          3          4          5          6
     1  C    4.817072   0.495913  -0.031236  -0.008365  -0.031381   0.497680
     2  C    0.495913   4.735057   0.504124  -0.032990  -0.011236  -0.028528
     3  C   -0.031236   0.504124   4.753474   0.496123  -0.029724  -0.011110
     4  C   -0.008365  -0.032990   0.496123   4.827611   0.502408  -0.027096
     5  C   -0.031381  -0.011236  -0.029724   0.502408   4.828499   0.486486
     6  C    0.497680  -0.028528  -0.011110  -0.027096   0.486486   4.789253
     7  H    0.000016   0.001478  -0.025165   0.390118  -0.021953   0.001267
     8  H    0.001358   0.000065   0.001366  -0.023576   0.390976  -0.025067
     9  C    0.001587  -0.062120  -0.057435   0.001606  -0.000010  -0.000017
    10  O    0.000376  -0.034488   0.291083  -0.013994   0.000230   0.000010
    11  N   -0.018178   0.354032  -0.044114   0.000729   0.000027   0.000421
    12  C   -0.000006   0.001501   0.001048  -0.000005   0.000000   0.000000
    13  H    0.000000  -0.000054   0.000001  -0.000001   0.000000   0.000000
    14  H    0.000001  -0.000027   0.000010   0.000000   0.000000   0.000000
    15  H   -0.000001   0.000037  -0.000031   0.000000   0.000000   0.000000
    16  H    0.388117  -0.023245   0.001490   0.000023   0.001308  -0.022949
    17  Br  -0.019786   0.000389  -0.000048   0.000341  -0.019590   0.278357
               7          8          9         10         11         12
     1  C    0.000016   0.001358   0.001587   0.000376  -0.018178  -0.000006
     2  C    0.001478   0.000065  -0.062120  -0.034488   0.354032   0.001501
     3  C   -0.025165   0.001366  -0.057435   0.291083  -0.044114   0.001048
     4  C    0.390118  -0.023576   0.001606  -0.013994   0.000729  -0.000005
     5  C   -0.021953   0.390976  -0.000010   0.000230   0.000027   0.000000
     6  C    0.001267  -0.025067  -0.000017   0.000010   0.000421   0.000000
     7  H    0.524480  -0.003665  -0.000033  -0.000598  -0.000022   0.000000
     8  H   -0.003665   0.526238   0.000000  -0.000003   0.000000   0.000000
     9  C   -0.000033   0.000000   4.737517   0.271624   0.492714   0.370026
    10  O   -0.000598  -0.000003   0.271624   7.841981  -0.026503  -0.013519
    11  N   -0.000022   0.000000   0.492714  -0.026503   6.643762  -0.026276
    12  C    0.000000   0.000000   0.370026  -0.013519  -0.026276   4.803500
    13  H    0.000000   0.000000  -0.021294  -0.000301   0.000915   0.377265
    14  H    0.000000   0.000000  -0.020511   0.000049  -0.000539   0.379093
    15  H    0.000000   0.000000  -0.018257   0.000412  -0.001341   0.380802
    16  H    0.000002  -0.000040  -0.000009  -0.000006  -0.001007  -0.000001
    17  Br   0.000000  -0.001347   0.000000   0.000000   0.000001   0.000000
              13         14         15         16         17
     1  C    0.000000   0.000001  -0.000001   0.388117  -0.019786
     2  C   -0.000054  -0.000027   0.000037  -0.023245   0.000389
     3  C    0.000001   0.000010  -0.000031   0.001490  -0.000048
     4  C   -0.000001   0.000000   0.000000   0.000023   0.000341
     5  C    0.000000   0.000000   0.000000   0.001308  -0.019590
     6  C    0.000000   0.000000   0.000000  -0.022949   0.278357
     7  H    0.000000   0.000000   0.000000   0.000002   0.000000
     8  H    0.000000   0.000000   0.000000  -0.000040  -0.001347
     9  C   -0.021294  -0.020511  -0.018257  -0.000009   0.000000
    10  O   -0.000301   0.000049   0.000412  -0.000006   0.000000
    11  N    0.000915  -0.000539  -0.001341  -0.001007   0.000001
    12  C    0.377265   0.379093   0.380802  -0.000001   0.000000
    13  H    0.559014  -0.020916  -0.020082   0.000000   0.000000
    14  H   -0.020916   0.549752  -0.020883   0.000000   0.000000
    15  H   -0.020082  -0.020883   0.537350   0.000000   0.000000
    16  H    0.000000   0.000000   0.000000   0.513564  -0.001583
    17  Br   0.000000   0.000000   0.000000  -0.001583  34.926391
 MBS Mulliken charges:
               1
     1  C   -0.093165
     2  C    0.100093
     3  C    0.150145
     4  C   -0.112933
     5  C   -0.096041
     6  C    0.061293
     7  H    0.134076
     8  H    0.133693
     9  C    0.304612
    10  O   -0.316352
    11  N   -0.374621
    12  C   -0.273428
    13  H    0.125453
    14  H    0.133971
    15  H    0.141992
    16  H    0.144337
    17  Br  -0.163123
 Sum of MBS Mulliken charges =   0.00000
 MBS Mulliken charges with hydrogens summed into heavy atoms:
               1
     1  C    0.051171
     2  C    0.100093
     3  C    0.150145
     4  C    0.021143
     5  C    0.037651
     6  C    0.061293
     9  C    0.304612
    10  O   -0.316352
    11  N   -0.374621
    12  C    0.127988
    17  Br  -0.163123
 ******************************Gaussian NBO Version 3.1******************************
             N A T U R A L   A T O M I C   O R B I T A L   A N D
          N A T U R A L   B O N D   O R B I T A L   A N A L Y S I S
 ******************************Gaussian NBO Version 3.1******************************
       /RESON  / : Allow strongly delocalized NBO set

 Analyzing the SCF density

 Job title: Title Card Required                                             

 Storage needed:    278788 in NPA ( 104855985 available)


 NATURAL POPULATIONS:  Natural atomic orbital occupancies 
                                                          
   NAO  Atom  No  lang   Type(AO)    Occupancy      Energy
 ----------------------------------------------------------
     1    C    1  S      Cor( 1S)     1.99890     -10.04993
     2    C    1  S      Val( 2S)     0.94200      -0.17337
     3    C    1  S      Ryd( 3S)     0.00174       0.90076
     4    C    1  S      Ryd( 4S)     0.00008       1.13757
     5    C    1  S      Ryd( 5S)     0.00001      22.69697
     6    C    1  px     Val( 2p)     1.06152      -0.07300
     7    C    1  px     Ryd( 4p)     0.00498       0.81219
     8    C    1  px     Ryd( 3p)     0.00030       0.42819
     9    C    1  px     Ryd( 5p)     0.00013       3.11639
    10    C    1  py     Val( 2p)     1.19481      -0.09274
    11    C    1  py     Ryd( 4p)     0.00536       1.07089
    12    C    1  py     Ryd( 3p)     0.00040       0.52572
    13    C    1  py     Ryd( 5p)     0.00009       2.97817
    14    C    1  pz     Val( 2p)     0.99876      -0.12779
    15    C    1  pz     Ryd( 4p)     0.00119       0.55017
    16    C    1  pz     Ryd( 3p)     0.00069       0.25608
    17    C    1  pz     Ryd( 5p)     0.00002       2.69315
    18    C    1  dxy    Ryd( 3d)     0.00073       2.53648
    19    C    1  dxz    Ryd( 3d)     0.00052       1.65471
    20    C    1  dyz    Ryd( 3d)     0.00052       1.61357
    21    C    1  dx2y2  Ryd( 3d)     0.00080       2.51339
    22    C    1  dz2    Ryd( 3d)     0.00047       2.05382

    23    C    2  S      Cor( 1S)     1.99870     -10.07997
    24    C    2  S      Val( 2S)     0.84728      -0.13533
    25    C    2  S      Ryd( 3S)     0.00218       0.82961
    26    C    2  S      Ryd( 4S)     0.00009       1.01976
    27    C    2  S      Ryd( 5S)     0.00003      22.51766
    28    C    2  px     Val( 2p)     1.00758      -0.07249
    29    C    2  px     Ryd( 4p)     0.00518       1.26654
    30    C    2  px     Ryd( 3p)     0.00035       0.60615
    31    C    2  px     Ryd( 5p)     0.00018       3.05040
    32    C    2  py     Val( 2p)     1.01193      -0.08151
    33    C    2  py     Ryd( 4p)     0.00887       1.11293
    34    C    2  py     Ryd( 3p)     0.00063       0.41067
    35    C    2  py     Ryd( 5p)     0.00015       3.03786
    36    C    2  pz     Val( 2p)     1.02315      -0.13002
    37    C    2  pz     Ryd( 4p)     0.00051       0.60623
    38    C    2  pz     Ryd( 3p)     0.00050       0.34145
    39    C    2  pz     Ryd( 5p)     0.00002       2.66079
    40    C    2  dxy    Ryd( 3d)     0.00113       2.46758
    41    C    2  dxz    Ryd( 3d)     0.00149       1.64037
    42    C    2  dyz    Ryd( 3d)     0.00077       1.62675
    43    C    2  dx2y2  Ryd( 3d)     0.00143       2.68971
    44    C    2  dz2    Ryd( 3d)     0.00053       2.10284

    45    C    3  S      Cor( 1S)     1.99844     -10.11374
    46    C    3  S      Val( 2S)     0.83208      -0.14982
    47    C    3  S      Ryd( 3S)     0.00151       0.86794
    48    C    3  S      Ryd( 4S)     0.00014       1.21787
    49    C    3  S      Ryd( 5S)     0.00002      22.30092
    50    C    3  px     Val( 2p)     0.76106      -0.06865
    51    C    3  px     Ryd( 4p)     0.00545       1.19563
    52    C    3  px     Ryd( 3p)     0.00023       0.81046
    53    C    3  px     Ryd( 5p)     0.00022       2.73550
    54    C    3  py     Val( 2p)     1.08817      -0.08756
    55    C    3  py     Ryd( 4p)     0.00636       1.16623
    56    C    3  py     Ryd( 3p)     0.00035       0.79100
    57    C    3  py     Ryd( 5p)     0.00015       2.75920
    58    C    3  pz     Val( 2p)     1.02323      -0.14104
    59    C    3  pz     Ryd( 3p)     0.00064       0.62160
    60    C    3  pz     Ryd( 4p)     0.00022       0.72074
    61    C    3  pz     Ryd( 5p)     0.00008       2.37912
    62    C    3  dxy    Ryd( 3d)     0.00153       2.51826
    63    C    3  dxz    Ryd( 3d)     0.00211       1.59605
    64    C    3  dyz    Ryd( 3d)     0.00069       1.66473
    65    C    3  dx2y2  Ryd( 3d)     0.00188       2.54825
    66    C    3  dz2    Ryd( 3d)     0.00077       2.07673

    67    C    4  S      Cor( 1S)     1.99908     -10.06023
    68    C    4  S      Val( 2S)     0.95054      -0.18684
    69    C    4  S      Ryd( 4S)     0.00149       0.86175
    70    C    4  S      Ryd( 3S)     0.00016       0.75866
    71    C    4  S      Ryd( 5S)     0.00001      22.86164
    72    C    4  px     Val( 2p)     1.06155      -0.07343
    73    C    4  px     Ryd( 4p)     0.00397       0.88383
    74    C    4  px     Ryd( 3p)     0.00031       0.41214
    75    C    4  px     Ryd( 5p)     0.00014       3.01232
    76    C    4  py     Val( 2p)     1.17101      -0.08355
    77    C    4  py     Ryd( 4p)     0.00521       1.08701
    78    C    4  py     Ryd( 3p)     0.00023       0.37890
    79    C    4  py     Ryd( 5p)     0.00010       3.03369
    80    C    4  pz     Val( 2p)     1.01799      -0.13359
    81    C    4  pz     Ryd( 4p)     0.00098       0.54580
    82    C    4  pz     Ryd( 3p)     0.00031       0.26431
    83    C    4  pz     Ryd( 5p)     0.00001       2.67177
    84    C    4  dxy    Ryd( 3d)     0.00082       2.57023
    85    C    4  dxz    Ryd( 3d)     0.00055       1.64952
    86    C    4  dyz    Ryd( 3d)     0.00052       1.62898
    87    C    4  dx2y2  Ryd( 3d)     0.00055       2.49531
    88    C    4  dz2    Ryd( 3d)     0.00045       2.04541

    89    C    5  S      Cor( 1S)     1.99903     -10.05838
    90    C    5  S      Val( 2S)     0.95408      -0.19135
    91    C    5  S      Ryd( 3S)     0.00162       0.76530
    92    C    5  S      Ryd( 4S)     0.00019       1.20995
    93    C    5  S      Ryd( 5S)     0.00001      22.74708
    94    C    5  px     Val( 2p)     1.10813      -0.07422
    95    C    5  px     Ryd( 4p)     0.00645       0.86565
    96    C    5  px     Ryd( 3p)     0.00030       0.40373
    97    C    5  px     Ryd( 5p)     0.00011       3.18399
    98    C    5  py     Val( 2p)     1.12523      -0.08869
    99    C    5  py     Ryd( 4p)     0.00479       0.81703
   100    C    5  py     Ryd( 3p)     0.00029       0.35524
   101    C    5  py     Ryd( 5p)     0.00008       3.17779
   102    C    5  pz     Val( 2p)     1.01272      -0.13152
   103    C    5  pz     Ryd( 4p)     0.00143       0.49850
   104    C    5  pz     Ryd( 3p)     0.00035       0.27642
   105    C    5  pz     Ryd( 5p)     0.00001       2.71067
   106    C    5  dxy    Ryd( 3d)     0.00077       2.44062
   107    C    5  dxz    Ryd( 3d)     0.00050       1.62148
   108    C    5  dyz    Ryd( 3d)     0.00044       1.62288
   109    C    5  dx2y2  Ryd( 3d)     0.00071       2.51178
   110    C    5  dz2    Ryd( 3d)     0.00043       1.98782

   111    C    6  S      Cor( 1S)     1.99873     -10.12273
   112    C    6  S      Val( 2S)     0.96807      -0.25640
   113    C    6  S      Ryd( 4S)     0.00109       0.86609
   114    C    6  S      Ryd( 3S)     0.00023       0.51217
   115    C    6  S      Ryd( 5S)     0.00001      23.42302
   116    C    6  px     Val( 2p)     0.97724      -0.17524
   117    C    6  px     Ryd( 4p)     0.00662       0.90607
   118    C    6  px     Ryd( 3p)     0.00028       0.86415
   119    C    6  px     Ryd( 5p)     0.00021       3.02629
   120    C    6  py     Val( 2p)     1.06617      -0.09724
   121    C    6  py     Ryd( 4p)     0.00681       0.71267
   122    C    6  py     Ryd( 3p)     0.00014       0.50849
   123    C    6  py     Ryd( 5p)     0.00011       3.26061
   124    C    6  pz     Val( 2p)     1.08689      -0.15730
   125    C    6  pz     Ryd( 4p)     0.00096       0.58179
   126    C    6  pz     Ryd( 3p)     0.00038       0.31586
   127    C    6  pz     Ryd( 5p)     0.00001       2.65913
   128    C    6  dxy    Ryd( 3d)     0.00117       2.31500
   129    C    6  dxz    Ryd( 3d)     0.00107       1.49555
   130    C    6  dyz    Ryd( 3d)     0.00063       1.62014
   131    C    6  dx2y2  Ryd( 3d)     0.00140       2.18753
   132    C    6  dz2    Ryd( 3d)     0.00069       1.94998

   133    H    7  S      Val( 1S)     0.77322       0.03748
   134    H    7  S      Ryd( 2S)     0.00080       0.81647
   135    H    7  S      Ryd( 3S)     0.00021       1.83360
   136    H    7  px     Ryd( 2p)     0.00013       2.04611
   137    H    7  py     Ryd( 2p)     0.00039       2.66772
   138    H    7  pz     Ryd( 2p)     0.00018       1.60143

   139    H    8  S      Val( 1S)     0.77499       0.04343
   140    H    8  S      Ryd( 2S)     0.00063       0.88173
   141    H    8  S      Ryd( 3S)     0.00021       1.83536
   142    H    8  px     Ryd( 2p)     0.00029       2.34431
   143    H    8  py     Ryd( 2p)     0.00028       2.31615
   144    H    8  pz     Ryd( 2p)     0.00020       1.59867

   145    C    9  S      Cor( 1S)     1.99924     -10.18626
   146    C    9  S      Val( 2S)     0.86792      -0.22763
   147    C    9  S      Ryd( 3S)     0.00232       0.67587
   148    C    9  S      Ryd( 4S)     0.00016       1.31724
   149    C    9  S      Ryd( 5S)     0.00002      22.60594
   150    C    9  px     Val( 2p)     0.94824      -0.07794
   151    C    9  px     Ryd( 4p)     0.00525       1.09860
   152    C    9  px     Ryd( 3p)     0.00050       0.58989
   153    C    9  px     Ryd( 5p)     0.00012       2.78703
   154    C    9  py     Val( 2p)     0.68864      -0.05136
   155    C    9  py     Ryd( 4p)     0.01325       0.79711
   156    C    9  py     Ryd( 3p)     0.00085       0.53454
   157    C    9  py     Ryd( 5p)     0.00009       2.86056
   158    C    9  pz     Val( 2p)     0.88919      -0.15293
   159    C    9  pz     Ryd( 4p)     0.00152       0.60552
   160    C    9  pz     Ryd( 3p)     0.00038       0.52971
   161    C    9  pz     Ryd( 5p)     0.00009       2.45551
   162    C    9  dxy    Ryd( 3d)     0.00214       2.40391
   163    C    9  dxz    Ryd( 3d)     0.00175       1.63803
   164    C    9  dyz    Ryd( 3d)     0.00231       1.57452
   165    C    9  dx2y2  Ryd( 3d)     0.00315       2.19114
   166    C    9  dz2    Ryd( 3d)     0.00075       1.89351

   167    O   10  S      Cor( 1S)     1.99978     -18.99634
   168    O   10  S      Val( 2S)     1.66414      -0.93966
   169    O   10  S      Ryd( 3S)     0.00194       0.93367
   170    O   10  S      Ryd( 4S)     0.00007       1.11778
   171    O   10  S      Ryd( 5S)     0.00000      49.62171
   172    O   10  px     Val( 2p)     1.46296      -0.33923
   173    O   10  px     Ryd( 3p)     0.00189       0.60436
   174    O   10  px     Ryd( 4p)     0.00054       1.12391
   175    O   10  px     Ryd( 5p)     0.00005       5.01147
   176    O   10  py     Val( 2p)     1.60817      -0.35700
   177    O   10  py     Ryd( 3p)     0.00293       0.49348
   178    O   10  py     Ryd( 4p)     0.00068       1.13028
   179    O   10  py     Ryd( 5p)     0.00009       4.98287
   180    O   10  pz     Val( 2p)     1.76137      -0.34438
   181    O   10  pz     Ryd( 3p)     0.00109       0.37863
   182    O   10  pz     Ryd( 4p)     0.00042       0.90200
   183    O   10  pz     Ryd( 5p)     0.00001       4.84490
   184    O   10  dxy    Ryd( 3d)     0.00075       3.10834
   185    O   10  dxz    Ryd( 3d)     0.00046       2.89580
   186    O   10  dyz    Ryd( 3d)     0.00077       2.89114
   187    O   10  dx2y2  Ryd( 3d)     0.00128       3.43417
   188    O   10  dz2    Ryd( 3d)     0.00060       3.18552

   189    N   11  S      Cor( 1S)     1.99936     -14.13884
   190    N   11  S      Val( 2S)     1.43808      -0.56484
   191    N   11  S      Ryd( 3S)     0.00144       1.28057
   192    N   11  S      Ryd( 4S)     0.00010       1.28655
   193    N   11  S      Ryd( 5S)     0.00000      35.20160
   194    N   11  px     Val( 2p)     1.17659      -0.17563
   195    N   11  px     Ryd( 4p)     0.00304       0.86446
   196    N   11  px     Ryd( 3p)     0.00020       0.85686
   197    N   11  px     Ryd( 5p)     0.00005       4.35358
   198    N   11  py     Val( 2p)     1.62459      -0.23923
   199    N   11  py     Ryd( 3p)     0.00454       0.55860
   200    N   11  py     Ryd( 4p)     0.00031       0.71711
   201    N   11  py     Ryd( 5p)     0.00008       4.06653
   202    N   11  pz     Val( 2p)     1.23227      -0.19816
   203    N   11  pz     Ryd( 3p)     0.00063       0.54758
   204    N   11  pz     Ryd( 4p)     0.00013       0.66974
   205    N   11  pz     Ryd( 5p)     0.00003       3.78987
   206    N   11  dxy    Ryd( 3d)     0.00172       3.00345
   207    N   11  dxz    Ryd( 3d)     0.00037       2.21515
   208    N   11  dyz    Ryd( 3d)     0.00203       2.18777
   209    N   11  dx2y2  Ryd( 3d)     0.00138       2.52459
   210    N   11  dz2    Ryd( 3d)     0.00093       2.59172

   211    C   12  S      Cor( 1S)     1.99921     -10.05453
   212    C   12  S      Val( 2S)     1.09685      -0.27946
   213    C   12  S      Ryd( 4S)     0.00058       0.93776
   214    C   12  S      Ryd( 3S)     0.00010       0.62609
   215    C   12  S      Ryd( 5S)     0.00000      23.25659
   216    C   12  px     Val( 2p)     1.06870      -0.12642
   217    C   12  px     Ryd( 4p)     0.00124       0.48296
   218    C   12  px     Ryd( 3p)     0.00020       0.23393
   219    C   12  px     Ryd( 5p)     0.00008       2.98313
   220    C   12  py     Val( 2p)     1.22247      -0.12405
   221    C   12  py     Ryd( 4p)     0.00201       0.51477
   222    C   12  py     Ryd( 3p)     0.00016       0.26456
   223    C   12  py     Ryd( 5p)     0.00006       3.04891
   224    C   12  pz     Val( 2p)     1.22022      -0.12553
   225    C   12  pz     Ryd( 4p)     0.00070       0.48724
   226    C   12  pz     Ryd( 3p)     0.00005       0.21896
   227    C   12  pz     Ryd( 5p)     0.00006       3.05984
   228    C   12  dxy    Ryd( 3d)     0.00060       2.09553
   229    C   12  dxz    Ryd( 3d)     0.00042       1.88024
   230    C   12  dyz    Ryd( 3d)     0.00053       1.99571
   231    C   12  dx2y2  Ryd( 3d)     0.00068       2.16847
   232    C   12  dz2    Ryd( 3d)     0.00093       2.21005

   233    H   13  S      Val( 1S)     0.77756       0.02253
   234    H   13  S      Ryd( 2S)     0.00071       0.63946
   235    H   13  S      Ryd( 3S)     0.00011       2.03775
   236    H   13  px     Ryd( 2p)     0.00020       2.08732
   237    H   13  py     Ryd( 2p)     0.00017       2.14584
   238    H   13  pz     Ryd( 2p)     0.00012       1.94229

   239    H   14  S      Val( 1S)     0.77100       0.02097
   240    H   14  S      Ryd( 2S)     0.00060       0.59946
   241    H   14  S      Ryd( 3S)     0.00011       2.07276
   242    H   14  px     Ryd( 2p)     0.00016       1.71958
   243    H   14  py     Ryd( 2p)     0.00009       1.77414
   244    H   14  pz     Ryd( 2p)     0.00027       2.66735

   245    H   15  S      Val( 1S)     0.76276       0.02923
   246    H   15  S      Ryd( 2S)     0.00071       0.68752
   247    H   15  S      Ryd( 3S)     0.00010       2.00383
   248    H   15  px     Ryd( 2p)     0.00014       1.72086
   249    H   15  py     Ryd( 2p)     0.00023       2.54762
   250    H   15  pz     Ryd( 2p)     0.00011       1.90175

   251    H   16  S      Val( 1S)     0.76397       0.04690
   252    H   16  S      Ryd( 2S)     0.00277       0.28178
   253    H   16  S      Ryd( 3S)     0.00028       2.33571
   254    H   16  px     Ryd( 2p)     0.00017       2.04407
   255    H   16  py     Ryd( 2p)     0.00040       2.68772
   256    H   16  pz     Ryd( 2p)     0.00017       1.60874

   257   Br   17  S      Cor( 1S)     2.00000    -481.85262
   258   Br   17  S      Cor( 2S)     2.00000     -60.20034
   259   Br   17  S      Cor( 3S)     1.99976     -11.57183
   260   Br   17  S      Val( 4S)     1.86191      -1.05664
   261   Br   17  S      Ryd( 6S)     0.00307       0.79826
   262   Br   17  S      Ryd( 5S)     0.00018       0.27456
   263   Br   17  S      Ryd( 7S)     0.00000      14.54549
   264   Br   17  S      Ryd( 8S)     0.00000      83.57238
   265   Br   17  S      Ryd( 9S)     0.00000     976.72038
   266   Br   17  px     Cor( 2p)     2.00000     -56.06891
   267   Br   17  px     Cor( 3p)     1.99986      -6.76093
   268   Br   17  px     Val( 4p)     1.18585      -0.25283
   269   Br   17  px     Ryd( 5p)     0.00486       0.34948
   270   Br   17  px     Ryd( 6p)     0.00004       0.35576
   271   Br   17  px     Ryd( 7p)     0.00001       3.59903
   272   Br   17  px     Ryd( 8p)     0.00000      10.53188
   273   Br   17  px     Ryd( 9p)     0.00000     285.26941
   274   Br   17  py     Cor( 2p)     2.00000     -56.06555
   275   Br   17  py     Cor( 3p)     1.99998      -6.75230
   276   Br   17  py     Val( 4p)     1.91661      -0.29965
   277   Br   17  py     Ryd( 5p)     0.00189       0.39317
   278   Br   17  py     Ryd( 6p)     0.00007       0.40228
   279   Br   17  py     Ryd( 7p)     0.00001       3.25788
   280   Br   17  py     Ryd( 8p)     0.00000      10.64093
   281   Br   17  py     Ryd( 9p)     0.00000     285.26865
   282   Br   17  pz     Cor( 2p)     2.00000     -56.06539
   283   Br   17  pz     Cor( 3p)     1.99999      -6.75187
   284   Br   17  pz     Val( 4p)     1.93637      -0.30166
   285   Br   17  pz     Ryd( 6p)     0.00169       0.38812
   286   Br   17  pz     Ryd( 5p)     0.00005       0.37670
   287   Br   17  pz     Ryd( 7p)     0.00000       3.05040
   288   Br   17  pz     Ryd( 8p)     0.00000      10.67731
   289   Br   17  pz     Ryd( 9p)     0.00000     285.26733
   290   Br   17  dxy    Cor( 3d)     1.99992      -2.63821
   291   Br   17  dxy    Ryd( 4d)     0.00135       1.01986
   292   Br   17  dxy    Ryd( 5d)     0.00001       4.35766
   293   Br   17  dxz    Cor( 3d)     1.99995      -2.63766
   294   Br   17  dxz    Ryd( 4d)     0.00222       0.75053
   295   Br   17  dxz    Ryd( 5d)     0.00001       4.16378
   296   Br   17  dyz    Cor( 3d)     1.99999      -2.62860
   297   Br   17  dyz    Ryd( 4d)     0.00022       0.68242
   298   Br   17  dyz    Ryd( 5d)     0.00000       4.08550
   299   Br   17  dx2y2  Cor( 3d)     1.99985      -2.63819
   300   Br   17  dx2y2  Ryd( 4d)     0.00258       1.05801
   301   Br   17  dx2y2  Ryd( 5d)     0.00001       4.39554
   302   Br   17  dz2    Cor( 3d)     1.99994      -2.63144
   303   Br   17  dz2    Ryd( 4d)     0.00108       0.80707
   304   Br   17  dz2    Ryd( 5d)     0.00000       4.20325

 WARNING:  1 low occupancy (<1.9990e) core orbital  found on  C    1
           1 low occupancy (<1.9990e) core orbital  found on  C    2
           1 low occupancy (<1.9990e) core orbital  found on  C    3
           1 low occupancy (<1.9990e) core orbital  found on  C    6

 WARNING:  Population inversion found on atom  C    1
           Population inversion found on atom  C    2
           Population inversion found on atom  C    3
           Population inversion found on atom  C    4
           Population inversion found on atom  C    5
           Population inversion found on atom  C    6
           Population inversion found on atom  C    9
           Population inversion found on atom  N   11
           Population inversion found on atom  C   12
           Population inversion found on atom Br   17


 Summary of Natural Population Analysis:                  
                                                          
                                       Natural Population 
                Natural  -----------------------------------------------
    Atom  No    Charge         Core      Valence    Rydberg      Total
 -----------------------------------------------------------------------
      C    1   -0.21402      1.99890     4.19709    0.01803     6.21402
      C    2    0.08735      1.99870     3.88994    0.02402     5.91265
      C    3    0.27468      1.99844     3.70455    0.02234     5.72532
      C    4   -0.21601      1.99908     4.20110    0.01583     6.21601
      C    5   -0.21767      1.99903     4.20016    0.01848     6.21767
      C    6   -0.11890      1.99873     4.09837    0.02181     6.11890
      H    7    0.22508      0.00000     0.77322    0.00170     0.77492
      H    8    0.22340      0.00000     0.77499    0.00161     0.77660
      C    9    0.57211      1.99924     3.39399    0.03466     5.42789
      O   10   -0.51000      1.99978     6.49665    0.01357     8.51000
      N   11   -0.48789      1.99936     5.47154    0.01699     7.48789
      C   12   -0.61588      1.99921     4.60824    0.00842     6.61588
      H   13    0.22114      0.00000     0.77756    0.00130     0.77886
      H   14    0.22776      0.00000     0.77100    0.00124     0.77224
      H   15    0.23595      0.00000     0.76276    0.00129     0.76405
      H   16    0.23224      0.00000     0.76397    0.00379     0.76776
     Br   17    0.08066     27.99923     6.90074    0.01936    34.91934
 =======================================================================
   * Total *    0.00000     47.98969    55.78587    0.22444   104.00000

                                 Natural Population      
 --------------------------------------------------------
   Core                      47.98969 ( 99.9785% of  48)
   Valence                   55.78587 ( 99.6176% of  56)
   Natural Minimal Basis    103.77556 ( 99.7842% of 104)
   Natural Rydberg Basis      0.22444 (  0.2158% of 104)
 --------------------------------------------------------

    Atom  No          Natural Electron Configuration
 ----------------------------------------------------------------------------
      C    1      [core]2S( 0.94)2p( 3.26)4p( 0.01)
      C    2      [core]2S( 0.85)2p( 3.04)3d( 0.01)4p( 0.01)
      C    3      [core]2S( 0.83)2p( 2.87)3d( 0.01)4p( 0.01)
      C    4      [core]2S( 0.95)2p( 3.25)4p( 0.01)
      C    5      [core]2S( 0.95)2p( 3.25)4p( 0.01)
      C    6      [core]2S( 0.97)2p( 3.13)4p( 0.01)
      H    7            1S( 0.77)
      H    8            1S( 0.77)
      C    9      [core]2S( 0.87)2p( 2.53)3d( 0.01)4p( 0.02)
      O   10      [core]2S( 1.66)2p( 4.83)3p( 0.01)
      N   11      [core]2S( 1.44)2p( 4.03)3p( 0.01)3d( 0.01)
      C   12      [core]2S( 1.10)2p( 3.51)
      H   13            1S( 0.78)
      H   14            1S( 0.77)
      H   15            1S( 0.76)
      H   16            1S( 0.76)
     Br   17      [core]4S( 1.86)4p( 5.04)4d( 0.01)5p( 0.01)


 NBO analysis skipped by request.
 Calling FoFJK, ICntrl=      2127 FMM=F ISym2X=0 I1Cent= 0 IOpClX= 0 NMat=1 NMatS=1 NMatT=0.
 ***** Axes restored to original set *****
 -------------------------------------------------------------------
 Center     Atomic                   Forces (Hartrees/Bohr)
 Number     Number              X              Y              Z
 -------------------------------------------------------------------
      1        6          -0.007756094    0.015768612   -0.004480461
      2        6           0.009909054   -0.044389460    0.014858060
      3        6           0.028278288    0.021134701   -0.027976610
      4        6          -0.008830439   -0.007312150    0.001673404
      5        6           0.008323224   -0.018066017    0.005795575
      6        6           0.022793615   -0.004838210   -0.004277469
      7        1           0.003491632    0.006914474   -0.004883349
      8        1          -0.003165792    0.007378653   -0.002079349
      9        6          -0.022837986   -0.008906902   -0.007951624
     10        8          -0.022788828   -0.015633889    0.048724994
     11        7           0.011759217    0.032533462   -0.005354086
     12        6          -0.027801266    0.024417555   -0.023743882
     13        1           0.011786975    0.001513058   -0.009430862
     14        1           0.005437232    0.006953938    0.012321482
     15        1          -0.005909873   -0.011479153    0.002229426
     16        1          -0.003287272   -0.006218042    0.004629934
     17       35           0.000598312    0.000229369   -0.000055182
 -------------------------------------------------------------------
 Cartesian Forces:  Max     0.048724994 RMS     0.016322628

 GradGradGradGradGradGradGradGradGradGradGradGradGradGradGradGradGradGrad
 Berny optimization.
 FormGI is forming the generalized inverse of G from B-inverse, IUseBI=4.
 Internal  Forces:  Max     0.038838234 RMS     0.010324202
 Search for a local minimum.
 Step number   1 out of a maximum of   95
 All quantities printed in internal units (Hartrees-Bohrs-Radians)
 Mixed Optimization -- RFO/linear search
 Second derivative matrix not updated -- first step.
 ITU=  0
     Eigenvalues ---    0.00237   0.00885   0.01674   0.01894   0.01922
     Eigenvalues ---    0.01928   0.01993   0.02068   0.02083   0.02097
     Eigenvalues ---    0.02194   0.02217   0.07243   0.07243   0.16000
     Eigenvalues ---    0.16000   0.16000   0.16000   0.16000   0.16000
     Eigenvalues ---    0.17771   0.22452   0.23511   0.24602   0.24842
     Eigenvalues ---    0.24910   0.25000   0.25000   0.28519   0.35044
     Eigenvalues ---    0.37230   0.37230   0.37230   0.37230   0.37230
     Eigenvalues ---    0.37230   0.37362   0.39402   0.40471   0.41170
     Eigenvalues ---    0.43691   0.45843   0.46147   0.49008   0.61802
 RFO step:  Lambda=-2.96380747D-02 EMin= 2.36824099D-03
 Linear search not attempted -- first point.
 Iteration  1 RMS(Cart)=  0.08771359 RMS(Int)=  0.00380131
 Iteration  2 RMS(Cart)=  0.00815421 RMS(Int)=  0.00144469
 Iteration  3 RMS(Cart)=  0.00001837 RMS(Int)=  0.00144464
 Iteration  4 RMS(Cart)=  0.00000002 RMS(Int)=  0.00144464
 Variable       Old X    -DE/DX   Delta X   Delta X   Delta X     New X
                                 (Linear)    (Quad)   (Total)
    R1        2.63029  -0.00390   0.00000  -0.00559  -0.00580   2.62448
    R2        2.66240  -0.01307   0.00000  -0.02948  -0.02915   2.63325
    R3        2.02201   0.00834   0.00000   0.02074   0.02074   2.04275
    R4        2.56482   0.02036   0.00000   0.04437   0.04423   2.60905
    R5        2.73838  -0.02648   0.00000  -0.06232  -0.06210   2.67627
    R6        2.63316  -0.00954   0.00000  -0.01743  -0.01778   2.61539
    R7        2.70663  -0.03884   0.00000  -0.08634  -0.08634   2.62029
    R8        2.66522  -0.01401   0.00000  -0.03214  -0.03193   2.63329
    R9        2.02201   0.00901   0.00000   0.02243   0.02243   2.04443
   R10        2.67935  -0.00816   0.00000  -0.02194  -0.02141   2.65794
   R11        2.02201   0.00827   0.00000   0.02058   0.02058   2.04259
   R12        3.60938  -0.00056   0.00000  -0.00269  -0.00269   3.60668
   R13        2.75857  -0.03571   0.00000  -0.09514  -0.09550   2.66307
   R14        2.47536  -0.02796   0.00000  -0.04503  -0.04528   2.43009
   R15        2.91018  -0.02853   0.00000  -0.09061  -0.09061   2.81957
   R16        2.02201   0.01496   0.00000   0.03721   0.03721   2.05922
   R17        2.02201   0.01511   0.00000   0.03758   0.03758   2.05959
   R18        2.02201   0.01259   0.00000   0.03132   0.03132   2.05333
    A1        2.05423  -0.00719   0.00000  -0.02259  -0.02300   2.03123
    A2        2.11449   0.00266   0.00000   0.00639   0.00659   2.12108
    A3        2.11446   0.00453   0.00000   0.01622   0.01642   2.13088
    A4        2.13692  -0.00751   0.00000  -0.02236  -0.02214   2.11478
    A5        2.25154   0.00764   0.00000   0.00908   0.01106   2.26261
    A6        1.89463  -0.00013   0.00000   0.01328   0.01107   1.90570
    A7        2.12061   0.00773   0.00000   0.03103   0.03111   2.15172
    A8        1.92999  -0.01382   0.00000  -0.03464  -0.03722   1.89277
    A9        2.23259   0.00609   0.00000   0.00364   0.00579   2.23838
   A10        2.05898  -0.00834   0.00000  -0.02910  -0.02980   2.02918
   A11        2.11211   0.00561   0.00000   0.02218   0.02248   2.13459
   A12        2.11208   0.00273   0.00000   0.00698   0.00730   2.11938
   A13        2.09795   0.00369   0.00000   0.00799   0.00816   2.10611
   A14        2.09261  -0.00236   0.00000  -0.00671  -0.00682   2.08579
   A15        2.09262  -0.00133   0.00000  -0.00126  -0.00137   2.09125
   A16        2.09554   0.01171   0.00000   0.03666   0.03697   2.13251
   A17        2.09382  -0.00540   0.00000  -0.01671  -0.01686   2.07695
   A18        2.09382  -0.00631   0.00000  -0.01995  -0.02011   2.07372
   A19        1.99109   0.01126   0.00000   0.03611   0.03201   2.02310
   A20        2.14612  -0.02377   0.00000  -0.08301  -0.08140   2.06472
   A21        2.14597   0.01250   0.00000   0.04668   0.04797   2.19393
   A22        1.74974   0.01002   0.00000   0.04395   0.03864   1.78838
   A23        1.83131  -0.00511   0.00000  -0.01265  -0.01769   1.81362
   A24        1.91063   0.00459   0.00000   0.02693   0.02702   1.93765
   A25        1.91063  -0.00156   0.00000  -0.01038  -0.01051   1.90013
   A26        1.91063  -0.00518   0.00000  -0.02787  -0.02793   1.88270
   A27        1.91063  -0.00122   0.00000  -0.00539  -0.00536   1.90527
   A28        1.91063   0.00149   0.00000   0.01220   0.01236   1.92300
   A29        1.91063   0.00188   0.00000   0.00451   0.00420   1.91483
    D1       -0.04789   0.00150   0.00000   0.02055   0.02000  -0.02789
    D2        3.07748   0.00091   0.00000   0.02012   0.01933   3.09681
    D3        3.09862   0.00126   0.00000   0.01684   0.01657   3.11519
    D4       -0.05921   0.00067   0.00000   0.01641   0.01590  -0.04330
    D5       -0.00268   0.00006   0.00000  -0.00001  -0.00022  -0.00290
    D6        3.14154   0.00007   0.00000   0.00016   0.00012  -3.14152
    D7        3.13400   0.00029   0.00000   0.00367   0.00320   3.13720
    D8       -0.00497   0.00029   0.00000   0.00384   0.00354  -0.00142
    D9        0.07671  -0.00155   0.00000  -0.02871  -0.02862   0.04809
   D10       -3.06383  -0.00333   0.00000  -0.05649  -0.05492  -3.11875
   D11       -3.05158  -0.00115   0.00000  -0.02839  -0.02815  -3.07973
   D12        0.09107  -0.00293   0.00000  -0.05617  -0.05445   0.03662
   D13       -3.07153  -0.00346   0.00000  -0.06745  -0.06514  -3.13667
   D14        0.05562  -0.00405   0.00000  -0.06810  -0.06599  -0.01038
   D15       -0.05129   0.00089   0.00000   0.01790   0.01794  -0.03335
   D16        3.09519   0.00017   0.00000   0.00440   0.00464   3.09984
   D17        3.08905   0.00299   0.00000   0.05085   0.04969   3.13874
   D18       -0.04765   0.00227   0.00000   0.03734   0.03640  -0.01126
   D19       -0.18247   0.00743   0.00000   0.13942   0.13759  -0.04488
   D20        2.96026   0.00551   0.00000   0.10938   0.10957   3.06984
   D21        0.00128   0.00012   0.00000   0.00053   0.00046   0.00174
   D22       -3.13806  -0.00042   0.00000  -0.00977  -0.00973   3.13540
   D23        3.13798   0.00085   0.00000   0.01408   0.01367  -3.13153
   D24       -0.00136   0.00031   0.00000   0.00378   0.00349   0.00213
   D25        0.02485  -0.00037   0.00000  -0.00888  -0.00884   0.01601
   D26       -3.11937  -0.00037   0.00000  -0.00905  -0.00918  -3.12854
   D27       -3.11899   0.00016   0.00000   0.00141   0.00137  -3.11762
   D28        0.01998   0.00016   0.00000   0.00125   0.00104   0.02101
   D29        0.23057  -0.00681   0.00000  -0.18454  -0.18852   0.04205
   D30       -2.90614  -0.00531   0.00000  -0.13443  -0.13920  -3.04534
   D31       -0.18369   0.00800   0.00000   0.16418   0.16330  -0.02038
   D32        2.95303   0.00638   0.00000   0.11366   0.10941   3.06243
   D33       -0.52625  -0.00068   0.00000  -0.03080  -0.03092  -0.55717
   D34        1.56814  -0.00032   0.00000  -0.02727  -0.02748   1.54066
   D35       -2.62065  -0.00215   0.00000  -0.04517  -0.04504  -2.66569
   D36        2.62065   0.00097   0.00000   0.02380   0.02381   2.64446
   D37       -1.56814   0.00133   0.00000   0.02733   0.02725  -1.54089
   D38        0.52625  -0.00050   0.00000   0.00943   0.00969   0.53594
         Item               Value     Threshold  Converged?
 Maximum Force            0.038838     0.000450     NO 
 RMS     Force            0.010324     0.000300     NO 
 Maximum Displacement     0.398175     0.001800     NO 
 RMS     Displacement     0.090340     0.001200     NO 
 Predicted change in Energy=-1.801586D-02
 GradGradGradGradGradGradGradGradGradGradGradGradGradGradGradGradGradGrad

                          Input orientation:                          
 ---------------------------------------------------------------------
 Center     Atomic      Atomic             Coordinates (Angstroms)
 Number     Number       Type             X           Y           Z
 ---------------------------------------------------------------------
      1          6           0       -2.780836   -1.164056    0.390467
      2          6           0       -1.421941   -1.311256    0.144400
      3          6           0       -0.711749   -0.347377   -0.543171
      4          6           0       -1.271510    0.839766   -0.982289
      5          6           0       -2.631270    1.010759   -0.730110
      6          6           0       -3.367825    0.015818   -0.062370
      7          1           0       -0.691182    1.600859   -1.486664
      8          1           0       -3.120818    1.921375   -1.045464
      9          6           0        0.593723   -1.991207    0.044885
     10          8           0        0.602340   -0.773142   -0.663767
     11          7           0       -0.544337   -2.358111    0.518022
     12          6           0        1.890041   -2.702383    0.244897
     13          1           0        2.563848   -2.530129   -0.593997
     14          1           0        2.355999   -2.335395    1.159259
     15          1           0        1.676708   -3.763322    0.342587
     16          1           0       -3.347551   -1.925970    0.907024
     17         35           0       -5.231989    0.295812    0.236225
 ---------------------------------------------------------------------
                    Distance matrix (angstroms):
                    1          2          3          4          5
     1  C    0.000000
     2  C    1.388817   0.000000
     3  C    2.412419   1.380648   0.000000
     4  C    2.859690   2.432890   1.384003   0.000000
     5  C    2.451098   2.760253   2.358821   1.393478   0.000000
     6  C    1.393456   2.364391   2.723568   2.433039   1.406519
     7  H    3.941451   3.416840   2.164769   1.081867   2.164379
     8  H    3.420142   3.840816   3.347111   2.143318   1.080893
     9  C    3.491598   2.129587   2.179965   3.542399   4.473589
    10  O    3.565123   2.245087   1.386597   2.492838   3.693635
    11  N    2.538497   1.416223   2.279739   3.606401   4.154805
    12  C    4.919831   3.593684   3.596723   4.903897   5.931299
    13  H    5.603657   4.232894   3.936562   5.120247   6.288534
    14  H    5.324486   4.043715   4.032563   5.275102   6.295976
    15  H    5.160250   3.956455   4.261218   5.624563   6.519294
    16  H    1.080977   2.160427   3.397422   3.940653   3.437680
    17  Br   2.857123   4.136128   4.631815   4.179241   2.865081
                    6          7          8          9         10
     6  C    0.000000
     7  H    3.421314   0.000000
     8  H    2.158387   2.490085   0.000000
     9  C    4.442243   4.110908   5.504088   0.000000
    10  O    4.092230   2.825993   4.611727   1.409235   0.000000
    11  N    3.734231   4.440019   5.234190   1.285947   2.285524
    12  C    5.926904   5.308381   6.939228   1.492051   2.491147
    13  H    6.476822   5.334522   7.234303   2.140093   2.634271
    14  H    6.307356   5.637403   7.278491   2.113270   2.973109
    15  H    6.316107   6.142271   7.566950   2.098064   3.332895
    16  H    2.170410   5.022406   4.320380   4.034995   4.404320
    17  Br   1.908575   5.028958   2.956725   6.261468   5.999336
                   11         12         13         14         15
    11  N    0.000000
    12  C    2.473726   0.000000
    13  H    3.305600   1.089692   0.000000
    14  H    2.970463   1.089888   1.776240   0.000000
    15  H    2.634092   1.086575   1.784649   1.779709   0.000000
    16  H    2.862879   5.336067   6.128843   5.723787   5.379371
    17  Br   5.394144   7.727390   8.333683   8.084108   8.013612
                   16         17
    16  H    0.000000
    17  Br   2.989547   0.000000
 Stoichiometry    C8H6BrNO
 Framework group  C1[X(C8H6BrNO)]
 Deg. of freedom    45
 Full point group                 C1      NOp   1
 Largest Abelian subgroup         C1      NOp   1
 Largest concise Abelian subgroup C1      NOp   1
                         Standard orientation:                         
[...]
 ! D35   D(10,9,12,15)        -179.9705         -DE/DX =    0.0                 !
 ! D36   D(11,9,12,13)         120.4334         -DE/DX =    0.0                 !
 ! D37   D(11,9,12,14)        -120.3535         -DE/DX =    0.0                 !
 ! D38   D(11,9,12,15)           0.0399         -DE/DX =    0.0                 !
 --------------------------------------------------------------------------------
 GradGradGradGradGradGradGradGradGradGradGradGradGradGradGradGradGradGrad

 1\1\GINC-COREV2-25-002\Freq\RB3LYP\6-311+G(d,p)\C8H6Br1N1O1\ROOT\09-No
 v-2021\0\\#N Geom=AllCheck Guess=TCheck SCRF=Check GenChk RB3LYP/6-311
 +G(d,p) Freq\\Title Card Required\\0,1\C,-2.8130710183,-1.187525398,0.
 346743994\C,-1.4378728993,-1.3341376742,0.1673471494\C,-0.6927420206,-
 0.3199199426,-0.4402150528\C,-1.2414315781,0.865601711,-0.8944948561\C
 ,-2.6173023666,1.0151864284,-0.7162417024\C,-3.3718674578,0.0018782723
 ,-0.1074809209\H,-0.6446899263,1.6379543943,-1.3623356216\H,-3.1079179
 347,1.9196942981,-1.0497533658\C,0.5880661847,-1.9862421587,0.10639433
 21\O,0.612988709,-0.7380997519,-0.4805089253\N,-0.5762957661,-2.380937
 4969,0.5005605665\C,1.8858275019,-2.6979525474,0.2046720135\H,2.316914
 8261,-2.8508675242,-0.7884112168\H,2.6009368804,-2.114663214,0.7910669
 342\H,1.728405369,-3.6629625113,0.6827392867\H,-3.4073511787,-1.960484
 1685,0.8145406373\Br,-5.2609477046,0.2755192238,0.1053100379\\Version=
 ES64L-G09RevD.01\State=1-A\HF=-3012.7055589\RMSD=7.199e-09\RMSF=2.258e
 -05\ZeroPoint=0.1223503\Thermal=0.1314532\Dipole=1.1179927,0.1340547,-
 0.2640054\DipoleDeriv=-0.2254111,0.1009002,-0.0236686,0.017266,-0.0007
 563,-0.0488797,0.0144294,-0.0639036,-0.0719665,0.2792754,-0.1770156,0.
 0463299,-0.3499843,0.2660565,-0.0264883,0.1266935,-0.0575423,0.0786937
 ,0.666109,-0.3453779,0.0539238,0.0229326,0.0002849,0.0297853,-0.118190
 3,0.0957003,0.0480847,0.0526489,-0.0360606,-0.0141481,-0.0912532,0.090
 0832,-0.0814903,0.0119014,-0.0912079,-0.0786351,-0.4219394,0.1073341,0
 .00305,0.0574468,-0.0426766,-0.0492636,0.0264054,-0.0582939,-0.1038754
 ,1.1500078,-0.2231868,-0.1169047,-0.0388393,-0.0597668,0.0003631,-0.20
 23909,0.0335862,-0.0530091,0.0217095,-0.040277,0.0423625,-0.0255404,0.
 0360599,0.058832,0.0354495,0.0614843,0.1172918,0.0574011,0.0577691,-0.
 0121006,0.0407177,0.0276241,0.044745,-0.0042255,0.041705,0.1206738,0.9
 168545,-0.0712789,-0.1159332,-0.0693972,0.7896458,-0.3111958,-0.115114
 8,-0.3108527,0.2625208,-0.9380559,0.2815827,0.0207774,0.1818994,-0.749
 5712,0.2723394,0.0671148,0.2546882,-0.2258095,-0.8811654,0.1134663,0.0
 582946,0.1274204,-0.4409215,0.0587837,0.0514049,0.0614487,-0.3035064,-
 0.1325758,0.1155587,-0.014303,0.0092046,0.0439132,0.0190096,0.0350405,
 -0.0002578,0.0813053,0.0014109,0.0541429,0.0205463,0.0708129,0.0589919
 ,0.0058735,0.0635379,-0.0229025,-0.0495877,-0.0412822,0.0116796,-0.049
 2711,-0.0186077,0.0033016,-0.0583177,-0.0860219,-0.0321795,0.0489071,0
 .0488191,-0.0354963,0.0252284,0.023919,-0.0161233,0.0485461,-0.0024997
 ,0.058994,0.0696055,0.0655069,-0.026582,0.0258954,-0.0352031,0.0672155
 ,0.0404871,0.0299496,0.0389568,0.116866,-0.6193134,0.1128414,0.0499211
 ,0.0772058,-0.0733608,-0.0031295,0.0665161,-0.0094233,-0.0575589\Polar
 =175.932026,-29.4224538,116.408969,-5.5580314,-16.8820405,77.759475\PG
 =C01 [X(C8H6Br1N1O1)]\NImag=0\\0.66381606,0.01558817,0.60873269,-0.104
 92630,-0.22992932,0.24817807,-0.31967108,-0.01497450,0.05488190,0.7942
 7672,0.02576960,-0.10956161,0.02131944,-0.03764463,0.51366321,0.035866
 50,0.02866694,-0.07374760,-0.09832716,-0.16229605,0.24476351,-0.025891
 25,-0.01794985,0.01331430,-0.15321215,-0.09828697,0.05929936,0.5974966
 1,-0.05161079,0.03797533,-0.00769932,-0.04302221,-0.19083061,0.0600938
 7,-0.09407959,0.69881557,0.02901706,-0.01377358,0.00271938,0.03351702,
 0.07006124,-0.11738743,-0.03841350,-0.24338677,0.26135655,-0.03764588,
 0.02962112,-0.00672263,0.05584063,0.01125349,-0.01454768,-0.13788705,0
 .03823022,-0.00239184,0.65478070,0.02546192,-0.01931917,0.00523154,-0.
 02658227,-0.03554399,0.02335716,0.08856906,-0.28902131,0.09455064,0.00
 507879,0.62304127,-0.00477734,0.00448586,0.00050322,0.00310332,0.01653
 550,-0.00403128,-0.02587904,0.10361929,-0.09585946,-0.09848097,-0.2348
 9219,0.24887396,0.05350247,-0.02904820,0.00463095,-0.04712539,-0.01699
 362,0.01631738,-0.02846510,0.07463740,-0.02923373,-0.32341406,-0.00348
 901,0.04993154,0.64689355,0.01141537,-0.04280156,0.01978689,-0.0248455
 5,-0.00695270,0.00744594,0.03416054,0.01421749,-0.01158736,0.05405251,
 -0.11426973,0.01767493,-0.08416610,0.60844959,-0.01424760,0.02707822,-
 0.00605370,0.01998339,0.00603414,-0.00700239,-0.01034296,-0.01888154,0
 .01325467,0.02308190,0.02804697,-0.07274290,-0.05488275,-0.21054013,0.
 23274346,-0.13344736,0.09425373,-0.02974139,-0.02397326,0.03222230,-0.
 01024902,-0.00187957,-0.00835980,0.00388894,-0.03541137,-0.01306460,0.
 01340879,-0.15040045,-0.09216585,0.05962234,0.45214532,0.04492611,-0.2
 6726554,0.09118865,0.07848802,0.00660704,-0.01602518,-0.00000565,-0.05
 590809,0.02517208,-0.06182589,0.03624351,-0.00334592,-0.03943710,-0.20
 592473,0.07603619,-0.02344203,0.53361134,-0.00673143,0.08229221,-0.091
 66052,-0.03184115,-0.00768349,0.01190259,-0.00001150,0.02666916,-0.014
 40979,0.03616530,-0.01212897,0.00433463,0.03502188,0.08554117,-0.10439
 798,-0.05104290,-0.19424255,0.20805367,-0.00064595,0.00061032,-0.00037
 853,-0.00067562,0.00249772,0.00012366,0.01172505,0.01014228,-0.0060901
 1,-0.14122673,-0.10939156,0.07038769,-0.01113757,-0.02267054,0.0130699
 3,-0.00338682,0.00185308,0.00103411,0.14435921,0.00080683,-0.00048694,
 -0.00046214,0.00357301,-0.00040971,0.00256945,-0.01758541,-0.01340608,
 0.01137704,-0.10920313,-0.20058501,0.09747522,0.00345922,0.00681217,-0
 .00254267,0.00172930,0.00256859,0.00182494,0.11837818,0.20658658,-0.00
 046909,-0.00042688,-0.00088117,-0.00037869,0.00276244,0.00525635,0.006
 84591,0.00638554,-0.00002271,0.07029799,0.09750320,-0.09198156,0.00088
 057,0.00216811,0.00152919,0.00109259,0.00180300,0.00611085,-0.07700160
 ,-0.10673673,0.08718890,-0.00155215,-0.00252530,0.00237221,-0.00113402
 ,-0.00027086,0.00008129,-0.00449854,-0.00039954,0.00213626,-0.00992325
 ,0.02570843,-0.00962611,-0.11321473,0.11138116,-0.03758199,0.00890719,
 -0.01575777,0.00599128,0.00099031,-0.00063660,-0.00067790,0.11980053,-
 0.00292123,-0.00066784,0.00320087,-0.00078894,0.00009598,-0.00054481,0
 .00008373,0.00247017,0.00177489,-0.00058231,0.00161298,0.00085419,0.10
 908272,-0.25335534,0.08291750,0.01172127,-0.01517526,0.00560412,-0.000
 10859,-0.00026915,-0.00191535,-0.11731187,0.26492344,0.00255617,0.0031
 3074,0.00314597,0.00032370,-0.00063900,-0.00113917,0.00190922,0.001864
 12,0.00509718,0.00264064,-0.00388690,0.00455309,-0.03651057,0.08250273
 ,-0.06536691,-0.00682779,0.01055791,-0.00232895,-0.00092386,-0.0018202
 5,-0.00340145,0.03745373,-0.09125255,0.05980200,0.01286166,-0.00305020
 ,-0.00018658,-0.10457920,0.04749418,-0.00194966,-0.02109575,0.04340061
 ,-0.01436296,-0.00565996,-0.00442885,0.00333466,-0.00480073,-0.0030863
 6,0.00246509,-0.00191112,0.00979417,-0.00404948,0.00050544,-0.00072177
 ,0.00017878,-0.00070695,0.,0.00009132,0.86737707,0.00766014,-0.0092313
 9,0.00476806,0.00694474,0.01064918,-0.00271856,0.08221318,-0.05830863,
 0.01776404,-0.00607390,0.00323399,0.00024175,0.00075574,-0.00401641,0.
 00215601,-0.00182325,0.00402343,-0.00112238,0.00035446,-0.00129369,0.0
 0036991,-0.00070264,0.00017585,-0.00004754,-0.06865702,0.45754241,-0.0
 0518185,0.00670152,0.00175638,0.01696294,-0.01003140,0.00912305,-0.032
 47467,0.02475782,0.00582734,0.00410690,-0.00005207,0.00069098,0.000676
 94,0.00284826,-0.00055446,0.00135733,-0.00322074,0.00216743,-0.0003219
 1,0.00056434,-0.00056863,0.00041935,-0.00017371,-0.00019196,-0.0898020
 0,-0.11178627,0.25985912,-0.00488337,-0.00216214,0.00265820,-0.0662815
 7,-0.02283930,0.02431530,-0.23002896,-0.00122641,0.03184743,-0.0221400
 1,0.01641766,-0.00413505,0.01076743,0.00120052,-0.00143186,-0.00116235
 ,-0.00715747,0.00328030,0.00076373,-0.00046020,-0.00057448,-0.00033459
 ,0.00011750,0.00024840,-0.10556167,0.00167926,0.00548382,0.44356614,-0
 .00516123,0.00156818,0.00218441,0.01466401,-0.01083381,0.00682507,0.03
 736002,-0.09735629,0.01231847,0.03923056,-0.00093026,-0.00785034,0.000
 03047,-0.00131764,0.00337515,0.00192962,-0.00350405,0.00060106,-0.0021
 5715,0.00177198,-0.00212697,0.00214494,0.00022640,0.00013601,-0.015435
 38,-0.15322588,0.04126756,-0.01190392,0.33767727,0.00405627,0.00164419
 ,0.00275824,0.00681018,0.01358390,0.00188776,0.01384630,0.01927230,-0.
 06801850,-0.01478223,-0.00373535,0.00181521,-0.00088587,0.00316519,0.0
 0461281,-0.00095723,0.00223618,-0.00235005,0.00021666,-0.00243189,-0.0
 0252293,-0.00069793,0.00050148,0.00123837,0.01347363,0.03817713,-0.091
 00976,-0.06000822,-0.11814554,0.14585121,-0.03307480,0.03771814,-0.011
 98615,-0.12214545,0.07864323,-0.02638049,-0.00114069,0.02867149,-0.010
 59311,0.00013339,0.00001960,0.00054953,0.00324993,0.00675061,-0.003990
 75,-0.00021113,-0.01373975,0.00759257,-0.00014236,0.00031671,-0.000163
 81,0.00053455,0.00002414,-0.00007668,-0.40353351,-0.10200087,0.1064271
 9,-0.02402178,-0.06427777,0.03987725,0.61010363,0.01525936,-0.00022263
 ,-0.00354529,0.04314137,-0.18409066,0.04785520,-0.01157495,-0.04695366
 ,0.03068264,-0.00260769,-0.00407681,0.00387918,-0.00423926,-0.00268997
 ,0.00135686,-0.00139408,0.00911983,-0.00103526,0.00106528,-0.00135388,
 0.00033103,0.00012928,-0.00003336,0.00007163,-0.08124502,-0.12728347,0
 .03799355,-0.01092431,-0.05016496,0.03974361,0.03632709,0.39771240,-0.
 00150791,-0.00759231,0.00188865,-0.00980693,0.04145353,-0.08245735,0.0
 0819098,0.02342708,0.00191551,0.00177361,0.00340486,0.00131836,0.00113
 702,-0.00062270,-0.00133217,0.00183555,0.00118832,0.00547565,-0.000513
 70,0.00046569,-0.00035809,-0.00012561,0.00009022,0.00015082,0.09674994
 ,0.04173326,-0.11419034,0.01497562,0.04936069,0.00504413,-0.11024383,-
 0.14890070,0.18205282,0.00008542,0.00065888,-0.00018363,-0.00107620,-0
 .00260599,0.00330626,-0.00055235,-0.00072488,0.00064267,0.00189871,-0.
 00056493,0.00015650,-0.00104880,-0.00031904,0.00031657,-0.00002279,0.0
 0050629,-0.00035830,-0.00001442,0.00003438,0.00001804,0.00006979,-0.00
 003862,-0.00005670,-0.19995154,0.06791548,-0.00840998,0.00540285,0.000
 60309,-0.00104959,-0.03016622,0.01279511,-0.00020885,0.51626392,0.0005
 1596,0.00089643,-0.00014941,-0.00242819,0.00236069,0.00424241,-0.00595
 051,-0.00306327,0.00303150,0.00236293,-0.00010231,0.00022961,-0.000738
 55,-0.00041937,0.00027519,0.00004854,0.00038297,-0.00051823,-0.0000571
 8,0.00013826,0.00002720,0.00013346,-0.00006517,-0.00015454,0.06385554,
 -0.11406950,0.00870759,0.03462925,-0.02474459,0.00583977,-0.00721702,0
 .00930509,-0.00219097,0.02998888,0.56744098,-0.00011199,-0.00017693,0.
 00087620,0.00322748,0.00427775,0.00794674,0.00307629,0.00209562,-0.000
 39409,-0.00120875,0.00075092,0.00116277,0.00050993,0.00019969,-0.00029
 992,-0.00014670,-0.00059577,-0.00039719,0.00006074,0.00001025,0.000157
 67,-0.00013665,-0.00012364,-0.00026235,-0.00652456,0.00797675,-0.07330
 611,-0.01691796,0.01196473,-0.00139215,0.00914124,-0.00580492,0.002880
 90,-0.01070061,-0.02063737,0.54630276,0.00026886,0.00007768,-0.0002935
 7,-0.00141093,-0.00024105,-0.00173882,-0.00158936,0.00034542,-0.000076
 53,0.00031492,-0.00030810,-0.00008967,-0.00038072,-0.00001214,0.000096
 39,0.00015460,0.00036206,-0.00005860,-0.00001379,0.00003666,-0.0000354
 2,0.00001471,0.00001994,0.00003974,-0.01576877,0.00312061,0.02898145,0
 .00214983,-0.00151383,-0.00038875,-0.00148329,0.00253865,-0.00014260,-
 0.08241334,0.01568938,0.09290961,0.09352482,-0.00040437,0.00014298,0.0
 0014482,0.00074789,-0.00011802,0.00027799,0.00142977,-0.00057994,0.000
 09129,-0.00045453,0.00055683,0.00006455,0.00057865,0.00007734,-0.00016
 761,-0.00013570,-0.00051861,0.00023355,0.00001108,-0.00002861,0.000010
 35,-0.00000962,-0.00001074,-0.00003399,0.00618932,-0.00313525,-0.01567
 856,-0.00124442,0.00086745,0.00074144,-0.00027105,-0.00008622,0.000371
 42,0.01578297,-0.05124165,-0.03146060,-0.01816438,0.05014429,0.0000057
 1,-0.00004526,-0.00000384,-0.00039427,-0.00037058,-0.00012215,0.000298
 63,-0.00009234,0.00003753,0.00010862,-0.00010292,-0.00003575,-0.000106
 31,-0.00004703,0.00005272,-0.00003488,0.00009051,-0.00002553,0.0000091
 8,-0.00001565,0.00000442,0.00000076,0.00000068,0.00000448,0.00085522,0
 .00101589,0.00532376,-0.00004698,0.00003418,0.00031555,-0.00132083,-0.
 00045588,-0.00011220,0.09275858,-0.03138265,-0.26395446,-0.10232180,0.
 03592844,0.28560528,0.00036608,0.00022320,0.00004045,-0.00076966,0.001
 34529,0.00145003,-0.00172373,0.00059016,0.00025101,0.00038106,-0.00020
 035,0.00020698,-0.00041402,-0.00002484,0.00006550,0.00013878,0.0002879
 1,-0.00029433,-0.00001171,0.00005771,-0.00000542,-0.00000080,-0.000019
 11,-0.00004404,-0.02369206,-0.01675266,-0.01453760,0.00247224,-0.00089
 777,0.00085999,-0.00123094,0.00190592,-0.00152389,-0.15397273,-0.09111
 278,-0.09323238,0.00911466,0.00712283,0.00646371,0.17188649,-0.0003446
 4,0.00001570,-0.00008038,0.00074044,-0.00035732,-0.00075704,0.00091170
 ,-0.00039064,-0.00002536,-0.00048621,0.00031111,-0.00028771,0.00051755
 ,0.00010882,-0.00011394,-0.00006917,-0.00042010,0.00025439,0.00000133,
 -0.00001403,0.00000331,0.00000161,0.00001792,0.00002863,0.01087302,0.0
 1065246,0.01167597,-0.00119634,0.00040310,-0.00042769,0.00085940,-0.00
 042693,-0.00045477,-0.09091032,-0.12376413,-0.07562187,-0.00245917,-0.
 00285007,-0.00191643,0.09874197,0.12968528,0.00022817,-0.00008042,0.00
 002561,-0.00007972,-0.00003580,-0.00053027,-0.00077941,0.00040857,-0.0
 0002023,0.00020948,-0.00019539,0.00014529,-0.00025969,-0.00003163,0.00
 005479,0.00008462,0.00024398,-0.00010860,-0.00001201,0.00001470,-0.000
 01211,-0.00000139,-0.00000732,-0.00000892,-0.00071804,0.00050592,-0.00
 054204,0.00053124,0.00027558,0.00045363,0.00145052,-0.00032172,-0.0000
 1593,-0.09321042,-0.07565351,-0.11983362,-0.01966026,-0.01633915,-0.01
 609322,0.10139551,0.08445359,0.12766776,0.00010970,-0.00018279,0.00005
 580,0.00001230,-0.00006045,-0.00005305,0.00078173,0.00143654,-0.000708
 89,-0.00056006,-0.00011673,0.00018144,-0.00005695,0.00010240,-0.000049
 45,0.00002536,0.00010213,-0.00004786,0.00002567,-0.00002181,0.00000687
 ,-0.00005477,-0.00000213,0.00000735,0.00723361,0.02739095,-0.01457805,
 -0.00643708,0.00376101,-0.00037192,0.00136096,-0.00120281,0.00032297,-
 0.05447581,-0.03973564,0.02001685,-0.00238690,-0.01120654,0.00371947,-
 0.00245808,-0.01721341,0.01082129,0.05693312,-0.00008192,0.00012201,-0
 .00006653,0.00044252,-0.00013518,-0.00022173,-0.00102001,-0.00005148,0
 .00047330,0.00036950,0.00012537,-0.00005596,0.00001682,-0.00007601,0.0
 0000142,-0.00003398,-0.00006115,0.00004539,-0.00002338,0.00002795,-0.0
 0000526,0.00003322,-0.00000395,-0.00001346,-0.00456761,-0.01554035,0.0
 0674671,0.00368004,-0.00068391,0.00022973,-0.00189486,0.00148359,-0.00
 032666,-0.03316103,-0.26312062,0.10707963,0.00051449,0.00678158,-0.002
 64737,-0.00128639,-0.01297945,0.00677171,0.03694557,0.28411554,0.00000
 929,-0.00004932,-0.00003411,-0.00028649,-0.00013076,-0.00032488,0.0004
 3822,0.00003233,0.00047694,-0.00004547,0.00003106,0.00014035,-0.000009
 46,-0.00001424,-0.00005931,0.00001538,0.00002223,0.00001474,0.00000761
 ,-0.00000578,0.00000840,-0.00000919,-0.00000715,-0.00001514,0.00031447
 ,0.00099836,-0.00335395,-0.00033712,0.00021855,0.00119257,0.00064829,-
 0.00045175,0.00014321,0.01695287,0.10826035,-0.09967253,0.00279173,0.0
 2583536,-0.01100736,-0.00113741,-0.01673834,0.00882455,-0.01933306,-0.
 11800749,0.10365477,-0.14402041,-0.11362372,0.07277532,-0.01086391,-0.
 02378197,0.01384738,-0.00305534,0.00236989,0.00069619,-0.00089656,0.00
 056948,-0.00035937,-0.00055275,0.00331177,-0.00032951,0.00960718,0.010
 83312,-0.00648621,0.00002292,-0.00015584,-0.00007308,0.00061965,0.0005
 4773,-0.00029828,-0.00027139,-0.00097965,0.00039284,-0.00192182,-0.000
 00791,0.00036120,0.00268839,0.00021965,-0.00127594,0.00007284,0.000096
 05,0.00000551,0.00000026,-0.00002106,-0.00000023,0.00002122,-0.0000141
 0,0.00001217,-0.00003327,0.00002722,-0.00000602,0.14788474,-0.11142688
 ,-0.19865329,0.09672598,0.00288487,0.00736939,-0.00190913,0.00175852,0
 .00153773,0.00220706,0.00042738,-0.00010528,-0.00069000,0.00368903,-0.
 00167347,0.00300516,-0.01537726,-0.01369008,0.00993676,-0.00011338,-0.
 00015248,-0.00027522,-0.00071234,-0.00054870,0.00056265,-0.00012756,0.
 00018788,-0.00035847,0.00082267,0.00005979,-0.00014765,-0.00120043,-0.
 00042184,-0.00136967,-0.00000375,0.00002498,0.00015303,-0.00004111,0.0
 0000676,0.00000617,0.00000509,0.00000382,-0.00000622,0.00001795,-0.000
 01148,0.00000390,0.12013097,0.20580584,0.07175269,0.09712544,-0.092655
 48,0.00140345,0.00289583,0.00278621,0.00098162,0.00209670,0.00579176,-
 0.00029412,-0.00071537,-0.00103302,-0.00050476,0.00307307,0.00484966,0
 .00574292,0.00520988,-0.00180227,-0.00009283,-0.00026742,-0.00064440,0
 .00028962,0.00033572,0.00017325,-0.00000608,-0.00020535,-0.00053401,-0
 .00002638,0.00000165,0.00006550,-0.00061270,-0.00162533,-0.00295088,0.
 00005213,0.00013538,0.00027919,-0.00004383,0.00000107,0.00000582,0.000
 05621,-0.00000150,-0.00001186,-0.00000164,0.00000240,0.00000304,-0.078
 48884,-0.10675753,0.08738188,-0.03017798,0.00476545,0.00368965,0.00278
 880,0.00349904,-0.00136127,0.00101646,-0.00040079,-0.00012591,0.001415
 51,-0.00367854,0.00208712,-0.03340211,0.00491556,0.00415577,-0.1191721
 9,0.01421278,0.01183634,-0.00113737,0.00039277,0.00005873,0.00048308,0
 .00017575,-0.00053235,-0.00044514,-0.00104456,0.00049729,-0.00234899,0
 .00163124,-0.00035975,-0.00092067,-0.00019360,0.00036358,-0.00009933,-
 0.00008012,0.00003193,-0.00009556,0.00004917,0.00000542,-0.00010679,0.
 00004634,-0.00001206,-0.00001952,0.00003979,-0.00001365,0.00069825,-0.
 00073375,-0.00020747,0.18152356,0.02454760,-0.00124338,-0.00261828,-0.
 00134057,-0.00191189,0.00313847,-0.00003357,0.00085371,-0.00073113,0.0
 0060716,-0.00117120,0.00206203,-0.01465575,0.00383153,0.00196308,0.013
 96098,-0.03008910,0.00372813,-0.00039197,0.00009404,0.00012231,-0.0012
 0557,0.00060676,-0.00100618,-0.00028707,-0.00036064,0.00003791,0.00056
 761,0.00018720,-0.00024680,0.00127134,0.00018348,-0.00003729,0.0000434
 6,0.00004121,-0.00008727,0.00003489,-0.00000812,0.00000025,0.00001384,
 0.00000445,-0.00000289,-0.00001423,0.00000754,0.00000268,0.00047836,0.
 00026041,-0.00130463,-0.02359652,0.02871402,-0.00553835,0.00094890,0.0
 0318471,0.00090102,0.00226330,0.00307630,-0.00029974,-0.00066240,-0.00
 036464,0.00008927,0.00283283,0.00214610,0.01328690,-0.00156290,0.00071
 244,0.01195145,0.00368123,-0.02057867,0.00042498,-0.00001909,0.0001372
 7,0.00011227,-0.00125515,-0.00145033,0.00013626,0.00017302,-0.00049681
 ,0.00013774,-0.00044026,0.00005841,-0.00031822,0.00022714,0.00054690,-
 0.00002554,-0.00006233,-0.00009379,0.00003092,-0.00002035,0.00000495,-
 0.00001434,0.00000915,0.00000517,0.00001189,-0.00000584,0.00000871,-0.
 00077315,-0.00108684,-0.00170438,-0.02011336,-0.00502041,0.01480764\\0
 .00002307,-0.00000326,-0.00001178,-0.00002498,-0.00000169,0.00000222,-
 0.00007279,0.00004941,-0.00000147,0.00002465,-0.00002847,-0.00000260,-
 0.00003084,-0.00002490,0.00001954,0.00000886,0.00002555,-0.00001245,0.
 00000167,0.00001002,-0.00000067,-0.00000061,0.00000784,-0.00000105,0.0
 0001505,0.00003095,-0.00002914,-0.00001666,-0.00005954,0.00003157,0.00
 005841,0.00002731,-0.00000654,0.00000990,-0.00002374,0.00000684,0.0000
 0706,0.00000250,-0.00000417,0.00000682,0.00001488,-0.00000022,-0.00000
 319,-0.00001213,0.00000046,-0.00000966,-0.00000553,0.00000618,0.000003
 27,-0.00000919,0.00000329\\\@


 HE THAT IS UNAWARE OF HIS IGNORANCE WILL BE MISLED BY HIS KNOWLEDGE.

                                        -- WHATLEY
 Job cpu time:       0 days  0 hours 49 minutes 59.1 seconds.
 File lengths (MBytes):  RWF=    222 Int=      0 D2E=      0 Chk=      8 Scr=      1
 Normal termination of Gaussian 09 at Tue Nov  9 16:37:26 2021.
