 Entering Gaussian System, Link 0=g09
 Initial command:
 /cm/shared/apps/gaussian/g09revD.01/g09/l1.exe "//home/sweav003/HartwigDocs/IrCatHeteroarenes/G09-Chart1_4.com.o9624830.tmp/Gau-19703.inp" -scrdir="//home/sweav003/HartwigDocs/IrCatHeteroarenes/G09-Chart1_4.com.o9624830.tmp/"
 Entering Link 1 = /cm/shared/apps/gaussian/g09revD.01/g09/l1.exe PID=     19704.
  
 Copyright (c) 1988,1990,1992,1993,1995,1998,2003,2009,2013,
            Gaussian, Inc.  All Rights Reserved.
  
 This is part of the Gaussian(R) 09 program.  It is based on
 the Gaussian(R) 03 system (copyright 2003, Gaussian, Inc.),
 the Gaussian(R) 98 system (copyright 1998, Gaussian, Inc.),
 the Gaussian(R) 94 system (copyright 1995, Gaussian, Inc.),
 the Gaussian 92(TM) system (copyright 1992, Gaussian, Inc.),
 the Gaussian 90(TM) system (copyright 1990, Gaussian, Inc.),
 the Gaussian 88(TM) system (copyright 1988, Gaussian, Inc.),
 the Gaussian 86(TM) system (copyright 1986, Carnegie Mellon
 University), and the Gaussian 82(TM) system (copyright 1983,
 Carnegie Mellon University). Gaussian is a federally registered
 trademark of Gaussian, Inc.
  
 This software contains proprietary and confidential information,
 including trade secrets, belonging to Gaussian, Inc.
  
 This software is provided under written license and may be
 used, copied, transmitted, or stored only in accord with that
 written license.
  
 The following legend is applicable only to US Government
 contracts under FAR:
  
                    RESTRICTED RIGHTS LEGEND
  
 Use, reproduction and disclosure by the US Government is
 subject to restrictions as set forth in subparagraphs (a)
 and (c) of the Commercial Computer Software - Restricted
 Rights clause in FAR 52.227-19.
  
 Gaussian, Inc.
 340 Quinnipiac St., Bldg. 40, Wallingford CT 06492
  
  
 ---------------------------------------------------------------
 Warning -- This program may not be used in any manner that
 competes with the business of Gaussian, Inc. or will provide
 assistance to any competitor of Gaussian, Inc.  The licensee
 of this program is prohibited from giving any competitor of
 Gaussian, Inc. access to this program.  By using this program,
 the user acknowledges that Gaussian, Inc. is engaged in the
 business of creating and licensing software in the field of
 computational chemistry and represents and warrants to the
 licensee that it is not a competitor of Gaussian, Inc. and that
 it will not use this program in any manner prohibited above.
 ---------------------------------------------------------------
  

 Cite this work as:
 Gaussian 09, Revision D.01,
 M. J. Frisch, G. W. Trucks, H. B. Schlegel, G. E. Scuseria, 
 M. A. Robb, J. R. Cheeseman, G. Scalmani, V. Barone, B. Mennucci, 
 G. A. Petersson, H. Nakatsuji, M. Caricato, X. Li, H. P. Hratchian, 
 A. F. Izmaylov, J. Bloino, G. Zheng, J. L. Sonnenberg, M. Hada, 
 M. Ehara, K. Toyota, R. Fukuda, J. Hasegawa, M. Ishida, T. Nakajima, 
 Y. Honda, O. Kitao, H. Nakai, T. Vreven, J. A. Montgomery, Jr., 
 J. E. Peralta, F. Ogliaro, M. Bearpark, J. J. Heyd, E. Brothers, 
 K. N. Kudin, V. N. Staroverov, T. Keith, R. Kobayashi, J. Normand, 
 K. Raghavachari, A. Rendell, J. C. Burant, S. S. Iyengar, J. Tomasi, 
 M. Cossi, N. Rega, J. M. Millam, M. Klene, J. E. Knox, J. B. Cross, 
 V. Bakken, C. Adamo, J. Jaramillo, R. Gomperts, R. E. Stratmann, 
 O. Yazyev, A. J. Austin, R. Cammi, C. Pomelli, J. W. Ochterski, 
 R. L. Martin, K. Morokuma, V. G. Zakrzewski, G. A. Voth, 
 P. Salvador, J. J. Dannenberg, S. Dapprich, A. D. Daniels, 
 O. Farkas, J. B. Foresman, J. V. Ortiz, J. Cioslowski, 
 and D. J. Fox, Gaussian, Inc., Wallingford CT, 2013.
 
 ******************************************
 Gaussian 09:  ES64L-G09RevD.01 24-Apr-2013
                 1-Nov-2021 
 ******************************************
 %mem=100MW
 %nprocshared=20
 Will use up to   20 processors via shared memory.
 %chk=Chart1_4.chk
 ----------------------------------------------------------------------
 # opt freq b3lyp/6-311+g(d,p) geom=connectivity pop=(hirshfeld,chelpg,
 mbs,npa)
 ----------------------------------------------------------------------
 1/14=-1,18=20,19=15,26=3,38=1,57=2/1,3;
 2/9=110,12=2,17=6,18=5,40=1/2;
 3/5=4,6=6,7=111,11=2,16=1,25=1,30=1,71=1,74=-5/1,2,3;
 4//1;
 5/5=2,38=5/2;
 6/7=2,8=2,9=2,10=2,15=8,20=3,27=100,28=1,40=-1,79=1/1,2,7;
 7//1,2,3,16;
 1/14=-1,18=20,19=15,26=3/3(2);
 2/9=110/2;
 99//99;
 2/9=110/2;
 3/5=4,6=6,7=111,11=2,16=1,25=1,30=1,71=1,74=-5/1,2,3;
 4/5=5,16=3,69=1/1;
 5/5=2,38=5/2;
 7//1,2,3,16;
 1/14=-1,18=20,19=15,26=3/3(-5);
 2/9=110/2;
 6/7=2,8=2,9=2,10=2,15=8,19=2,20=3,27=100,28=1,40=-1,79=1/1,2,7;
 99/9=1/99;
 -------------------
 Title Card Required
 -------------------
 Symbolic Z-matrix:
 Charge =  0 Multiplicity = 1
 C                    -2.8116   -1.06434   0.243 
 C                    -1.45292  -1.2247   -0.01317 
 C                    -0.69434  -0.24143  -0.56076 
 C                    -1.21731   1.02451  -0.8167 
 C                    -2.58464   1.24209  -0.54797 
 C                    -3.38595   0.19247  -0.03176 
 H                    -0.60141   1.80639  -1.20942 
 H                    -3.01907   2.20165  -0.73618 
 C                     0.59853  -1.98503  -0.09708 
 O                     0.63618  -0.71055  -0.80787 
 N                    -0.60591  -2.37239   0.24223 
 C                     1.86388  -2.79919   0.23099 
 H                     2.60542  -2.62406  -0.52024 
 H                     2.24433  -2.49823   1.18471 
 H                     1.62105  -3.84096   0.25644 
 H                    -3.39859  -1.86642   0.63924 
 O                    -4.77782   0.41065   0.21318 
 C                    -5.52573   0.08091  -0.96019 
 H                    -6.5672    0.24416  -0.77691 
 H                    -5.2054    0.69901  -1.77274 
 H                    -5.36422  -0.94717  -1.2089 
 

 GradGradGradGradGradGradGradGradGradGradGradGradGradGradGradGradGradGrad
 Berny optimization.
 Initialization pass.
                           ----------------------------
                           !    Initial Parameters    !
                           ! (Angstroms and Degrees)  !
 --------------------------                            --------------------------
 ! Name  Definition              Value          Derivative Info.                !
 --------------------------------------------------------------------------------
 ! R1    R(1,2)                  1.3919         estimate D2E/DX2                !
 ! R2    R(1,6)                  1.4089         estimate D2E/DX2                !
 ! R3    R(1,16)                 1.07           estimate D2E/DX2                !
 ! R4    R(2,3)                  1.3572         estimate D2E/DX2                !
 ! R5    R(2,11)                 1.4491         estimate D2E/DX2                !
 ! R6    R(3,4)                  1.3934         estimate D2E/DX2                !
 ! R7    R(3,10)                 1.4323         estimate D2E/DX2                !
 ! R8    R(4,5)                  1.4104         estimate D2E/DX2                !
 ! R9    R(4,7)                  1.07           estimate D2E/DX2                !
 ! R10   R(5,6)                  1.4178         estimate D2E/DX2                !
 ! R11   R(5,8)                  1.07           estimate D2E/DX2                !
 ! R12   R(6,17)                 1.43           estimate D2E/DX2                !
 ! R13   R(9,10)                 1.4598         estimate D2E/DX2                !
 ! R14   R(9,11)                 1.3099         estimate D2E/DX2                !
 ! R15   R(9,12)                 1.54           estimate D2E/DX2                !
 ! R16   R(12,13)                1.07           estimate D2E/DX2                !
 ! R17   R(12,14)                1.07           estimate D2E/DX2                !
 ! R18   R(12,15)                1.07           estimate D2E/DX2                !
 ! R19   R(17,18)                1.43           estimate D2E/DX2                !
 ! R20   R(18,19)                1.07           estimate D2E/DX2                !
 ! R21   R(18,20)                1.07           estimate D2E/DX2                !
 ! R22   R(18,21)                1.07           estimate D2E/DX2                !
 ! A1    A(2,1,6)              117.6987         estimate D2E/DX2                !
 ! A2    A(2,1,16)             121.1513         estimate D2E/DX2                !
 ! A3    A(6,1,16)             121.1493         estimate D2E/DX2                !
 ! A4    A(1,2,3)              122.4366         estimate D2E/DX2                !
 ! A5    A(1,2,11)             129.0039         estimate D2E/DX2                !
 ! A6    A(3,2,11)             108.5544         estimate D2E/DX2                !
 ! A7    A(2,3,4)              121.5017         estimate D2E/DX2                !
 ! A8    A(2,3,10)             110.5804         estimate D2E/DX2                !
 ! A9    A(4,3,10)             127.9179         estimate D2E/DX2                !
 ! A10   A(3,4,5)              117.971          estimate D2E/DX2                !
 ! A11   A(3,4,7)              121.0151         estimate D2E/DX2                !
 ! A12   A(5,4,7)              121.0134         estimate D2E/DX2                !
 ! A13   A(4,5,6)              120.2037         estimate D2E/DX2                !
 ! A14   A(4,5,8)              119.8979         estimate D2E/DX2                !
 ! A15   A(6,5,8)              119.8983         estimate D2E/DX2                !
 ! A16   A(1,6,5)              120.0657         estimate D2E/DX2                !
 ! A17   A(1,6,17)             119.9669         estimate D2E/DX2                !
 ! A18   A(5,6,17)             119.9672         estimate D2E/DX2                !
 ! A19   A(10,9,11)            114.0813         estimate D2E/DX2                !
 ! A20   A(10,9,12)            122.9634         estimate D2E/DX2                !
 ! A21   A(11,9,12)            122.9547         estimate D2E/DX2                !
 ! A22   A(3,10,9)             100.2526         estimate D2E/DX2                !
 ! A23   A(2,11,9)             104.9265         estimate D2E/DX2                !
 ! A24   A(9,12,13)            109.4712         estimate D2E/DX2                !
 ! A25   A(9,12,14)            109.4712         estimate D2E/DX2                !
 ! A26   A(9,12,15)            109.4712         estimate D2E/DX2                !
 ! A27   A(13,12,14)           109.4712         estimate D2E/DX2                !
 ! A28   A(13,12,15)           109.4712         estimate D2E/DX2                !
 ! A29   A(14,12,15)           109.4712         estimate D2E/DX2                !
 ! A30   A(6,17,18)            109.4712         estimate D2E/DX2                !
 ! A31   A(17,18,19)           109.4712         estimate D2E/DX2                !
 ! A32   A(17,18,20)           109.4712         estimate D2E/DX2                !
 ! A33   A(17,18,21)           109.4712         estimate D2E/DX2                !
 ! A34   A(19,18,20)           109.4712         estimate D2E/DX2                !
 ! A35   A(19,18,21)           109.4712         estimate D2E/DX2                !
 ! A36   A(20,18,21)           109.4712         estimate D2E/DX2                !
 ! D1    D(6,1,2,3)             -2.7443         estimate D2E/DX2                !
 ! D2    D(6,1,2,11)           176.3257         estimate D2E/DX2                !
 ! D3    D(16,1,2,3)           177.5372         estimate D2E/DX2                !
 ! D4    D(16,1,2,11)           -3.3928         estimate D2E/DX2                !
 ! D5    D(2,1,6,5)             -0.152          estimate D2E/DX2                !
 ! D6    D(2,1,6,17)           179.9948         estimate D2E/DX2                !
 ! D7    D(16,1,6,5)           179.5666         estimate D2E/DX2                !
 ! D8    D(16,1,6,17)           -0.2867         estimate D2E/DX2                !
 ! D9    D(1,2,3,4)              4.3947         estimate D2E/DX2                !
 ! D10   D(1,2,3,10)          -175.5446         estimate D2E/DX2                !
 ! D11   D(11,2,3,4)          -174.8429         estimate D2E/DX2                !
 ! D12   D(11,2,3,10)            5.2177         estimate D2E/DX2                !
 ! D13   D(1,2,11,9)          -175.9854         estimate D2E/DX2                !
 ! D14   D(3,2,11,9)             3.1867         estimate D2E/DX2                !
 ! D15   D(2,3,4,5)             -2.9385         estimate D2E/DX2                !
 ! D16   D(2,3,4,7)            177.3417         estimate D2E/DX2                !
 ! D17   D(10,3,4,5)           176.9895         estimate D2E/DX2                !
 ! D18   D(10,3,4,7)            -2.7302         estimate D2E/DX2                !
 ! D19   D(2,3,10,9)           -10.4547         estimate D2E/DX2                !
 ! D20   D(4,3,10,9)           169.6109         estimate D2E/DX2                !
 ! D21   D(3,4,5,6)              0.0741         estimate D2E/DX2                !
 ! D22   D(3,4,5,8)           -179.7971         estimate D2E/DX2                !
 ! D23   D(7,4,5,6)            179.7939         estimate D2E/DX2                !
 ! D24   D(7,4,5,8)             -0.0774         estimate D2E/DX2                !
 ! D25   D(4,5,6,1)              1.4223         estimate D2E/DX2                !
 ! D26   D(4,5,6,17)          -178.7245         estimate D2E/DX2                !
 ! D27   D(8,5,6,1)           -178.7065         estimate D2E/DX2                !
 ! D28   D(8,5,6,17)             1.1468         estimate D2E/DX2                !
 ! D29   D(1,6,17,18)          -90.0733         estimate D2E/DX2                !
 ! D30   D(5,6,17,18)           90.0733         estimate D2E/DX2                !
 ! D31   D(11,9,10,3)           13.2107         estimate D2E/DX2                !
 ! D32   D(12,9,10,3)         -166.5096         estimate D2E/DX2                !
 ! D33   D(10,9,11,2)          -10.5245         estimate D2E/DX2                !
 ! D34   D(12,9,11,2)          169.1959         estimate D2E/DX2                !
 ! D35   D(10,9,12,13)         -30.1521         estimate D2E/DX2                !
 ! D36   D(10,9,12,14)          89.8479         estimate D2E/DX2                !
 ! D37   D(10,9,12,15)        -150.1521         estimate D2E/DX2                !
 ! D38   D(11,9,12,13)         150.1521         estimate D2E/DX2                !
 ! D39   D(11,9,12,14)         -89.8479         estimate D2E/DX2                !
 ! D40   D(11,9,12,15)          30.1521         estimate D2E/DX2                !
 ! D41   D(6,17,18,19)         180.0            estimate D2E/DX2                !
 ! D42   D(6,17,18,20)         -60.0            estimate D2E/DX2                !
 ! D43   D(6,17,18,21)          60.0            estimate D2E/DX2                !
 --------------------------------------------------------------------------------
 Trust Radius=3.00D-01 FncErr=1.00D-07 GrdErr=1.00D-06
 Number of steps in this run=    111 maximum allowed number of steps=    126.
 GradGradGradGradGradGradGradGradGradGradGradGradGradGradGradGradGradGrad

                          Input orientation:                          
 ---------------------------------------------------------------------
 Center     Atomic      Atomic             Coordinates (Angstroms)
 Number     Number       Type             X           Y           Z
 ---------------------------------------------------------------------
      1          6           0       -2.811597   -1.064338    0.243004
      2          6           0       -1.452916   -1.224696   -0.013170
      3          6           0       -0.694341   -0.241425   -0.560761
      4          6           0       -1.217307    1.024511   -0.816697
      5          6           0       -2.584640    1.242095   -0.547972
      6          6           0       -3.385955    0.192467   -0.031763
      7          1           0       -0.601410    1.806392   -1.209423
      8          1           0       -3.019072    2.201650   -0.736182
      9          6           0        0.598526   -1.985026   -0.097083
     10          8           0        0.636184   -0.710550   -0.807873
     11          7           0       -0.605911   -2.372390    0.242232
     12          6           0        1.863876   -2.799189    0.230986
     13          1           0        2.605417   -2.624056   -0.520243
     14          1           0        2.244330   -2.498233    1.184706
     15          1           0        1.621053   -3.840961    0.256441
     16          1           0       -3.398593   -1.866420    0.639238
     17          8           0       -4.777824    0.410649    0.213182
     18          6           0       -5.525730    0.080910   -0.960193
     19          1           0       -6.567198    0.244165   -0.776913
     20          1           0       -5.205396    0.699011   -1.772743
     21          1           0       -5.364218   -0.947175   -1.208902
 ---------------------------------------------------------------------
                    Distance matrix (angstroms):
                    1          2          3          4          5
     1  C    0.000000
     2  C    1.391888   0.000000
     3  C    2.409564   1.357244   0.000000
     4  C    2.833376   2.400020   1.393410   0.000000
     5  C    2.448834   2.766201   2.402962   1.410375   0.000000
     6  C    1.408880   2.396943   2.777208   2.451827   1.417850
     7  H    3.903276   3.368022   2.150105   1.070000   2.165444
     8  H    3.415923   3.836070   3.376946   2.153717   1.070000
     9  C    3.548558   2.189420   2.219606   3.587814   4.555235
    10  O    3.621699   2.293520   1.432284   2.538886   3.775457
    11  N    2.564381   1.449086   2.278953   3.610273   4.195747
    12  C    4.986973   3.679640   3.703173   5.021156   6.060367
    13  H    5.688524   4.322661   4.070255   5.292744   6.471830
    14  H    5.339031   4.089796   4.095806   5.329003   6.349109
    15  H    5.230507   4.045593   4.357238   5.734172   6.646232
    16  H    1.070000   2.150140   3.375438   3.903234   3.425617
    17  O    2.458155   3.712223   4.207020   3.756961   2.465910
    18  C    3.182106   4.380556   4.858577   4.412878   3.188775
    19  H    4.105722   5.375569   5.896861   5.406650   4.112062
    20  H    3.592062   4.569229   4.764760   4.113980   2.943360
    21  H    2.938986   4.099400   4.767171   4.608497   3.599415
                    6          7          8          9         10
     6  C    0.000000
     7  H    3.427146   0.000000
     8  H    2.160469   2.495050   0.000000
     9  C    4.541127   4.129406   5.569894   0.000000
    10  O    4.194685   2.833351   4.674071   1.459771   0.000000
    11  N    3.792388   4.423747   5.263315   1.309906   2.325345
    12  C    6.048121   5.418836   7.055989   1.540000   2.636071
    13  H    6.638369   5.512492   7.414104   2.148263   2.760818
    14  H    6.357655   5.688575   7.313147   2.148263   3.122870
    15  H    6.435972   6.243452   7.683047   2.148263   3.449957
    16  H    2.165506   4.973060   4.311034   4.066103   4.439548
    17  O    1.430000   4.627562   2.683689   5.894121   5.622376
    18  C    2.335180   5.223824   3.291057   6.520703   6.214402
    19  H    3.267757   6.182091   4.052482   7.535189   7.266440
    20  H    2.568651   4.768681   2.848227   6.610402   6.086205
    21  H    2.568651   5.501497   3.954526   6.153666   6.018442
                   11         12         13         14         15
    11  N    0.000000
    12  C    2.506418   0.000000
    13  H    3.310186   1.070000   0.000000
    14  H    3.004658   1.070000   1.747303   0.000000
    15  H    2.667634   1.070000   1.747303   1.747303   0.000000
    16  H    2.865779   5.360066   6.161699   5.704323   5.407605
    17  O    5.015078   7.376690   8.016208   7.662643   7.682687
    18  C    5.627533   8.019985   8.580556   8.463239   8.242438
    19  H    6.589535   9.020027   9.614023   9.434603   9.208884
    20  H    5.886331   8.137994   8.580229   8.629444   8.445670
    21  H    5.174796   7.599249   8.173204   8.125586   7.701639
                   16         17         18         19         20
    16  H    0.000000
    17  O    2.696079   0.000000
    18  C    3.297724   1.430000   0.000000
    19  H    4.062033   2.051796   1.070000   0.000000
    20  H    3.957730   2.051796   1.070000   1.747303   0.000000
    21  H    2.850319   2.051796   1.070000   1.747303   1.747303
                   21
    21  H    0.000000
 Stoichiometry    C9H9NO2
 Framework group  C1[X(C9H9NO2)]
 Deg. of freedom    57
 Full point group                 C1      NOp   1
 Largest Abelian subgroup         C1      NOp   1
 Largest concise Abelian subgroup C1      NOp   1
                         Standard orientation:                         
 ---------------------------------------------------------------------
 Center     Atomic      Atomic             Coordinates (Angstroms)
 Number     Number       Type             X           Y           Z
 ---------------------------------------------------------------------
      1          6           0        0.811787   -0.973806   -0.256639
      2          6           0       -0.479068   -0.489101   -0.066618
      3          6           0       -0.745575    0.833411    0.081867
      4          6           0        0.255051    1.795704   -0.037832
      5          6           0        1.575966    1.352740   -0.257203
      6          6           0        1.856894   -0.033780   -0.351745
      7          1           0        0.028923    2.838718    0.038901
      8          1           0        2.368844    2.065156   -0.350519
      9          6           0       -2.654049   -0.299775    0.098225
     10          8           0       -2.134868    1.038545    0.363335
     11          7           0       -1.728593   -1.220645   -0.008461
     12          6           0       -4.156956   -0.601389   -0.049760
     13          1           0       -4.719053    0.084742    0.548715
     14          1           0       -4.442431   -0.496647   -1.075642
     15          1           0       -4.353612   -1.601824    0.274825
     16          1           0        1.003188   -2.023813   -0.332476
     17          8           0        3.201930   -0.478377   -0.546964
     18          6           0        3.825234   -0.683725    0.723557
     19          1           0        4.831660   -1.016396    0.577484
     20          1           0        3.829352    0.235311    1.271512
     21          1           0        3.281078   -1.423743    1.272345
 ---------------------------------------------------------------------
 Rotational constants (GHZ):      2.8027626      0.5185378      0.4546873
 Standard basis: 6-311+G(d,p) (5D, 7F)
 There are   330 symmetry adapted cartesian basis functions of A   symmetry.
 There are   318 symmetry adapted basis functions of A   symmetry.
   318 basis functions,   504 primitive gaussians,   330 cartesian basis functions
    43 alpha electrons       43 beta electrons
       nuclear repulsion energy       657.8840929352 Hartrees.
 NAtoms=   21 NActive=   21 NUniq=   21 SFac= 1.00D+00 NAtFMM=   60 NAOKFM=F Big=F
 Integral buffers will be    131072 words long.
 Raffenetti 2 integral format.
 Two-electron integral symmetry is turned on.
 One-electron integrals computed using PRISM.
 NBasis=   318 RedAO= T EigKep=  1.25D-06  NBF=   318
 NBsUse=   318 1.00D-06 EigRej= -1.00D+00 NBFU=   318
 ExpMin= 4.38D-02 ExpMax= 8.59D+03 ExpMxC= 1.30D+03 IAcc=2 IRadAn=         4 AccDes= 0.00D+00
 Harris functional with IExCor=  402 and IRadAn=       4 diagonalized for initial guess.
 HarFok:  IExCor=  402 AccDes= 0.00D+00 IRadAn=         4 IDoV= 1 UseB2=F ITyADJ=14
 ICtDFT=  3500011 ScaDFX=  1.000000  1.000000  1.000000  1.000000
 FoFCou: FMM=F IPFlag=           0 FMFlag=      100000 FMFlg1=           0
         NFxFlg=           0 DoJE=T BraDBF=F KetDBF=T FulRan=T
         wScrn=  0.000000 ICntrl=     500 IOpCl=  0 I1Cent=   200000004 NGrid=           0
         NMat0=    1 NMatS0=      1 NMatT0=    0 NMatD0=    1 NMtDS0=    0 NMtDT0=    0
 Petite list used in FoFCou.
 Requested convergence on RMS density matrix=1.00D-08 within 128 cycles.
 Requested convergence on MAX density matrix=1.00D-06.
 Requested convergence on             energy=1.00D-06.
 No special actions if energy rises.
 SCF Done:  E(RB3LYP) =  -553.690226999     A.U. after   15 cycles
            NFock= 15  Conv=0.94D-08     -V/T= 2.0046

 **********************************************************************

            Population analysis using the SCF density.

 **********************************************************************

 Orbital symmetries:
       Occupied  (A) (A) (A) (A) (A) (A) (A) (A) (A) (A) (A) (A)
                 (A) (A) (A) (A) (A) (A) (A) (A) (A) (A) (A) (A)
                 (A) (A) (A) (A) (A) (A) (A) (A) (A) (A) (A) (A)
                 (A) (A) (A) (A) (A) (A) (A)
       Virtual   (A) (A) (A) (A) (A) (A) (A) (A) (A) (A) (A) (A)
                 (A) (A) (A) (A) (A) (A) (A) (A) (A) (A) (A) (A)
                 (A) (A) (A) (A) (A) (A) (A) (A) (A) (A) (A) (A)
                 (A) (A) (A) (A) (A) (A) (A) (A) (A) (A) (A) (A)
                 (A) (A) (A) (A) (A) (A) (A) (A) (A) (A) (A) (A)
                 (A) (A) (A) (A) (A) (A) (A) (A) (A) (A) (A) (A)
                 (A) (A) (A) (A) (A) (A) (A) (A) (A) (A) (A) (A)
                 (A) (A) (A) (A) (A) (A) (A) (A) (A) (A) (A) (A)
                 (A) (A) (A) (A) (A) (A) (A) (A) (A) (A) (A) (A)
                 (A) (A) (A) (A) (A) (A) (A) (A) (A) (A) (A) (A)
                 (A) (A) (A) (A) (A) (A) (A) (A) (A) (A) (A) (A)
                 (A) (A) (A) (A) (A) (A) (A) (A) (A) (A) (A) (A)
                 (A) (A) (A) (A) (A) (A) (A) (A) (A) (A) (A) (A)
                 (A) (A) (A) (A) (A) (A) (A) (A) (A) (A) (A) (A)
                 (A) (A) (A) (A) (A) (A) (A) (A) (A) (A) (A) (A)
                 (A) (A) (A) (A) (A) (A) (A) (A) (A) (A) (A) (A)
                 (A) (A) (A) (A) (A) (A) (A) (A) (A) (A) (A) (A)
                 (A) (A) (A) (A) (A) (A) (A) (A) (A) (A) (A) (A)
                 (A) (A) (A) (A) (A) (A) (A) (A) (A) (A) (A) (A)
                 (A) (A) (A) (A) (A) (A) (A) (A) (A) (A) (A) (A)
                 (A) (A) (A) (A) (A) (A) (A) (A) (A) (A) (A) (A)
                 (A) (A) (A) (A) (A) (A) (A) (A) (A) (A) (A) (A)
                 (A) (A) (A) (A) (A) (A) (A) (A) (A) (A) (A)
 The electronic state is 1-A.
 Alpha  occ. eigenvalues --  -19.19964 -19.14365 -14.32655 -10.29096 -10.24414
 Alpha  occ. eigenvalues --  -10.24187 -10.21661 -10.21386 -10.19824 -10.19605
 Alpha  occ. eigenvalues --  -10.19276 -10.19024  -1.09724  -1.04654  -0.92548
 Alpha  occ. eigenvalues --   -0.86642  -0.78155  -0.76340  -0.73458  -0.69506
 Alpha  occ. eigenvalues --   -0.63297  -0.61057  -0.59646  -0.52947  -0.51846
 Alpha  occ. eigenvalues --   -0.50041  -0.47921  -0.46371  -0.46160  -0.45884
 Alpha  occ. eigenvalues --   -0.44405  -0.43279  -0.42762  -0.41619  -0.41307
 Alpha  occ. eigenvalues --   -0.37788  -0.36757  -0.34702  -0.33105  -0.30138
 Alpha  occ. eigenvalues --   -0.28343  -0.25460  -0.24992
 Alpha virt. eigenvalues --   -0.04505  -0.01718  -0.00021   0.00558   0.01048
 Alpha virt. eigenvalues --    0.01996   0.03139   0.03345   0.04242   0.04386
 Alpha virt. eigenvalues --    0.04769   0.05403   0.06036   0.06710   0.07686
 Alpha virt. eigenvalues --    0.08237   0.08575   0.08902   0.09792   0.10309
 Alpha virt. eigenvalues --    0.11240   0.12018   0.12291   0.12637   0.13267
 Alpha virt. eigenvalues --    0.13898   0.14169   0.14656   0.15012   0.15429
 Alpha virt. eigenvalues --    0.16131   0.16841   0.17194   0.17397   0.18225
 Alpha virt. eigenvalues --    0.19020   0.19394   0.19741   0.19915   0.20440
 Alpha virt. eigenvalues --    0.21039   0.21618   0.22217   0.22305   0.22925
 Alpha virt. eigenvalues --    0.23249   0.23904   0.24173   0.24885   0.25540
 Alpha virt. eigenvalues --    0.25916   0.26579   0.26904   0.28150   0.28408
 Alpha virt. eigenvalues --    0.28895   0.30252   0.31126   0.31907   0.32292
 Alpha virt. eigenvalues --    0.33255   0.33607   0.34875   0.35398   0.35989
 Alpha virt. eigenvalues --    0.36758   0.37115   0.37858   0.40358   0.41255
 Alpha virt. eigenvalues --    0.42194   0.43659   0.44683   0.45048   0.47019
 Alpha virt. eigenvalues --    0.48823   0.50176   0.51764   0.51992   0.53977
 Alpha virt. eigenvalues --    0.54488   0.56189   0.56603   0.57878   0.58267
 Alpha virt. eigenvalues --    0.59655   0.61229   0.62354   0.62520   0.63688
 Alpha virt. eigenvalues --    0.65972   0.66273   0.66739   0.67544   0.69327
 Alpha virt. eigenvalues --    0.70176   0.70716   0.71688   0.73153   0.73773
 Alpha virt. eigenvalues --    0.75642   0.78789   0.79674   0.80645   0.81486
 Alpha virt. eigenvalues --    0.83056   0.85655   0.86800   0.87233   0.88802
 Alpha virt. eigenvalues --    0.89078   0.90231   0.92662   0.93537   0.94041
 Alpha virt. eigenvalues --    0.94882   0.98615   0.99761   1.00629   1.01768
 Alpha virt. eigenvalues --    1.02823   1.03396   1.03931   1.06288   1.09585
 Alpha virt. eigenvalues --    1.10864   1.12060   1.13727   1.17752   1.19431
 Alpha virt. eigenvalues --    1.20043   1.23196   1.25105   1.26853   1.28014
 Alpha virt. eigenvalues --    1.30266   1.33122   1.35100   1.36799   1.40546
 Alpha virt. eigenvalues --    1.43348   1.43822   1.46244   1.46721   1.49034
 Alpha virt. eigenvalues --    1.51150   1.51768   1.53857   1.54084   1.55141
 Alpha virt. eigenvalues --    1.57520   1.58062   1.59096   1.60680   1.61291
 Alpha virt. eigenvalues --    1.64744   1.65807   1.66785   1.67653   1.69816
 Alpha virt. eigenvalues --    1.72492   1.73358   1.76155   1.77211   1.80242
 Alpha virt. eigenvalues --    1.81406   1.84188   1.84646   1.85156   1.89920
 Alpha virt. eigenvalues --    1.90723   1.93241   1.93629   1.95231   1.98951
 Alpha virt. eigenvalues --    1.99479   2.00229   2.02209   2.04806   2.05736
 Alpha virt. eigenvalues --    2.10729   2.11418   2.13398   2.13856   2.15968
 Alpha virt. eigenvalues --    2.19441   2.21770   2.23376   2.28502   2.34823
 Alpha virt. eigenvalues --    2.36798   2.38713   2.42848   2.44666   2.46105
 Alpha virt. eigenvalues --    2.47739   2.49848   2.52692   2.54527   2.54829
 Alpha virt. eigenvalues --    2.54927   2.55781   2.56603   2.61342   2.62448
 Alpha virt. eigenvalues --    2.63237   2.66660   2.67499   2.69182   2.70413
 Alpha virt. eigenvalues --    2.74047   2.75414   2.76328   2.78601   2.80347
 Alpha virt. eigenvalues --    2.80765   2.83772   2.84275   2.86363   2.86988
 Alpha virt. eigenvalues --    2.90685   2.91510   2.95507   2.99502   3.02404
 Alpha virt. eigenvalues --    3.06194   3.07679   3.09741   3.11018   3.11801
 Alpha virt. eigenvalues --    3.16550   3.19528   3.27290   3.28157   3.28970
 Alpha virt. eigenvalues --    3.37373   3.40620   3.45982   3.58181   3.61566
 Alpha virt. eigenvalues --    3.63692   3.81601   3.82291   3.84648   3.85485
 Alpha virt. eigenvalues --    3.87305   3.89606   3.93627   4.04112   4.06052
 Alpha virt. eigenvalues --    4.11248   4.12393   4.17315   4.17836   4.48759
 Alpha virt. eigenvalues --    4.82024   4.94481   4.99962   5.14177   5.37258
 Alpha virt. eigenvalues --    5.39781   5.64921   5.68915  23.53291  23.73622
 Alpha virt. eigenvalues --   23.87358  23.95192  23.96141  23.97156  24.05257
 Alpha virt. eigenvalues --   24.06748  24.18601  35.60065  49.90232  49.93401
          Condensed to atoms (all electrons):
               1          2          3          4          5          6
     1  C   23.879316  -5.457312  -3.846358  -2.703785  -0.720952  -2.748376
     2  C   -5.457312  14.828037  -2.155680  -1.859215  -0.984654   1.032760
     3  C   -3.846358  -2.155680  14.527534  -4.040872   0.902426  -1.472509
     4  C   -2.703785  -1.859215  -4.040872  16.393392  -1.051729   2.356567
     5  C   -0.720952  -0.984654   0.902426  -1.051729   8.338051  -0.928695
     6  C   -2.748376   1.032760  -1.472509   2.356567  -0.928695   8.476263
     7  H   -0.038497  -0.006961   0.064898   0.299657   0.002324   0.001384
     8  H   -0.088177   0.056488   0.024687  -0.042686   0.400234   0.001589
     9  C   -0.675077  -0.327252   0.781750  -1.759273   0.250057  -0.694013
    10  O    0.119545   0.203365   0.685761  -0.542900  -0.020333   0.011817
    11  N   -1.091274   0.725045   0.420417   0.227715  -0.048178   0.142963
    12  C   -0.209532  -0.699608  -0.358380  -0.484869   0.058784  -0.081334
    13  H   -0.006436  -0.056964   0.044333   0.005157   0.000161  -0.000060
    14  H    0.004494   0.008699   0.007801   0.005057   0.000270   0.000150
    15  H    0.006926   0.031404  -0.045149  -0.004944   0.000185  -0.000753
    16  H    0.279104   0.118824   0.012332  -0.011605  -0.021738  -0.035877
    17  O   -0.166772  -0.034107   0.027682   0.027128  -0.283318   0.580404
    18  C    0.201713  -0.107188  -0.003912   0.015112   0.056942  -0.294649
    19  H    0.000340  -0.004976  -0.000125   0.000351   0.001580   0.021242
    20  H   -0.015251   0.014901   0.007838  -0.016246   0.025023  -0.016616
    21  H    0.069268  -0.042808  -0.005021   0.001999  -0.007094  -0.025146
               7          8          9         10         11         12
     1  C   -0.038497  -0.088177  -0.675077   0.119545  -1.091274  -0.209532
     2  C   -0.006961   0.056488  -0.327252   0.203365   0.725045  -0.699608
     3  C    0.064898   0.024687   0.781750   0.685761   0.420417  -0.358380
     4  C    0.299657  -0.042686  -1.759273  -0.542900   0.227715  -0.484869
     5  C    0.002324   0.400234   0.250057  -0.020333  -0.048178   0.058784
     6  C    0.001384   0.001589  -0.694013   0.011817   0.142963  -0.081334
     7  H    0.519142  -0.006642   0.028688  -0.003175   0.000243   0.002409
     8  H   -0.006642   0.516762   0.006270  -0.000454   0.000401   0.000245
     9  C    0.028688   0.006270   8.466736  -0.124389   0.210165  -0.420429
    10  O   -0.003175  -0.000454  -0.124389   8.167285   0.007768  -0.361044
    11  N    0.000243   0.000401   0.210165   0.007768   6.833682  -0.351764
    12  C    0.002409   0.000245  -0.420429  -0.361044  -0.351764   7.942065
    13  H    0.000006   0.000000  -0.116036  -0.005005   0.022334   0.486304
    14  H   -0.000002   0.000000   0.068800   0.000063  -0.009409   0.276767
    15  H    0.000001   0.000000  -0.049395   0.007517  -0.019858   0.451966
    16  H    0.000039  -0.000090   0.021727   0.000073   0.001245   0.001074
    17  O   -0.000363  -0.003980   0.001122   0.000146  -0.001295   0.000205
    18  C    0.000038  -0.000810  -0.012918   0.000306   0.000826  -0.001584
    19  H   -0.000001  -0.000222  -0.000063   0.000001  -0.000011  -0.000001
    20  H    0.000038   0.000835   0.000382  -0.000027   0.000015   0.000019
    21  H   -0.000001   0.000152  -0.000652   0.000023   0.000291  -0.000096
              13         14         15         16         17         18
     1  C   -0.006436   0.004494   0.006926   0.279104  -0.166772   0.201713
     2  C   -0.056964   0.008699   0.031404   0.118824  -0.034107  -0.107188
     3  C    0.044333   0.007801  -0.045149   0.012332   0.027682  -0.003912
     4  C    0.005157   0.005057  -0.004944  -0.011605   0.027128   0.015112
     5  C    0.000161   0.000270   0.000185  -0.021738  -0.283318   0.056942
     6  C   -0.000060   0.000150  -0.000753  -0.035877   0.580404  -0.294649
     7  H    0.000006  -0.000002   0.000001   0.000039  -0.000363   0.000038
     8  H    0.000000   0.000000   0.000000  -0.000090  -0.003980  -0.000810
     9  C   -0.116036   0.068800  -0.049395   0.021727   0.001122  -0.012918
    10  O   -0.005005   0.000063   0.007517   0.000073   0.000146   0.000306
    11  N    0.022334  -0.009409  -0.019858   0.001245  -0.001295   0.000826
    12  C    0.486304   0.276767   0.451966   0.001074   0.000205  -0.001584
    13  H    0.518784  -0.025750  -0.026216   0.000002   0.000000   0.000001
    14  H   -0.025750   0.510449  -0.019682  -0.000002   0.000000   0.000003
    15  H   -0.026216  -0.019682   0.493656  -0.000002   0.000000   0.000002
    16  H    0.000002  -0.000002  -0.000002   0.506629  -0.004439  -0.001764
    17  O    0.000000   0.000000   0.000000  -0.004439   7.999340   0.185056
    18  C    0.000001   0.000003   0.000002  -0.001764   0.185056   4.985871
    19  H    0.000000   0.000000   0.000000  -0.000209  -0.049689   0.405544
    20  H    0.000000   0.000000   0.000000   0.000033  -0.049032   0.413504
    21  H    0.000000   0.000000   0.000000   0.001105  -0.044976   0.420180
              19         20         21
     1  C    0.000340  -0.015251   0.069268
     2  C   -0.004976   0.014901  -0.042808
     3  C   -0.000125   0.007838  -0.005021
     4  C    0.000351  -0.016246   0.001999
     5  C    0.001580   0.025023  -0.007094
     6  C    0.021242  -0.016616  -0.025146
     7  H   -0.000001   0.000038  -0.000001
     8  H   -0.000222   0.000835   0.000152
     9  C   -0.000063   0.000382  -0.000652
    10  O    0.000001  -0.000027   0.000023
    11  N   -0.000011   0.000015   0.000291
    12  C   -0.000001   0.000019  -0.000096
    13  H    0.000000   0.000000   0.000000
    14  H    0.000000   0.000000   0.000000
    15  H    0.000000   0.000000   0.000000
    16  H   -0.000209   0.000033   0.001105
    17  O   -0.049689  -0.049032  -0.044976
    18  C    0.405544   0.413504   0.420180
    19  H    0.532437  -0.028813  -0.029721
    20  H   -0.028813   0.580642  -0.050967
    21  H   -0.029721  -0.050967   0.575187
 Mulliken charges:
               1
     1  C   -0.792906
     2  C    0.717203
     3  C    0.420548
     4  C   -0.814009
     5  C    0.030654
     6  C   -0.327111
     7  H    0.136775
     8  H    0.135396
     9  C    0.343800
    10  O   -0.146344
    11  N   -0.071319
    12  C   -0.251197
    13  H    0.159385
    14  H    0.172293
    15  H    0.174342
    16  H    0.133538
    17  O   -0.183115
    18  C   -0.262272
    19  H    0.152337
    20  H    0.133723
    21  H    0.138278
 Sum of Mulliken charges =   0.00000
 Mulliken charges with hydrogens summed into heavy atoms:
               1
     1  C   -0.659368
     2  C    0.717203
     3  C    0.420548
     4  C   -0.677234
     5  C    0.166051
     6  C   -0.327111
     9  C    0.343800
    10  O   -0.146344
    11  N   -0.071319
    12  C    0.254822
    17  O   -0.183115
    18  C    0.162065
 Electronic spatial extent (au):  <R**2>=           2427.6138
 Charge=              0.0000 electrons
 Dipole moment (field-independent basis, Debye):
    X=             -0.8356    Y=              0.8704    Z=              1.1934  Tot=              1.6971
 Quadrupole moment (field-independent basis, Debye-Ang):
   XX=            -57.6865   YY=            -69.5313   ZZ=            -72.9369
   XY=              1.1758   XZ=              6.4106   YZ=             -1.5655
 Traceless Quadrupole moment (field-independent basis, Debye-Ang):
   XX=              9.0317   YY=             -2.8131   ZZ=             -6.2186
   XY=              1.1758   XZ=              6.4106   YZ=             -1.5655
 Octapole moment (field-independent basis, Debye-Ang**2):
  XXX=            -37.3259  YYY=             12.2663  ZZZ=              1.3841  XYY=             15.2565
  XXY=            -10.7733  XXZ=             19.0348  XZZ=             -4.8454  YZZ=             -1.3169
  YYZ=              0.7152  XYZ=             -2.6774
 Hexadecapole moment (field-independent basis, Debye-Ang**3):
 XXXX=          -2243.3153 YYYY=           -482.6479 ZZZZ=           -142.7318 XXXY=             15.6641
 XXXZ=             78.0955 YYYX=            -14.1403 YYYZ=             -0.1086 ZZZX=              2.6200
 ZZZY=              1.7125 XXYY=           -512.8069 XXZZ=           -459.1467 YYZZ=           -115.7853
 XXYZ=            -16.3708 YYXZ=             -2.3205 ZZXY=             -4.5723
 N-N= 6.578840929352D+02 E-N=-2.607001534758D+03  KE= 5.511688557282D+02
 There are a total of      173860 grid points.
 ElSum from          density=       85.9998704865
 ElSum from atomic densities=       85.9996501984

 Hirshfeld populations at iteration   1 (CX, CA, CB, DipXYZ):
               1          2          3          4          5          6
     1  C    0.000000   3.024128   3.024128  -0.006115  -0.067139  -0.005630
     2  C    0.000000   2.987770   2.987770  -0.020078  -0.075204  -0.004014
     3  C    0.000000   2.974760   2.974760  -0.128819   0.060387   0.027859
     4  C    0.000000   3.023203   3.023203  -0.017784   0.065931   0.002367
     5  C    0.000000   3.026098   3.026098   0.039842   0.041863  -0.009287
     6  C    0.000000   2.965010   2.965010   0.138440  -0.041778  -0.016125
     7  H    0.000002   0.471513   0.471513  -0.032067   0.166393   0.010644
     8  H    0.000001   0.472902   0.472902   0.119287   0.119089  -0.013312
     9  C    0.000000   2.920347   2.920347  -0.059942   0.124712   0.008629
    10  O    0.000003   4.066342   4.066342   0.083586  -0.124796  -0.035171
    11  N    0.000002   3.608994   3.608994   0.078835   0.151253   0.023492
    12  C    0.000000   3.038116   3.038116  -0.006994  -0.009564  -0.006968
    13  H    0.000001   0.473935   0.473935  -0.091537   0.097707   0.089090
    14  H    0.000001   0.470981   0.470981  -0.052692   0.012800  -0.155523
    15  H    0.000001   0.469861   0.469861  -0.047753  -0.148177   0.048409
    16  H    0.000002   0.469970   0.469970   0.029892  -0.165351  -0.010985
    17  O    0.000004   4.088019   4.088019  -0.069443   0.021598   0.174543
    18  C    0.000000   3.008962   3.008962  -0.000762  -0.000906  -0.050356
    19  H    0.000001   0.474640   0.474640   0.150463  -0.050053  -0.011311
    20  H    0.000000   0.482412   0.482412   0.016784   0.117931   0.080733
    21  H    0.000000   0.481970   0.481970  -0.057365  -0.105658   0.080999
       Tot   0.000020  42.999935  42.999935   0.065778   0.191037   0.228083

 Dip from Atomic Chgs             -0.394249   0.151505   0.241387
         Total Dipole             -0.328471   0.342541   0.469470

 Hirshfeld charges, spin densities, dipoles, and CM5 charges using IRadAn=      4:
              Q-H        S-H        Dx         Dy         Dz        Q-CM5   
     1  C   -0.048256   0.000000  -0.006115  -0.067139  -0.005630  -0.093897
     2  C    0.024459   0.000000  -0.020078  -0.075204  -0.004014   0.080351
     3  C    0.050479   0.000000  -0.128819   0.060387   0.027859   0.075021
     4  C   -0.046406   0.000000  -0.017784   0.065931   0.002367  -0.098426
     5  C   -0.052196   0.000000   0.039842   0.041863  -0.009287  -0.104732
     6  C    0.069979   0.000000   0.138440  -0.041778  -0.016125   0.081821
     7  H    0.056974   0.000000  -0.032067   0.166393   0.010644   0.116056
     8  H    0.054197   0.000000   0.119287   0.119089  -0.013312   0.114166
     9  C    0.159305   0.000000  -0.059942   0.124712   0.008629   0.249086
    10  O   -0.132685   0.000000   0.083586  -0.124796  -0.035171  -0.180230
    11  N   -0.217987   0.000000   0.078835   0.151253   0.023492  -0.381341
    12  C   -0.076232   0.000000  -0.006994  -0.009564  -0.006968  -0.221586
    13  H    0.052129   0.000000  -0.091537   0.097707   0.089090   0.108423
    14  H    0.058037   0.000000  -0.052692   0.012800  -0.155523   0.113895
    15  H    0.060277   0.000000  -0.047753  -0.148177   0.048409   0.117403
    16  H    0.060060   0.000000   0.029892  -0.165351  -0.010985   0.121833
    17  O   -0.176037   0.000000  -0.069443   0.021598   0.174543  -0.260187
    18  C   -0.017923   0.000000  -0.000762  -0.000906  -0.050356  -0.147737
    19  H    0.050719   0.000000   0.150463  -0.050053  -0.011311   0.112413
    20  H    0.035176   0.000000   0.016784   0.117931   0.080733   0.098453
    21  H    0.036060   0.000000  -0.057365  -0.105658   0.080999   0.099346
       Tot   0.000130   0.000000   0.065778   0.191037   0.228083   0.000130
 Hirshfeld charges with hydrogens summed into heavy atoms:
              Q-H       Q-CM5   
     1  C    0.011804   0.027936
     2  C    0.024459   0.080351
     3  C    0.050479   0.075021
     4  C    0.010568   0.017630
     5  C    0.002001   0.009433
     6  C    0.069979   0.081821
     9  C    0.159305   0.249086
    10  O   -0.132685  -0.180230
    11  N   -0.217987  -0.381341
    12  C    0.094211   0.118135
    17  O   -0.176037  -0.260187
    18  C    0.104031   0.162475
 
 EQQ= 0.000000000000E+00 EQD= 0.000000000000E+00 EDD= 0.606986592251E-03
 EQQ+QD+DD= 0.606986592251E-03
 
          MBS Condensed to atoms (all electrons):
               1          2          3          4          5          6
     1  C    4.853786   0.494541  -0.031507  -0.007691  -0.036671   0.497393
     2  C    0.494541   4.737257   0.505173  -0.033319  -0.010515  -0.027962
     3  C   -0.031507   0.505173   4.759531   0.497009  -0.029961  -0.011314
     4  C   -0.007691  -0.033319   0.497009   4.830413   0.501347  -0.026595
     5  C   -0.036671  -0.010515  -0.029961   0.501347   4.863591   0.486022
     6  C    0.497393  -0.027962  -0.011314  -0.026595   0.486022   4.721193
     7  H    0.000000   0.001489  -0.025332   0.390208  -0.022133   0.001261
     8  H    0.001356   0.000073   0.001383  -0.023495   0.389739  -0.024613
     9  C    0.001596  -0.062324  -0.057566   0.001606  -0.000009  -0.000017
    10  O    0.000379  -0.034459   0.290297  -0.014019   0.000231   0.000010
    11  N   -0.018308   0.353998  -0.044097   0.000733   0.000022   0.000415
    12  C   -0.000006   0.001504   0.001049  -0.000005   0.000000   0.000000
    13  H    0.000000  -0.000054   0.000001  -0.000001   0.000000   0.000000
    14  H    0.000001  -0.000026   0.000011   0.000000   0.000000   0.000000
    15  H   -0.000001   0.000037  -0.000031   0.000000   0.000000   0.000000
    16  H    0.387127  -0.023180   0.001509   0.000031   0.001297  -0.022539
    17  O   -0.021349   0.000314   0.000008   0.000289  -0.020951   0.286440
    18  C   -0.001418  -0.000010   0.000003  -0.000010  -0.001316  -0.037724
    19  H    0.000003   0.000000   0.000000   0.000000   0.000002   0.002593
    20  H   -0.000169   0.000003  -0.000002  -0.000043   0.001571  -0.003653
    21  H    0.001579  -0.000044  -0.000001   0.000003  -0.000170  -0.003687
               7          8          9         10         11         12
     1  C    0.000000   0.001356   0.001596   0.000379  -0.018308  -0.000006
     2  C    0.001489   0.000073  -0.062324  -0.034459   0.353998   0.001504
     3  C   -0.025332   0.001383  -0.057566   0.290297  -0.044097   0.001049
     4  C    0.390208  -0.023495   0.001606  -0.014019   0.000733  -0.000005
     5  C   -0.022133   0.389739  -0.000009   0.000231   0.000022   0.000000
     6  C    0.001261  -0.024613  -0.000017   0.000010   0.000415   0.000000
     7  H    0.529166  -0.003714  -0.000033  -0.000602  -0.000022   0.000000
     8  H   -0.003714   0.532022   0.000000  -0.000003   0.000000   0.000000
     9  C   -0.000033   0.000000   4.739824   0.272055   0.492651   0.370165
    10  O   -0.000602  -0.000003   0.272055   7.845796  -0.026528  -0.013543
    11  N   -0.000022   0.000000   0.492651  -0.026528   6.647622  -0.026332
    12  C    0.000000   0.000000   0.370165  -0.013543  -0.026332   4.803201
    13  H    0.000000   0.000000  -0.021327  -0.000293   0.000917   0.377202
    14  H    0.000000   0.000000  -0.020594   0.000048  -0.000539   0.379167
    15  H    0.000000   0.000000  -0.018296   0.000412  -0.001324   0.380791
    16  H    0.000002  -0.000041  -0.000010  -0.000006  -0.001032  -0.000001
    17  O   -0.000004  -0.000506   0.000000   0.000000   0.000000   0.000000
    18  C    0.000000  -0.000006   0.000000   0.000000   0.000000   0.000000
    19  H    0.000000  -0.000017   0.000000   0.000000   0.000000   0.000000
    20  H    0.000002   0.000075   0.000000   0.000000   0.000000   0.000000
    21  H    0.000000   0.000023   0.000000   0.000000   0.000000   0.000000
              13         14         15         16         17         18
     1  C    0.000000   0.000001  -0.000001   0.387127  -0.021349  -0.001418
     2  C   -0.000054  -0.000026   0.000037  -0.023180   0.000314  -0.000010
     3  C    0.000001   0.000011  -0.000031   0.001509   0.000008   0.000003
     4  C   -0.000001   0.000000   0.000000   0.000031   0.000289  -0.000010
     5  C    0.000000   0.000000   0.000000   0.001297  -0.020951  -0.001316
     6  C    0.000000   0.000000   0.000000  -0.022539   0.286440  -0.037724
     7  H    0.000000   0.000000   0.000000   0.000002  -0.000004   0.000000
     8  H    0.000000   0.000000   0.000000  -0.000041  -0.000506  -0.000006
     9  C   -0.021327  -0.020594  -0.018296  -0.000010   0.000000   0.000000
    10  O   -0.000293   0.000048   0.000412  -0.000006   0.000000   0.000000
    11  N    0.000917  -0.000539  -0.001324  -0.001032   0.000000   0.000000
    12  C    0.377202   0.379167   0.380791  -0.000001   0.000000   0.000000
    13  H    0.560683  -0.021009  -0.020133   0.000000   0.000000   0.000000
    14  H   -0.021009   0.551131  -0.020973   0.000000   0.000000   0.000000
    15  H   -0.020133  -0.020973   0.539083   0.000000   0.000000   0.000000
    16  H    0.000000   0.000000   0.000000   0.519241  -0.000662   0.000014
    17  O    0.000000   0.000000   0.000000  -0.000662   7.949846   0.267984
    18  C    0.000000   0.000000   0.000000   0.000014   0.267984   4.726915
    19  H    0.000000   0.000000   0.000000  -0.000018  -0.017404   0.379824
    20  H    0.000000   0.000000   0.000000   0.000021  -0.019285   0.373676
    21  H    0.000000   0.000000   0.000000   0.000097  -0.019253   0.373872
              19         20         21
     1  C    0.000003  -0.000169   0.001579
     2  C    0.000000   0.000003  -0.000044
     3  C    0.000000  -0.000002  -0.000001
     4  C    0.000000  -0.000043   0.000003
     5  C    0.000002   0.001571  -0.000170
     6  C    0.002593  -0.003653  -0.003687
     7  H    0.000000   0.000002   0.000000
     8  H   -0.000017   0.000075   0.000023
     9  C    0.000000   0.000000   0.000000
    10  O    0.000000   0.000000   0.000000
    11  N    0.000000   0.000000   0.000000
    12  C    0.000000   0.000000   0.000000
    13  H    0.000000   0.000000   0.000000
    14  H    0.000000   0.000000   0.000000
    15  H    0.000000   0.000000   0.000000
    16  H   -0.000018   0.000021   0.000097
    17  O   -0.017404  -0.019285  -0.019253
    18  C    0.379824   0.373676   0.373872
    19  H    0.565755  -0.024225  -0.024199
    20  H   -0.024225   0.599881  -0.027498
    21  H   -0.024199  -0.027498   0.598209
 MBS Mulliken charges:
               1
     1  C   -0.120642
     2  C    0.097503
     3  C    0.143836
     4  C   -0.116463
     5  C   -0.122097
     6  C    0.162778
     7  H    0.129712
     8  H    0.127722
     9  C    0.302280
    10  O   -0.319776
    11  N   -0.378176
    12  C   -0.273190
    13  H    0.124014
    14  H    0.132782
    15  H    0.140434
    16  H    0.138151
    17  O   -0.405465
    18  C   -0.081804
    19  H    0.117686
    20  H    0.099646
    21  H    0.101070
 Sum of MBS Mulliken charges =   0.00000
 MBS Mulliken charges with hydrogens summed into heavy atoms:
               1
     1  C    0.017510
     2  C    0.097503
     3  C    0.143836
     4  C    0.013249
     5  C    0.005625
     6  C    0.162778
     9  C    0.302280
    10  O   -0.319776
    11  N   -0.378176
    12  C    0.124040
    17  O   -0.405465
    18  C    0.236597
 Breneman (CHELPG) radii used.
 Generate Potential Derived Charges using the Breneman model, NDens= 1.
 Grid spacing= 0.300 Box extension= 2.800
 NStep X,Y,Z=   52     36     28   Total possible points=       52416
 Number of Points to Fit=   14348

 **********************************************************************

            Electrostatic Properties Using The SCF Density

 **********************************************************************

       Atomic Center    1 is at   0.811787 -0.973806 -0.256639
       Atomic Center    2 is at  -0.479068 -0.489101 -0.066618
       Atomic Center    3 is at  -0.745575  0.833411  0.081867
       Atomic Center    4 is at   0.255051  1.795704 -0.037832
       Atomic Center    5 is at   1.575966  1.352740 -0.257203
       Atomic Center    6 is at   1.856894 -0.033780 -0.351745
       Atomic Center    7 is at   0.028923  2.838718  0.038901
       Atomic Center    8 is at   2.368844  2.065156 -0.350519
       Atomic Center    9 is at  -2.654049 -0.299775  0.098225
       Atomic Center   10 is at  -2.134868  1.038545  0.363335
       Atomic Center   11 is at  -1.728593 -1.220645 -0.008461
       Atomic Center   12 is at  -4.156956 -0.601389 -0.049760
       Atomic Center   13 is at  -4.719053  0.084742  0.548715
       Atomic Center   14 is at  -4.442431 -0.496647 -1.075642
       Atomic Center   15 is at  -4.353612 -1.601824  0.274825
       Atomic Center   16 is at   1.003188 -2.023813 -0.332476
       Atomic Center   17 is at   3.201930 -0.478377 -0.546964
       Atomic Center   18 is at   3.825234 -0.683725  0.723557
       Atomic Center   19 is at   4.831660 -1.016396  0.577484
       Atomic Center   20 is at   3.829352  0.235311  1.271512
       Atomic Center   21 is at   3.281078 -1.423743  1.272345
   14348 points will be used for fitting atomic charges
 Fitting point charges to electrostatic potential
 Charges from ESP fit, RMS=   0.00388 RRMS=   0.30530:
 ESP charges:
               1
     1  C   -0.406073
     2  C    0.403660
     3  C    0.157719
     4  C   -0.161400
     5  C   -0.295660
     6  C    0.389165
     7  H    0.150434
     8  H    0.181103
     9  C    0.623245
    10  O   -0.388922
    11  N   -0.657312
    12  C   -0.285909
    13  H    0.091327
    14  H    0.096000
    15  H    0.112694
    16  H    0.223474
    17  O   -0.481481
    18  C    0.296377
    19  H    0.023422
    20  H   -0.036243
    21  H   -0.035621
 Sum of ESP charges =   0.00000
 ESP charges with hydrogens summed into heavy atoms:
               1
     1  C   -0.182599
     2  C    0.403660
     3  C    0.157719
     4  C   -0.010966
     5  C   -0.114556
     6  C    0.389165
     9  C    0.623245
    10  O   -0.388922
    11  N   -0.657312
    12  C    0.014111
    17  O   -0.481481
    18  C    0.247935
 Charge=   0.00000 Dipole=    -0.7933     0.8860     1.0616 Tot=     1.5941
 -----------------------------------------------------------------

              Electrostatic Properties (Atomic Units)

 -----------------------------------------------------------------
    Center     Electric         -------- Electric Field --------
               Potential          X             Y             Z
 -----------------------------------------------------------------
    1 Atom    -14.760644
    2 Atom    -14.735068
    3 Atom    -14.709098
    4 Atom    -14.751907
    5 Atom    -14.757640
    6 Atom    -14.703839
    7 Atom     -1.088664
    8 Atom     -1.093310
    9 Atom    -14.659941
   10 Atom    -22.299049
   11 Atom    -18.396359
   12 Atom    -14.750209
   13 Atom     -1.093444
   14 Atom     -1.087904
   15 Atom     -1.090465
   16 Atom     -1.091724
   17 Atom    -22.351185
   18 Atom    -14.733284
   19 Atom     -1.109788
   20 Atom     -1.115821
   21 Atom     -1.116078
 -----------------------------------------------------------------
 ******************************Gaussian NBO Version 3.1******************************
             N A T U R A L   A T O M I C   O R B I T A L   A N D
          N A T U R A L   B O N D   O R B I T A L   A N A L Y S I S
 ******************************Gaussian NBO Version 3.1******************************
       /RESON  / : Allow strongly delocalized NBO set

 Analyzing the SCF density

 Job title: Title Card Required                                             

 Storage needed:    305034 in NPA ( 104855185 available)


 NATURAL POPULATIONS:  Natural atomic orbital occupancies 
                                                          
   NAO  Atom  No  lang   Type(AO)    Occupancy      Energy
 ----------------------------------------------------------
     1    C    1  S      Cor( 1S)     1.99894     -10.04009
     2    C    1  S      Val( 2S)     0.95049      -0.16817
     3    C    1  S      Ryd( 4S)     0.00142       0.95994
     4    C    1  S      Ryd( 3S)     0.00011       0.59492
     5    C    1  S      Ryd( 5S)     0.00002      23.13619
     6    C    1  px     Val( 2p)     1.05961      -0.06051
     7    C    1  px     Ryd( 4p)     0.00432       0.90111
     8    C    1  px     Ryd( 3p)     0.00029       0.51091
     9    C    1  px     Ryd( 5p)     0.00014       3.03102
    10    C    1  py     Val( 2p)     1.19311      -0.07685
    11    C    1  py     Ryd( 4p)     0.00493       1.22358
    12    C    1  py     Ryd( 3p)     0.00040       0.51769
    13    C    1  py     Ryd( 5p)     0.00010       2.88596
    14    C    1  pz     Val( 2p)     1.01635      -0.11868
    15    C    1  pz     Ryd( 4p)     0.00132       0.58163
    16    C    1  pz     Ryd( 3p)     0.00059       0.30284
    17    C    1  pz     Ryd( 5p)     0.00003       2.69621
    18    C    1  dxy    Ryd( 3d)     0.00070       2.57734
    19    C    1  dxz    Ryd( 3d)     0.00052       1.70829
    20    C    1  dyz    Ryd( 3d)     0.00057       1.65568
    21    C    1  dx2y2  Ryd( 3d)     0.00074       2.50542
    22    C    1  dz2    Ryd( 3d)     0.00048       2.09784

    23    C    2  S      Cor( 1S)     1.99872     -10.07167
    24    C    2  S      Val( 2S)     0.84833      -0.12808
    25    C    2  S      Ryd( 3S)     0.00209       0.86510
    26    C    2  S      Ryd( 4S)     0.00007       1.91253
    27    C    2  S      Ryd( 5S)     0.00003      21.63504
    28    C    2  px     Val( 2p)     0.99782      -0.06462
    29    C    2  px     Ryd( 4p)     0.00499       1.26723
    30    C    2  px     Ryd( 3p)     0.00035       0.61840
    31    C    2  px     Ryd( 5p)     0.00019       3.05528
    32    C    2  py     Val( 2p)     1.02033      -0.07375
    33    C    2  py     Ryd( 4p)     0.00875       1.13756
    34    C    2  py     Ryd( 3p)     0.00057       0.43214
    35    C    2  py     Ryd( 5p)     0.00014       3.03926
    36    C    2  pz     Val( 2p)     1.02654      -0.12112
    37    C    2  pz     Ryd( 4p)     0.00062       0.62597
    38    C    2  pz     Ryd( 3p)     0.00048       0.38301
    39    C    2  pz     Ryd( 5p)     0.00002       2.66764
    40    C    2  dxy    Ryd( 3d)     0.00116       2.43851
    41    C    2  dxz    Ryd( 3d)     0.00150       1.67876
    42    C    2  dyz    Ryd( 3d)     0.00072       1.67815
    43    C    2  dx2y2  Ryd( 3d)     0.00142       2.70073
    44    C    2  dz2    Ryd( 3d)     0.00056       2.09270

    45    C    3  S      Cor( 1S)     1.99843     -10.10454
    46    C    3  S      Val( 2S)     0.83149      -0.14080
    47    C    3  S      Ryd( 3S)     0.00148       0.89270
    48    C    3  S      Ryd( 4S)     0.00014       1.25666
    49    C    3  S      Ryd( 5S)     0.00002      22.27963
    50    C    3  px     Val( 2p)     0.77830      -0.06296
    51    C    3  px     Ryd( 4p)     0.00493       1.22094
    52    C    3  px     Ryd( 3p)     0.00023       0.87895
    53    C    3  px     Ryd( 5p)     0.00021       2.67784
    54    C    3  py     Val( 2p)     1.08142      -0.07997
    55    C    3  py     Ryd( 4p)     0.00646       1.15536
    56    C    3  py     Ryd( 3p)     0.00036       0.84559
    57    C    3  py     Ryd( 5p)     0.00014       2.71638
    58    C    3  pz     Val( 2p)     1.02191      -0.13097
    59    C    3  pz     Ryd( 3p)     0.00095       0.64283
    60    C    3  pz     Ryd( 4p)     0.00022       0.77486
    61    C    3  pz     Ryd( 5p)     0.00009       2.35648
    62    C    3  dxy    Ryd( 3d)     0.00150       2.47182
    63    C    3  dxz    Ryd( 3d)     0.00202       1.65790
    64    C    3  dyz    Ryd( 3d)     0.00069       1.70828
    65    C    3  dx2y2  Ryd( 3d)     0.00184       2.56447
    66    C    3  dz2    Ryd( 3d)     0.00086       2.05664

    67    C    4  S      Cor( 1S)     1.99909     -10.05203
    68    C    4  S      Val( 2S)     0.95068      -0.17960
    69    C    4  S      Ryd( 4S)     0.00151       0.91180
    70    C    4  S      Ryd( 3S)     0.00015       0.85836
    71    C    4  S      Ryd( 5S)     0.00001      22.75652
    72    C    4  px     Val( 2p)     1.05909      -0.06731
    73    C    4  px     Ryd( 4p)     0.00384       0.86583
    74    C    4  px     Ryd( 3p)     0.00028       0.43421
    75    C    4  px     Ryd( 5p)     0.00014       3.02533
    76    C    4  py     Val( 2p)     1.17376      -0.07422
    77    C    4  py     Ryd( 4p)     0.00497       1.14043
    78    C    4  py     Ryd( 3p)     0.00023       0.39533
    79    C    4  py     Ryd( 5p)     0.00010       3.03622
    80    C    4  pz     Val( 2p)     1.02242      -0.12491
    81    C    4  pz     Ryd( 4p)     0.00124       0.55438
    82    C    4  pz     Ryd( 3p)     0.00031       0.28360
    83    C    4  pz     Ryd( 5p)     0.00002       2.68765
    84    C    4  dxy    Ryd( 3d)     0.00078       2.57382
    85    C    4  dxz    Ryd( 3d)     0.00055       1.70445
    86    C    4  dyz    Ryd( 3d)     0.00052       1.64694
    87    C    4  dx2y2  Ryd( 3d)     0.00058       2.47965
    88    C    4  dz2    Ryd( 3d)     0.00045       2.04606

    89    C    5  S      Cor( 1S)     1.99908     -10.04901
    90    C    5  S      Val( 2S)     0.96304      -0.18639
    91    C    5  S      Ryd( 3S)     0.00145       0.81915
    92    C    5  S      Ryd( 4S)     0.00012       0.89894
    93    C    5  S      Ryd( 5S)     0.00001      22.99496
    94    C    5  px     Val( 2p)     1.11251      -0.06385
    95    C    5  px     Ryd( 4p)     0.00528       1.01241
    96    C    5  px     Ryd( 3p)     0.00028       0.40792
    97    C    5  px     Ryd( 5p)     0.00011       3.11802
    98    C    5  py     Val( 2p)     1.11791      -0.07133
    99    C    5  py     Ryd( 4p)     0.00464       0.89357
   100    C    5  py     Ryd( 3p)     0.00030       0.39506
   101    C    5  py     Ryd( 5p)     0.00011       3.13695
   102    C    5  pz     Val( 2p)     1.02795      -0.12241
   103    C    5  pz     Ryd( 4p)     0.00148       0.53681
   104    C    5  pz     Ryd( 3p)     0.00034       0.30464
   105    C    5  pz     Ryd( 5p)     0.00002       2.71303
   106    C    5  dxy    Ryd( 3d)     0.00067       2.46183
   107    C    5  dxz    Ryd( 3d)     0.00046       1.67270
   108    C    5  dyz    Ryd( 3d)     0.00053       1.66762
   109    C    5  dx2y2  Ryd( 3d)     0.00068       2.52965
   110    C    5  dz2    Ryd( 3d)     0.00043       2.01682

   111    C    6  S      Cor( 1S)     1.99878     -10.11859
   112    C    6  S      Val( 2S)     0.85263      -0.16477
   113    C    6  S      Ryd( 4S)     0.00092       0.91073
   114    C    6  S      Ryd( 3S)     0.00030       0.90884
   115    C    6  S      Ryd( 5S)     0.00002      22.85681
   116    C    6  px     Val( 2p)     0.78216      -0.04802
   117    C    6  px     Ryd( 4p)     0.00674       1.13647
   118    C    6  px     Ryd( 3p)     0.00034       0.68993
   119    C    6  px     Ryd( 5p)     0.00019       2.99948
   120    C    6  py     Val( 2p)     1.03179      -0.06005
   121    C    6  py     Ryd( 4p)     0.00421       1.06037
   122    C    6  py     Ryd( 3p)     0.00021       0.66699
   123    C    6  py     Ryd( 5p)     0.00011       2.99282
   124    C    6  pz     Val( 2p)     1.00508      -0.12474
   125    C    6  pz     Ryd( 4p)     0.00297       0.66756
   126    C    6  pz     Ryd( 3p)     0.00035       0.55787
   127    C    6  pz     Ryd( 5p)     0.00008       2.54124
   128    C    6  dxy    Ryd( 3d)     0.00186       2.47511
   129    C    6  dxz    Ryd( 3d)     0.00174       1.66543
   130    C    6  dyz    Ryd( 3d)     0.00075       1.65231
   131    C    6  dx2y2  Ryd( 3d)     0.00185       2.42057
   132    C    6  dz2    Ryd( 3d)     0.00065       2.01256

   133    H    7  S      Val( 1S)     0.77694       0.04329
   134    H    7  S      Ryd( 2S)     0.00082       0.83303
   135    H    7  S      Ryd( 3S)     0.00021       1.83730
   136    H    7  px     Ryd( 2p)     0.00012       2.02998
   137    H    7  py     Ryd( 2p)     0.00040       2.70056
   138    H    7  pz     Ryd( 2p)     0.00018       1.61952

   139    H    8  S      Val( 1S)     0.77829       0.04995
   140    H    8  S      Ryd( 2S)     0.00074       1.23732
   141    H    8  S      Ryd( 3S)     0.00019       1.49248
   142    H    8  px     Ryd( 2p)     0.00028       2.40012
   143    H    8  py     Ryd( 2p)     0.00024       2.32854
   144    H    8  pz     Ryd( 2p)     0.00019       1.62269

   145    C    9  S      Cor( 1S)     1.99924     -10.17978
   146    C    9  S      Val( 2S)     0.86699      -0.22120
   147    C    9  S      Ryd( 3S)     0.00232       0.68085
   148    C    9  S      Ryd( 4S)     0.00016       1.41693
   149    C    9  S      Ryd( 5S)     0.00002      22.54141
   150    C    9  px     Val( 2p)     0.94503      -0.07187
   151    C    9  px     Ryd( 4p)     0.00480       1.13271
   152    C    9  px     Ryd( 3p)     0.00051       0.59988
   153    C    9  px     Ryd( 5p)     0.00012       2.78477
   154    C    9  py     Val( 2p)     0.69754      -0.04630
   155    C    9  py     Ryd( 4p)     0.01339       0.77782
   156    C    9  py     Ryd( 3p)     0.00082       0.53871
   157    C    9  py     Ryd( 5p)     0.00009       2.86748
   158    C    9  pz     Val( 2p)     0.88728      -0.14631
   159    C    9  pz     Ryd( 4p)     0.00183       0.60770
   160    C    9  pz     Ryd( 3p)     0.00038       0.53426
   161    C    9  pz     Ryd( 5p)     0.00009       2.46893
   162    C    9  dxy    Ryd( 3d)     0.00219       2.41254
   163    C    9  dxz    Ryd( 3d)     0.00172       1.63679
   164    C    9  dyz    Ryd( 3d)     0.00229       1.60286
   165    C    9  dx2y2  Ryd( 3d)     0.00310       2.18835
   166    C    9  dz2    Ryd( 3d)     0.00078       1.89253

   167    O   10  S      Cor( 1S)     1.99978     -18.98928
   168    O   10  S      Val( 2S)     1.66364      -0.93271
   169    O   10  S      Ryd( 3S)     0.00202       0.92294
   170    O   10  S      Ryd( 4S)     0.00007       1.12153
   171    O   10  S      Ryd( 5S)     0.00000      49.62499
   172    O   10  px     Val( 2p)     1.44959      -0.32996
   173    O   10  px     Ryd( 3p)     0.00190       0.62662
   174    O   10  px     Ryd( 4p)     0.00050       1.13777
   175    O   10  px     Ryd( 5p)     0.00004       5.02756
   176    O   10  py     Val( 2p)     1.63431      -0.35154
   177    O   10  py     Ryd( 3p)     0.00298       0.47942
   178    O   10  py     Ryd( 4p)     0.00069       1.12510
   179    O   10  py     Ryd( 5p)     0.00009       4.98177
   180    O   10  pz     Val( 2p)     1.75146      -0.33914
   181    O   10  pz     Ryd( 3p)     0.00098       0.38296
   182    O   10  pz     Ryd( 4p)     0.00052       0.90973
   183    O   10  pz     Ryd( 5p)     0.00001       4.86045
   184    O   10  dxy    Ryd( 3d)     0.00078       3.14875
   185    O   10  dxz    Ryd( 3d)     0.00046       2.95369
   186    O   10  dyz    Ryd( 3d)     0.00083       2.94228
   187    O   10  dx2y2  Ryd( 3d)     0.00114       3.36828
   188    O   10  dz2    Ryd( 3d)     0.00064       3.13777

   189    N   11  S      Cor( 1S)     1.99936     -14.13219
   190    N   11  S      Val( 2S)     1.43798      -0.55852
   191    N   11  S      Ryd( 4S)     0.00145       1.31540
   192    N   11  S      Ryd( 3S)     0.00010       1.30373
   193    N   11  S      Ryd( 5S)     0.00000      35.19596
   194    N   11  px     Val( 2p)     1.17956      -0.16816
   195    N   11  px     Ryd( 4p)     0.00310       0.86880
   196    N   11  px     Ryd( 3p)     0.00020       0.86369
   197    N   11  px     Ryd( 5p)     0.00005       4.34781
   198    N   11  py     Val( 2p)     1.61815      -0.23451
   199    N   11  py     Ryd( 3p)     0.00447       0.57048
   200    N   11  py     Ryd( 4p)     0.00030       0.72750
   201    N   11  py     Ryd( 5p)     0.00008       4.07955
   202    N   11  pz     Val( 2p)     1.23878      -0.19207
   203    N   11  pz     Ryd( 3p)     0.00072       0.55483
   204    N   11  pz     Ryd( 4p)     0.00014       0.68513
   205    N   11  pz     Ryd( 5p)     0.00003       3.79331
   206    N   11  dxy    Ryd( 3d)     0.00170       2.98940
   207    N   11  dxz    Ryd( 3d)     0.00034       2.22100
   208    N   11  dyz    Ryd( 3d)     0.00206       2.20311
   209    N   11  dx2y2  Ryd( 3d)     0.00139       2.54919
   210    N   11  dz2    Ryd( 3d)     0.00092       2.59725

   211    C   12  S      Cor( 1S)     1.99922     -10.05006
   212    C   12  S      Val( 2S)     1.09649      -0.27480
   213    C   12  S      Ryd( 4S)     0.00058       0.94224
   214    C   12  S      Ryd( 3S)     0.00011       0.62717
   215    C   12  S      Ryd( 5S)     0.00000      23.26362
   216    C   12  px     Val( 2p)     1.06047      -0.12234
   217    C   12  px     Ryd( 4p)     0.00114       0.48652
   218    C   12  px     Ryd( 3p)     0.00020       0.23536
   219    C   12  px     Ryd( 5p)     0.00009       2.98293
   220    C   12  py     Val( 2p)     1.22860      -0.11942
   221    C   12  py     Ryd( 4p)     0.00207       0.51826
   222    C   12  py     Ryd( 3p)     0.00015       0.26245
   223    C   12  py     Ryd( 5p)     0.00006       3.06171
   224    C   12  pz     Val( 2p)     1.22261      -0.12090
   225    C   12  pz     Ryd( 4p)     0.00073       0.49113
   226    C   12  pz     Ryd( 3p)     0.00006       0.21871
   227    C   12  pz     Ryd( 5p)     0.00006       3.07158
   228    C   12  dxy    Ryd( 3d)     0.00044       2.03278
   229    C   12  dxz    Ryd( 3d)     0.00050       1.91983
   230    C   12  dyz    Ryd( 3d)     0.00056       2.01300
   231    C   12  dx2y2  Ryd( 3d)     0.00082       2.23133
   232    C   12  dz2    Ryd( 3d)     0.00085       2.17612

   233    H   13  S      Val( 1S)     0.77866       0.02615
   234    H   13  S      Ryd( 2S)     0.00072       0.63786
   235    H   13  S      Ryd( 3S)     0.00011       2.04683
   236    H   13  px     Ryd( 2p)     0.00018       1.99207
   237    H   13  py     Ryd( 2p)     0.00016       2.13320
   238    H   13  pz     Ryd( 2p)     0.00014       2.06230

   239    H   14  S      Val( 1S)     0.77200       0.02486
   240    H   14  S      Ryd( 2S)     0.00061       0.60089
   241    H   14  S      Ryd( 3S)     0.00012       2.07939
   242    H   14  px     Ryd( 2p)     0.00017       1.76532
   243    H   14  py     Ryd( 2p)     0.00009       1.78799
   244    H   14  pz     Ryd( 2p)     0.00026       2.62066

   245    H   15  S      Val( 1S)     0.76397       0.03276
   246    H   15  S      Ryd( 2S)     0.00073       0.68970
   247    H   15  S      Ryd( 3S)     0.00011       2.00940
   248    H   15  px     Ryd( 2p)     0.00014       1.73595
   249    H   15  py     Ryd( 2p)     0.00024       2.59520
   250    H   15  pz     Ryd( 2p)     0.00010       1.85112

   251    H   16  S      Val( 1S)     0.76728       0.05318
   252    H   16  S      Ryd( 2S)     0.00295       0.34880
   253    H   16  S      Ryd( 3S)     0.00029       2.34335
   254    H   16  px     Ryd( 2p)     0.00014       2.06939
   255    H   16  py     Ryd( 2p)     0.00040       2.73933
   256    H   16  pz     Ryd( 2p)     0.00015       1.63262

   257    O   17  S      Cor( 1S)     1.99976     -18.94795
   258    O   17  S      Val( 2S)     1.62882      -0.87113
   259    O   17  S      Ryd( 3S)     0.00327       1.03685
   260    O   17  S      Ryd( 4S)     0.00011       1.50857
   261    O   17  S      Ryd( 5S)     0.00000      49.57094
   262    O   17  px     Val( 2p)     1.46410      -0.29404
   263    O   17  px     Ryd( 3p)     0.00339       0.72200
   264    O   17  px     Ryd( 4p)     0.00067       0.83807
   265    O   17  px     Ryd( 5p)     0.00003       5.09987
   266    O   17  py     Val( 2p)     1.88518      -0.30174
   267    O   17  py     Ryd( 3p)     0.00571       0.62679
   268    O   17  py     Ryd( 4p)     0.00021       0.85266
   269    O   17  py     Ryd( 5p)     0.00001       4.99601
   270    O   17  pz     Val( 2p)     1.58692      -0.30782
   271    O   17  pz     Ryd( 3p)     0.00175       0.65782
   272    O   17  pz     Ryd( 4p)     0.00044       0.83420
   273    O   17  pz     Ryd( 5p)     0.00004       5.10297
   274    O   17  dxy    Ryd( 3d)     0.00038       3.15969
   275    O   17  dxz    Ryd( 3d)     0.00095       3.19701
   276    O   17  dyz    Ryd( 3d)     0.00073       2.98291
   277    O   17  dx2y2  Ryd( 3d)     0.00050       3.24734
   278    O   17  dz2    Ryd( 3d)     0.00118       3.29284

   279    C   18  S      Cor( 1S)     1.99918     -10.08384
   280    C   18  S      Val( 2S)     1.06732      -0.25559
   281    C   18  S      Ryd( 4S)     0.00217       0.88300
   282    C   18  S      Ryd( 3S)     0.00018       0.86301
   283    C   18  S      Ryd( 5S)     0.00000      23.06851
   284    C   18  px     Val( 2p)     1.11135      -0.09985
   285    C   18  px     Ryd( 3p)     0.00117       0.72748
   286    C   18  px     Ryd( 4p)     0.00036       1.29020
   287    C   18  px     Ryd( 5p)     0.00007       1.84944
   288    C   18  py     Val( 2p)     1.17540      -0.10242
   289    C   18  py     Ryd( 3p)     0.00041       0.61938
   290    C   18  py     Ryd( 4p)     0.00063       1.27554
   291    C   18  py     Ryd( 5p)     0.00003       1.94224
   292    C   18  pz     Val( 2p)     0.81945      -0.08007
   293    C   18  pz     Ryd( 3p)     0.00309       0.58638
   294    C   18  pz     Ryd( 4p)     0.00030       1.32852
   295    C   18  pz     Ryd( 5p)     0.00005       1.87367
   296    C   18  dxy    Ryd( 3d)     0.00088       1.98531
   297    C   18  dxz    Ryd( 3d)     0.00170       2.03189
   298    C   18  dyz    Ryd( 3d)     0.00198       2.14367
   299    C   18  dx2y2  Ryd( 3d)     0.00098       2.10543
   300    C   18  dz2    Ryd( 3d)     0.00166       1.99809

   301    H   19  S      Val( 1S)     0.81700       0.02213
   302    H   19  S      Ryd( 2S)     0.00046       0.49173
   303    H   19  S      Ryd( 3S)     0.00013       2.16400
   304    H   19  px     Ryd( 2p)     0.00036       2.61494
   305    H   19  py     Ryd( 2p)     0.00019       1.83757
   306    H   19  pz     Ryd( 2p)     0.00007       1.72313

   307    H   20  S      Val( 1S)     0.83588       0.01460
   308    H   20  S      Ryd( 2S)     0.00142       0.51263
   309    H   20  S      Ryd( 3S)     0.00016       2.22404
   310    H   20  px     Ryd( 2p)     0.00016       1.78712
   311    H   20  py     Ryd( 2p)     0.00037       2.47465
   312    H   20  pz     Ryd( 2p)     0.00012       1.99260

   313    H   21  S      Val( 1S)     0.83473       0.01567
   314    H   21  S      Ryd( 2S)     0.00144       0.51597
   315    H   21  S      Ryd( 3S)     0.00015       2.22369
   316    H   21  px     Ryd( 2p)     0.00025       1.98254
   317    H   21  py     Ryd( 2p)     0.00028       2.27815
   318    H   21  pz     Ryd( 2p)     0.00012       1.99616

 WARNING:  1 low occupancy (<1.9990e) core orbital  found on  C    1
           1 low occupancy (<1.9990e) core orbital  found on  C    2
           1 low occupancy (<1.9990e) core orbital  found on  C    3
           1 low occupancy (<1.9990e) core orbital  found on  C    6

 WARNING:  Population inversion found on atom  C    1
           Population inversion found on atom  C    2
           Population inversion found on atom  C    3
           Population inversion found on atom  C    4
           Population inversion found on atom  C    5
           Population inversion found on atom  C    6
           Population inversion found on atom  C    9
           Population inversion found on atom  N   11
           Population inversion found on atom  C   12
           Population inversion found on atom  C   18


 Summary of Natural Population Analysis:                  
                                                          
                                       Natural Population 
                Natural  -----------------------------------------------
    Atom  No    Charge         Core      Valence    Rydberg      Total
 -----------------------------------------------------------------------
      C    1   -0.23517      1.99894     4.21955    0.01667     6.23517
      C    2    0.08461      1.99872     3.89303    0.02365     5.91539
      C    3    0.26632      1.99843     3.71312    0.02213     5.73368
      C    4   -0.22072      1.99909     4.20596    0.01567     6.22072
      C    5   -0.23740      1.99908     4.22141    0.01691     6.23740
      C    6    0.30628      1.99878     3.67167    0.02327     5.69372
      H    7    0.22133      0.00000     0.77694    0.00173     0.77867
      H    8    0.22006      0.00000     0.77829    0.00164     0.77994
      C    9    0.56930      1.99924     3.39684    0.03463     5.43070
      O   10   -0.51242      1.99978     6.49900    0.01365     8.51242
      N   11   -0.49088      1.99936     5.47448    0.01705     7.49088
      C   12   -0.61578      1.99922     4.60816    0.00841     6.61578
      H   13    0.22002      0.00000     0.77866    0.00131     0.77998
      H   14    0.22675      0.00000     0.77200    0.00125     0.77325
      H   15    0.23472      0.00000     0.76397    0.00131     0.76528
      H   16    0.22879      0.00000     0.76728    0.00393     0.77121
      O   17   -0.58417      1.99976     6.56503    0.01939     8.58417
      C   18   -0.18835      1.99918     4.17352    0.01565     6.18835
      H   19    0.18177      0.00000     0.81700    0.00122     0.81823
      H   20    0.16189      0.00000     0.83588    0.00223     0.83811
      H   21    0.16304      0.00000     0.83473    0.00224     0.83696
 =======================================================================
   * Total *    0.00000     23.98958    61.76649    0.24393    86.00000

                                 Natural Population      
 --------------------------------------------------------
   Core                      23.98958 ( 99.9566% of  24)
   Valence                   61.76649 ( 99.6234% of  62)
   Natural Minimal Basis     85.75607 ( 99.7164% of  86)
   Natural Rydberg Basis      0.24393 (  0.2836% of  86)
 --------------------------------------------------------

    Atom  No          Natural Electron Configuration
 ----------------------------------------------------------------------------
      C    1      [core]2S( 0.95)2p( 3.27)4p( 0.01)
      C    2      [core]2S( 0.85)2p( 3.04)3d( 0.01)4p( 0.01)
      C    3      [core]2S( 0.83)2p( 2.88)3d( 0.01)4p( 0.01)
      C    4      [core]2S( 0.95)2p( 3.26)4p( 0.01)
      C    5      [core]2S( 0.96)2p( 3.26)4p( 0.01)
      C    6      [core]2S( 0.85)2p( 2.82)3d( 0.01)4p( 0.01)
      H    7            1S( 0.78)
      H    8            1S( 0.78)
      C    9      [core]2S( 0.87)2p( 2.53)3d( 0.01)4p( 0.02)
      O   10      [core]2S( 1.66)2p( 4.84)3p( 0.01)
      N   11      [core]2S( 1.44)2p( 4.04)3p( 0.01)3d( 0.01)
      C   12      [core]2S( 1.10)2p( 3.51)
      H   13            1S( 0.78)
      H   14            1S( 0.77)
      H   15            1S( 0.76)
      H   16            1S( 0.77)
      O   17      [core]2S( 1.63)2p( 4.94)3p( 0.01)
      C   18      [core]2S( 1.07)2p( 3.11)3d( 0.01)
      H   19            1S( 0.82)
      H   20            1S( 0.84)
      H   21            1S( 0.83)


 NBO analysis skipped by request.
 Calling FoFJK, ICntrl=      2127 FMM=F ISym2X=0 I1Cent= 0 IOpClX= 0 NMat=1 NMatS=1 NMatT=0.
 ***** Axes restored to original set *****
 -------------------------------------------------------------------
 Center     Atomic                   Forces (Hartrees/Bohr)
 Number     Number              X              Y              Z
 -------------------------------------------------------------------
      1        6          -0.005676449    0.018019335   -0.003787901
[...]
 002506,-0.00254469,0.00071533,-0.00242318,-0.00130961,-0.00026718,-0.0
 0183066,0.00289937,-0.00072053,0.00228656,-0.00007699,0.00034508,-0.03
 104148,-0.17784949,0.00709120,0.01215264,0.39529532,-0.00078798,0.0003
 6441,0.00415921,-0.00738289,-0.00015117,0.00781068,-0.01806920,0.00460
 213,-0.05522068,-0.00450018,0.00117940,-0.00451047,0.00029363,0.000681
 60,0.00534586,0.00049939,-0.00096004,-0.00192660,0.00050202,-0.0005539
 4,-0.00330498,-0.00034963,0.00016081,0.00160652,-0.00023288,0.00897976
 ,-0.07197444,0.02928284,-0.02756601,0.08445727,-0.02421460,0.04214170,
 -0.00566685,-0.11204586,0.06811314,-0.01008561,0.00332713,0.02360657,-
 0.00306074,-0.00066762,-0.00016243,-0.00030801,0.00427096,0.00681511,-
 0.00014236,-0.00575449,-0.01478847,0.00042535,0.00003895,0.00014162,0.
 00000828,0.00054777,0.00005423,0.00001470,-0.43229339,-0.10462810,-0.0
 1986467,-0.04084784,-0.07884021,0.00121558,0.63344680,0.01812061,-0.00
 227659,0.00154134,0.03123533,-0.21290708,0.01600719,-0.02238731,-0.059
 49131,0.00484824,-0.00400470,-0.00588037,0.00049536,-0.00523378,-0.002
 70746,-0.00032032,-0.00056227,0.01056876,-0.00052200,0.00095598,-0.001
 65292,0.00020839,0.00011875,-0.00010524,0.00004741,-0.08047174,-0.1275
 4909,-0.00207049,-0.02079926,-0.06257381,0.00673692,0.06233992,0.45312
 776,-0.00349185,0.00352256,-0.00237978,-0.00674896,0.01905334,-0.06680
 463,0.00110227,0.00864446,0.01381175,0.00003887,0.00081284,0.00317743,
 0.00094805,0.00067476,-0.00145724,-0.00086200,-0.00169573,0.00539418,-
 0.00006535,0.00014155,-0.00023656,0.00000890,0.00004201,0.00030631,-0.
 02205326,-0.00406400,-0.07845795,-0.00403760,0.00194561,0.03034504,0.0
 3901214,-0.02747896,0.09830493,0.00031798,0.00084970,-0.00012455,-0.00
 239857,-0.00356625,-0.00067469,-0.00157664,-0.00127749,-0.00008337,0.0
 0206856,-0.00081359,0.00011821,-0.00106490,-0.00029858,-0.00005174,-0.
 00002386,0.00048691,-0.00002236,-0.00001862,0.00003914,-0.00001840,0.0
 0009438,-0.00001770,0.00004287,-0.18424240,0.07390202,-0.01618348,0.00
 998636,-0.00378631,0.00109096,-0.02975334,0.01709947,-0.00412074,0.525
 25941,0.00078636,0.00077416,0.00007575,-0.00350393,0.00125343,0.000475
 49,-0.00723951,-0.00343584,-0.00021294,0.00230759,-0.00044442,0.000369
 04,-0.00077917,-0.00043018,-0.00003536,0.00006457,0.00065857,-0.000080
 31,-0.00006056,0.00013563,-0.00000265,0.00017197,-0.00001315,-0.000021
 26,0.06925123,-0.12986846,0.01120644,0.03415278,-0.03156225,0.00575833
 ,-0.00488815,0.01009576,-0.00118845,0.03859911,0.56924236,-0.00011935,
 0.00008165,0.00087740,-0.00068101,0.00046851,0.00959153,0.00045867,0.0
 0027952,0.00083692,-0.00016504,0.00011210,0.00150512,-0.00000733,0.000
 00433,-0.00011143,0.00001536,-0.00004631,-0.00028199,-0.00000938,0.000
 00554,0.00016013,0.00002570,-0.00003697,-0.00039998,-0.01576228,0.0115
 9007,-0.07154544,-0.00234469,0.00262863,0.00048683,-0.00213350,0.00062
 871,0.00119412,-0.00421987,-0.00002882,0.53354376,0.00035795,0.0001441
 3,-0.00016380,-0.00074989,0.00062577,-0.00181909,-0.00159267,0.0005520
 2,-0.00033735,0.00028443,-0.00027423,-0.00009788,-0.00034886,-0.000008
 43,-0.00001726,0.00023604,0.00031904,0.00005108,-0.00000131,0.00005399
 ,-0.00002100,0.00000148,0.00000772,0.00004951,-0.02176204,-0.00411440,
 0.02056834,0.00216840,-0.00149066,-0.00035730,-0.00087708,0.00250655,0
 .00060523,-0.14373074,-0.01844854,0.12717607,0.16048044,-0.00045226,0.
 00009919,0.00010449,0.00081237,-0.00036151,0.00064644,0.00145129,-0.00
 072056,0.00022844,-0.00049194,0.00059721,0.00016459,0.00062307,0.00007
 640,0.00002047,-0.00026106,-0.00056656,0.00002099,0.00000159,-0.000031
 24,0.00000380,0.00000019,0.00000110,-0.00004497,0.01239782,0.00202631,
 -0.01694976,-0.00159565,0.00096816,0.00053414,0.00007077,-0.00029344,0
 .00029300,-0.01823414,-0.05107715,0.02498104,0.01824850,0.04957830,-0.
 00006648,0.00004605,-0.00002970,-0.00032178,-0.00024581,-0.00062617,0.
 00034213,-0.00023964,0.00004156,0.00002903,0.00003269,-0.00002384,0.00
 001064,-0.00001877,0.00001166,-0.00007043,-0.00003197,0.00001355,0.000
 00737,-0.00001650,-0.00000393,0.00000129,0.00000043,0.00000424,-0.0028
 7491,-0.00142013,0.00624690,-0.00005726,-0.00022229,0.00041991,-0.0015
 7257,0.00036998,-0.00036263,0.12698166,0.02514957,-0.20234895,-0.13857
 417,-0.02746057,0.21877749,0.00030642,0.00018338,0.00018759,-0.0010682
 4,0.00088716,0.00160191,-0.00151905,0.00052244,-0.00001826,0.00025462,
 -0.00023058,0.00018598,-0.00033115,-0.00001235,-0.00003793,0.00022747,
 0.00028983,-0.00006963,-0.00000280,0.00005312,0.00001172,0.00000972,-0
 .00000111,-0.00004851,-0.01810380,-0.00827553,-0.02320785,0.00201188,-
 0.00138809,0.00087754,-0.00098140,0.00237621,-0.00116057,-0.10494047,-
 0.03301803,-0.10728259,0.01083622,0.00571232,0.01691192,0.11797886,-0.
 00040334,0.00006461,-0.00018845,0.00094724,-0.00041315,-0.00050840,0.0
 0134965,-0.00066512,0.00013028,-0.00044305,0.00053170,-0.00034164,0.00
 060164,0.00008279,0.00006725,-0.00024237,-0.00054484,0.00003996,0.0000
 0051,-0.00002729,0.00000084,-0.00000722,0.00000899,0.00004273,0.009414
 65,0.00545737,0.01859239,-0.00142055,0.00085319,-0.00085363,0.00038867
 ,-0.00037347,-0.00023958,-0.03280471,-0.06593444,-0.05784955,0.0021754
 9,0.00051117,0.00372151,0.03418970,0.06591124,0.00019737,-0.00003235,0
 .00005599,0.00008311,0.00036314,-0.00025525,-0.00085401,0.00045563,-0.
 00008686,0.00009822,-0.00017451,0.00007127,-0.00017872,0.00000377,-0.0
 0001231,0.00015257,0.00018479,0.00000044,-0.00000715,0.00002982,-0.000
 00638,0.00000093,-0.00000152,-0.00001188,-0.00286368,0.00024257,-0.000
 84092,0.00058997,-0.00008591,0.00069279,0.00141802,0.00004850,-0.00018
 125,-0.10712896,-0.05805140,-0.22626583,-0.01227087,-0.00709048,-0.021
 31186,0.11812735,0.06379607,0.24492985,0.00003486,-0.00016247,0.000020
 93,0.00013576,-0.00004055,0.00005063,0.00080096,0.00146303,-0.00011272
 ,-0.00051934,-0.00011314,-0.00004521,-0.00004388,0.00010247,-0.0000084
 1,0.00009149,0.00008746,-0.00000053,0.00002143,-0.00002046,0.00000315,
 -0.00005076,0.00000139,-0.00000254,0.01058434,0.02759556,-0.00140284,-
 0.00554100,0.00412800,-0.00092918,0.00096880,-0.00116605,0.00018406,-0
 .06994647,-0.07741433,0.00505950,-0.00510005,-0.01843752,-0.00076116,-
 0.00448315,-0.01388850,0.00271031,0.07315296,-0.00002501,0.00014209,-0
 .00001856,0.00047117,-0.00011323,0.00000947,-0.00124276,-0.00019453,-0
 .00003382,0.00042838,0.00013500,0.00003706,0.00004028,-0.00007559,0.00
 000523,-0.00015088,-0.00006411,-0.00000645,-0.00002606,0.00003501,-0.0
 0000481,0.00004212,-0.00000190,0.00000168,-0.00799947,-0.01918433,0.00
 083021,0.00422089,-0.00151431,0.00059356,-0.00191945,0.00197071,-0.000
 33477,-0.07023689,-0.29941435,0.01717157,-0.00032411,-0.00081646,0.000
 32965,-0.00131667,-0.00547566,0.00031503,0.07785744,0.32460232,0.00000
 854,-0.00002996,-0.00003687,0.00000436,-0.00003245,-0.00043165,0.00013
 172,0.00018951,0.00055936,-0.00009425,-0.00000776,0.00014687,-0.000002
 89,0.00001036,-0.00005559,0.00002109,0.00001332,0.00000270,0.00000366,
 -0.00000435,0.00000633,-0.00000619,-0.00000170,-0.00002228,0.00182435,
 0.00376462,-0.00293416,-0.00093669,0.00058442,0.00105742,0.00025160,-0
 .00027263,0.00007082,0.00440867,0.01658000,-0.04731647,0.00522937,0.02
 456230,-0.00081160,-0.00606164,-0.02644632,0.00322978,-0.00475481,-0.0
 1891470,0.04651679,-0.17222920,-0.14066513,0.00100161,-0.01488816,-0.0
 2661102,0.00095708,-0.00281866,0.00229099,-0.00094373,-0.00075262,0.00
 083016,-0.00004435,-0.00004311,0.00246672,-0.00070851,0.01160369,0.006
 78208,0.00008807,0.00001098,-0.00011365,0.00007428,0.00037405,0.000570
 73,-0.00002388,-0.00045440,-0.00107447,0.00011457,-0.00194090,0.000185
 61,-0.00022904,0.00303562,0.00046003,0.00051096,0.00007702,0.00007337,
 -0.00002579,0.00000963,-0.00001623,-0.00000501,0.00000061,-0.00001375,
 0.00000912,-0.00003071,0.00003526,-0.00000628,0.18313246,-0.13997052,-
 0.22845983,0.00641410,0.00359412,0.00819154,-0.00020023,0.00154747,0.0
 0065104,0.00062175,0.00084928,-0.00010819,-0.00002196,0.00323026,-0.00
 381567,0.00114074,-0.02100810,-0.01464100,-0.00012815,-0.00006414,-0.0
 0002454,-0.00007238,-0.00102333,-0.00082216,-0.00000672,-0.00001162,0.
 00042560,-0.00009971,0.00096414,-0.00000841,0.00013740,-0.00105043,0.0
 0036875,-0.00045153,-0.00005226,-0.00005235,0.00002841,-0.00003421,0.0
 0001572,0.00000099,-0.00002475,0.00001348,-0.00000909,0.00001799,-0.00
 001409,0.00000337,0.15347917,0.23634146,0.00093830,0.00635614,-0.03052
 509,-0.00177623,-0.00269156,0.00280149,-0.00087689,0.00068248,0.005975
 83,-0.00004604,-0.00002376,-0.00112787,-0.00077821,0.00107750,0.005677
 74,0.00260358,0.00216567,0.00311355,0.00006992,-0.00007636,-0.00075270
 ,0.00012032,0.00012493,0.00003651,0.00001832,-0.00018746,-0.00064686,-
 0.00029916,0.00007317,0.00059793,0.00064787,-0.00032706,-0.00357925,-0
 .00001444,0.00003879,0.00030440,-0.00004388,0.00000396,-0.00000837,0.0
 0005060,-0.00000966,0.00000291,-0.00000472,0.00000479,0.00000591,-0.00
 056094,-0.00678167,0.02210233,-0.02490252,0.01631839,-0.00418607,-0.00
 035378,-0.00034234,-0.00054805,0.00264037,0.00234238,0.00012465,0.0037
 7971,-0.00385045,0.00038548,-0.06004987,-0.00250485,-0.00524372,-0.250
 30443,0.07056403,-0.02363622,-0.00125509,0.00002684,-0.00013119,0.0012
 1582,0.00131782,0.00022129,-0.00302902,-0.00538405,0.00029362,-0.00637
 972,0.00712251,-0.00120917,0.00112670,-0.00020428,0.00002735,-0.000148
 13,-0.00007524,0.00001686,-0.00026631,0.00020072,0.00002635,-0.0002474
 1,0.00018269,-0.00010384,-0.00008971,0.00018352,-0.00002477,-0.0008205
 1,-0.00033879,0.00022046,0.52539692,0.04483331,-0.00863662,0.00519882,
 -0.00673096,-0.00661884,0.00064647,0.00086493,0.00362150,-0.00038496,0
 .00053899,-0.00785741,0.00105736,-0.03496465,0.01500304,-0.00367781,0.
 02990615,-0.12350988,0.00991449,-0.00133046,0.00029631,-0.00010958,0.0
 0053632,0.00170971,-0.00037393,-0.00058973,-0.00014694,-0.00009792,0.0
 0180566,0.00003518,0.00018708,0.00249516,-0.00003844,0.00030174,0.0000
 9385,0.00006374,-0.00002202,0.00002052,0.00001610,0.00000525,0.0000126
 3,0.00002180,-0.00000552,-0.00003172,0.00002059,-0.00000370,-0.0018882
 5,0.00160207,-0.00058305,0.05445008,0.32633684,-0.00676677,0.00284544,
 0.00711704,0.00002983,0.00117334,0.00655251,0.00025691,-0.00026216,-0.
 00137631,-0.00001175,0.00069491,0.00327329,-0.00230755,-0.00100036,0.0
 0614916,-0.01995394,0.01326983,-0.04408932,-0.00000800,0.00000262,0.00
 030051,0.00029222,-0.00030969,-0.00285979,-0.00013971,-0.00049331,-0.0
 0065654,-0.00072704,0.00062552,0.00033693,-0.00021709,0.00007901,0.000
 99711,0.00000125,-0.00003611,-0.00026300,0.00002491,-0.00002154,0.0000
 1149,-0.00007070,0.00005021,-0.00001303,-0.00000526,0.00001407,0.00000
 705,0.00036039,-0.00045518,-0.00304686,0.03284942,-0.01893810,0.071907
 42,0.00249680,-0.00015347,0.00028835,-0.00065935,-0.00169919,0.0000711
 3,-0.00062676,-0.00000602,-0.00008977,-0.00084700,-0.00146404,-0.00006
 801,0.00002039,0.00458702,-0.00058956,-0.04934599,-0.02519466,-0.00137
 271,-0.00012508,0.00017566,-0.00001104,-0.00013213,-0.00042171,0.00008
 310,0.00052702,0.00106676,-0.00006073,0.00153526,-0.00174580,0.0003187
 4,0.00040674,-0.00020479,0.00007505,0.00006168,0.00004727,-0.00000259,
 0.00008071,-0.00005624,-0.00000881,0.00007732,-0.00005181,0.00003146,0
 .00002330,-0.00005093,0.00000564,-0.00189525,-0.00082413,-0.00006947,-
 0.13874310,-0.04722705,-0.00233153,0.53827438,0.00837588,0.00109597,0.
 00051661,-0.00070165,-0.00077886,0.00004399,-0.00082172,0.00097643,-0.
 00011466,0.00064528,-0.00010999,0.00020673,0.00428806,-0.00048433,0.00
 059021,-0.00336789,0.01129335,-0.00175858,0.00037685,0.00001463,0.0000
 1319,-0.00005616,0.00019275,-0.00008334,0.00074009,0.00143630,-0.00006
 007,0.00175824,-0.00212601,0.00030046,0.00002868,-0.00030734,0.0000049
 0,0.00002926,0.00001410,0.00000467,0.00007255,-0.00004531,-0.00000195,
 0.00007058,-0.00004393,0.00002204,0.00003474,-0.00006052,0.00000935,0.
 00184275,-0.00072378,0.00020392,-0.08014277,-0.16410143,0.00293318,-0.
 08533059,0.51924868,-0.00048380,-0.00018717,-0.00085279,-0.00001949,-0
 .00003864,0.00034582,-0.00001556,-0.00004666,0.00046607,-0.00025878,0.
 00003234,0.00155980,-0.00056300,0.00061500,0.00202950,-0.00334845,-0.0
 0355871,-0.00502283,-0.00002916,-0.00000353,-0.00018651,0.00005004,-0.
 00011350,-0.00066211,-0.00003139,-0.00003339,0.00009559,0.00000142,0.0
 0001126,-0.00041160,0.00005395,-0.00001432,-0.00027270,-0.00000087,0.0
 0000624,0.00003940,-0.00000020,0.00000413,0.00000011,0.00000009,-0.000
 00476,0.00000212,-0.00000213,0.00000227,0.00001059,-0.00031083,-0.0000
 1614,-0.00017394,0.00064779,0.00564818,-0.05910822,0.00576529,-0.00316
 649,0.56272181,0.00020212,-0.00044205,0.00003080,0.00004325,0.00002835
 ,-0.00001387,0.00016723,-0.00000686,0.00002057,-0.00008515,-0.00038960
 ,0.00002637,-0.00115736,0.00059409,-0.00016631,0.00070951,-0.00403233,
 0.00036749,-0.00010931,0.00002536,-0.00000779,0.00000427,-0.00004425,0
 .00000274,-0.00000592,-0.00008183,0.00000522,-0.00019327,0.00018336,-0
 .00003023,-0.00009591,0.00004955,-0.00001597,-0.00001365,-0.00000991,0
 .00000036,-0.00001596,0.00001046,0.00000265,-0.00001486,0.00000943,-0.
 00000701,-0.00000244,0.00000754,-0.00000092,0.00016090,0.00005570,0.00
 004828,-0.03273154,0.00401810,-0.00308564,-0.24217207,0.11525753,-0.02
 623306,0.27505723,0.00016704,-0.00117346,0.00014841,-0.00023143,0.0005
 9355,-0.00005653,0.00015410,0.00006670,-0.00000007,0.00006856,-0.00040
 751,0.00004466,-0.00124053,0.00055377,-0.00013381,-0.00271610,-0.00339
 138,0.00014395,-0.00009664,0.00002309,-0.00001398,0.00002492,-0.000029
 86,0.00000652,-0.00015633,-0.00007891,-0.00000389,0.00007650,0.0001409
 8,-0.00000900,0.00010584,-0.00007050,0.00001906,0.00000766,0.00000359,
 -0.00000034,0.00000247,-0.00000021,-0.00000155,0.00000186,0.00000027,0
 .00000193,-0.00000396,0.00000172,-0.00000044,0.00045623,0.00069552,-0.
 00006927,-0.03372010,0.00986342,-0.00365224,0.12843152,-0.11939463,0.0
 1681447,-0.11925441,0.12687706,-0.00002427,0.00009815,0.00030297,0.000
 00965,-0.00003508,0.00018393,0.00000600,-0.00001333,-0.00007289,-0.000
 01509,0.00000682,0.00002112,-0.00000022,0.00001754,0.00020467,0.000248
 75,0.00003552,0.00069338,0.00000327,-0.00000388,-0.00004227,-0.0000035
 1,0.00000081,0.00001908,0.00001197,0.00000225,0.00002129,-0.00002053,-
 0.00000020,-0.00002991,-0.00002108,0.00001439,0.00004036,-0.00000123,-
 0.00000178,-0.00000700,0.00000027,-0.00000003,0.00000072,-0.00000322,0
 .00000168,-0.00000086,0.00000012,0.00000051,0.00000041,0.00001204,-0.0
 0010228,-0.00047510,0.00033088,-0.00053822,0.00033288,-0.02742577,0.01
 572730,-0.05441479,0.02964462,-0.01710405,0.05065470,0.00060306,0.0011
 6677,0.00001158,-0.00096418,-0.00004674,0.00044102,0.00011121,0.000915
 81,0.00002827,0.00074792,-0.00056871,0.00032554,-0.00150417,-0.0005136
 7,0.00047395,0.00578529,-0.00216149,-0.00129080,-0.00000477,-0.0000178
 0,-0.00004439,0.00007344,0.00010594,-0.00015252,-0.00016957,-0.0000490
 7,-0.00002181,0.00011169,0.00004440,-0.00010786,0.00017220,-0.00011407
 ,-0.00000566,-0.00000463,-0.00000877,0.00000362,-0.00000601,0.00000664
 ,0.00000073,-0.00000475,0.00000905,-0.00000136,-0.00000274,0.00000239,
 0.00000087,-0.00115835,0.00015898,-0.00141319,-0.00510816,-0.02524426,
 -0.02088925,-0.05800945,0.02979672,0.03475922,-0.00180492,0.01590729,0
 .02156450,0.05996971,-0.00051260,0.00040540,0.00029144,0.00002967,0.00
 010213,-0.00015055,0.00012278,0.00003455,-0.00005234,0.00016476,0.0000
 5667,0.00020697,-0.00100137,-0.00025380,0.00018435,0.00542683,-0.00073
 152,0.00067360,-0.00004680,-0.00001639,-0.00003165,0.00010267,0.000105
 08,-0.00016198,-0.00014954,-0.00028627,0.00002737,-0.00035838,0.000409
 96,-0.00006090,-0.00000076,0.00004581,0.00000909,-0.00000891,-0.000003
 80,-0.00000144,-0.00001861,0.00001215,0.00000147,-0.00001455,0.0000101
 7,-0.00000582,-0.00000521,0.00001128,-0.00000277,0.00043450,0.00026520
 ,0.00023953,-0.01208708,-0.02568751,-0.01701456,0.02588203,-0.14311990
 ,-0.11668990,0.00313902,-0.00818452,-0.01221580,-0.02002829,0.16529594
 ,-0.00017989,-0.00103689,0.00002208,-0.00007537,0.00054127,-0.00007786
 ,0.00014715,-0.00003149,-0.00004892,0.00016673,0.00002149,0.00001500,-
 0.00049681,0.00000060,-0.00022458,0.00189385,-0.00058573,0.00072520,-0
 .00001620,0.00000156,0.00000235,0.00005890,0.00006813,-0.00000495,-0.0
 0021415,-0.00020519,-0.00000221,-0.00003443,0.00030147,-0.00001386,0.0
 0014621,-0.00003960,0.00005565,0.00000731,0.00000721,0.00000049,-0.000
 00073,0.00000102,-0.00000101,0.00000310,0.00000124,0.00000125,-0.00000
 618,0.00000530,-0.00000363,-0.00013356,0.00066579,-0.00033157,-0.00620
 017,-0.00079792,0.00674968,0.03116169,-0.11849310,-0.19948329,-0.00007
 263,0.00378935,0.00426393,-0.03175356,0.13321764,0.20876799,0.00056851
 ,0.00097730,-0.00010444,-0.00088102,-0.00004642,-0.00057206,0.00014999
 ,0.00088284,-0.00015672,0.00080187,-0.00059467,-0.00009298,-0.00149507
 ,-0.00060270,-0.00058693,0.00579438,-0.00190852,0.00250230,-0.00001534
 ,-0.00000956,0.00004441,0.00005914,0.00014389,0.00014181,-0.00020629,-
 0.00008376,0.00000293,0.00008158,0.00011825,0.00010482,0.00018985,-0.0
 0011415,0.00004908,-0.00000298,-0.00000812,-0.00000273,-0.00000441,0.0
 0000929,-0.00000118,-0.00000604,0.00000659,-0.00000282,-0.00000365,0.0
 0000323,-0.00000144,-0.00137309,0.00050516,0.00116553,-0.00973023,-0.0
 2156863,0.02269930,-0.05094743,0.00710357,-0.00998110,0.00205782,0.012
 01553,-0.02431716,0.00116717,-0.00107018,0.00559872,0.05379523,-0.0004
 0247,0.00053410,-0.00045708,0.00000742,0.00002634,0.00012794,0.0000887
 9,0.00006114,0.00004743,0.00017546,0.00000830,-0.00018412,-0.00087293,
 -0.00030745,-0.00032510,0.00509242,-0.00065376,0.00044330,-0.00004814,
 -0.00001129,0.00002717,0.00006558,0.00012131,0.00015431,-0.00010914,-0
 .00024829,-0.00000057,-0.00034466,0.00035003,-0.00006130,-0.00002340,0
 .00004949,-0.00001189,-0.00001032,-0.00000496,0.00000072,-0.00001557,0
 .00001061,0.00000160,-0.00001757,0.00001111,-0.00000668,-0.00000419,0.
 00001034,-0.00000048,0.00047490,0.00009962,-0.00022103,-0.01405901,-0.
 02199323,0.02049515,0.00424016,-0.10297617,0.10073930,0.00088273,-0.00
 608870,0.01410967,0.00063889,0.01152935,-0.01743216,0.00424105,0.11947
 211,0.00036412,0.00112350,-0.00007176,-0.00006748,-0.00057449,-0.00008
 507,-0.00013213,0.00015733,-0.00011442,-0.00007028,-0.00012267,0.00000
 925,0.00045277,-0.00007876,-0.00017987,-0.00200337,0.00049872,0.000638
 04,0.00002233,-0.00000042,0.00000782,-0.00006224,-0.00006907,-0.000006
 89,0.00020668,0.00024247,-0.00000341,0.00010979,-0.00035219,0.00007615
 ,-0.00012125,0.00001994,0.00003427,-0.00000622,-0.00000778,0.,-0.00000
 126,-0.00000147,0.00000046,0.00000311,-0.00000215,0.00000005,0.0000069
 7,-0.00000731,-0.00000178,-0.00013622,-0.00066750,0.00004899,0.0061390
 4,0.00257332,0.00767799,-0.00577044,0.10310166,-0.24668203,-0.00051568
 ,0.00007685,-0.00169662,-0.00192889,0.01153623,-0.02041174,0.00351064,
 -0.11744619,0.26076054\\0.00001529,-0.00000688,0.00000728,-0.00002753,
 -0.00003713,-0.00000285,0.00001240,0.00004006,-0.00000986,0.00001709,-
 0.00001386,0.00001680,-0.00002099,-0.00000411,-0.00000537,0.00000355,0
 .00001208,-0.00000457,-0.00000072,0.00000084,-0.00000049,0.00000264,-0
 .00000036,-0.00000319,-0.00000419,-0.00000100,0.00000137,0.00000264,-0
 .00000282,-0.00000035,0.00000064,0.00000729,-0.00000180,0.00000599,0.0
 0000626,-0.00000969,-0.00000762,-0.00000125,0.00000292,-0.00000237,-0.
 00000291,0.00000407,0.00000078,-0.00000278,0.00000320,-0.00000340,0.00
 000291,-0.00000033,0.00000164,-0.00000101,0.00000225,0.00000004,-0.000
 00642,-0.00000255,0.00000092,0.00000335,0.00000175,0.00000305,0.000003
 68,-0.00000095,0.00000016,0.00000407,0.00000235\\\@


 Other things may change us, but we start and end with family.
 -- Anthony Brandt
 Job cpu time:       0 days  1 hours  4 minutes 18.0 seconds.
 File lengths (MBytes):  RWF=    243 Int=      0 D2E=      0 Chk=      9 Scr=      1
 Normal termination of Gaussian 09 at Mon Nov  1 17:06:12 2021.
