 Entering Gaussian System, Link 0=g09
 Initial command:
 /cm/shared/apps/gaussian/g09revD.01/g09/l1.exe "//home/sweav003/CHB/OrthoParaExtra/G09-regiodevergent1d_Ishiyana.com.o9918460.tmp/Gau-116315.inp" -scrdir="//home/sweav003/CHB/OrthoParaExtra/G09-regiodevergent1d_Ishiyana.com.o9918460.tmp/"
 Entering Link 1 = /cm/shared/apps/gaussian/g09revD.01/g09/l1.exe PID=    116316.
  
 Copyright (c) 1988,1990,1992,1993,1995,1998,2003,2009,2013,
            Gaussian, Inc.  All Rights Reserved.
  
 This is part of the Gaussian(R) 09 program.  It is based on
 the Gaussian(R) 03 system (copyright 2003, Gaussian, Inc.),
 the Gaussian(R) 98 system (copyright 1998, Gaussian, Inc.),
 the Gaussian(R) 94 system (copyright 1995, Gaussian, Inc.),
 the Gaussian 92(TM) system (copyright 1992, Gaussian, Inc.),
 the Gaussian 90(TM) system (copyright 1990, Gaussian, Inc.),
 the Gaussian 88(TM) system (copyright 1988, Gaussian, Inc.),
 the Gaussian 86(TM) system (copyright 1986, Carnegie Mellon
 University), and the Gaussian 82(TM) system (copyright 1983,
 Carnegie Mellon University). Gaussian is a federally registered
 trademark of Gaussian, Inc.
  
 This software contains proprietary and confidential information,
 including trade secrets, belonging to Gaussian, Inc.
  
 This software is provided under written license and may be
 used, copied, transmitted, or stored only in accord with that
 written license.
  
 The following legend is applicable only to US Government
 contracts under FAR:
  
                    RESTRICTED RIGHTS LEGEND
  
 Use, reproduction and disclosure by the US Government is
 subject to restrictions as set forth in subparagraphs (a)
 and (c) of the Commercial Computer Software - Restricted
 Rights clause in FAR 52.227-19.
  
 Gaussian, Inc.
 340 Quinnipiac St., Bldg. 40, Wallingford CT 06492
  
  
 ---------------------------------------------------------------
 Warning -- This program may not be used in any manner that
 competes with the business of Gaussian, Inc. or will provide
 assistance to any competitor of Gaussian, Inc.  The licensee
 of this program is prohibited from giving any competitor of
 Gaussian, Inc. access to this program.  By using this program,
 the user acknowledges that Gaussian, Inc. is engaged in the
 business of creating and licensing software in the field of
 computational chemistry and represents and warrants to the
 licensee that it is not a competitor of Gaussian, Inc. and that
 it will not use this program in any manner prohibited above.
 ---------------------------------------------------------------
  

 Cite this work as:
 Gaussian 09, Revision D.01,
 M. J. Frisch, G. W. Trucks, H. B. Schlegel, G. E. Scuseria, 
 M. A. Robb, J. R. Cheeseman, G. Scalmani, V. Barone, B. Mennucci, 
 G. A. Petersson, H. Nakatsuji, M. Caricato, X. Li, H. P. Hratchian, 
 A. F. Izmaylov, J. Bloino, G. Zheng, J. L. Sonnenberg, M. Hada, 
 M. Ehara, K. Toyota, R. Fukuda, J. Hasegawa, M. Ishida, T. Nakajima, 
 Y. Honda, O. Kitao, H. Nakai, T. Vreven, J. A. Montgomery, Jr., 
 J. E. Peralta, F. Ogliaro, M. Bearpark, J. J. Heyd, E. Brothers, 
 K. N. Kudin, V. N. Staroverov, T. Keith, R. Kobayashi, J. Normand, 
 K. Raghavachari, A. Rendell, J. C. Burant, S. S. Iyengar, J. Tomasi, 
 M. Cossi, N. Rega, J. M. Millam, M. Klene, J. E. Knox, J. B. Cross, 
 V. Bakken, C. Adamo, J. Jaramillo, R. Gomperts, R. E. Stratmann, 
 O. Yazyev, A. J. Austin, R. Cammi, C. Pomelli, J. W. Ochterski, 
 R. L. Martin, K. Morokuma, V. G. Zakrzewski, G. A. Voth, 
 P. Salvador, J. J. Dannenberg, S. Dapprich, A. D. Daniels, 
 O. Farkas, J. B. Foresman, J. V. Ortiz, J. Cioslowski, 
 and D. J. Fox, Gaussian, Inc., Wallingford CT, 2013.
 
 ******************************************
 Gaussian 09:  ES64L-G09RevD.01 24-Apr-2013
                 2-Feb-2023 
 ******************************************
 %nprocshared=20
 Will use up to   20 processors via shared memory.
 %mem=4GB
 %chk=regiodevergent1d_Ishiyana.chk
 ----------------------------------------------------------------------
 # opt freq=noraman b3lyp/6-311+g(d,p) pop=(npa,hirshfeld,chelpg,mbs) g
 eom=connectivity
 ----------------------------------------------------------------------
 1/14=-1,18=20,19=15,26=3,38=1,57=2/1,3;
 2/9=110,12=2,17=6,18=5,40=1/2;
 3/5=4,6=6,7=111,11=2,16=1,25=1,30=1,71=1,74=-5/1,2,3;
 4//1;
 5/5=2,38=5/2;
 6/7=2,8=2,9=2,10=2,15=8,20=3,27=100,28=1,40=-1,79=1/1,2,7;
 7//1,2,3,16;
 1/14=-1,18=20,19=15,26=3/3(2);
 2/9=110/2;
 99//99;
 2/9=110/2;
 3/5=4,6=6,7=111,11=2,16=1,25=1,30=1,71=1,74=-5/1,2,3;
 4/5=5,16=3,69=1/1;
 5/5=2,38=5/2;
 7//1,2,3,16;
 1/14=-1,18=20,19=15,26=3/3(-5);
 2/9=110/2;
 6/7=2,8=2,9=2,10=2,15=8,19=2,20=3,27=100,28=1,40=-1,79=1/1,2,7;
 99/9=1/99;
 -------------------
 Title Card Required
 -------------------
 Symbolic Z-matrix:
 Charge =  0 Multiplicity = 1
 C                    -1.46218   0.36046   0.01914 
 C                    -1.05291  -0.95696   0.03184 
 C                     0.39497  -0.94159   0.01832 
 C                     0.77463   0.38468  -0.00185 
 O                    -0.35274   1.20678  -0.00188 
 H                    -1.67577  -1.84617   0.0488 
 H                     1.03709  -1.81709   0.02335 
 C                    -2.81925   1.08844   0.02252 
 H                    -2.88702   1.71259   0.88897 
 H                    -2.90329   1.69036  -0.85812 
 H                    -3.61034   0.36815   0.03906 
 C                     2.11542   1.14193  -0.02373 
 O                     2.17456   2.36771  -0.03968 
 N                     3.31971   0.29896  -0.0242 
 C                     4.10742   0.5705   -1.23527 
 H                     4.60098   1.51461  -1.13548 
 H                     4.83688  -0.20118  -1.36675 
 H                     3.45775   0.59573  -2.08509 
 C                     4.12951   0.60074   1.16494 
 H                     4.92239  -0.11306   1.24704 
 H                     4.54245   1.58375   1.07517 
 H                     3.51314   0.55117   2.03817 
 

 GradGradGradGradGradGradGradGradGradGradGradGradGradGradGradGradGradGrad
 Berny optimization.
 Initialization pass.
                           ----------------------------
                           !    Initial Parameters    !
                           ! (Angstroms and Degrees)  !
 --------------------------                            --------------------------
 ! Name  Definition              Value          Derivative Info.                !
 --------------------------------------------------------------------------------
 ! R1    R(1,2)                  1.3796         estimate D2E/DX2                !
 ! R2    R(1,5)                  1.3955         estimate D2E/DX2                !
 ! R3    R(1,8)                  1.54           estimate D2E/DX2                !
 ! R4    R(2,3)                  1.448          estimate D2E/DX2                !
 ! R5    R(2,6)                  1.0858         estimate D2E/DX2                !
 ! R6    R(3,4)                  1.3797         estimate D2E/DX2                !
 ! R7    R(3,7)                  1.0857         estimate D2E/DX2                !
 ! R8    R(4,5)                  1.3953         estimate D2E/DX2                !
 ! R9    R(4,12)                 1.54           estimate D2E/DX2                !
 ! R10   R(8,9)                  1.07           estimate D2E/DX2                !
 ! R11   R(8,10)                 1.07           estimate D2E/DX2                !
 ! R12   R(8,11)                 1.07           estimate D2E/DX2                !
 ! R13   R(12,13)                1.2273         estimate D2E/DX2                !
 ! R14   R(12,14)                1.47           estimate D2E/DX2                !
 ! R15   R(14,15)                1.47           estimate D2E/DX2                !
 ! R16   R(14,19)                1.47           estimate D2E/DX2                !
 ! R17   R(15,16)                1.07           estimate D2E/DX2                !
 ! R18   R(15,17)                1.07           estimate D2E/DX2                !
 ! R19   R(15,18)                1.07           estimate D2E/DX2                !
 ! R20   R(19,20)                1.07           estimate D2E/DX2                !
 ! R21   R(19,21)                1.07           estimate D2E/DX2                !
 ! R22   R(19,22)                1.07           estimate D2E/DX2                !
 ! A1    A(2,1,5)              110.0851         estimate D2E/DX2                !
 ! A2    A(2,1,8)              135.4644         estimate D2E/DX2                !
 ! A3    A(5,1,8)              114.4505         estimate D2E/DX2                !
 ! A4    A(1,2,3)              106.6433         estimate D2E/DX2                !
 ! A5    A(1,2,6)              127.7352         estimate D2E/DX2                !
 ! A6    A(3,2,6)              125.6215         estimate D2E/DX2                !
 ! A7    A(2,3,4)              106.588          estimate D2E/DX2                !
 ! A8    A(2,3,7)              125.6441         estimate D2E/DX2                !
 ! A9    A(4,3,7)              127.768          estimate D2E/DX2                !
 ! A10   A(3,4,5)              110.1235         estimate D2E/DX2                !
 ! A11   A(3,4,12)             135.4359         estimate D2E/DX2                !
 ! A12   A(5,4,12)             114.4407         estimate D2E/DX2                !
 ! A13   A(1,5,4)              106.5602         estimate D2E/DX2                !
 ! A14   A(1,8,9)              109.4712         estimate D2E/DX2                !
 ! A15   A(1,8,10)             109.4712         estimate D2E/DX2                !
 ! A16   A(1,8,11)             109.4712         estimate D2E/DX2                !
 ! A17   A(9,8,10)             109.4713         estimate D2E/DX2                !
 ! A18   A(9,8,11)             109.4712         estimate D2E/DX2                !
 ! A19   A(10,8,11)            109.4712         estimate D2E/DX2                !
 ! A20   A(4,12,13)            122.2249         estimate D2E/DX2                !
 ! A21   A(4,12,14)            115.5502         estimate D2E/DX2                !
 ! A22   A(13,12,14)           122.2249         estimate D2E/DX2                !
 ! A23   A(12,14,15)           109.4712         estimate D2E/DX2                !
 ! A24   A(12,14,19)           109.4712         estimate D2E/DX2                !
 ! A25   A(15,14,19)           109.4713         estimate D2E/DX2                !
 ! A26   A(14,15,16)           109.4712         estimate D2E/DX2                !
 ! A27   A(14,15,17)           109.4712         estimate D2E/DX2                !
 ! A28   A(14,15,18)           109.4712         estimate D2E/DX2                !
 ! A29   A(16,15,17)           109.4713         estimate D2E/DX2                !
 ! A30   A(16,15,18)           109.4712         estimate D2E/DX2                !
 ! A31   A(17,15,18)           109.4712         estimate D2E/DX2                !
 ! A32   A(14,19,20)           109.4712         estimate D2E/DX2                !
 ! A33   A(14,19,21)           109.4712         estimate D2E/DX2                !
 ! A34   A(14,19,22)           109.4712         estimate D2E/DX2                !
 ! A35   A(20,19,21)           109.4713         estimate D2E/DX2                !
 ! A36   A(20,19,22)           109.4712         estimate D2E/DX2                !
 ! A37   A(21,19,22)           109.4712         estimate D2E/DX2                !
 ! D1    D(5,1,2,3)              0.0097         estimate D2E/DX2                !
 ! D2    D(5,1,2,6)           -179.9973         estimate D2E/DX2                !
 ! D3    D(8,1,2,3)            179.9992         estimate D2E/DX2                !
 ! D4    D(8,1,2,6)             -0.0078         estimate D2E/DX2                !
 ! D5    D(2,1,5,4)             -0.0117         estimate D2E/DX2                !
 ! D6    D(8,1,5,4)            179.9964         estimate D2E/DX2                !
 ! D7    D(2,1,8,9)            120.0147         estimate D2E/DX2                !
 ! D8    D(2,1,8,10)          -119.9852         estimate D2E/DX2                !
 ! D9    D(2,1,8,11)             0.0148         estimate D2E/DX2                !
 ! D10   D(5,1,8,9)            -59.9961         estimate D2E/DX2                !
 ! D11   D(5,1,8,10)            60.0039         estimate D2E/DX2                !
 ! D12   D(5,1,8,11)          -179.9961         estimate D2E/DX2                !
 ! D13   D(1,2,3,4)             -0.0039         estimate D2E/DX2                !
 ! D14   D(1,2,3,7)           -179.9997         estimate D2E/DX2                !
 ! D15   D(6,2,3,4)           -179.997          estimate D2E/DX2                !
 ! D16   D(6,2,3,7)              0.0071         estimate D2E/DX2                !
 ! D17   D(2,3,4,5)             -0.0034         estimate D2E/DX2                !
 ! D18   D(2,3,4,12)          -179.9989         estimate D2E/DX2                !
 ! D19   D(7,3,4,5)            179.9924         estimate D2E/DX2                !
 ! D20   D(7,3,4,12)            -0.0031         estimate D2E/DX2                !
 ! D21   D(3,4,5,1)              0.0092         estimate D2E/DX2                !
 ! D22   D(12,4,5,1)          -179.9942         estimate D2E/DX2                !
 ! D23   D(3,4,12,13)          180.0            estimate D2E/DX2                !
 ! D24   D(3,4,12,14)           -0.0022         estimate D2E/DX2                !
 ! D25   D(5,4,12,13)            0.0046         estimate D2E/DX2                !
 ! D26   D(5,4,12,14)         -179.9976         estimate D2E/DX2                !
 ! D27   D(4,12,14,15)         120.0001         estimate D2E/DX2                !
 ! D28   D(4,12,14,19)        -119.9998         estimate D2E/DX2                !
 ! D29   D(13,12,14,15)        -60.0021         estimate D2E/DX2                !
 ! D30   D(13,12,14,19)         59.9979         estimate D2E/DX2                !
 ! D31   D(12,14,15,16)         74.3883         estimate D2E/DX2                !
 ! D32   D(12,14,15,17)       -165.6117         estimate D2E/DX2                !
 ! D33   D(12,14,15,18)        -45.6117         estimate D2E/DX2                !
 ! D34   D(19,14,15,16)        -45.6117         estimate D2E/DX2                !
 ! D35   D(19,14,15,17)         74.3883         estimate D2E/DX2                !
 ! D36   D(19,14,15,18)       -165.6117         estimate D2E/DX2                !
 ! D37   D(12,14,19,20)        171.2209         estimate D2E/DX2                !
 ! D38   D(12,14,19,21)        -68.7791         estimate D2E/DX2                !
 ! D39   D(12,14,19,22)         51.2209         estimate D2E/DX2                !
 ! D40   D(15,14,19,20)        -68.7792         estimate D2E/DX2                !
 ! D41   D(15,14,19,21)         51.2209         estimate D2E/DX2                !
 ! D42   D(15,14,19,22)        171.2208         estimate D2E/DX2                !
 --------------------------------------------------------------------------------
 Trust Radius=3.00D-01 FncErr=1.00D-07 GrdErr=1.00D-06
 Number of steps in this run=    111 maximum allowed number of steps=    132.
 GradGradGradGradGradGradGradGradGradGradGradGradGradGradGradGradGradGrad

                          Input orientation:                          
 ---------------------------------------------------------------------
 Center     Atomic      Atomic             Coordinates (Angstroms)
 Number     Number       Type             X           Y           Z
 ---------------------------------------------------------------------
      1          6           0       -1.462180    0.360456    0.019141
      2          6           0       -1.052911   -0.956960    0.031843
      3          6           0        0.394975   -0.941593    0.018318
      4          6           0        0.774634    0.384682   -0.001848
      5          8           0       -0.352743    1.206779   -0.001878
      6          1           0       -1.675774   -1.846171    0.048801
      7          1           0        1.037093   -1.817093    0.023347
      8          6           0       -2.819249    1.088435    0.022520
      9          1           0       -2.887015    1.712594    0.888969
     10          1           0       -2.903292    1.690362   -0.858116
     11          1           0       -3.610337    0.368154    0.039056
     12          6           0        2.115419    1.141925   -0.023733
     13          8           0        2.174564    2.367713   -0.039680
     14          7           0        3.319710    0.298965   -0.024201
     15          6           0        4.107417    0.570502   -1.235269
     16          1           0        4.600982    1.514609   -1.135485
     17          1           0        4.836880   -0.201181   -1.366755
     18          1           0        3.457753    0.595729   -2.085093
     19          6           0        4.129512    0.600736    1.164939
     20          1           0        4.922391   -0.113059    1.247038
     21          1           0        4.542449    1.583754    1.075174
     22          1           0        3.513144    0.551168    2.038171
 ---------------------------------------------------------------------
                    Distance matrix (angstroms):
                    1          2          3          4          5
     1  C    0.000000
     2  C    1.379582   0.000000
     3  C    2.268118   1.448030   0.000000
     4  C    2.237044   2.267390   1.379693   0.000000
     5  O    1.395549   2.274453   2.274861   1.395286   0.000000
     6  H    2.217139   1.085791   2.259910   3.314177   3.327685
     7  H    3.314831   2.260092   1.085745   2.217506   3.328075
     8  C    1.540000   2.702532   3.801614   3.662220   2.469464
     9  H    2.148263   3.350391   4.309779   3.995570   2.733495
    10  H    2.148263   3.350261   4.309743   3.995639   2.733550
    11  H    2.148263   2.880349   4.214071   4.385193   3.364058
    12  C    3.662206   3.800884   2.702359   1.540000   2.469111
    13  O    4.154329   4.634129   3.757899   2.427683   2.781452
    14  N    4.782482   4.549758   3.177242   2.546617   3.783059
    15  C    5.712974   5.528806   4.200016   3.558552   4.671095
    16  H    6.279105   6.279953   5.005465   4.147626   5.091091
    17  H    6.474125   6.100566   4.711386   4.325280   5.547740
    18  H    5.356202   5.219037   4.020984   3.403465   4.385550
    19  C    5.712934   5.528818   4.200034   3.558550   4.671120
    20  H    6.518796   6.155737   4.763793   4.360201   5.579319
    21  H    6.218299   6.233122   4.969493   4.098070   5.026435
    22  H    5.372774   5.210437   4.003888   3.418893   4.420035
                    6          7          8          9         10
     6  H    0.000000
     7  H    2.713142   0.000000
     8  C    3.149625   4.828402   0.000000
     9  H    3.851986   5.348515   1.070000   0.000000
    10  H    3.851800   5.348444   1.070000   1.747303   0.000000
    11  H    2.940385   5.135578   1.070000   1.747303   1.747303
    12  C    4.827745   3.149729   4.935174   5.116936   5.117073
    13  O    5.708743   4.337097   5.155442   5.187596   5.187799
    14  N    5.437076   3.112925   6.189690   6.430837   6.430953
    15  C    6.398003   4.087984   7.058965   7.398570   7.109596
    16  H    7.217689   5.014422   7.522129   7.759363   7.511454
    17  H    6.864725   4.356826   7.887300   8.270996   7.984165
    18  H    6.072024   4.015822   6.639695   7.095669   6.570128
    19  C    6.398005   4.088054   7.058913   7.109433   7.398673
    20  H    6.926416   4.415506   7.929440   8.027954   8.302127
    21  H    7.175244   4.995961   7.453054   7.432914   7.693375
    22  H    6.052247   3.974796   6.667136   6.605423   7.131401
                   11         12         13         14         15
    11  H    0.000000
    12  C    5.778144   0.000000
    13  O    6.121235   1.227317   0.000000
    14  N    6.930681   1.470000   2.364597   0.000000
    15  C    7.824869   2.400500   2.897468   1.470000   0.000000
    16  H    8.373749   2.748255   2.795725   2.086720   1.070000
    17  H    8.582303   3.318733   3.930429   2.086720   1.070000
    18  H    7.383881   2.519801   2.995032   2.086720   1.070000
    19  C    7.824767   2.400500   2.897436   1.470000   2.400500
    20  H    8.631236   3.327001   3.919238   2.086720   2.700609
    21  H    8.307776   2.700608   2.732100   2.086720   2.560093
    22  H    7.400942   2.560093   3.067424   2.086720   3.327002
                   16         17         18         19         20
    16  H    0.000000
    17  H    1.747303   0.000000
    18  H    1.747303   1.747303   0.000000
    19  C    2.519801   2.748256   3.318734   0.000000
    20  H    2.903278   2.616675   3.708186   1.070000   0.000000
    21  H    2.212514   3.039029   3.484256   1.070000   1.747303
    22  H    3.490515   3.729856   4.123876   1.070000   1.747303
                   21         22
    21  H    0.000000
    22  H    1.747303   0.000000
 Stoichiometry    C8H11NO2
 Framework group  C1[X(C8H11NO2)]
 Deg. of freedom    60
 Full point group                 C1      NOp   1
 Largest Abelian subgroup         C1      NOp   1
 Largest concise Abelian subgroup C1      NOp   1
                         Standard orientation:                         
 ---------------------------------------------------------------------
 Center     Atomic      Atomic             Coordinates (Angstroms)
 Number     Number       Type             X           Y           Z
 ---------------------------------------------------------------------
      1          6           0        2.578687    0.058763    0.000048
      2          6           0        2.256744    1.400255   -0.000006
      3          6           0        0.810899    1.479777    0.000014
      4          6           0        0.344992    0.181130   -0.000010
      5          8           0        1.416039   -0.713120   -0.000120
      6          1           0        2.936657    2.246813    0.000050
      7          1           0        0.227593    2.395526   -0.000022
      8          6           0        3.885119   -0.756611    0.000048
      9          1           0        3.920535   -1.373503    0.873598
     10          1           0        3.920720   -1.373206   -0.873705
     11          1           0        4.721818   -0.089651    0.000250
     12          6           0       -1.042669   -0.486700   -0.000028
     13          8           0       -1.182140   -1.706067   -0.000048
     14          7           0       -2.189098    0.433409    0.000032
     15          6           0       -3.004999    0.199738   -1.200219
     16          1           0       -3.558324   -0.708687   -1.084051
     17          1           0       -3.683627    1.016007   -1.334645
     18          1           0       -2.366935    0.121808   -2.055614
     19          6           0       -3.004969    0.199620    1.200281
     20          1           0       -3.748524    0.964836    1.280725
     21          1           0       -3.482291   -0.755180    1.126667
     22          1           0       -2.377955    0.219034    2.067102
 ---------------------------------------------------------------------
 Rotational constants (GHZ):      2.7097476      0.5879240      0.5348358
 Standard basis: 6-311+G(d,p) (5D, 7F)
 There are   319 symmetry adapted cartesian basis functions of A   symmetry.
 There are   308 symmetry adapted basis functions of A   symmetry.
   308 basis functions,   484 primitive gaussians,   319 cartesian basis functions
    41 alpha electrons       41 beta electrons
       nuclear repulsion energy       600.5183329078 Hartrees.
 NAtoms=   22 NActive=   22 NUniq=   22 SFac= 1.00D+00 NAtFMM=   60 NAOKFM=F Big=F
 Integral buffers will be    131072 words long.
 Raffenetti 2 integral format.
 Two-electron integral symmetry is turned on.
 One-electron integrals computed using PRISM.
 NBasis=   308 RedAO= T EigKep=  1.74D-06  NBF=   308
 NBsUse=   308 1.00D-06 EigRej= -1.00D+00 NBFU=   308
 ExpMin= 4.38D-02 ExpMax= 8.59D+03 ExpMxC= 1.30D+03 IAcc=2 IRadAn=         4 AccDes= 0.00D+00
 Harris functional with IExCor=  402 and IRadAn=       4 diagonalized for initial guess.
 HarFok:  IExCor=  402 AccDes= 0.00D+00 IRadAn=         4 IDoV= 1 UseB2=F ITyADJ=14
 ICtDFT=  3500011 ScaDFX=  1.000000  1.000000  1.000000  1.000000
 FoFCou: FMM=F IPFlag=           0 FMFlag=      100000 FMFlg1=           0
         NFxFlg=           0 DoJE=T BraDBF=F KetDBF=T FulRan=T
         wScrn=  0.000000 ICntrl=     500 IOpCl=  0 I1Cent=   200000004 NGrid=           0
         NMat0=    1 NMatS0=      1 NMatT0=    0 NMatD0=    1 NMtDS0=    0 NMtDT0=    0
 Petite list used in FoFCou.
 Requested convergence on RMS density matrix=1.00D-08 within 128 cycles.
 Requested convergence on MAX density matrix=1.00D-06.
 Requested convergence on             energy=1.00D-06.
 No special actions if energy rises.
 SCF Done:  E(RB3LYP) =  -516.777663727     A.U. after   14 cycles
            NFock= 14  Conv=0.86D-08     -V/T= 2.0046

 **********************************************************************

            Population analysis using the SCF density.

 **********************************************************************

 Orbital symmetries:
       Occupied  (A) (A) (A) (A) (A) (A) (A) (A) (A) (A) (A) (A)
                 (A) (A) (A) (A) (A) (A) (A) (A) (A) (A) (A) (A)
                 (A) (A) (A) (A) (A) (A) (A) (A) (A) (A) (A) (A)
                 (A) (A) (A) (A) (A)
       Virtual   (A) (A) (A) (A) (A) (A) (A) (A) (A) (A) (A) (A)
                 (A) (A) (A) (A) (A) (A) (A) (A) (A) (A) (A) (A)
                 (A) (A) (A) (A) (A) (A) (A) (A) (A) (A) (A) (A)
                 (A) (A) (A) (A) (A) (A) (A) (A) (A) (A) (A) (A)
                 (A) (A) (A) (A) (A) (A) (A) (A) (A) (A) (A) (A)
                 (A) (A) (A) (A) (A) (A) (A) (A) (A) (A) (A) (A)
                 (A) (A) (A) (A) (A) (A) (A) (A) (A) (A) (A) (A)
                 (A) (A) (A) (A) (A) (A) (A) (A) (A) (A) (A) (A)
                 (A) (A) (A) (A) (A) (A) (A) (A) (A) (A) (A) (A)
                 (A) (A) (A) (A) (A) (A) (A) (A) (A) (A) (A) (A)
                 (A) (A) (A) (A) (A) (A) (A) (A) (A) (A) (A) (A)
                 (A) (A) (A) (A) (A) (A) (A) (A) (A) (A) (A) (A)
                 (A) (A) (A) (A) (A) (A) (A) (A) (A) (A) (A) (A)
                 (A) (A) (A) (A) (A) (A) (A) (A) (A) (A) (A) (A)
                 (A) (A) (A) (A) (A) (A) (A) (A) (A) (A) (A) (A)
                 (A) (A) (A) (A) (A) (A) (A) (A) (A) (A) (A) (A)
                 (A) (A) (A) (A) (A) (A) (A) (A) (A) (A) (A) (A)
                 (A) (A) (A) (A) (A) (A) (A) (A) (A) (A) (A) (A)
                 (A) (A) (A) (A) (A) (A) (A) (A) (A) (A) (A) (A)
                 (A) (A) (A) (A) (A) (A) (A) (A) (A) (A) (A) (A)
                 (A) (A) (A) (A) (A) (A) (A) (A) (A) (A) (A) (A)
                 (A) (A) (A) (A) (A) (A) (A) (A) (A) (A) (A) (A)
                 (A) (A) (A)
 The electronic state is 1-A.
 Alpha  occ. eigenvalues --  -19.19659 -19.12097 -14.31803 -10.29687 -10.25643
 Alpha  occ. eigenvalues --  -10.24558 -10.19955 -10.19101 -10.18798 -10.18590
 Alpha  occ. eigenvalues --  -10.18589  -1.10792  -1.05206  -0.91978  -0.81409
 Alpha  occ. eigenvalues --   -0.79090  -0.71979  -0.71746  -0.66894  -0.61633
 Alpha  occ. eigenvalues --   -0.57986  -0.55939  -0.51333  -0.47597  -0.47047
 Alpha  occ. eigenvalues --   -0.46834  -0.46153  -0.45145  -0.42594  -0.42290
 Alpha  occ. eigenvalues --   -0.42182  -0.40685  -0.40228  -0.39364  -0.38446
 Alpha  occ. eigenvalues --   -0.38027  -0.36612  -0.29703  -0.28303  -0.24417
 Alpha  occ. eigenvalues --   -0.23740
 Alpha virt. eigenvalues --   -0.06713  -0.00139   0.00959   0.01352   0.02010
 Alpha virt. eigenvalues --    0.02888   0.03387   0.03889   0.04581   0.05314
 Alpha virt. eigenvalues --    0.05892   0.06027   0.06239   0.07220   0.07265
 Alpha virt. eigenvalues --    0.07844   0.08293   0.09231   0.09354   0.09968
 Alpha virt. eigenvalues --    0.11175   0.11577   0.12595   0.12929   0.13244
 Alpha virt. eigenvalues --    0.13903   0.14351   0.15901   0.16124   0.16340
 Alpha virt. eigenvalues --    0.16872   0.17523   0.17749   0.18656   0.18737
 Alpha virt. eigenvalues --    0.19328   0.20355   0.20954   0.21042   0.21282
 Alpha virt. eigenvalues --    0.21672   0.22105   0.23148   0.23287   0.23722
 Alpha virt. eigenvalues --    0.24792   0.25484   0.26039   0.26119   0.26973
 Alpha virt. eigenvalues --    0.27236   0.28893   0.29433   0.30371   0.30577
 Alpha virt. eigenvalues --    0.31486   0.32743   0.34181   0.34396   0.34885
 Alpha virt. eigenvalues --    0.35935   0.36998   0.38452   0.39093   0.40166
 Alpha virt. eigenvalues --    0.41887   0.43060   0.43642   0.44386   0.46542
 Alpha virt. eigenvalues --    0.47546   0.48644   0.49463   0.51052   0.51437
 Alpha virt. eigenvalues --    0.53717   0.54032   0.54668   0.55642   0.56713
 Alpha virt. eigenvalues --    0.58135   0.59257   0.60885   0.61302   0.63045
 Alpha virt. eigenvalues --    0.63321   0.65409   0.65700   0.66737   0.67266
 Alpha virt. eigenvalues --    0.67751   0.68785   0.70105   0.70671   0.72901
 Alpha virt. eigenvalues --    0.74180   0.74881   0.76919   0.78601   0.79896
 Alpha virt. eigenvalues --    0.82271   0.83695   0.85035   0.85706   0.87571
 Alpha virt. eigenvalues --    0.88976   0.90225   0.91104   0.94088   0.94977
 Alpha virt. eigenvalues --    0.95866   0.98679   0.99281   0.99650   1.02245
 Alpha virt. eigenvalues --    1.04005   1.06355   1.08184   1.09405   1.14851
 Alpha virt. eigenvalues --    1.17261   1.19160   1.19431   1.19945   1.22289
 Alpha virt. eigenvalues --    1.25799   1.27940   1.29943   1.31354   1.33170
 Alpha virt. eigenvalues --    1.36013   1.38585   1.39577   1.40708   1.44692
 Alpha virt. eigenvalues --    1.47232   1.47959   1.50432   1.51170   1.52823
 Alpha virt. eigenvalues --    1.53842   1.54415   1.54680   1.55245   1.57289
 Alpha virt. eigenvalues --    1.57662   1.60356   1.61481   1.63428   1.63508
 Alpha virt. eigenvalues --    1.66618   1.67150   1.67898   1.70812   1.72535
 Alpha virt. eigenvalues --    1.72641   1.76185   1.76514   1.77309   1.81383
 Alpha virt. eigenvalues --    1.83250   1.83479   1.85497   1.85778   1.88845
 Alpha virt. eigenvalues --    1.90790   1.94674   1.95425   1.95989   1.98137
 Alpha virt. eigenvalues --    2.00445   2.03291   2.06683   2.07691   2.09701
 Alpha virt. eigenvalues --    2.10112   2.14421   2.16955   2.17527   2.21584
 Alpha virt. eigenvalues --    2.23781   2.24721   2.34890   2.36424   2.40659
 Alpha virt. eigenvalues --    2.43478   2.46845   2.47318   2.47591   2.49502
 Alpha virt. eigenvalues --    2.50518   2.53395   2.53487   2.55028   2.55494
 Alpha virt. eigenvalues --    2.57818   2.58959   2.60677   2.63155   2.63754
 Alpha virt. eigenvalues --    2.64326   2.65355   2.68368   2.69220   2.70547
 Alpha virt. eigenvalues --    2.71094   2.74090   2.74766   2.77136   2.79491
 Alpha virt. eigenvalues --    2.79647   2.85444   2.89378   2.90984   2.93547
 Alpha virt. eigenvalues --    2.94260   2.94592   2.96828   2.98560   3.00931
 Alpha virt. eigenvalues --    3.04215   3.08292   3.12035   3.15134   3.18707
 Alpha virt. eigenvalues --    3.26865   3.31663   3.33692   3.39446   3.42091
 Alpha virt. eigenvalues --    3.46947   3.50634   3.56132   3.59803   3.67607
 Alpha virt. eigenvalues --    3.82144   3.83320   3.83575   3.84090   3.84725
 Alpha virt. eigenvalues --    3.87388   3.92056   4.02159   4.08167   4.20631
 Alpha virt. eigenvalues --    4.22785   4.29528   4.38220   4.83399   4.84582
 Alpha virt. eigenvalues --    4.97824   5.08829   5.24039   5.42527   5.69646
 Alpha virt. eigenvalues --    5.80618  23.62784  23.75271  23.78352  23.97316
 Alpha virt. eigenvalues --   23.98947  23.99662  24.06269  24.11233  35.52880
 Alpha virt. eigenvalues --   49.88846  50.00020
          Condensed to atoms (all electrons):
               1          2          3          4          5          6
     1  C    7.803867  -2.266745   1.452507  -1.512030  -0.074145  -0.010620
     2  C   -2.266745   9.700574  -2.358205   2.276773   0.223247   0.363195
     3  C    1.452507  -2.358205   9.297600  -1.379265  -0.090308  -0.048033
     4  C   -1.512030   2.276773  -1.379265  11.237776   0.429254   0.028553
     5  O   -0.074145   0.223247  -0.090308   0.429254   8.009799   0.006837
     6  H   -0.010620   0.363195  -0.048033   0.028553   0.006837   0.521786
     7  H   -0.012001   0.004378   0.356678  -0.048027   0.009595  -0.003143
     8  C    0.408767  -1.125626   0.486346  -0.568657  -0.263074  -0.012909
     9  H    0.021124  -0.028262   0.005619  -0.002473  -0.006230   0.000041
    10  H    0.020302  -0.028837   0.005894  -0.003011  -0.006180   0.000040
    11  H   -0.128160   0.031079  -0.001687  -0.001491   0.013988  -0.000031
    12  C    0.264588  -0.530417  -0.901244  -3.943130  -0.292776   0.022620
    13  O    0.053034   0.003817  -0.041480   0.062250   0.043769  -0.000056
    14  N   -0.017231  -0.051054  -0.097042  -0.401233   0.014347   0.000148
    15  C   -0.001935  -0.000956  -0.078644  -0.144217  -0.000209   0.000058
    16  H    0.005259  -0.003600  -0.003137   0.048694   0.000265   0.000000
    17  H   -0.001490   0.001384   0.002500  -0.032134   0.000029   0.000000
    18  H    0.000267   0.003143  -0.009000   0.038021  -0.000313  -0.000001
    19  C   -0.003836  -0.002129  -0.073886  -0.141585  -0.000819   0.000063
    20  H   -0.001225   0.001009   0.001530  -0.032994   0.000043   0.000000
    21  H    0.005601  -0.003629  -0.003083   0.058484   0.000252   0.000000
    22  H   -0.000174   0.003357  -0.006810   0.032282  -0.000333  -0.000001
               7          8          9         10         11         12
     1  C   -0.012001   0.408767   0.021124   0.020302  -0.128160   0.264588
     2  C    0.004378  -1.125626  -0.028262  -0.028837   0.031079  -0.530417
     3  C    0.356678   0.486346   0.005619   0.005894  -0.001687  -0.901244
     4  C   -0.048027  -0.568657  -0.002473  -0.003011  -0.001491  -3.943130
     5  O    0.009595  -0.263074  -0.006230  -0.006180   0.013988  -0.292776
     6  H   -0.003143  -0.012909   0.000041   0.000040  -0.000031   0.022620
     7  H    0.498619   0.002844   0.000007   0.000008  -0.000014   0.046135
     8  C    0.002844   6.052915   0.378049   0.380001   0.463977   0.053969
     9  H    0.000007   0.378049   0.517746  -0.028598  -0.023663   0.002674
    10  H    0.000008   0.380001  -0.028598   0.517802  -0.023668   0.002298
    11  H   -0.000014   0.463977  -0.023663  -0.023668   0.519134  -0.002668
    12  C    0.046135   0.053969   0.002674   0.002298  -0.002668  10.946315
    13  O   -0.001445   0.000634  -0.000104  -0.000104   0.000037   0.245945
    14  N   -0.005224  -0.000540   0.000026   0.000032  -0.000012   0.423910
    15  C   -0.000849   0.000134   0.000018  -0.000030   0.000006  -0.157789
    16  H   -0.000053   0.000229   0.000000   0.000000   0.000000  -0.073244
    17  H    0.000073  -0.000063   0.000000   0.000000   0.000000   0.037879
    18  H   -0.000039  -0.000086   0.000000   0.000000   0.000000  -0.020146
    19  C   -0.000810   0.000081  -0.000032   0.000022   0.000005  -0.172509
    20  H    0.000056  -0.000054   0.000000   0.000000   0.000000   0.040162
    21  H   -0.000053   0.000251   0.000000   0.000000   0.000000  -0.080157
    22  H   -0.000025  -0.000077   0.000000   0.000000   0.000000  -0.015665
              13         14         15         16         17         18
     1  C    0.053034  -0.017231  -0.001935   0.005259  -0.001490   0.000267
     2  C    0.003817  -0.051054  -0.000956  -0.003600   0.001384   0.003143
     3  C   -0.041480  -0.097042  -0.078644  -0.003137   0.002500  -0.009000
     4  C    0.062250  -0.401233  -0.144217   0.048694  -0.032134   0.038021
     5  O    0.043769   0.014347  -0.000209   0.000265   0.000029  -0.000313
     6  H   -0.000056   0.000148   0.000058   0.000000   0.000000  -0.000001
     7  H   -0.001445  -0.005224  -0.000849  -0.000053   0.000073  -0.000039
     8  C    0.000634  -0.000540   0.000134   0.000229  -0.000063  -0.000086
     9  H   -0.000104   0.000026   0.000018   0.000000   0.000000   0.000000
    10  H   -0.000104   0.000032  -0.000030   0.000000   0.000000   0.000000
    11  H    0.000037  -0.000012   0.000006   0.000000   0.000000   0.000000
    12  C    0.245945   0.423910  -0.157789  -0.073244   0.037879  -0.020146
    13  O    8.034731  -0.237223  -0.018331   0.017854  -0.001330  -0.002412
    14  N   -0.237223   7.136806   0.310908  -0.109478  -0.050372  -0.035644
    15  C   -0.018331   0.310908   5.198329   0.434140   0.418435   0.399990
    16  H    0.017854  -0.109478   0.434140   0.582705  -0.042859  -0.029312
    17  H   -0.001330  -0.050372   0.418435  -0.042859   0.548259  -0.022598
    18  H   -0.002412  -0.035644   0.399990  -0.029312  -0.022598   0.528364
    19  C   -0.020862   0.324063  -0.095846   0.001468   0.003727   0.006585
    20  H   -0.001146  -0.052533   0.005883  -0.004052   0.004449  -0.000036
    21  H    0.019993  -0.108046  -0.002502   0.028415  -0.003768   0.000314
    22  H   -0.002728  -0.034051   0.007348   0.000229  -0.000088  -0.000676
              19         20         21         22
     1  C   -0.003836  -0.001225   0.005601  -0.000174
     2  C   -0.002129   0.001009  -0.003629   0.003357
     3  C   -0.073886   0.001530  -0.003083  -0.006810
     4  C   -0.141585  -0.032994   0.058484   0.032282
     5  O   -0.000819   0.000043   0.000252  -0.000333
     6  H    0.000063   0.000000   0.000000  -0.000001
     7  H   -0.000810   0.000056  -0.000053  -0.000025
     8  C    0.000081  -0.000054   0.000251  -0.000077
     9  H   -0.000032   0.000000   0.000000   0.000000
    10  H    0.000022   0.000000   0.000000   0.000000
    11  H    0.000005   0.000000   0.000000   0.000000
    12  C   -0.172509   0.040162  -0.080157  -0.015665
    13  O   -0.020862  -0.001146   0.019993  -0.002728
    14  N    0.324063  -0.052533  -0.108046  -0.034051
    15  C   -0.095846   0.005883  -0.002502   0.007348
    16  H    0.001468  -0.004052   0.028415   0.000229
    17  H    0.003727   0.004449  -0.003768  -0.000088
    18  H    0.006585  -0.000036   0.000314  -0.000676
    19  C    5.201270   0.417579   0.432312   0.399538
    20  H    0.417579   0.549616  -0.041435  -0.022116
    21  H    0.432312  -0.041435   0.576763  -0.030902
    22  H    0.399538  -0.022116  -0.030902   0.529819
 Mulliken charges:
               1
     1  C   -0.005724
     2  C   -0.212494
     3  C   -0.516851
     4  C   -0.001839
     5  O   -0.017038
     6  H    0.131453
     7  H    0.153290
     8  C   -0.257111
     9  H    0.164058
    10  H    0.164029
    11  H    0.153168
    12  C    0.103249
    13  O   -0.154842
    14  N   -0.010556
    15  C   -0.273939
    16  H    0.146475
    17  H    0.137966
    18  H    0.143578
    19  C   -0.274399
    20  H    0.135264
    21  H    0.151189
    22  H    0.141073
 Sum of Mulliken charges =   0.00000
 Mulliken charges with hydrogens summed into heavy atoms:
               1
     1  C   -0.005724
     2  C   -0.081041
     3  C   -0.363561
     4  C   -0.001839
     5  O   -0.017038
     8  C    0.224143
    12  C    0.103249
    13  O   -0.154842
    14  N   -0.010556
    15  C    0.154080
    19  C    0.153127
 Electronic spatial extent (au):  <R**2>=           2198.0904
 Charge=              0.0000 electrons
 Dipole moment (field-independent basis, Debye):
    X=              1.5240    Y=              2.6854    Z=             -0.0019  Tot=              3.0877
 Quadrupole moment (field-independent basis, Debye-Ang):
   XX=            -51.1937   YY=            -70.0974   ZZ=            -65.3315
   XY=             -2.2335   XZ=             -0.0062   YZ=              0.0128
 Traceless Quadrupole moment (field-independent basis, Debye-Ang):
   XX=             11.0138   YY=             -7.8899   ZZ=             -3.1239
   XY=             -2.2335   XZ=             -0.0062   YZ=              0.0128
 Octapole moment (field-independent basis, Debye-Ang**2):
  XXX=             20.3711  YYY=             11.2869  ZZZ=             -0.0238  XYY=             12.6254
  XXY=             -0.0958  XXZ=              0.0759  XZZ=             -8.3566  YZZ=             -6.5766
  YYZ=             -0.0115  XYZ=              0.0307
 Hexadecapole moment (field-independent basis, Debye-Ang**3):
 XXXX=          -2105.6686 YYYY=           -423.1468 ZZZZ=           -226.7230 XXXY=            -28.2604
 XXXZ=             -0.4925 YYYX=             -2.9112 YYYZ=             -0.2610 ZZZX=              0.0624
 ZZZY=              0.3321 XXYY=           -444.1473 XXZZ=           -423.1664 YYZZ=           -113.4969
 XXYZ=             -0.1710 YYXZ=              0.0985 ZZXY=            -12.0202
 N-N= 6.005183329078D+02 E-N=-2.406473174000D+03  KE= 5.144236205582D+02
 There are a total of      181712 grid points.
 ElSum from          density=       82.0000573216
 ElSum from atomic densities=       81.9999467541

 Hirshfeld populations at iteration   1 (CX, CA, CB, DipXYZ):
               1          2          3          4          5          6
     1  C    0.000000   2.957959   2.957959   0.005665  -0.126013   0.000012
     2  C    0.000000   3.042437   3.042437   0.042286   0.103065  -0.000015
     3  C    0.000000   3.028242   3.028242  -0.023430   0.114433   0.000049
     4  C    0.000000   2.980929   2.980929   0.010203  -0.108373   0.000083
     5  O    0.000000   4.048594   4.048594   0.013545   0.119539   0.000026
     6  H    0.000002   0.470884   0.470884   0.103056   0.138063   0.000002
     7  H    0.000001   0.468238   0.468238  -0.073531   0.154710  -0.000009
     8  C    0.000000   3.042789   3.042789   0.010573  -0.007483   0.000005
     9  H    0.000001   0.473205   0.473205   0.011948  -0.096298   0.130009
    10  H    0.000001   0.473209   0.473209   0.011973  -0.096251  -0.130034
    11  H    0.000001   0.474883   0.474883   0.128857   0.093702   0.000031
    12  C    0.000000   2.899124   2.899124  -0.042208   0.043033   0.000361
    13  O    0.000005   4.132086   4.132086  -0.008821   0.108824   0.000640
    14  N    0.000000   3.578923   3.578923  -0.056190  -0.157480   0.000045
    15  C    0.000000   3.023161   3.023161   0.002480   0.015877   0.011125
    16  H    0.000001   0.484483   0.484483  -0.078805  -0.107699   0.006527
    17  H    0.000000   0.478631   0.478631  -0.097178   0.112752  -0.023490
    18  H    0.000001   0.477904   0.477904   0.080349  -0.009248  -0.127200
    19  C    0.000000   3.023218   3.023218   0.001948   0.016476  -0.011030
    20  H    0.000000   0.478213   0.478213  -0.106291   0.106027   0.016100
    21  H    0.000001   0.484783   0.484783  -0.069961  -0.112981   0.000112
    22  H    0.000001   0.478133   0.478133   0.079017   0.003441   0.128122
       Tot   0.000014  41.000029  41.000029  -0.054514   0.308116   0.001471

 Dip from Atomic Chgs              0.653468   0.747982  -0.002155
         Total Dipole              0.598953   1.056099  -0.000684

 Hirshfeld charges, spin densities, dipoles, and CM5 charges using IRadAn=      4:
              Q-H        S-H        Dx         Dy         Dz        Q-CM5   
     1  C    0.084082   0.000000   0.005665  -0.126013   0.000012   0.093613
     2  C   -0.084874   0.000000   0.042286   0.103065  -0.000015  -0.134065
     3  C   -0.056485   0.000000  -0.023430   0.114433   0.000049  -0.104069
     4  C    0.038142   0.000000   0.010203  -0.108373   0.000083   0.063208
     5  O   -0.097189   0.000000   0.013545   0.119539   0.000026  -0.157410
     6  H    0.058231   0.000000   0.103056   0.138063   0.000002   0.113065
     7  H    0.063524   0.000000  -0.073531   0.154710  -0.000009   0.119460
     8  C   -0.085577   0.000000   0.010573  -0.007483   0.000005  -0.234852
     9  H    0.053589   0.000000   0.011948  -0.096298   0.130009   0.109589
    10  H    0.053582   0.000000   0.011973  -0.096251  -0.130034   0.109582
    11  H    0.050234   0.000000   0.128857   0.093702   0.000031   0.104960
    12  C    0.201752   0.000000  -0.042208   0.043033   0.000361   0.287600
    13  O   -0.264172   0.000000  -0.008821   0.108824   0.000640  -0.305507
    14  N   -0.157846   0.000000  -0.056190  -0.157480   0.000045  -0.405842
    15  C   -0.046321   0.000000   0.002480   0.015877   0.011125  -0.144475
    16  H    0.031034   0.000000  -0.078805  -0.107699   0.006527   0.098020
    17  H    0.042739   0.000000  -0.097178   0.112752  -0.023490   0.106844
    18  H    0.044191   0.000000   0.080349  -0.009248  -0.127200   0.110080
    19  C   -0.046435   0.000000   0.001948   0.016476  -0.011030  -0.144626
    20  H    0.043574   0.000000  -0.106291   0.106027   0.016100   0.107775
    21  H    0.030433   0.000000  -0.069961  -0.112981   0.000112   0.097694
    22  H    0.043733   0.000000   0.079017   0.003441   0.128122   0.109301
       Tot  -0.000057   0.000000  -0.054514   0.308116   0.001471  -0.000057
 Hirshfeld charges with hydrogens summed into heavy atoms:
              Q-H       Q-CM5   
     1  C    0.084082   0.093613
     2  C   -0.026643  -0.021001
     3  C    0.007040   0.015391
     4  C    0.038142   0.063208
     5  O   -0.097189  -0.157410
     8  C    0.071828   0.089279
    12  C    0.201752   0.287600
    13  O   -0.264172  -0.305507
    14  N   -0.157846  -0.405842
    15  C    0.071643   0.170468
    19  C    0.071305   0.170144
 
 EQQ= 0.000000000000E+00 EQD= 0.000000000000E+00 EDD= 0.635057386424E-03
 EQQ+QD+DD= 0.635057386424E-03
 
          MBS Condensed to atoms (all electrons):
               1          2          3          4          5          6
     1  C    4.803182   0.537719  -0.050471  -0.062233   0.312488  -0.018795
     2  C    0.537719   4.902431   0.457506  -0.052612  -0.035265   0.387625
     3  C   -0.050471   0.457506   4.861435   0.529318  -0.035921  -0.018615
     4  C   -0.062233  -0.052612   0.529318   4.866442   0.303277   0.001619
     5  O    0.312488  -0.035265  -0.035921   0.303277   7.773183   0.000719
     6  H   -0.018795   0.387625  -0.018615   0.001619   0.000719   0.525467
     7  H    0.001603  -0.018199   0.385996  -0.018067   0.000712  -0.001338
     8  C    0.374593  -0.018908   0.000795   0.001456  -0.019394  -0.000690
     9  H   -0.021592   0.000448  -0.000027   0.000032  -0.000612   0.000010
    10  H   -0.021592   0.000447  -0.000026   0.000032  -0.000612   0.000010
    11  H   -0.019283  -0.001722   0.000025  -0.000045   0.000631   0.000216
    12  C    0.001266   0.000662  -0.015171   0.380668  -0.017134  -0.000008
    13  O    0.000006  -0.000003   0.000196  -0.027394   0.000008   0.000000
    14  N   -0.000006   0.000004  -0.000087  -0.032936   0.000091   0.000000
    15  C    0.000000   0.000000  -0.000022   0.000719  -0.000002   0.000000
    16  H    0.000000   0.000000  -0.000001  -0.000013   0.000000   0.000000
    17  H    0.000000   0.000000   0.000001  -0.000021   0.000000   0.000000
    18  H    0.000000   0.000000   0.000010   0.000338  -0.000003   0.000000
    19  C    0.000000   0.000000  -0.000024   0.000718  -0.000002   0.000000
    20  H    0.000000   0.000000   0.000001  -0.000021   0.000000   0.000000
    21  H    0.000000   0.000000  -0.000001  -0.000003   0.000000   0.000000
    22  H    0.000000   0.000000   0.000013   0.000327  -0.000002   0.000000
               7          8          9         10         11         12
     1  C    0.001603   0.374593  -0.021592  -0.021592  -0.019283   0.001266
     2  C   -0.018199  -0.018908   0.000448   0.000447  -0.001722   0.000662
     3  C    0.385996   0.000795  -0.000027  -0.000026   0.000025  -0.015171
     4  C   -0.018067   0.001456   0.000032   0.000032  -0.000045   0.380668
     5  O    0.000712  -0.019394  -0.000612  -0.000612   0.000631  -0.017134
     6  H   -0.001338  -0.000690   0.000010   0.000010   0.000216  -0.000008
     7  H    0.507623  -0.000010   0.000000   0.000000  -0.000001  -0.000653
     8  C   -0.000010   4.795932   0.379749   0.379746   0.380434  -0.000007
     9  H    0.000000   0.379749   0.558012  -0.022013  -0.021048   0.000000
    10  H    0.000000   0.379746  -0.022013   0.558025  -0.021048   0.000000
    11  H   -0.000001   0.380434  -0.021048  -0.021048   0.567001   0.000000
    12  C   -0.000653  -0.000007   0.000000   0.000000   0.000000   4.536958
    13  O    0.000003   0.000000   0.000000   0.000000   0.000000   0.448890
    14  N    0.000616   0.000000   0.000000   0.000000   0.000000   0.312586
    15  C   -0.000015   0.000000   0.000000   0.000000   0.000000  -0.029680
    16  H    0.000001   0.000000   0.000000   0.000000   0.000000  -0.002479
    17  H   -0.000001   0.000000   0.000000   0.000000   0.000000   0.002046
    18  H   -0.000002   0.000000   0.000000   0.000000   0.000000  -0.003569
    19  C   -0.000015   0.000000   0.000000   0.000000   0.000000  -0.029595
    20  H   -0.000001   0.000000   0.000000   0.000000   0.000000   0.002062
    21  H    0.000001   0.000000   0.000000   0.000000   0.000000  -0.003229
    22  H   -0.000003   0.000000   0.000000   0.000000   0.000000  -0.002996
              13         14         15         16         17         18
     1  C    0.000006  -0.000006   0.000000   0.000000   0.000000   0.000000
     2  C   -0.000003   0.000004   0.000000   0.000000   0.000000   0.000000
     3  C    0.000196  -0.000087  -0.000022  -0.000001   0.000001   0.000010
     4  C   -0.027394  -0.032936   0.000719  -0.000013  -0.000021   0.000338
     5  O    0.000008   0.000091  -0.000002   0.000000   0.000000  -0.000003
     6  H    0.000000   0.000000   0.000000   0.000000   0.000000   0.000000
     7  H    0.000003   0.000616  -0.000015   0.000001  -0.000001  -0.000002
     8  C    0.000000   0.000000   0.000000   0.000000   0.000000   0.000000
     9  H    0.000000   0.000000   0.000000   0.000000   0.000000   0.000000
    10  H    0.000000   0.000000   0.000000   0.000000   0.000000   0.000000
    11  H    0.000000   0.000000   0.000000   0.000000   0.000000   0.000000
    12  C    0.448890   0.312586  -0.029680  -0.002479   0.002046  -0.003569
    13  O    8.028893  -0.026021  -0.001612   0.001288   0.000005  -0.000023
    14  N   -0.026021   6.621245   0.321834  -0.024947  -0.023476  -0.020879
    15  C   -0.001612   0.321834   4.764883   0.373829   0.383454   0.382577
    16  H    0.001288  -0.024947   0.373829   0.607969  -0.027274  -0.023450
    17  H    0.000005  -0.023476   0.383454  -0.027274   0.581929  -0.021680
    18  H   -0.000023  -0.020879   0.382577  -0.023450  -0.021680   0.576969
    19  C   -0.001778   0.322443  -0.036085  -0.006704  -0.001025   0.002186
    20  H    0.000004  -0.022842  -0.001469  -0.000587   0.000969   0.000010
    21  H    0.001684  -0.025182  -0.006115   0.005409  -0.000464   0.000059
    22  H   -0.000038  -0.021277   0.002203   0.000059  -0.000001  -0.000092
              19         20         21         22
     1  C    0.000000   0.000000   0.000000   0.000000
     2  C    0.000000   0.000000   0.000000   0.000000
     3  C   -0.000024   0.000001  -0.000001   0.000013
     4  C    0.000718  -0.000021  -0.000003   0.000327
     5  O   -0.000002   0.000000   0.000000  -0.000002
     6  H    0.000000   0.000000   0.000000   0.000000
     7  H   -0.000015  -0.000001   0.000001  -0.000003
     8  C    0.000000   0.000000   0.000000   0.000000
     9  H    0.000000   0.000000   0.000000   0.000000
    10  H    0.000000   0.000000   0.000000   0.000000
    11  H    0.000000   0.000000   0.000000   0.000000
    12  C   -0.029595   0.002062  -0.003229  -0.002996
    13  O   -0.001778   0.000004   0.001684  -0.000038
    14  N    0.322443  -0.022842  -0.025182  -0.021277
    15  C   -0.036085  -0.001469  -0.006115   0.002203
    16  H   -0.006704  -0.000587   0.005409   0.000059
    17  H   -0.001025   0.000969  -0.000464  -0.000001
    18  H    0.002186   0.000010   0.000059  -0.000092
    19  C    4.765288   0.383526   0.373444   0.382568
    20  H    0.383526   0.581376  -0.026889  -0.021581
    21  H    0.373444  -0.026889   0.607334  -0.024006
    22  H    0.382568  -0.021581  -0.024006   0.577910
 MBS Mulliken charges:
               1
     1  C    0.163116
     2  C   -0.160134
     3  C   -0.114929
     4  C    0.108396
     5  O   -0.282162
     6  H    0.123779
     7  H    0.141749
     8  C   -0.273697
     9  H    0.127041
    10  H    0.127031
    11  H    0.114841
    12  C    0.419384
    13  O   -0.424109
    14  N   -0.381166
    15  C   -0.154499
    16  H    0.096901
    17  H    0.105539
    18  H    0.107549
    19  C   -0.154944
    20  H    0.105442
    21  H    0.097956
    22  H    0.106916
 Sum of MBS Mulliken charges =   0.00000
 MBS Mulliken charges with hydrogens summed into heavy atoms:
               1
     1  C    0.163116
     2  C   -0.036355
     3  C    0.026820
     4  C    0.108396
     5  O   -0.282162
     8  C    0.095215
    12  C    0.419384
    13  O   -0.424109
    14  N   -0.381166
    15  C    0.155490
    19  C    0.155371
 Breneman (CHELPG) radii used.
 Generate Potential Derived Charges using the Breneman model, NDens= 1.
 Grid spacing= 0.300 Box extension= 2.800
 NStep X,Y,Z=   48     34     34   Total possible points=       55488
 Number of Points to Fit=   15007

 **********************************************************************

            Electrostatic Properties Using The SCF Density

 **********************************************************************

       Atomic Center    1 is at   2.578687  0.058763  0.000048
       Atomic Center    2 is at   2.256744  1.400255 -0.000006
       Atomic Center    3 is at   0.810899  1.479777  0.000014
       Atomic Center    4 is at   0.344992  0.181130 -0.000010
       Atomic Center    5 is at   1.416039 -0.713120 -0.000120
       Atomic Center    6 is at   2.936657  2.246813  0.000050
       Atomic Center    7 is at   0.227593  2.395526 -0.000022
       Atomic Center    8 is at   3.885119 -0.756611  0.000048
       Atomic Center    9 is at   3.920535 -1.373503  0.873598
       Atomic Center   10 is at   3.920720 -1.373206 -0.873705
       Atomic Center   11 is at   4.721818 -0.089651  0.000250
       Atomic Center   12 is at  -1.042669 -0.486700 -0.000028
       Atomic Center   13 is at  -1.182140 -1.706067 -0.000048
       Atomic Center   14 is at  -2.189098  0.433409  0.000032
       Atomic Center   15 is at  -3.004999  0.199738 -1.200219
       Atomic Center   16 is at  -3.558324 -0.708687 -1.084051
       Atomic Center   17 is at  -3.683627  1.016007 -1.334645
       Atomic Center   18 is at  -2.366935  0.121808 -2.055614
       Atomic Center   19 is at  -3.004969  0.199620  1.200281
       Atomic Center   20 is at  -3.748524  0.964836  1.280725
       Atomic Center   21 is at  -3.482291 -0.755180  1.126667
       Atomic Center   22 is at  -2.377955  0.219034  2.067102
   15007 points will be used for fitting atomic charges
 Fitting point charges to electrostatic potential
 Charges from ESP fit, RMS=   0.00340 RRMS=   0.23413:
 ESP charges:
               1
     1  C    0.370445
     2  C   -0.324946
     3  C    0.035085
     4  C   -0.156592
     5  O   -0.248022
     6  H    0.156589
     7  H    0.080673
     8  C   -0.384567
     9  H    0.133878
    10  H    0.134224
    11  H    0.110969
    12  C    0.907497
    13  O   -0.540676
    14  N   -0.574589
    15  C   -0.065630
    16  H    0.065467
    17  H    0.098038
    18  H    0.048230
    19  C   -0.034963
    20  H    0.093256
    21  H    0.057403
    22  H    0.038232
 Sum of ESP charges =   0.00000
 ESP charges with hydrogens summed into heavy atoms:
               1
     1  C    0.370445
     2  C   -0.168357
     3  C    0.115758
     4  C   -0.156592
     5  O   -0.248022
     8  C   -0.005496
    12  C    0.907497
    13  O   -0.540676
    14  N   -0.574589
    15  C    0.146105
    19  C    0.153928
 Charge=   0.00000 Dipole=     1.4833     2.6456    -0.0062 Tot=     3.0331
 -----------------------------------------------------------------

              Electrostatic Properties (Atomic Units)

 -----------------------------------------------------------------
    Center     Electric         -------- Electric Field --------
               Potential          X             Y             Z
 -----------------------------------------------------------------
    1 Atom    -14.693227
    2 Atom    -14.758629
    3 Atom    -14.751119
    4 Atom    -14.703379
    5 Atom    -22.301135
    6 Atom     -1.078991
    7 Atom     -1.079580
    8 Atom    -14.758094
    9 Atom     -1.098756
   10 Atom     -1.098755
   11 Atom     -1.097034
   12 Atom    -14.653226
   13 Atom    -22.379937
   14 Atom    -18.394676
   15 Atom    -14.761383
   16 Atom     -1.128496
   17 Atom     -1.119635
   18 Atom     -1.116447
   19 Atom    -14.761404
   20 Atom     -1.118451
   21 Atom     -1.129047
   22 Atom     -1.117245
 -----------------------------------------------------------------
 ******************************Gaussian NBO Version 3.1******************************
             N A T U R A L   A T O M I C   O R B I T A L   A N D
          N A T U R A L   B O N D   O R B I T A L   A N A L Y S I S
 ******************************Gaussian NBO Version 3.1******************************
       /RESON  / : Allow strongly delocalized NBO set

 Analyzing the SCF density

 Job title: Title Card Required                                             

 Storage needed:    286374 in NPA ( 536868272 available)


 NATURAL POPULATIONS:  Natural atomic orbital occupancies 
                                                          
   NAO  Atom  No  lang   Type(AO)    Occupancy      Energy
 ----------------------------------------------------------
     1    C    1  S      Cor( 1S)     1.99905     -10.13553
     2    C    1  S      Val( 2S)     0.89049      -0.20325
     3    C    1  S      Ryd( 3S)     0.00129       0.76091
     4    C    1  S      Ryd( 4S)     0.00011       0.99485
     5    C    1  S      Ryd( 5S)     0.00001      23.00007
     6    C    1  px     Val( 2p)     0.80959      -0.05369
     7    C    1  px     Ryd( 4p)     0.00482       1.18724
     8    C    1  px     Ryd( 3p)     0.00035       0.69830
     9    C    1  px     Ryd( 5p)     0.00009       2.69501
    10    C    1  py     Val( 2p)     0.94596      -0.06118
    11    C    1  py     Ryd( 4p)     0.00730       0.95103
    12    C    1  py     Ryd( 3p)     0.00040       0.72973
    13    C    1  py     Ryd( 5p)     0.00012       2.82901
    14    C    1  pz     Val( 2p)     0.98100      -0.13671
    15    C    1  pz     Ryd( 3p)     0.00192       0.61489
    16    C    1  pz     Ryd( 4p)     0.00027       0.67278
    17    C    1  pz     Ryd( 5p)     0.00009       2.35334
    18    C    1  dxy    Ryd( 3d)     0.00197       2.43435
    19    C    1  dxz    Ryd( 3d)     0.00151       1.57939
    20    C    1  dyz    Ryd( 3d)     0.00141       1.62566
    21    C    1  dx2y2  Ryd( 3d)     0.00169       2.37868
    22    C    1  dz2    Ryd( 3d)     0.00067       1.98293

    23    C    2  S      Cor( 1S)     1.99902     -10.04878
    24    C    2  S      Val( 2S)     0.97377      -0.19319
    25    C    2  S      Ryd( 3S)     0.00099       0.81875
    26    C    2  S      Ryd( 4S)     0.00008       1.47478
    27    C    2  S      Ryd( 5S)     0.00001      22.34009
    28    C    2  px     Val( 2p)     1.08856      -0.07735
    29    C    2  px     Ryd( 4p)     0.00369       0.80990
    30    C    2  px     Ryd( 3p)     0.00032       0.44402
    31    C    2  px     Ryd( 5p)     0.00013       3.02482
    32    C    2  py     Val( 2p)     1.14885      -0.08499
    33    C    2  py     Ryd( 4p)     0.00442       0.90519
    34    C    2  py     Ryd( 3p)     0.00034       0.45410
    35    C    2  py     Ryd( 5p)     0.00010       3.02865
    36    C    2  pz     Val( 2p)     1.09458      -0.12939
    37    C    2  pz     Ryd( 4p)     0.00161       0.48744
    38    C    2  pz     Ryd( 3p)     0.00038       0.30369
    39    C    2  pz     Ryd( 5p)     0.00003       2.67232
    40    C    2  dxy    Ryd( 3d)     0.00070       2.38329
    41    C    2  dxz    Ryd( 3d)     0.00052       1.59886
    42    C    2  dyz    Ryd( 3d)     0.00075       1.66160
    43    C    2  dx2y2  Ryd( 3d)     0.00075       2.57775
    44    C    2  dz2    Ryd( 3d)     0.00045       2.07159

    45    C    3  S      Cor( 1S)     1.99907     -10.05694
    46    C    3  S      Val( 2S)     0.97829      -0.19784
    47    C    3  S      Ryd( 3S)     0.00101       0.86968
    48    C    3  S      Ryd( 4S)     0.00005       1.45142
    49    C    3  S      Ryd( 5S)     0.00001      22.30146
    50    C    3  px     Val( 2p)     1.06779      -0.07241
    51    C    3  px     Ryd( 4p)     0.00446       0.85469
    52    C    3  px     Ryd( 3p)     0.00024       0.51379
    53    C    3  px     Ryd( 5p)     0.00015       3.08244
    54    C    3  py     Val( 2p)     1.16078      -0.07882
    55    C    3  py     Ryd( 4p)     0.00482       0.96091
    56    C    3  py     Ryd( 3p)     0.00032       0.30105
    57    C    3  py     Ryd( 5p)     0.00010       3.15554
    58    C    3  pz     Val( 2p)     1.00256      -0.12681
    59    C    3  pz     Ryd( 4p)     0.00099       0.52876
    60    C    3  pz     Ryd( 3p)     0.00028       0.37573
    61    C    3  pz     Ryd( 5p)     0.00005       2.61880
    62    C    3  dxy    Ryd( 3d)     0.00079       2.42712
    63    C    3  dxz    Ryd( 3d)     0.00061       1.59477
    64    C    3  dyz    Ryd( 3d)     0.00070       1.66494
    65    C    3  dx2y2  Ryd( 3d)     0.00065       2.57296
    66    C    3  dz2    Ryd( 3d)     0.00043       2.09578

    67    C    4  S      Cor( 1S)     1.99887     -10.12579
    68    C    4  S      Val( 2S)     0.90041      -0.19765
    69    C    4  S      Ryd( 3S)     0.00221       0.83077
    70    C    4  S      Ryd( 4S)     0.00007       1.38889
    71    C    4  S      Ryd( 5S)     0.00001      22.61162
    72    C    4  px     Val( 2p)     0.87365      -0.06488
    73    C    4  px     Ryd( 4p)     0.00533       1.31296
    74    C    4  px     Ryd( 3p)     0.00023       1.08322
    75    C    4  px     Ryd( 5p)     0.00011       2.61041
    76    C    4  py     Val( 2p)     0.92354      -0.06681
    77    C    4  py     Ryd( 4p)     0.01045       1.17218
    78    C    4  py     Ryd( 3p)     0.00034       0.91727
    79    C    4  py     Ryd( 5p)     0.00010       2.64739
    80    C    4  pz     Val( 2p)     1.08970      -0.13909
    81    C    4  pz     Ryd( 3p)     0.00181       0.64201
    82    C    4  pz     Ryd( 4p)     0.00011       0.92565
    83    C    4  pz     Ryd( 5p)     0.00012       2.14773
    84    C    4  dxy    Ryd( 3d)     0.00204       2.51904
    85    C    4  dxz    Ryd( 3d)     0.00121       1.56521
    86    C    4  dyz    Ryd( 3d)     0.00130       1.61849
    87    C    4  dx2y2  Ryd( 3d)     0.00163       2.35187
    88    C    4  dz2    Ryd( 3d)     0.00068       1.99654

    89    O    5  S      Cor( 1S)     1.99973     -18.97526
    90    O    5  S      Val( 2S)     1.61840      -0.91406
    91    O    5  S      Ryd( 3S)     0.00189       0.61229
    92    O    5  S      Ryd( 4S)     0.00005       1.51760
    93    O    5  S      Ryd( 5S)     0.00000      49.61379
    94    O    5  px     Val( 2p)     1.39187      -0.33153
    95    O    5  px     Ryd( 3p)     0.00195       0.93401
    96    O    5  px     Ryd( 4p)     0.00048       1.09613
    97    O    5  px     Ryd( 5p)     0.00001       5.22454
    98    O    5  py     Val( 2p)     1.73531      -0.36567
    99    O    5  py     Ryd( 3p)     0.00420       0.44274
   100    O    5  py     Ryd( 4p)     0.00078       1.02149
   101    O    5  py     Ryd( 5p)     0.00007       5.07285
   102    O    5  pz     Val( 2p)     1.70916      -0.33428
   103    O    5  pz     Ryd( 3p)     0.00181       0.41660
   104    O    5  pz     Ryd( 4p)     0.00015       0.86938
   105    O    5  pz     Ryd( 5p)     0.00001       4.89755
   106    O    5  dxy    Ryd( 3d)     0.00149       3.57818
   107    O    5  dxz    Ryd( 3d)     0.00031       2.91069
   108    O    5  dyz    Ryd( 3d)     0.00107       2.88785
   109    O    5  dx2y2  Ryd( 3d)     0.00079       3.13875
   110    O    5  dz2    Ryd( 3d)     0.00063       3.23701

   111    H    6  S      Val( 1S)     0.76975       0.03393
   112    H    6  S      Ryd( 2S)     0.00047       0.67412
   113    H    6  S      Ryd( 3S)     0.00024       1.92906
   114    H    6  px     Ryd( 2p)     0.00023       2.22394
   115    H    6  py     Ryd( 2p)     0.00033       2.41091
   116    H    6  pz     Ryd( 2p)     0.00017       1.58387

   117    H    7  S      Val( 1S)     0.75991       0.04453
   118    H    7  S      Ryd( 3S)     0.00121       1.36707
   119    H    7  S      Ryd( 2S)     0.00023       1.26551
   120    H    7  px     Ryd( 2p)     0.00021       2.16273
   121    H    7  py     Ryd( 2p)     0.00034       2.51270
   122    H    7  pz     Ryd( 2p)     0.00015       1.58976

   123    C    8  S      Cor( 1S)     1.99926     -10.04174
   124    C    8  S      Val( 2S)     1.08897      -0.26381
   125    C    8  S      Ryd( 3S)     0.00066       0.95702
   126    C    8  S      Ryd( 4S)     0.00005       1.07217
   127    C    8  S      Ryd( 5S)     0.00000      22.79778
   128    C    8  px     Val( 2p)     1.10129      -0.11021
   129    C    8  px     Ryd( 3p)     0.00139       0.56663
   130    C    8  px     Ryd( 4p)     0.00022       0.79095
   131    C    8  px     Ryd( 5p)     0.00005       2.43400
   132    C    8  py     Val( 2p)     1.18211      -0.11148
   133    C    8  py     Ryd( 3p)     0.00186       0.53438
   134    C    8  py     Ryd( 4p)     0.00008       0.80541
   135    C    8  py     Ryd( 5p)     0.00004       2.47599
   136    C    8  pz     Val( 2p)     1.22481      -0.11293
   137    C    8  pz     Ryd( 3p)     0.00055       0.51093
   138    C    8  pz     Ryd( 4p)     0.00006       0.78691
   139    C    8  pz     Ryd( 5p)     0.00007       2.48087
   140    C    8  dxy    Ryd( 3d)     0.00090       2.29892
   141    C    8  dxz    Ryd( 3d)     0.00022       1.74627
   142    C    8  dyz    Ryd( 3d)     0.00104       2.24627
   143    C    8  dx2y2  Ryd( 3d)     0.00027       1.97655
   144    C    8  dz2    Ryd( 3d)     0.00071       2.13168

   145    H    9  S      Val( 1S)     0.77631       0.03326
   146    H    9  S      Ryd( 2S)     0.00086       0.75075
   147    H    9  S      Ryd( 3S)     0.00015       1.95401
   148    H    9  px     Ryd( 2p)     0.00015       1.72470
   149    H    9  py     Ryd( 2p)     0.00016       2.09671
   150    H    9  pz     Ryd( 2p)     0.00023       2.41098

   151    H   10  S      Val( 1S)     0.77632       0.03325
   152    H   10  S      Ryd( 2S)     0.00086       0.75068
   153    H   10  S      Ryd( 3S)     0.00015       1.95410
   154    H   10  px     Ryd( 2p)     0.00015       1.72470
   155    H   10  py     Ryd( 2p)     0.00016       2.09638
   156    H   10  pz     Ryd( 2p)     0.00023       2.41125

   157    H   11  S      Val( 1S)     0.78423       0.02596
   158    H   11  S      Ryd( 2S)     0.00047       0.56154
   159    H   11  S      Ryd( 3S)     0.00009       2.12803
   160    H   11  px     Ryd( 2p)     0.00024       2.32638
   161    H   11  py     Ryd( 2p)     0.00018       2.11252
   162    H   11  pz     Ryd( 2p)     0.00008       1.73594

   163    C   12  S      Cor( 1S)     1.99931     -10.18134
   164    C   12  S      Val( 2S)     0.82294      -0.18421
   165    C   12  S      Ryd( 3S)     0.00515       0.85722
   166    C   12  S      Ryd( 4S)     0.00007       8.90214
   167    C   12  S      Ryd( 5S)     0.00004      14.90234
   168    C   12  px     Val( 2p)     0.91522      -0.05610
   169    C   12  px     Ryd( 4p)     0.00436       1.21325
   170    C   12  px     Ryd( 3p)     0.00037       0.54087
   171    C   12  px     Ryd( 5p)     0.00018       2.66746
   172    C   12  py     Val( 2p)     0.77283      -0.01107
   173    C   12  py     Ryd( 4p)     0.02063       0.97413
   174    C   12  py     Ryd( 3p)     0.00020       0.45777
   175    C   12  py     Ryd( 5p)     0.00007       2.81395
   176    C   12  pz     Val( 2p)     0.75656      -0.13176
   177    C   12  pz     Ryd( 4p)     0.00239       0.73452
   178    C   12  pz     Ryd( 3p)     0.00019       0.49224
   179    C   12  pz     Ryd( 5p)     0.00007       2.49735
   180    C   12  dxy    Ryd( 3d)     0.00503       2.36989
   181    C   12  dxz    Ryd( 3d)     0.00103       1.60606
   182    C   12  dyz    Ryd( 3d)     0.00327       1.66526
   183    C   12  dx2y2  Ryd( 3d)     0.00240       2.47750
   184    C   12  dz2    Ryd( 3d)     0.00061       2.01045

   185    O   13  S      Cor( 1S)     1.99975     -18.85707
   186    O   13  S      Val( 2S)     1.70641      -0.90070
   187    O   13  S      Ryd( 4S)     0.00125       1.47034
   188    O   13  S      Ryd( 3S)     0.00020       1.27083
   189    O   13  S      Ryd( 5S)     0.00000      49.72281
   190    O   13  px     Val( 2p)     1.85682      -0.26742
   191    O   13  px     Ryd( 3p)     0.00364       0.80921
   192    O   13  px     Ryd( 4p)     0.00015       1.31500
   193    O   13  px     Ryd( 5p)     0.00001       4.71629
   194    O   13  py     Val( 2p)     1.59354      -0.31116
   195    O   13  py     Ryd( 3p)     0.00087       0.70679
   196    O   13  py     Ryd( 4p)     0.00022       1.53311
   197    O   13  py     Ryd( 5p)     0.00011       4.61030
   198    O   13  pz     Val( 2p)     1.38333      -0.25369
   199    O   13  pz     Ryd( 3p)     0.00113       0.63259
   200    O   13  pz     Ryd( 4p)     0.00003       1.32444
   201    O   13  pz     Ryd( 5p)     0.00003       4.52807
   202    O   13  dxy    Ryd( 3d)     0.00133       3.25343
   203    O   13  dxz    Ryd( 3d)     0.00003       2.85327
   204    O   13  dyz    Ryd( 3d)     0.00158       3.08732
   205    O   13  dx2y2  Ryd( 3d)     0.00144       3.54823
   206    O   13  dz2    Ryd( 3d)     0.00042       3.09427

   207    N   14  S      Cor( 1S)     1.99946     -14.15961
   208    N   14  S      Val( 2S)     1.33053      -0.54327
   209    N   14  S      Ryd( 3S)     0.00412       0.80694
   210    N   14  S      Ryd( 4S)     0.00052       1.51418
   211    N   14  S      Ryd( 5S)     0.00000      35.26439
   212    N   14  px     Val( 2p)     1.30281      -0.20935
   213    N   14  px     Ryd( 4p)     0.00184       0.81376
   214    N   14  px     Ryd( 3p)     0.00141       0.62489
   215    N   14  px     Ryd( 5p)     0.00006       4.22303
   216    N   14  py     Val( 2p)     1.71115      -0.23048
   217    N   14  py     Ryd( 4p)     0.00752       0.65668
   218    N   14  py     Ryd( 3p)     0.00079       0.56374
   219    N   14  py     Ryd( 5p)     0.00007       3.97198
   220    N   14  pz     Val( 2p)     1.23638      -0.20202
   221    N   14  pz     Ryd( 4p)     0.00261       0.73772
   222    N   14  pz     Ryd( 3p)     0.00083       0.58485
   223    N   14  pz     Ryd( 5p)     0.00002       4.24706
   224    N   14  dxy    Ryd( 3d)     0.00143       2.65226
   225    N   14  dxz    Ryd( 3d)     0.00071       2.78575
   226    N   14  dyz    Ryd( 3d)     0.00087       2.33702
   227    N   14  dx2y2  Ryd( 3d)     0.00072       2.43315
   228    N   14  dz2    Ryd( 3d)     0.00076       2.59528

   229    C   15  S      Cor( 1S)     1.99930     -10.04380
   230    C   15  S      Val( 2S)     1.05795      -0.23009
   231    C   15  S      Ryd( 4S)     0.00100       0.97616
   232    C   15  S      Ryd( 3S)     0.00005       0.50389
   233    C   15  S      Ryd( 5S)     0.00001      23.50752
   234    C   15  px     Val( 2p)     1.10189      -0.08769
   235    C   15  px     Ryd( 3p)     0.00240       0.62170
   236    C   15  px     Ryd( 4p)     0.00020       0.72087
   237    C   15  px     Ryd( 5p)     0.00007       2.56621
   238    C   15  py     Val( 2p)     1.19393      -0.09128
   239    C   15  py     Ryd( 3p)     0.00208       0.61648
   240    C   15  py     Ryd( 4p)     0.00067       0.77857
   241    C   15  py     Ryd( 5p)     0.00004       2.55174
   242    C   15  pz     Val( 2p)     0.98170      -0.08018
   243    C   15  pz     Ryd( 3p)     0.00196       0.62970
   244    C   15  pz     Ryd( 4p)     0.00017       0.72649
   245    C   15  pz     Ryd( 5p)     0.00012       2.56831
   246    C   15  dxy    Ryd( 3d)     0.00125       2.27358
   247    C   15  dxz    Ryd( 3d)     0.00131       2.27126
   248    C   15  dyz    Ryd( 3d)     0.00070       1.82896
   249    C   15  dx2y2  Ryd( 3d)     0.00047       1.91792
   250    C   15  dz2    Ryd( 3d)     0.00117       2.16230

   251    H   16  S      Val( 1S)     0.82106       0.04039
   252    H   16  S      Ryd( 2S)     0.00218       0.74308
   253    H   16  S      Ryd( 3S)     0.00024       1.95679
   254    H   16  px     Ryd( 2p)     0.00014       2.09909
   255    H   16  py     Ryd( 2p)     0.00030       2.49418
   256    H   16  pz     Ryd( 2p)     0.00015       1.73835

   257    H   17  S      Val( 1S)     0.80838       0.03987
   258    H   17  S      Ryd( 2S)     0.00075       0.46193
   259    H   17  S      Ryd( 3S)     0.00021       2.21514
   260    H   17  px     Ryd( 2p)     0.00019       2.17265
   261    H   17  py     Ryd( 2p)     0.00026       2.34949
   262    H   17  pz     Ryd( 2p)     0.00009       1.79581

   263    H   18  S      Val( 1S)     0.80297       0.04004
   264    H   18  S      Ryd( 2S)     0.00036       0.67126
   265    H   18  S      Ryd( 3S)     0.00024       2.02579
   266    H   18  px     Ryd( 2p)     0.00019       2.08422
   267    H   18  py     Ryd( 2p)     0.00015       1.79049
   268    H   18  pz     Ryd( 2p)     0.00022       2.42029

   269    C   19  S      Cor( 1S)     1.99929     -10.04376
   270    C   19  S      Val( 2S)     1.05822      -0.23038
   271    C   19  S      Ryd( 4S)     0.00102       0.97357
   272    C   19  S      Ryd( 3S)     0.00005       0.50140
   273    C   19  S      Ryd( 5S)     0.00001      23.50845
   274    C   19  px     Val( 2p)     1.10163      -0.08763
   275    C   19  px     Ryd( 3p)     0.00230       0.63582
   276    C   19  px     Ryd( 4p)     0.00021       0.72485
   277    C   19  px     Ryd( 5p)     0.00007       2.55893
   278    C   19  py     Val( 2p)     1.19459      -0.09137
   279    C   19  py     Ryd( 3p)     0.00197       0.61061
   280    C   19  py     Ryd( 4p)     0.00065       0.77636
   281    C   19  py     Ryd( 5p)     0.00003       2.55177
   282    C   19  pz     Val( 2p)     0.98172      -0.08007
   283    C   19  pz     Ryd( 3p)     0.00199       0.62791
   284    C   19  pz     Ryd( 4p)     0.00017       0.72506
   285    C   19  pz     Ryd( 5p)     0.00012       2.57039
   286    C   19  dxy    Ryd( 3d)     0.00120       2.24606
   287    C   19  dxz    Ryd( 3d)     0.00130       2.26667
   288    C   19  dyz    Ryd( 3d)     0.00067       1.81312
   289    C   19  dx2y2  Ryd( 3d)     0.00053       1.94682
   290    C   19  dz2    Ryd( 3d)     0.00120       2.17818

   291    H   20  S      Val( 1S)     0.80789       0.03910
   292    H   20  S      Ryd( 2S)     0.00072       0.46278
   293    H   20  S      Ryd( 3S)     0.00021       2.21349
   294    H   20  px     Ryd( 2p)     0.00022       2.24663
   295    H   20  py     Ryd( 2p)     0.00025       2.28430
   296    H   20  pz     Ryd( 2p)     0.00009       1.77029

   297    H   21  S      Val( 1S)     0.82020       0.04160
   298    H   21  S      Ryd( 2S)     0.00220       0.75981
   299    H   21  S      Ryd( 3S)     0.00025       1.93963
   300    H   21  px     Ryd( 2p)     0.00013       2.02764
   301    H   21  py     Ryd( 2p)     0.00031       2.57415
   302    H   21  pz     Ryd( 2p)     0.00013       1.74605

   303    H   22  S      Val( 1S)     0.80366       0.04075
   304    H   22  S      Ryd( 2S)     0.00037       0.63889
   305    H   22  S      Ryd( 3S)     0.00024       2.05931
   306    H   22  px     Ryd( 2p)     0.00019       2.07238
   307    H   22  py     Ryd( 2p)     0.00014       1.79300
   308    H   22  pz     Ryd( 2p)     0.00022       2.43099

 WARNING:  1 low occupancy (<1.9990e) core orbital  found on  C    4

 WARNING:  Population inversion found on atom  C    1
           Population inversion found on atom  C    2
           Population inversion found on atom  C    3
           Population inversion found on atom  C    4
           Population inversion found on atom  H    7
           Population inversion found on atom  C    8
           Population inversion found on atom  C   12
           Population inversion found on atom  O   13
           Population inversion found on atom  N   14
           Population inversion found on atom  C   15
           Population inversion found on atom  C   19


 Summary of Natural Population Analysis:                  
                                                          
                                       Natural Population 
                Natural  -----------------------------------------------
    Atom  No    Charge         Core      Valence    Rydberg      Total
 -----------------------------------------------------------------------
      C    1    0.34989      1.99905     3.62704    0.02402     5.65011
      C    2   -0.32003      1.99902     4.30575    0.01526     6.32003
      C    3   -0.22416      1.99907     4.20942    0.01567     6.22416
      C    4    0.18605      1.99887     3.78731    0.02777     5.81395
      O    5   -0.47016      1.99973     6.45473    0.01571     8.47016
      H    6    0.22880      0.00000     0.76975    0.00145     0.77120
      H    7    0.23794      0.00000     0.75991    0.00215     0.76206
      C    8   -0.60463      1.99926     4.59718    0.00819     6.60463
      H    9    0.22214      0.00000     0.77631    0.00155     0.77786
      H   10    0.22213      0.00000     0.77632    0.00155     0.77787
      H   11    0.21471      0.00000     0.78423    0.00106     0.78529
      C   12    0.68711      1.99931     3.26755    0.04603     5.31289
      O   13   -0.55229      1.99975     6.54010    0.01244     8.55229
      N   14   -0.60462      1.99946     5.58087    0.02429     7.60462
      C   15   -0.34845      1.99930     4.33546    0.01369     6.34845
      H   16    0.17592      0.00000     0.82106    0.00302     0.82408
      H   17    0.19012      0.00000     0.80838    0.00150     0.80988
      H   18    0.19588      0.00000     0.80297    0.00115     0.80412
      C   19   -0.34894      1.99929     4.33615    0.01350     6.34894
      H   20    0.19064      0.00000     0.80789    0.00148     0.80936
      H   21    0.17676      0.00000     0.82020    0.00304     0.82324
      H   22    0.19518      0.00000     0.80366    0.00116     0.80482
 =======================================================================
   * Total *    0.00000     21.99211    59.77221    0.23568    82.00000

                                 Natural Population      
 --------------------------------------------------------
   Core                      21.99211 ( 99.9641% of  22)
   Valence                   59.77221 ( 99.6204% of  60)
   Natural Minimal Basis     81.76432 ( 99.7126% of  82)
   Natural Rydberg Basis      0.23568 (  0.2874% of  82)
 --------------------------------------------------------

    Atom  No          Natural Electron Configuration
 ----------------------------------------------------------------------------
      C    1      [core]2S( 0.89)2p( 2.74)3d( 0.01)4p( 0.01)
      C    2      [core]2S( 0.97)2p( 3.33)4p( 0.01)
      C    3      [core]2S( 0.98)2p( 3.23)4p( 0.01)
      C    4      [core]2S( 0.90)2p( 2.89)3d( 0.01)4p( 0.02)
      O    5      [core]2S( 1.62)2p( 4.84)3p( 0.01)
      H    6            1S( 0.77)
      H    7            1S( 0.76)
      C    8      [core]2S( 1.09)2p( 3.51)
      H    9            1S( 0.78)
      H   10            1S( 0.78)
      H   11            1S( 0.78)
[...]
 0.00073042,0.00040901,-0.00019246,-0.00026778,0.00096069,-0.00005845,0
 .00015422,0.00050624,-0.00023028,0.00010743,-0.02252773,0.48293463,-0.
 00503072,-0.00213671,0.00350785,-0.00214004,0.00471790,0.00447010,0.00
 565892,0.00400206,-0.00560513,0.04217982,0.01531228,-0.07829744,-0.000
 20164,-0.00255147,-0.00518992,-0.00007103,0.00055438,0.00138191,-0.000
 16072,-0.00055441,-0.00207038,0.00011200,0.00038819,0.00121032,-0.0006
 2392,0.00005087,0.00025554,-0.00029810,0.00012585,-0.00023066,-0.00019
 607,0.00016905,0.00008096,0.01964440,-0.33278569,0.59790233,0.00122722
 ,-0.00190232,0.00044594,-0.00266605,-0.00164993,-0.00007788,-0.0027090
 5,0.00145597,0.00137918,0.00649986,-0.02099990,0.02486575,0.00250742,-
 0.00182858,0.00236010,-0.00058520,-0.00019828,-0.00027694,0.00009125,-
 0.00025028,0.00028000,0.00018692,0.00006025,-0.00007779,-0.00011222,0.
 00016705,0.00003180,-0.00008494,0.00007601,-0.00002900,-0.00006061,-0.
 00007161,0.00003525,-0.10520729,0.02242242,-0.02638030,0.11738675,-0.0
 0395423,-0.00588498,0.00240354,-0.00461361,0.00263779,-0.00172077,0.00
 233801,0.00602612,-0.00173174,-0.01767565,-0.02628910,0.04272827,0.005
 31741,0.00254959,-0.00168623,-0.00050897,0.00003559,-0.00031873,0.0003
 3835,0.00043936,0.00068782,0.00035881,0.00047802,-0.00034605,-0.000418
 40,0.00020677,0.00023444,-0.00061504,0.00003818,-0.00012747,-0.0000243
 9,0.00004951,-0.00004112,0.02834964,-0.30120525,0.27043366,-0.04431288
 ,0.33247274,0.00172585,0.00343806,-0.00168981,0.00270000,-0.00022948,-
 0.00046670,0.00295889,-0.00399376,0.00278289,0.01380420,0.04456680,-0.
 02502298,-0.00432010,-0.00185843,0.00195643,0.00067189,-0.00020838,-0.
 00025149,-0.00037024,-0.00022672,-0.00023407,-0.00020633,-0.00034283,0
 .00006104,0.00027040,-0.00010469,-0.00011272,0.00045917,-0.00009173,0.
 00011160,0.00002822,-0.00002740,0.00003198,-0.02553524,0.26757022,-0.3
 9511513,0.05302631,-0.35068933,0.44562553,-0.00061388,-0.00109592,0.00
 056865,-0.00328443,0.00133340,0.00097166,0.00214607,0.00240337,-0.0021
 2225,-0.03832384,0.00375810,-0.00430934,-0.00186548,-0.00410759,0.0029
 6360,-0.00027149,-0.00006587,0.00016508,-0.00029557,-0.00069926,-0.000
 32657,-0.00017604,-0.00021626,-0.00008375,-0.00019265,0.00013834,0.000
 07110,-0.00019173,0.00010186,-0.00005986,-0.00027987,0.00001477,0.0000
 4130,-0.26511477,0.03448859,-0.03156717,-0.00831912,0.03218078,-0.0432
 6678,0.65356934,-0.00076252,0.00128621,-0.00011818,0.00110741,0.000219
 44,0.00019684,0.00003471,-0.00102990,0.00103820,-0.00697003,0.01007169
 ,-0.00407171,-0.00369410,-0.00038949,0.00118412,0.00007714,-0.00002262
 ,-0.00003488,-0.00005850,0.00003878,-0.00047901,-0.00005666,-0.0002914
 8,0.00000474,0.00001044,0.00000609,0.00003070,-0.00006526,0.00001698,-
 0.00002522,-0.00006697,0.00005952,-0.00001956,0.02637281,-0.07321287,0
 .04152399,0.03943573,-0.01397062,0.04141213,-0.02730391,0.24585269,0.0
 0053299,-0.00095814,0.00009314,-0.00031892,0.00028193,-0.00021256,0.00
 001397,0.00064714,-0.00072640,0.00554599,-0.00430344,0.01086999,0.0054
 2368,0.00125095,0.00041701,-0.00005653,-0.00007148,-0.00013985,-0.0000
 6955,0.00020115,-0.00007011,0.00010544,0.00025443,-0.00040886,0.000006
 27,0.00001176,-0.00001681,-0.00004757,0.00000466,0.00004215,0.00008846
 ,-0.00007123,-0.00001198,-0.03672977,0.04947763,-0.11617616,-0.0495070
 5,0.03855310,-0.02825352,0.04162655,-0.22958628,0.49637247,-0.00010822
 ,0.00042894,-0.00014235,0.00020166,-0.00027674,0.00008777,-0.00030420,
 -0.00045216,0.00043551,0.00040606,0.00306487,-0.00187685,-0.00048056,-
 0.00068586,-0.00022206,0.00004966,0.00000452,-0.00002925,-0.00011463,-
 0.00026910,-0.00004273,-0.00004240,-0.00009422,0.00009966,0.00004106,-
 0.00002988,-0.00002055,0.00006489,-0.00002254,0.00001925,0.00001244,0.
 00002798,-0.00000706,-0.04595470,-0.00568693,0.00932592,0.00025598,-0.
 00410044,0.00762515,-0.17322443,-0.02962228,0.04344926,0.51369945,0.00
 028811,0.00082358,-0.00044260,0.00070941,-0.00037500,-0.00009313,-0.00
 025131,-0.00053472,-0.00031868,0.00248590,0.00410221,0.00279298,-0.000
 48738,0.00024101,0.00077988,0.00005618,-0.00000572,-0.00003107,0.00001
 179,0.00009679,0.00016107,-0.00007915,-0.00012800,-0.00011904,0.000093
 57,-0.00004458,-0.00003051,0.00002949,-0.00001699,0.00001892,0.0000082
 2,0.00000218,-0.00001538,0.00071776,0.00542949,-0.00938995,0.00385167,
 -0.00342562,0.00003335,-0.02813618,-0.08677278,0.03729823,-0.03893063,
 0.55135678,-0.00019066,0.00010166,-0.00003285,-0.00037596,0.00009767,0
 .00014572,0.00030405,0.00026318,-0.00031017,-0.00265224,0.00325108,0.0
 0040414,-0.00143448,-0.00063534,0.00104934,-0.00006492,-0.00002440,0.0
 0000882,0.00003105,-0.00007702,-0.00008380,-0.00005531,-0.00010952,-0.
 00003852,-0.00002321,0.00003233,0.00001054,-0.00005647,0.00002778,-0.0
 0001929,-0.00007991,0.00000459,0.00000401,0.00436987,-0.01228302,0.017
 50232,0.00001250,0.00264421,-0.00711483,0.03200903,0.03326870,-0.11693
 846,0.05871761,-0.00695133,0.57144797,-0.00009516,-0.00001754,0.000006
 33,-0.00013667,0.00008274,0.00004111,0.00011763,0.00013981,-0.00018368
 ,-0.00045835,0.00095496,0.00028062,-0.00045378,-0.00011393,0.00042563,
 -0.00003053,-0.00000668,0.00000965,0.00001759,0.00002896,-0.00002504,-
 0.00001291,-0.00003710,-0.00004199,-0.00001948,0.00001747,0.00001112,-
 0.00003343,0.00001092,-0.00000988,-0.00003003,0.00000229,0.00000134,0.
 00321470,-0.00598765,0.00412756,0.00048661,0.00170820,-0.00231737,-0.0
 2717910,-0.02436127,-0.00698505,-0.08227450,-0.07239660,-0.04701355,0.
 09960546,-0.00001879,-0.00008693,0.00004720,-0.00013353,0.00007484,0.0
 0003029,0.00010345,0.00011417,-0.00008627,-0.00031460,-0.00008653,0.00
 001684,0.00000076,-0.00005449,0.00015146,-0.00001912,-0.00000580,0.000
 00276,0.00001895,-0.00000324,-0.00003576,0.00000292,-0.00000140,-0.000
 01888,-0.00001501,0.00001271,0.00000563,-0.00001704,0.00000742,-0.0000
 0550,-0.00001238,-0.00000324,0.00000128,0.00318813,-0.00175340,0.00166
 955,-0.00082430,0.00042285,-0.00153450,-0.01323587,-0.00349715,0.00319
 477,-0.07380787,-0.20017221,-0.09492429,0.08938137,0.21616809,0.000022
 69,-0.00007233,0.00001169,-0.00000024,0.00000882,-0.00000601,-0.000052
 10,0.00006407,0.00002021,0.00014755,-0.00094376,-0.00051229,0.00018018
 ,0.00007992,-0.00010872,-0.00000094,0.00000343,0.00000685,0.00001138,0
 .00000089,0.00000975,0.00001604,0.00003057,0.00001901,-0.00000951,0.00
 000206,0.00000412,0.00000048,-0.00000339,-0.00000243,0.00000601,-0.000
 00125,-0.00000017,0.00008083,0.00102072,-0.00117211,0.00013431,0.00033
 185,0.00133541,0.01125983,0.01812973,0.00836466,-0.04889911,-0.0955570
 7,-0.10854948,0.04751860,0.10201635,0.11086270,-0.00011391,-0.00023540
 ,0.00011739,-0.00034562,0.00011779,0.00006169,0.00013950,0.00026311,-0
 .00003663,-0.00081262,-0.00026333,-0.00062688,-0.00014095,-0.00029011,
 -0.00001167,-0.00003649,0.00000019,0.00001998,-0.00001319,-0.00002939,
 -0.00002906,0.00000772,0.00001065,0.00002770,-0.00003120,0.00001838,0.
 00000935,-0.00001955,0.00001276,-0.00000934,-0.00002193,0.00000002,0.0
 0000729,0.00102940,-0.00019064,0.00577526,-0.00044209,0.00049194,-0.00
 077462,-0.03135141,0.01661584,0.00264577,-0.15155814,0.12354354,0.0035
 7068,0.00967672,-0.00876732,-0.00038688,0.17735884,-0.00006725,0.00000
 023,0.00003338,0.00002478,0.00000179,-0.00000380,-0.00002475,0.0000076
 9,0.00003144,-0.00031302,-0.00021493,-0.00066471,-0.00003179,-0.000021
 79,-0.00009744,0.00000572,0.00000385,0.00000124,-0.00000960,-0.0000203
 0,0.00001055,0.00000515,0.00000318,0.00002595,-0.00000706,-0.00000082,
 0.00000302,0.00000282,-0.00000396,-0.00000093,0.00000212,0.00000524,-0
 .00000047,-0.00176336,-0.00169925,0.00212083,0.00084872,0.00095747,-0.
 00060621,-0.01110617,0.01336232,0.00161595,0.12913759,-0.19887823,-0.0
 0483761,0.01621048,-0.01944712,0.00031112,-0.13601579,0.21032273,0.000
 12359,0.00014658,-0.00006724,0.00011727,-0.00009914,-0.00010350,-0.000
 01893,-0.00012467,-0.00002809,0.00041114,0.00063627,0.00074457,-0.0001
 0395,0.00005212,0.00008759,0.00001235,-0.00000736,-0.00001243,0.000027
 88,0.00005256,0.00009073,-0.00001007,-0.00001388,-0.00000910,0.0000163
 9,-0.00000635,-0.00000559,0.00000910,-0.00000324,0.00000476,0.00000340
 ,-0.00000053,-0.00000102,-0.00123432,0.00261707,-0.00530411,-0.0026267
 3,-0.00164872,0.00184889,0.01926640,-0.01040837,-0.00170942,0.00121168
 ,-0.00301464,-0.04943776,0.01002849,-0.01318058,-0.00050712,-0.0095506
 7,0.00416087,0.04789838,-0.00000890,0.00006104,0.00000123,0.00015115,0
 .00002961,-0.00000257,0.00003189,-0.00006664,0.00003090,0.00049478,-0.
 00005553,-0.00039551,0.00003071,0.00015579,-0.00012390,0.00002341,0.00
 001032,0.00000548,-0.00000214,0.00004294,-0.00001418,0.00000309,0.0000
 0469,-0.00000068,0.00000757,-0.00000996,-0.00000110,0.00000277,-0.0000
 0461,0.00000154,0.00001166,0.00000287,-0.00000300,0.00090347,-0.002819
 87,0.00480895,-0.00243185,0.00166115,-0.00282015,0.00644385,-0.0087110
 2,0.03018218,-0.06844830,0.02025770,-0.07569652,-0.00297144,0.00426120
 ,-0.01037818,-0.00422542,0.00320389,-0.01795656,0.07496711,-0.00001342
 ,-0.00004776,0.00002882,-0.00005749,0.00000564,-0.00002723,0.00001260,
 0.00002300,-0.00005430,-0.00025628,-0.00020700,0.00036829,0.00008757,-
 0.00000894,-0.00000109,-0.00000794,-0.00000118,0.00000134,0.00001906,0
 .00001547,0.00004649,0.00000211,0.00000320,-0.00000323,-0.00000305,0.0
 0000269,-0.00000163,-0.00000458,0.00000568,0.,-0.00000150,-0.00000230,
 0.00000205,0.00099868,0.00115543,0.00025847,0.00107980,-0.00113149,-0.
 00046864,0.00124403,-0.00584243,0.01170121,0.01678201,-0.06799742,0.06
 727220,-0.00649625,0.00821212,-0.02470995,0.00515762,-0.00552373,0.022
 16080,-0.01672551,0.07089500,0.00002814,0.00001884,-0.00001634,-0.0000
 2754,-0.00004591,0.00001437,-0.00004856,0.00000112,0.00004457,0.000133
 11,0.00013519,-0.00008668,-0.00004107,-0.00007008,0.00007542,-0.000005
 05,-0.00000329,-0.00000224,-0.00000150,-0.00003524,-0.00001212,-0.0000
 0668,-0.00000759,0.00000110,0.00000278,-0.00000081,-0.00000271,0.00000
 467,-0.00000057,0.00000293,-0.00000162,-0.00000012,-0.00000025,-0.0023
 5034,0.00273760,-0.00206290,-0.00300459,-0.00141453,0.00171012,-0.0000
 7215,0.00607536,-0.01687679,-0.06297117,0.06787892,-0.28391246,-0.0045
 6474,0.00363756,-0.01266644,0.00030161,-0.00117428,0.00567359,0.069739
 38,-0.07788782,0.30892678,-0.00013577,0.00031087,-0.00018235,0.0002438
 7,-0.00006272,-0.00050299,-0.00188270,-0.00008242,-0.00105335,-0.00353
 261,0.00013800,-0.00060643,-0.00005831,-0.00020478,-0.00018366,0.00001
 164,-0.00004080,-0.00004101,-0.00017735,-0.00013470,0.00035384,0.00001
 343,0.00008136,0.00007114,-0.00004429,0.00001663,-0.00000432,0.0000117
 1,-0.00001841,0.00001294,0.00000809,-0.00000034,-0.00000125,0.00630959
 ,0.00930529,-0.02410721,-0.00516498,0.00302167,-0.00217062,-0.10987602
 ,0.01262277,-0.02091745,0.00656048,-0.01300872,0.02682682,-0.00037407,
 -0.00058846,0.00153839,0.00056185,-0.00032447,0.00044850,-0.00505902,-
 0.00237921,0.00322224,0.60370586,-0.00037053,-0.00061627,0.00026250,-0
 .00082031,0.00019951,-0.00007216,-0.00105925,0.00001842,-0.00051599,-0
 .00138423,-0.00046109,0.00075069,0.00046766,-0.00066446,0.00012434,-0.
 00009395,0.00000361,0.00002600,-0.00125839,0.00018055,-0.00015208,0.00
 003409,0.00004366,0.00001504,-0.00006503,0.00004715,0.00001203,-0.0000
 4069,0.00002463,-0.00001101,-0.00003761,-0.00001093,0.00000925,0.01149
 039,-0.01584160,0.00540975,0.00057695,0.00745754,0.00192260,0.00198141
 ,-0.08491085,0.05647005,-0.00001259,-0.00513881,0.00997837,0.00090250,
 0.00028909,0.00077444,0.00064590,0.00178465,-0.00150264,-0.00051420,0.
 00015849,-0.00050440,0.01081597,0.53687355,0.00033267,0.00083165,-0.00
 016869,0.00121875,-0.00067348,-0.00123456,-0.00228513,-0.00134443,-0.0
 0030772,0.00056237,0.00006725,0.00046389,0.00006370,0.00073857,-0.0009
 6996,0.00010913,0.00001747,0.00000635,-0.00050875,0.00065182,0.0009412
 8,0.00008317,0.00009103,0.00016641,0.00002689,-0.00002134,-0.00001156,
 0.00005671,-0.00003619,0.00000740,0.00006335,0.00000294,-0.00000896,-0
 .01817978,0.00158877,-0.01481344,0.00378485,-0.00142278,0.00759702,-0.
 00800823,0.06885496,-0.18129347,0.00198003,0.00742746,-0.02291328,-0.0
 0240521,-0.00197080,0.00292580,-0.00210976,0.00029620,0.00089894,0.001
 28502,0.00055274,-0.00059143,-0.03863822,0.02462781,0.48729171,0.00004
 075,-0.00008023,0.00004462,-0.00018270,-0.00021913,0.00012965,0.000084
 22,0.00071438,-0.00004247,0.00007432,0.00033901,-0.00024680,0.00017781
 ,-0.00037803,0.00002271,-0.00002998,0.00001411,0.00001030,-0.00030207,
 -0.00031936,-0.00009341,-0.00001544,-0.00002942,0.00001114,0.00001141,
 -0.00000643,-0.00000086,0.00000441,-0.00000211,-0.00000007,-0.00001099
 ,0.00000151,0.00000214,0.00221315,0.00170481,0.00052663,-0.00077257,0.
 00010218,-0.00115078,-0.00397937,0.00580508,-0.00449844,0.00058533,-0.
 00079226,-0.00007175,0.00019473,0.00033168,-0.00020767,0.00010709,0.00
 046985,-0.00015355,0.00000728,0.00010562,-0.00003302,-0.07956819,0.077
 99742,0.01365648,0.08093116,0.00006759,0.00015607,-0.00007578,0.000261
 07,0.00001263,-0.00012675,0.00014334,-0.00024284,0.00013770,0.00022947
 ,0.00009985,-0.00002189,-0.00017485,0.00028752,-0.00017203,0.00004157,
 -0.00000277,-0.00000567,0.00015516,0.00012172,0.00011128,0.00000147,0.
 00000830,0.00002270,0.00000890,-0.00000985,-0.00000404,0.00001611,-0.0
 0000910,0.00000469,0.00001679,0.00000429,-0.00000296,-0.00563212,-0.00
 125229,-0.00196886,0.00132633,-0.00062868,0.00182114,0.00917762,-0.008
 36944,0.01272312,0.00163478,-0.00001370,-0.00090570,-0.00019401,-0.000
 20732,-0.00031973,-0.00073166,-0.00012144,0.00040967,-0.00014761,0.000
 22774,0.00013272,0.07857235,-0.26122602,-0.03388822,-0.09017775,0.2865
 1478,-0.00006313,-0.00011730,0.00001321,-0.00018943,0.00003142,-0.0000
 0143,-0.00002978,0.00003450,-0.00010477,-0.00030501,-0.00013744,0.0000
 8112,0.00000937,-0.00005675,0.00018609,-0.00000947,-0.00000493,0.00000
 874,-0.00006283,-0.00001338,0.00016460,-0.00000330,-0.00000158,0.00000
 272,-0.00001753,0.00001050,0.00000033,-0.00000221,0.00000279,-0.000000
 86,-0.00000746,-0.00000048,0.00000088,0.00497461,0.00380604,0.00068251
 ,-0.00214309,0.00005078,-0.00283829,-0.01705074,0.03434496,-0.00614912
 ,-0.00268915,0.00042015,0.00150499,0.00048947,-0.00006859,-0.00029389,
 0.00074737,-0.00077433,0.00027420,-0.00009857,-0.00013510,0.00004534,0
 .01503760,-0.03541460,-0.05177510,-0.00838199,0.02769063,0.06104784,-0
 .00016723,-0.00001460,0.00005909,0.00005035,0.00004466,-0.00026706,-0.
 00041682,0.00020438,-0.00057605,-0.00073585,-0.00090960,0.00012352,-0.
 00012594,0.00004173,0.00000250,-0.00004693,-0.00001474,-0.00000268,-0.
 00013971,0.00028419,0.00024036,0.00004404,0.00005767,0.00002124,-0.000
 06646,0.00003990,0.00001398,-0.00004432,0.00000987,-0.00001150,-0.0000
 1968,-0.00000445,0.00000139,0.00200709,-0.00154145,-0.00060900,-0.0001
 9769,0.00039377,-0.00019860,-0.00546860,0.00049522,-0.00665122,0.00048
 914,0.00117271,0.00227343,0.00070090,0.00026364,-0.00095610,0.00019619
 ,-0.00017310,0.00020989,-0.00008888,0.00024470,0.00001264,-0.16614673,
 -0.09562479,-0.07972094,0.00824258,0.00622235,0.00599016,0.17758909,0.
 00005413,0.00005567,-0.00001681,0.00007189,0.00012357,-0.00011066,0.00
 009003,-0.00032767,0.00008680,0.00023212,-0.00022815,-0.00011350,-0.00
 023618,0.00022224,-0.00005514,0.00000213,-0.00000879,0.00000108,0.0001
 1986,0.00026218,0.00004696,0.00001063,0.00002326,0.00000812,-0.0000106
 3,0.00000862,0.00000002,-0.00000523,0.00000333,-0.00000384,-0.00000191
 ,-0.00000420,-0.00000030,-0.00120315,0.00035269,0.00231854,0.00079010,
 -0.00105220,-0.00017889,0.01389332,0.01052277,0.01195803,0.00121634,0.
 00209160,0.00068291,0.00003564,-0.00022281,-0.00100810,-0.00005139,-0.
 00067176,-0.00024687,0.00021769,0.00006786,-0.00009170,-0.09864863,-0.
 12947730,-0.06829343,-0.02139096,-0.01761229,-0.01349238,0.10388506,0.
 13584358,-0.00000344,-0.00029329,0.00003658,-0.00042846,0.00009652,0.0
 0018865,0.00051103,0.00038165,0.00020471,-0.00016720,0.00022928,0.0003
 0324,0.00014484,-0.00018131,0.00029882,-0.00002109,-0.00000008,0.00000
 790,0.00009108,-0.00025513,-0.00012374,-0.00002159,-0.00002038,-0.0000
 3696,0.00000049,0.00000234,0.00000115,-0.00000804,0.00000601,-0.000001
 15,-0.00001334,-0.00000248,0.00000193,0.00688312,-0.00458042,-0.002161
 37,-0.00155484,0.00290475,-0.00159263,-0.02872418,-0.00555780,-0.02705
 566,-0.00233548,-0.00150778,0.00171292,0.00058662,0.00082628,0.0000601
 2,0.00035677,-0.00017451,-0.00051014,-0.00005951,0.00018146,0.00035903
 ,-0.07584496,-0.06532547,-0.10009123,-0.00298762,-0.00466676,-0.001275
 65,0.09343499,0.06762954,0.11913418,-0.00016180,0.00010057,0.00000047,
 -0.00002733,-0.00023162,-0.00042716,-0.00306348,-0.00145949,-0.0010374
 6,-0.00127379,0.00056756,-0.00173237,0.00031516,-0.00015888,-0.0000145
 4,0.00001994,0.00002263,0.00003401,-0.00060928,0.00016032,-0.00017145,
 -0.00000152,0.00001859,0.00007229,0.00000728,-0.00000303,-0.00001165,0
 .00003652,-0.00001531,0.00000454,0.00001729,0.00000084,-0.00000479,0.0
 0019178,0.00006213,-0.00077355,0.00011164,-0.00003828,-0.00013926,0.00
 784854,-0.00090461,-0.00383902,0.00014394,0.00085620,-0.00040006,0.000
 05511,0.00020220,-0.00002556,0.00003521,-0.00007474,-0.00023130,0.0001
 5719,0.00021142,-0.00031654,-0.24540648,-0.00363070,0.12863289,-0.0078
 1292,-0.00081690,0.00380512,-0.01565453,0.00092913,0.01016079,0.265071
 52,-0.00009844,-0.00027691,0.00015316,-0.00037690,0.00004023,0.0002417
 2,-0.00026592,0.00039394,-0.00014423,-0.00018440,0.00036982,-0.0006418
 9,0.00078041,-0.00049939,-0.00004507,-0.00001401,0.00001701,0.00000311
 ,-0.00047569,-0.00064616,-0.00078269,-0.00000183,0.00000278,-0.0000021
 2,0.00001876,-0.00001960,0.00000015,-0.00000088,-0.00000485,-0.0000011
 1,0.00000002,0.,-0.00000142,-0.00079651,0.00082252,0.00033170,-0.00005
 291,-0.00018358,-0.00020331,-0.01474856,-0.00312686,0.00934647,0.00169
 422,-0.00063986,0.00312356,0.00013568,0.00024035,-0.00015841,-0.000302
 71,0.00015419,0.00002106,-0.00085395,-0.00001007,0.00061904,0.00060873
 ,-0.04873350,0.00190201,0.02581003,0.00226286,-0.01617489,-0.01507711,
 0.00002781,0.01030758,0.00420196,0.04980928,0.00013953,-0.00022623,-0.
 00005502,-0.00029103,-0.00001672,0.00032537,-0.00051676,-0.00017366,0.
 00019112,-0.00080604,0.00042137,-0.00038220,0.00025485,-0.00011582,0.0
 0037727,0.00005264,0.00002179,0.00002157,0.00002796,-0.00045716,-0.000
 25951,-0.00006375,-0.00006498,-0.00004421,0.00006490,-0.00004352,-0.00
 001379,0.00004944,-0.00001257,0.00001340,0.00001774,0.00000596,-0.0000
 0284,0.00417457,-0.00027981,0.00120490,-0.00067777,0.00017503,-0.00036
 873,0.02664782,0.00423659,-0.02012024,-0.00371611,0.00066021,-0.004439
 87,0.00001996,0.00022518,0.00019834,-0.00010537,-0.00027624,0.00017386
 ,0.00149575,0.00071511,-0.00062288,0.11674236,0.00311548,-0.12611941,0
 .00346474,-0.00089523,-0.00157343,-0.01339006,0.00087962,0.01053928,-0
 .13358538,-0.00789442,0.14095703\\0.00003292,0.00001041,-0.00000943,-0
 .00002944,0.00000340,0.00000029,0.00000489,0.00002955,-0.00000965,0.00
 007958,-0.00004739,0.00001344,-0.00005837,0.00000689,0.00000369,0.0000
 0886,-0.00000234,-0.00000024,0.00000613,0.00000083,0.00000044,-0.00000
 599,-0.00000829,0.00000473,-0.00000108,0.00000052,-0.00000409,0.000000
 26,-0.00000401,-0.00000851,-0.00000200,-0.00000427,-0.00000166,-0.0000
 4464,0.00001937,-0.00004115,0.00001532,-0.00002757,0.00003772,-0.00000
 363,-0.00000131,0.00003240,-0.00000421,-0.00000309,0.00000136,0.000001
 66,0.00000499,-0.00000031,0.00000757,-0.00000335,0.00000587,0.00000117
 ,0.00000409,-0.00000393,-0.00003125,0.00001472,-0.00004094,0.00001052,
 -0.00001080,-0.00000023,0.00001241,0.00001265,0.00001829,-0.00000068,0
 .00000502,0.00000191\\\@


 THE PROGRESS OF RIVERS TO THE SEA IS NOT AS RAPID
 AS THAT OF MAN TO ERROR.
                                              -- VOLTAIRE
 Job cpu time:       0 days  0 hours 57 minutes 54.8 seconds.
 File lengths (MBytes):  RWF=    237 Int=      0 D2E=      0 Chk=      8 Scr=      1
 Normal termination of Gaussian 09 at Thu Feb  2 15:42:15 2023.
