 Entering Gaussian System, Link 0=g09
 Initial command:
 /cm/shared/apps/gaussian/g09revD.01/g09/l1.exe "//home/sweav003/CHB/OrthoParaExtra/G09-regiodevergent1c_Ishiyana.com.o9918486.tmp/Gau-129414.inp" -scrdir="//home/sweav003/CHB/OrthoParaExtra/G09-regiodevergent1c_Ishiyana.com.o9918486.tmp/"
 Entering Link 1 = /cm/shared/apps/gaussian/g09revD.01/g09/l1.exe PID=    129415.
  
 Copyright (c) 1988,1990,1992,1993,1995,1998,2003,2009,2013,
            Gaussian, Inc.  All Rights Reserved.
  
 This is part of the Gaussian(R) 09 program.  It is based on
 the Gaussian(R) 03 system (copyright 2003, Gaussian, Inc.),
 the Gaussian(R) 98 system (copyright 1998, Gaussian, Inc.),
 the Gaussian(R) 94 system (copyright 1995, Gaussian, Inc.),
 the Gaussian 92(TM) system (copyright 1992, Gaussian, Inc.),
 the Gaussian 90(TM) system (copyright 1990, Gaussian, Inc.),
 the Gaussian 88(TM) system (copyright 1988, Gaussian, Inc.),
 the Gaussian 86(TM) system (copyright 1986, Carnegie Mellon
 University), and the Gaussian 82(TM) system (copyright 1983,
 Carnegie Mellon University). Gaussian is a federally registered
 trademark of Gaussian, Inc.
  
 This software contains proprietary and confidential information,
 including trade secrets, belonging to Gaussian, Inc.
  
 This software is provided under written license and may be
 used, copied, transmitted, or stored only in accord with that
 written license.
  
 The following legend is applicable only to US Government
 contracts under FAR:
  
                    RESTRICTED RIGHTS LEGEND
  
 Use, reproduction and disclosure by the US Government is
 subject to restrictions as set forth in subparagraphs (a)
 and (c) of the Commercial Computer Software - Restricted
 Rights clause in FAR 52.227-19.
  
 Gaussian, Inc.
 340 Quinnipiac St., Bldg. 40, Wallingford CT 06492
  
  
 ---------------------------------------------------------------
 Warning -- This program may not be used in any manner that
 competes with the business of Gaussian, Inc. or will provide
 assistance to any competitor of Gaussian, Inc.  The licensee
 of this program is prohibited from giving any competitor of
 Gaussian, Inc. access to this program.  By using this program,
 the user acknowledges that Gaussian, Inc. is engaged in the
 business of creating and licensing software in the field of
 computational chemistry and represents and warrants to the
 licensee that it is not a competitor of Gaussian, Inc. and that
 it will not use this program in any manner prohibited above.
 ---------------------------------------------------------------
  

 Cite this work as:
 Gaussian 09, Revision D.01,
 M. J. Frisch, G. W. Trucks, H. B. Schlegel, G. E. Scuseria, 
 M. A. Robb, J. R. Cheeseman, G. Scalmani, V. Barone, B. Mennucci, 
 G. A. Petersson, H. Nakatsuji, M. Caricato, X. Li, H. P. Hratchian, 
 A. F. Izmaylov, J. Bloino, G. Zheng, J. L. Sonnenberg, M. Hada, 
 M. Ehara, K. Toyota, R. Fukuda, J. Hasegawa, M. Ishida, T. Nakajima, 
 Y. Honda, O. Kitao, H. Nakai, T. Vreven, J. A. Montgomery, Jr., 
 J. E. Peralta, F. Ogliaro, M. Bearpark, J. J. Heyd, E. Brothers, 
 K. N. Kudin, V. N. Staroverov, T. Keith, R. Kobayashi, J. Normand, 
 K. Raghavachari, A. Rendell, J. C. Burant, S. S. Iyengar, J. Tomasi, 
 M. Cossi, N. Rega, J. M. Millam, M. Klene, J. E. Knox, J. B. Cross, 
 V. Bakken, C. Adamo, J. Jaramillo, R. Gomperts, R. E. Stratmann, 
 O. Yazyev, A. J. Austin, R. Cammi, C. Pomelli, J. W. Ochterski, 
 R. L. Martin, K. Morokuma, V. G. Zakrzewski, G. A. Voth, 
 P. Salvador, J. J. Dannenberg, S. Dapprich, A. D. Daniels, 
 O. Farkas, J. B. Foresman, J. V. Ortiz, J. Cioslowski, 
 and D. J. Fox, Gaussian, Inc., Wallingford CT, 2013.
 
 ******************************************
 Gaussian 09:  ES64L-G09RevD.01 24-Apr-2013
                 2-Feb-2023 
 ******************************************
 %nprocshared=20
 Will use up to   20 processors via shared memory.
 %mem=4GB
 %chk=regiodevergent1c_Ishiyana.chk
 ----------------------------------------------------------------------
 # opt=rcfc freq=noraman b3lyp/6-311+g(d,p) pop=(npa,hirshfeld,chelpg,m
 bs) geom=allcheck guess=read
 ----------------------------------------------------------------------
 1/10=5,14=-1,18=20,19=15,26=3,29=7,38=1/1,3;
 2/9=110,12=2,40=1/2;
 3/5=4,6=6,7=111,11=2,14=-4,16=1,25=1,30=1,71=1,74=-5,116=-2/1,2,3;
 4/5=1/1;
 5/5=2,38=6/2;
 6/7=2,8=2,9=2,10=2,15=8,20=3,27=100,28=1,40=-1,79=1/1,2,7;
 7//1,2,3,16;
 1/14=-1,18=20,19=15,26=3/3(2);
 2/9=110/2;
 99//99;
 2/9=110/2;
 3/5=4,6=6,7=111,11=2,14=-2,16=1,25=1,30=1,71=1,74=-5/1,2,3;
 4/5=5,16=3,69=1/1;
 5/5=2,38=5/2;
 7//1,2,3,16;
 1/14=-1,18=20,19=15,26=3/3(-5);
 2/9=110/2;
 6/7=2,8=2,9=2,10=2,15=8,19=2,20=3,27=100,28=1,40=-1,79=1/1,2,7;
 99/9=1/99;
 Structure from the checkpoint file:  "regiodevergent1c_Ishiyana.chk"
 -------------------
 Title Card Required
 -------------------
 Charge =  0 Multiplicity = 1
 Redundant internal coordinates found in file.
 C,0,-1.4208684649,0.4021619058,0.0182100152
 C,0,-0.9533687267,-0.8839758359,0.0300967832
 C,0,0.4680694264,-0.799138919,0.0159958798
 C,0,0.7735320504,0.5333142795,-0.0035497328
 O,0,-0.378472436,1.2714078181,-0.0022877817
 H,0,-1.5560791606,-1.7782919106,0.0468691213
 H,0,1.1809790905,-1.6073580742,0.0196198219
 C,0,-2.7842872344,0.9924704557,0.0232821655
 H,0,-2.9321972027,1.630484799,0.8995098569
 H,0,-2.9484027609,1.6082256919,-0.865890009
 H,0,-3.5335158958,0.2003463011,0.0401462111
 C,0,2.0346731465,1.2748012555,-0.0244393514
 O,0,2.1420965651,2.478450518,-0.0405231443
 O,0,3.0877134322,0.4207789791,-0.0236739065
 C,0,4.3860070438,1.0382221517,-0.0435464999
 H,0,5.0976333281,0.2154496663,-0.0399843447
 H,0,4.507207076,1.6462870574,-0.941232187
 H,0,4.5238897528,1.6684106504,0.8362962024
 Recover connectivity data from disk.

 GradGradGradGradGradGradGradGradGradGradGradGradGradGradGradGradGradGrad
 Berny optimization.
 Initialization pass.
 Cartesian force constants read from checkpoint file:
 "regiodevergent1c_Ishiyana.chk"
 FormGI is forming the generalized inverse of G from B-inverse, IUseBI=4.
                           ----------------------------
                           !    Initial Parameters    !
                           ! (Angstroms and Degrees)  !
 --------------------------                            --------------------------
 ! Name  Definition              Value          Derivative Info.                !
 --------------------------------------------------------------------------------
 ! R1    R(1,2)                  1.3685         D2E/DX2 =    0.4102             !
 ! R2    R(1,5)                  1.3574         D2E/DX2 =    0.3184             !
 ! R3    R(1,8)                  1.4857         D2E/DX2 =    0.3209             !
 ! R4    R(2,3)                  1.424          D2E/DX2 =    0.3301             !
 ! R5    R(2,6)                  1.0786         D2E/DX2 =    0.3701             !
 ! R6    R(3,4)                  1.3672         D2E/DX2 =    0.4157             !
 ! R7    R(3,7)                  1.0777         D2E/DX2 =    0.3733             !
 ! R8    R(4,5)                  1.3682         D2E/DX2 =    0.3105             !
 ! R9    R(4,12)                 1.4631         D2E/DX2 =    0.3365             !
 ! R10   R(8,9)                  1.0939         D2E/DX2 =    0.3331             !
 ! R11   R(8,10)                 1.0939         D2E/DX2 =    0.3331             !
 ! R12   R(8,11)                 1.0905         D2E/DX2 =    0.3427             !
 ! R13   R(12,13)                1.2085         D2E/DX2 =    0.821              !
 ! R14   R(12,14)                1.3558         D2E/DX2 =    0.3756             !
 ! R15   R(14,15)                1.4378         D2E/DX2 =    0.3148             !
 ! R16   R(15,16)                1.0878         D2E/DX2 =    0.3479             !
 ! R17   R(15,17)                1.091          D2E/DX2 =    0.3393             !
 ! R18   R(15,18)                1.091          D2E/DX2 =    0.3393             !
 ! A1    A(2,1,5)              109.8536         D2E/DX2 =    0.1126             !
 ! A2    A(2,1,8)              133.3818         D2E/DX2 =    0.1007             !
 ! A3    A(5,1,8)              116.7646         D2E/DX2 =    0.1195             !
 ! A4    A(1,2,3)              106.5536         D2E/DX2 =    0.0922             !
 ! A5    A(1,2,6)              126.0498         D2E/DX2 =    0.0739             !
 ! A6    A(3,2,6)              127.3966         D2E/DX2 =    0.0727             !
 ! A7    A(2,3,4)              106.3333         D2E/DX2 =    0.0917             !
 ! A8    A(2,3,7)              127.9943         D2E/DX2 =    0.071              !
 ! A9    A(4,3,7)              125.6724         D2E/DX2 =    0.0728             !
 ! A10   A(3,4,5)              109.7331         D2E/DX2 =    0.1112             !
 ! A11   A(3,4,12)             133.3703         D2E/DX2 =    0.1022             !
 ! A12   A(5,4,12)             116.8967         D2E/DX2 =    0.1202             !
 ! A13   A(1,5,4)              107.5265         D2E/DX2 =    0.1335             !
 ! A14   A(1,8,9)              111.0104         D2E/DX2 =    0.104              !
 ! A15   A(1,8,10)             111.0104         D2E/DX2 =    0.104              !
 ! A16   A(1,8,11)             109.9957         D2E/DX2 =    0.1048             !
 ! A17   A(9,8,10)             107.6066         D2E/DX2 =    0.0557             !
 ! A18   A(9,8,11)             108.5648         D2E/DX2 =    0.0547             !
 ! A19   A(10,8,11)            108.5647         D2E/DX2 =    0.0547             !
 ! A20   A(4,12,13)            125.559          D2E/DX2 =    0.1549             !
 ! A21   A(4,12,14)            110.5017         D2E/DX2 =    0.1764             !
 ! A22   A(13,12,14)           123.9393         D2E/DX2 =    0.2065             !
 ! A23   A(12,14,15)           115.5198         D2E/DX2 =    0.2911             !
 ! A24   A(14,15,16)           105.4178         D2E/DX2 =    0.1416             !
 ! A25   A(14,15,17)           110.5507         D2E/DX2 =    0.1414             !
 ! A26   A(14,15,18)           110.5505         D2E/DX2 =    0.1414             !
 ! A27   A(16,15,17)           110.5832         D2E/DX2 =    0.0686             !
 ! A28   A(16,15,18)           110.5832         D2E/DX2 =    0.0686             !
 ! A29   A(17,15,18)           109.1223         D2E/DX2 =    0.0706             !
 ! D1    D(5,1,2,3)              0.0004         D2E/DX2 =    0.0118             !
 ! D2    D(5,1,2,6)           -179.9996         D2E/DX2 =    0.0068             !
 ! D3    D(8,1,2,3)            179.9997         D2E/DX2 =    0.0082             !
 ! D4    D(8,1,2,6)             -0.0003         D2E/DX2 =    0.0052             !
 ! D5    D(2,1,5,4)             -0.0011         D2E/DX2 =    0.0103             !
 ! D6    D(8,1,5,4)            179.9995         D2E/DX2 =    0.0072             !
 ! D7    D(2,1,8,9)            120.1802         D2E/DX2 =    0.0123             !
 ! D8    D(2,1,8,10)          -120.1758         D2E/DX2 =    0.0123             !
 ! D9    D(2,1,8,11)             0.0022         D2E/DX2 =    0.0126             !
 ! D10   D(5,1,8,9)            -59.8206         D2E/DX2 =    0.0129             !
 ! D11   D(5,1,8,10)            59.8235         D2E/DX2 =    0.0129             !
 ! D12   D(5,1,8,11)          -179.9986         D2E/DX2 =    0.0125             !
 ! D13   D(1,2,3,4)              0.0005         D2E/DX2 =    0.0128             !
 ! D14   D(1,2,3,7)           -179.9998         D2E/DX2 =    0.0075             !
 ! D15   D(6,2,3,4)           -179.9995         D2E/DX2 =    0.0076             !
 ! D16   D(6,2,3,7)              0.0001         D2E/DX2 =    0.0066             !
 ! D17   D(2,3,4,5)             -0.0012         D2E/DX2 =    0.0128             !
 ! D18   D(2,3,4,12)          -179.9996         D2E/DX2 =    0.008              !
 ! D19   D(7,3,4,5)            179.9991         D2E/DX2 =    0.0072             !
 ! D20   D(7,3,4,12)             0.0007         D2E/DX2 =    0.0054             !
 ! D21   D(3,4,5,1)              0.0014         D2E/DX2 =    0.0111             !
 ! D22   D(12,4,5,1)          -179.9998         D2E/DX2 =    0.0068             !
 ! D23   D(3,4,12,13)         -179.9985         D2E/DX2 =    0.014              !
 ! D24   D(3,4,12,14)            0.0136         D2E/DX2 =    0.0151             !
 ! D25   D(5,4,12,13)            0.0032         D2E/DX2 =    0.0152             !
 ! D26   D(5,4,12,14)         -179.9847         D2E/DX2 =    0.0172             !
 ! D27   D(4,12,14,15)         179.9925         D2E/DX2 =    0.0206             !
 ! D28   D(13,12,14,15)          0.0044         D2E/DX2 =    0.0197             !
 ! D29   D(12,14,15,16)       -179.9991         D2E/DX2 =    0.0239             !
 ! D30   D(12,14,15,17)        -60.47           D2E/DX2 =    0.0236             !
 ! D31   D(12,14,15,18)         60.4719         D2E/DX2 =    0.0236             !
 --------------------------------------------------------------------------------
 Trust Radius=3.00D-01 FncErr=1.00D-07 GrdErr=1.00D-06
 Number of steps in this run=     88 maximum allowed number of steps=    108.
 GradGradGradGradGradGradGradGradGradGradGradGradGradGradGradGradGradGrad

                          Input orientation:                          
 ---------------------------------------------------------------------
 Center     Atomic      Atomic             Coordinates (Angstroms)
 Number     Number       Type             X           Y           Z
 ---------------------------------------------------------------------
      1          6           0       -1.420868    0.402162    0.018210
      2          6           0       -0.953369   -0.883976    0.030097
      3          6           0        0.468069   -0.799139    0.015996
      4          6           0        0.773532    0.533314   -0.003550
      5          8           0       -0.378472    1.271408   -0.002288
      6          1           0       -1.556079   -1.778292    0.046869
      7          1           0        1.180979   -1.607358    0.019620
      8          6           0       -2.784287    0.992470    0.023282
      9          1           0       -2.932197    1.630485    0.899510
     10          1           0       -2.948403    1.608226   -0.865890
     11          1           0       -3.533516    0.200346    0.040146
     12          6           0        2.034673    1.274801   -0.024439
     13          8           0        2.142097    2.478451   -0.040523
     14          8           0        3.087713    0.420779   -0.023674
     15          6           0        4.386007    1.038222   -0.043546
     16          1           0        5.097633    0.215450   -0.039984
     17          1           0        4.507207    1.646287   -0.941232
     18          1           0        4.523890    1.668411    0.836296
 ---------------------------------------------------------------------
                    Distance matrix (angstroms):
                    1          2          3          4          5
     1  C    0.000000
     2  C    1.368520   0.000000
     3  C    2.238574   1.424037   0.000000
     4  C    2.198424   2.234285   1.367158   0.000000
     5  O    1.357423   2.230971   2.236992   1.368173   0.000000
     6  H    2.184830   1.078584   2.248749   3.282248   3.269532
     7  H    3.287519   2.253626   1.077716   2.179226   3.274090
     8  C    1.485732   2.621709   3.713185   3.587426   2.422066
     9  H    2.137658   3.315743   4.271473   3.968845   2.731975
    10  H    2.137658   3.315723   4.271465   3.968862   2.731995
    11  H    2.122378   2.798752   4.124590   4.320120   3.332157
    12  C    3.564279   3.686691   2.599444   1.463119   2.413250
    13  O    4.124214   4.570865   3.680782   2.378632   2.794939
    14  O    4.508815   4.246837   2.890036   2.317003   3.569100
    15  C    5.841934   5.675315   4.327780   3.647809   4.770361
    16  H    6.521435   6.150469   4.739766   4.335922   5.577114
    17  H    6.132736   6.096195   4.817782   4.007279   4.989190
    18  H    6.132928   6.096310   4.817818   4.007364   4.989388
                    6          7          8          9         10
     6  H    0.000000
     7  H    2.742526   0.000000
     8  C    3.030870   4.741567   0.000000
     9  H    3.773653   5.308112   1.093945   0.000000
    10  H    3.773618   5.308098   1.093945   1.765615   0.000000
    11  H    2.797376   5.049226   1.090453   1.773524   1.773523
    12  C    4.713806   3.006256   4.827460   5.064582   5.064608
    13  O    5.639503   4.197761   5.146014   5.229834   5.229886
    14  O    5.138648   2.784035   5.899952   6.209266   6.209191
    15  C    6.576421   4.156355   7.170752   7.402448   7.402346
    16  H    6.946542   4.320458   7.920381   8.207506   8.207353
    17  H    7.033315   4.751130   7.384013   7.663767   7.456088
    18  H    7.033418   4.751071   7.384263   7.456451   7.663956
                   11         12         13         14         15
    11  H    0.000000
    12  C    5.671274   0.000000
    13  O    6.116277   1.208540   0.000000
    14  O    6.625205   1.355820   2.264616   0.000000
    15  C    7.964162   2.363283   2.666346   1.437775   0.000000
    16  H    8.631534   3.241017   3.722415   2.020447   1.087832
    17  H    8.228431   2.663069   2.664117   2.087761   1.090996
    18  H    8.228660   2.663080   2.664191   2.087759   1.090996
                   16         17         18
    16  H    0.000000
    17  H    1.791130   0.000000
    18  H    1.791130   1.777744   0.000000
 Stoichiometry    C7H8O3
 Framework group  C1[X(C7H8O3)]
 Deg. of freedom    48
 Full point group                 C1      NOp   1
 Largest Abelian subgroup         C1      NOp   1
 Largest concise Abelian subgroup C1      NOp   1
                         Standard orientation:                         
 ---------------------------------------------------------------------
 Center     Atomic      Atomic             Coordinates (Angstroms)
 Number     Number       Type             X           Y           Z
 ---------------------------------------------------------------------
      1          6           0       -2.228029   -0.002477    0.000037
      2          6           0       -1.942357    1.335895   -0.000034
      3          6           0       -0.522718    1.447741   -0.000120
      4          6           0       -0.036382    0.170009   -0.000108
      5          8           0       -1.075645   -0.719840    0.000007
      6          1           0       -2.662689    2.138680   -0.000024
      7          1           0        0.071949    2.346541   -0.000188
      8          6           0       -3.497081   -0.775075    0.000148
      9          1           0       -3.565188   -1.417581   -0.882610
     10          1           0       -3.565112   -1.417455    0.883004
     11          1           0       -4.348446   -0.093704    0.000137
     12          6           0        1.315049   -0.390661   -0.000163
     13          8           0        1.587462   -1.568100   -0.000169
     14          8           0        2.240302    0.600376    0.000062
     15          6           0        3.611426    0.167691    0.000203
     16          1           0        4.202817    1.080728    0.000391
     17          1           0        3.825005   -0.427821    0.889035
     18          1           0        3.825251   -0.427612   -0.888710
 ---------------------------------------------------------------------
 Rotational constants (GHZ):      3.9325861      0.7503044      0.6350985
 Standard basis: 6-311+G(d,p) (5D, 7F)
 There are   278 symmetry adapted cartesian basis functions of A   symmetry.
 There are   268 symmetry adapted basis functions of A   symmetry.
   268 basis functions,   424 primitive gaussians,   278 cartesian basis functions
    37 alpha electrons       37 beta electrons
       nuclear repulsion energy       514.1052480590 Hartrees.
 NAtoms=   18 NActive=   18 NUniq=   18 SFac= 1.00D+00 NAtFMM=   60 NAOKFM=F Big=F
 Integral buffers will be    131072 words long.
 Raffenetti 2 integral format.
 Two-electron integral symmetry is turned on.
 One-electron integrals computed using PRISM.
 NBasis=   268 RedAO= T EigKep=  1.28D-06  NBF=   268
 NBsUse=   268 1.00D-06 EigRej= -1.00D+00 NBFU=   268
 Initial guess from the checkpoint file:  "regiodevergent1c_Ishiyana.chk"
 B after Tr=     0.000000    0.000000    0.000000
         Rot=    1.000000    0.000000    0.000000    0.000000 Ang=   0.00 deg.
 Requested convergence on RMS density matrix=1.00D-08 within 128 cycles.
 Requested convergence on MAX density matrix=1.00D-06.
 Requested convergence on             energy=1.00D-06.
 No special actions if energy rises.
 SCF Done:  E(RB3LYP) =  -497.368696165     A.U. after    2 cycles
            NFock=  2  Conv=0.39D-08     -V/T= 2.0038

 **********************************************************************

            Population analysis using the SCF density.

 **********************************************************************

 Orbital symmetries:
       Occupied  (A) (A) (A) (A) (A) (A) (A) (A) (A) (A) (A) (A)
                 (A) (A) (A) (A) (A) (A) (A) (A) (A) (A) (A) (A)
                 (A) (A) (A) (A) (A) (A) (A) (A) (A) (A) (A) (A)
                 (A)
       Virtual   (A) (A) (A) (A) (A) (A) (A) (A) (A) (A) (A) (A)
                 (A) (A) (A) (A) (A) (A) (A) (A) (A) (A) (A) (A)
                 (A) (A) (A) (A) (A) (A) (A) (A) (A) (A) (A) (A)
                 (A) (A) (A) (A) (A) (A) (A) (A) (A) (A) (A) (A)
                 (A) (A) (A) (A) (A) (A) (A) (A) (A) (A) (A) (A)
                 (A) (A) (A) (A) (A) (A) (A) (A) (A) (A) (A) (A)
                 (A) (A) (A) (A) (A) (A) (A) (A) (A) (A) (A) (A)
                 (A) (A) (A) (A) (A) (A) (A) (A) (A) (A) (A) (A)
                 (A) (A) (A) (A) (A) (A) (A) (A) (A) (A) (A) (A)
                 (A) (A) (A) (A) (A) (A) (A) (A) (A) (A) (A) (A)
                 (A) (A) (A) (A) (A) (A) (A) (A) (A) (A) (A) (A)
                 (A) (A) (A) (A) (A) (A) (A) (A) (A) (A) (A) (A)
                 (A) (A) (A) (A) (A) (A) (A) (A) (A) (A) (A) (A)
                 (A) (A) (A) (A) (A) (A) (A) (A) (A) (A) (A) (A)
                 (A) (A) (A) (A) (A) (A) (A) (A) (A) (A) (A) (A)
                 (A) (A) (A) (A) (A) (A) (A) (A) (A) (A) (A) (A)
                 (A) (A) (A) (A) (A) (A) (A) (A) (A) (A) (A) (A)
                 (A) (A) (A) (A) (A) (A) (A) (A) (A) (A) (A) (A)
                 (A) (A) (A) (A) (A) (A) (A) (A) (A) (A) (A) (A)
                 (A) (A) (A)
 The electronic state is 1-A.
 Alpha  occ. eigenvalues --  -19.20050 -19.17068 -19.11143 -10.30759 -10.24872
 Alpha  occ. eigenvalues --  -10.23813 -10.22771 -10.19231 -10.18960 -10.18358
 Alpha  occ. eigenvalues --   -1.13186  -1.10836  -1.02354  -0.82079  -0.80770
 Alpha  occ. eigenvalues --   -0.75042  -0.70207  -0.62757  -0.60281  -0.56496
 Alpha  occ. eigenvalues --   -0.54398  -0.49507  -0.47873  -0.47537  -0.47501
 Alpha  occ. eigenvalues --   -0.44423  -0.42473  -0.42419  -0.41999  -0.40567
 Alpha  occ. eigenvalues --   -0.39698  -0.38548  -0.36760  -0.31277  -0.29843
 Alpha  occ. eigenvalues --   -0.28729  -0.24246
 Alpha virt. eigenvalues --   -0.05149  -0.00140   0.00934   0.01996   0.02110
 Alpha virt. eigenvalues --    0.03070   0.04345   0.04373   0.04968   0.05578
 Alpha virt. eigenvalues --    0.05928   0.06820   0.07597   0.07778   0.09112
 Alpha virt. eigenvalues --    0.09126   0.09459   0.10254   0.12211   0.12414
 Alpha virt. eigenvalues --    0.13707   0.13724   0.14055   0.14372   0.15301
 Alpha virt. eigenvalues --    0.15664   0.16002   0.17911   0.18845   0.19014
 Alpha virt. eigenvalues --    0.19437   0.19578   0.20674   0.20915   0.21302
 Alpha virt. eigenvalues --    0.22136   0.22947   0.23445   0.23841   0.24492
 Alpha virt. eigenvalues --    0.25407   0.26048   0.26468   0.27283   0.28038
 Alpha virt. eigenvalues --    0.29319   0.30972   0.31699   0.32563   0.32630
 Alpha virt. eigenvalues --    0.34183   0.35010   0.36057   0.37025   0.37925
 Alpha virt. eigenvalues --    0.39767   0.40969   0.42125   0.42851   0.44220
 Alpha virt. eigenvalues --    0.45506   0.46628   0.48759   0.49495   0.51408
 Alpha virt. eigenvalues --    0.53855   0.54574   0.55780   0.57402   0.57684
 Alpha virt. eigenvalues --    0.57875   0.58331   0.60144   0.61816   0.62996
 Alpha virt. eigenvalues --    0.64532   0.65335   0.67095   0.67757   0.68447
 Alpha virt. eigenvalues --    0.70396   0.71828   0.72694   0.75565   0.76513
 Alpha virt. eigenvalues --    0.79831   0.82679   0.83848   0.87934   0.91003
 Alpha virt. eigenvalues --    0.92267   0.92831   0.93682   0.95237   0.98168
 Alpha virt. eigenvalues --    1.00288   1.01750   1.02786   1.05304   1.06336
 Alpha virt. eigenvalues --    1.08829   1.09575   1.10580   1.12004   1.17415
 Alpha virt. eigenvalues --    1.18628   1.19784   1.21126   1.22285   1.24403
 Alpha virt. eigenvalues --    1.30055   1.31885   1.32928   1.35483   1.36251
 Alpha virt. eigenvalues --    1.39006   1.40321   1.43244   1.43847   1.49655
 Alpha virt. eigenvalues --    1.51726   1.51995   1.53504   1.54744   1.54767
 Alpha virt. eigenvalues --    1.59518   1.60140   1.64439   1.66749   1.67984
 Alpha virt. eigenvalues --    1.68501   1.69475   1.70989   1.72507   1.74911
 Alpha virt. eigenvalues --    1.75257   1.77127   1.82063   1.83451   1.84377
 Alpha virt. eigenvalues --    1.85065   1.89497   1.93874   1.94325   1.95561
 Alpha virt. eigenvalues --    1.99464   2.00532   2.04661   2.08358   2.10301
 Alpha virt. eigenvalues --    2.10354   2.13737   2.17806   2.18081   2.26564
 Alpha virt. eigenvalues --    2.30356   2.35215   2.39281   2.42266   2.43550
 Alpha virt. eigenvalues --    2.46247   2.48313   2.48962   2.50346   2.50877
 Alpha virt. eigenvalues --    2.52177   2.52880   2.59117   2.60650   2.61472
 Alpha virt. eigenvalues --    2.63480   2.70413   2.70937   2.74551   2.75254
 Alpha virt. eigenvalues --    2.78297   2.80925   2.81213   2.88559   2.90375
 Alpha virt. eigenvalues --    2.92008   2.97039   2.97316   3.03750   3.04391
 Alpha virt. eigenvalues --    3.05526   3.10219   3.13607   3.14296   3.18336
 Alpha virt. eigenvalues --    3.19970   3.20751   3.30758   3.33231   3.36654
 Alpha virt. eigenvalues --    3.38453   3.50583   3.54274   3.60206   3.63437
 Alpha virt. eigenvalues --    3.71813   3.76977   3.78287   3.82537   3.84987
 Alpha virt. eigenvalues --    4.03372   4.07385   4.08898   4.13848   4.26086
 Alpha virt. eigenvalues --    4.28720   4.44091   4.96110   4.97319   5.06104
 Alpha virt. eigenvalues --    5.22120   5.35910   5.45216   5.62774   5.84709
 Alpha virt. eigenvalues --    5.88250  23.67492  23.82644  23.88244  23.91765
 Alpha virt. eigenvalues --   23.94932  24.10723  24.18447  49.88823  49.90744
 Alpha virt. eigenvalues --   50.04424
          Condensed to atoms (all electrons):
               1          2          3          4          5          6
     1  C    7.372858  -1.335391   1.234320  -0.234873  -0.049766  -0.026669
     2  C   -1.335391   8.212958  -1.516013   1.532113   0.186592   0.384728
     3  C    1.234320  -1.516013   9.642232   0.631335   0.003665  -0.065458
     4  C   -0.234873   1.532113   0.631335  21.202149   0.501464   0.042078
     5  O   -0.049766   0.186592   0.003665   0.501464   8.019085   0.008337
     6  H   -0.026669   0.384728  -0.065458   0.042078   0.008337   0.525069
     7  H   -0.012768   0.009198   0.325999  -0.022180   0.011166  -0.003182
     8  C    0.229531  -0.886873   0.510701  -0.328769  -0.224963  -0.032914
     9  H    0.021091  -0.025050   0.002850  -0.000032  -0.006212   0.000049
    10  H    0.021100  -0.025058   0.002852  -0.000011  -0.006213   0.000049
    11  H   -0.135344   0.026190   0.000596   0.000160   0.014796   0.000008
    12  C   -1.145408  -0.328704  -3.976871 -15.436591  -0.491524   0.040971
    13  O    0.059225   0.000815   0.020008   0.380926   0.040003  -0.000073
    14  O   -0.022796   0.013518  -0.156751  -0.985213   0.027386   0.000115
    15  C   -0.027240  -0.007377  -0.147379  -1.058015   0.004391   0.000166
    16  H    0.000882  -0.000590   0.011244   0.024658   0.000011   0.000000
    17  H    0.000098   0.000030  -0.004129   0.017257  -0.000083   0.000000
    18  H    0.000100   0.000029  -0.004136   0.017203  -0.000083   0.000000
               7          8          9         10         11         12
     1  C   -0.012768   0.229531   0.021091   0.021100  -0.135344  -1.145408
     2  C    0.009198  -0.886873  -0.025050  -0.025058   0.026190  -0.328704
     3  C    0.325999   0.510701   0.002850   0.002852   0.000596  -3.976871
     4  C   -0.022180  -0.328769  -0.000032  -0.000011   0.000160 -15.436591
     5  O    0.011166  -0.224963  -0.006212  -0.006213   0.014796  -0.491524
     6  H   -0.003182  -0.032914   0.000049   0.000049   0.000008   0.040971
     7  H    0.504892   0.004179   0.000010   0.000010  -0.000023   0.040267
     8  C    0.004179   6.364705   0.369271   0.369248   0.467147  -0.544663
     9  H    0.000010   0.369271   0.526497  -0.031912  -0.023514   0.003831
    10  H    0.000010   0.369248  -0.031912   0.526499  -0.023514   0.003826
    11  H   -0.000023   0.467147  -0.023514  -0.023514   0.521299  -0.001883
    12  C    0.040267  -0.544663   0.003831   0.003826  -0.001883  25.420655
    13  O   -0.001086   0.003053  -0.000094  -0.000094   0.000034  -0.057504
    14  O    0.000683  -0.008262   0.000007   0.000007  -0.000004   0.960310
    15  C    0.000208  -0.005698   0.000007   0.000007   0.000010   0.855054
    16  H    0.000032   0.000033   0.000000   0.000000   0.000000  -0.007076
    17  H    0.000000   0.000015   0.000000   0.000000   0.000000  -0.016182
    18  H    0.000000   0.000015   0.000000   0.000000   0.000000  -0.016151
              13         14         15         16         17         18
     1  C    0.059225  -0.022796  -0.027240   0.000882   0.000098   0.000100
     2  C    0.000815   0.013518  -0.007377  -0.000590   0.000030   0.000029
     3  C    0.020008  -0.156751  -0.147379   0.011244  -0.004129  -0.004136
     4  C    0.380926  -0.985213  -1.058015   0.024658   0.017257   0.017203
     5  O    0.040003   0.027386   0.004391   0.000011  -0.000083  -0.000083
     6  H   -0.000073   0.000115   0.000166   0.000000   0.000000   0.000000
     7  H   -0.001086   0.000683   0.000208   0.000032   0.000000   0.000000
     8  C    0.003053  -0.008262  -0.005698   0.000033   0.000015   0.000015
     9  H   -0.000094   0.000007   0.000007   0.000000   0.000000   0.000000
    10  H   -0.000094   0.000007   0.000007   0.000000   0.000000   0.000000
    11  H    0.000034  -0.000004   0.000010   0.000000   0.000000   0.000000
    12  C   -0.057504   0.960310   0.855054  -0.007076  -0.016182  -0.016151
    13  O    8.098387  -0.192201  -0.072655   0.002389  -0.000738  -0.000745
    14  O   -0.192201   8.366660   0.287669  -0.064278  -0.029475  -0.029472
    15  C   -0.072655   0.287669   5.099403   0.398466   0.412364   0.412392
    16  H    0.002389  -0.064278   0.398466   0.540234  -0.028257  -0.028258
    17  H   -0.000738  -0.029475   0.412364  -0.028257   0.527552  -0.035454
    18  H   -0.000745  -0.029472   0.412392  -0.028258  -0.035454   0.527560
 Mulliken charges:
               1
     1  C    0.051050
     2  C   -0.241115
     3  C   -0.515066
     4  C   -0.283660
     5  O   -0.038051
     6  H    0.126724
     7  H    0.142595
     8  C   -0.285757
     9  H    0.163202
    10  H    0.163203
    11  H    0.154043
    12  C    0.697645
    13  O   -0.279649
    14  O   -0.167901
    15  C   -0.151774
    16  H    0.150511
    17  H    0.157002
    18  H    0.156999
 Sum of Mulliken charges =   0.00000
 Mulliken charges with hydrogens summed into heavy atoms:
               1
     1  C    0.051050
     2  C   -0.114390
     3  C   -0.372471
     4  C   -0.283660
     5  O   -0.038051
     8  C    0.194690
    12  C    0.697645
    13  O   -0.279649
    14  O   -0.167901
    15  C    0.312738
 Electronic spatial extent (au):  <R**2>=           1755.4840
 Charge=              0.0000 electrons
 Dipole moment (field-independent basis, Debye):
    X=             -1.2492    Y=              2.4763    Z=              0.0003  Tot=              2.7735
 Quadrupole moment (field-independent basis, Debye-Ang):
   XX=            -42.0947   YY=            -61.7350   ZZ=            -59.3012
   XY=              3.2454   XZ=              0.0004   YZ=             -0.0008
 Traceless Quadrupole moment (field-independent basis, Debye-Ang):
   XX=             12.2823   YY=             -7.3580   ZZ=             -4.9242
   XY=              3.2454   XZ=              0.0004   YZ=             -0.0008
 Octapole moment (field-independent basis, Debye-Ang**2):
  XXX=             20.2842  YYY=             12.1510  ZZZ=              0.0009  XYY=             -9.2207
  XXY=              1.4405  XXZ=              0.0046  XZZ=              7.5229  YZZ=             -6.9847
  YYZ=              0.0009  XYZ=             -0.0006
 Hexadecapole moment (field-independent basis, Debye-Ang**3):
 XXXX=          -1600.6295 YYYY=           -380.7349 ZZZZ=            -75.2673 XXXY=             22.7526
 XXXZ=              0.0075 YYYX=             14.4961 YYYZ=             -0.0024 ZZZX=             -0.0015
 ZZZY=              0.0002 XXYY=           -370.1443 XXZZ=           -324.5428 YYZZ=            -79.7019
 XXYZ=              0.0005 YYXZ=              0.0035 ZZXY=              5.2128
 N-N= 5.141052480590D+02 E-N=-2.191389528176D+03  KE= 4.954704125777D+02
 There are a total of      148578 grid points.
 ElSum from          density=       74.0001222769
 ElSum from atomic densities=       74.0002705676

 Hirshfeld populations at iteration   1 (CX, CA, CB, DipXYZ):
               1          2          3          4          5          6
     1  C    0.000000   2.959027   2.959027   0.010635  -0.126833   0.000005
     2  C    0.000000   3.042685   3.042685  -0.046408   0.102368  -0.000001
     3  C    0.000000   3.029061   3.029061   0.024280   0.120245  -0.000001
     4  C    0.000000   2.980920   2.980920  -0.015141  -0.124157   0.000004
     5  O    0.000001   4.042214   4.042214  -0.011603   0.109787  -0.000004
     6  H    0.000002   0.471900   0.471900  -0.110642   0.129704   0.000001
     7  H    0.000002   0.468355   0.468355   0.080781   0.152152  -0.000010
     8  C    0.000000   3.044295   3.044295  -0.003482  -0.001783   0.000000
     9  H    0.000001   0.473000   0.473000  -0.014194  -0.095089  -0.125230
    10  H    0.000001   0.473001   0.473001  -0.014183  -0.095071   0.125244
    11  H    0.000001   0.473990   0.473990  -0.125886   0.093984  -0.000001
    12  C    0.000000   2.897562   2.897562   0.071017   0.056249  -0.000030
    13  O    0.000007   4.145129   4.145129  -0.004423   0.112387   0.000019
    14  O    0.000000   4.068967   4.068967   0.058255  -0.132284  -0.000003
    15  C    0.000000   3.004616   3.004616  -0.045532   0.027617  -0.000001
    16  H    0.000000   0.474221   0.474221   0.095533   0.128025   0.000029
    17  H    0.000001   0.475559   0.475559   0.050419  -0.075101   0.126272
    18  H    0.000001   0.475559   0.475559   0.050452  -0.075073  -0.126275
       Tot   0.000017  37.000061  37.000061   0.049879   0.307127   0.000019

 Dip from Atomic Chgs             -0.541460   0.666953   0.000098
         Total Dipole             -0.491581   0.974080   0.000117

 Hirshfeld charges, spin densities, dipoles, and CM5 charges using IRadAn=      4:
              Q-H        S-H        Dx         Dy         Dz        Q-CM5   
     1  C    0.081946   0.000000   0.010635  -0.126833   0.000005   0.093086
     2  C   -0.085370   0.000000  -0.046408   0.102368  -0.000001  -0.135336
     3  C   -0.058122   0.000000   0.024280   0.120245  -0.000001  -0.106637
     4  C    0.038159   0.000000  -0.015141  -0.124157   0.000004   0.063630
     5  O   -0.084428   0.000000  -0.011603   0.109787  -0.000004  -0.149734
     6  H    0.056201   0.000000  -0.110642   0.129704   0.000001   0.112415
     7  H    0.063290   0.000000   0.080781   0.152152  -0.000010   0.121542
     8  C   -0.088590   0.000000  -0.003482  -0.001783   0.000000  -0.229513
     9  H    0.053999   0.000000  -0.014194  -0.095089  -0.125230   0.107232
    10  H    0.053999   0.000000  -0.014183  -0.095071   0.125244   0.107232
    11  H    0.052020   0.000000  -0.125886   0.093984  -0.000001   0.104671
    12  C    0.204876   0.000000   0.071017   0.056249  -0.000030   0.266249
    13  O   -0.290258   0.000000  -0.004423   0.112387   0.000019  -0.335237
    14  O   -0.137934   0.000000   0.058255  -0.132284  -0.000003  -0.221642
    15  C   -0.009233   0.000000  -0.045532   0.027617  -0.000001  -0.130816
    16  H    0.051558   0.000000   0.095533   0.128025   0.000029   0.112150
    17  H    0.048883   0.000000   0.050419  -0.075101   0.126272   0.110294
    18  H    0.048882   0.000000   0.050452  -0.075073  -0.126275   0.110292
       Tot  -0.000122   0.000000   0.049879   0.307127   0.000019  -0.000122
 Hirshfeld charges with hydrogens summed into heavy atoms:
              Q-H       Q-CM5   
     1  C    0.081946   0.093086
     2  C   -0.029170  -0.022921
     3  C    0.005168   0.014906
     4  C    0.038159   0.063630
     5  O   -0.084428  -0.149734
     8  C    0.071428   0.089622
    12  C    0.204876   0.266249
    13  O   -0.290258  -0.335237
    14  O   -0.137934  -0.221642
    15  C    0.140090   0.201920
 
 EQQ= 0.000000000000E+00 EQD= 0.000000000000E+00 EDD=-0.211266876531E-03
 EQQ+QD+DD=-0.211266876531E-03
 
          MBS Condensed to atoms (all electrons):
               1          2          3          4          5          6
     1  C    4.763555   0.541870  -0.054097  -0.071539   0.328819  -0.020285
     2  C    0.541870   4.896321   0.470763  -0.057100  -0.039721   0.390017
     3  C   -0.054097   0.470763   4.851244   0.534890  -0.039300  -0.018303
     4  C   -0.071539  -0.057100   0.534890   4.829416   0.318690   0.001815
     5  O    0.328819  -0.039721  -0.039300   0.318690   7.751509   0.000826
     6  H   -0.020285   0.390017  -0.018303   0.001815   0.000826   0.526559
     7  H    0.001777  -0.017409   0.388798  -0.019836   0.000801  -0.001399
     8  C    0.392887  -0.022297   0.000960   0.001830  -0.021744  -0.000980
     9  H   -0.022515   0.000498  -0.000031   0.000043  -0.000745   0.000014
    10  H   -0.022515   0.000498  -0.000031   0.000043  -0.000745   0.000014
    11  H   -0.020403  -0.002573   0.000043  -0.000054   0.000729   0.000300
    12  C    0.001650   0.000854  -0.018786   0.404306  -0.019182  -0.000011
    13  O    0.000009  -0.000004   0.000245  -0.027220  -0.000169   0.000000
    14  O   -0.000004   0.000007  -0.000752  -0.036487   0.000060   0.000000
    15  C    0.000000   0.000000   0.000009   0.001713  -0.000002   0.000000
    16  H    0.000000   0.000000  -0.000001  -0.000026   0.000000   0.000000
    17  H    0.000000   0.000000   0.000000   0.000016   0.000000   0.000000
    18  H    0.000000   0.000000   0.000000   0.000016   0.000000   0.000000
               7          8          9         10         11         12
     1  C    0.001777   0.392887  -0.022515  -0.022515  -0.020403   0.001650
     2  C   -0.017409  -0.022297   0.000498   0.000498  -0.002573   0.000854
     3  C    0.388798   0.000960  -0.000031  -0.000031   0.000043  -0.018786
     4  C   -0.019836   0.001830   0.000043   0.000043  -0.000054   0.404306
     5  O    0.000801  -0.021744  -0.000745  -0.000745   0.000729  -0.019182
     6  H   -0.001399  -0.000980   0.000014   0.000014   0.000300  -0.000011
     7  H    0.508479  -0.000012   0.000001   0.000001  -0.000001  -0.001042
     8  C   -0.000012   4.786730   0.373356   0.373355   0.376740  -0.000010
     9  H    0.000001   0.373356   0.573677  -0.022027  -0.020115   0.000000
    10  H    0.000001   0.373355  -0.022027   0.573678  -0.020115   0.000000
    11  H   -0.000001   0.376740  -0.020115  -0.020115   0.576273   0.000000
    12  C   -0.001042  -0.000010   0.000000   0.000000   0.000000   4.441801
    13  O    0.000004   0.000000   0.000000   0.000000   0.000000   0.459612
    14  O    0.000581   0.000000   0.000000   0.000000   0.000000   0.287086
    15  C   -0.000015   0.000000   0.000000   0.000000   0.000000  -0.033079
    16  H    0.000000   0.000000   0.000000   0.000000   0.000000   0.002444
    17  H    0.000001   0.000000   0.000000   0.000000   0.000000  -0.003615
    18  H    0.000001   0.000000   0.000000   0.000000   0.000000  -0.003615
              13         14         15         16         17         18
     1  C    0.000009  -0.000004   0.000000   0.000000   0.000000   0.000000
     2  C   -0.000004   0.000007   0.000000   0.000000   0.000000   0.000000
     3  C    0.000245  -0.000752   0.000009  -0.000001   0.000000   0.000000
     4  C   -0.027220  -0.036487   0.001713  -0.000026   0.000016   0.000016
     5  O   -0.000169   0.000060  -0.000002   0.000000   0.000000   0.000000
     6  H    0.000000   0.000000   0.000000   0.000000   0.000000   0.000000
     7  H    0.000004   0.000581  -0.000015   0.000000   0.000001   0.000001
     8  C    0.000000   0.000000   0.000000   0.000000   0.000000   0.000000
     9  H    0.000000   0.000000   0.000000   0.000000   0.000000   0.000000
    10  H    0.000000   0.000000   0.000000   0.000000   0.000000   0.000000
    11  H    0.000000   0.000000   0.000000   0.000000   0.000000   0.000000
    12  C    0.459612   0.287086  -0.033079   0.002444  -0.003615  -0.003615
    13  O    8.055187  -0.022934  -0.001607   0.000074   0.001224   0.001223
    14  O   -0.022934   7.945288   0.259216  -0.019836  -0.016299  -0.016299
    15  C   -0.001607   0.259216   4.728422   0.378978   0.372988   0.372989
    16  H    0.000074  -0.019836   0.378978   0.564634  -0.022018  -0.022018
    17  H    0.001224  -0.016299   0.372988  -0.022018   0.573848  -0.024993
    18  H    0.001223  -0.016299   0.372989  -0.022018  -0.024993   0.573850
 MBS Mulliken charges:
               1
     1  C    0.180790
     2  C   -0.161724
     3  C   -0.115651
     4  C    0.119483
     5  O   -0.279825
     6  H    0.121433
     7  H    0.139273
     8  C   -0.260815
     9  H    0.117845
    10  H    0.117845
    11  H    0.109176
    12  C    0.481589
    13  O   -0.465645
    14  O   -0.379627
    15  C   -0.079611
    16  H    0.117768
    17  H    0.118849
    18  H    0.118847
 Sum of MBS Mulliken charges =   0.00000
 MBS Mulliken charges with hydrogens summed into heavy atoms:
               1
     1  C    0.180790
     2  C   -0.040291
     3  C    0.023622
     4  C    0.119483
     5  O   -0.279825
     8  C    0.084051
    12  C    0.481589
    13  O   -0.465645
    14  O   -0.379627
    15  C    0.275853
 Breneman (CHELPG) radii used.
 Generate Potential Derived Charges using the Breneman model, NDens= 1.
 Grid spacing= 0.300 Box extension= 2.800
 NStep X,Y,Z=   49     33     26   Total possible points=       42042
 Number of Points to Fit=   13058

 **********************************************************************

            Electrostatic Properties Using The SCF Density

 **********************************************************************

       Atomic Center    1 is at  -2.228029 -0.002477  0.000037
       Atomic Center    2 is at  -1.942357  1.335895 -0.000034
       Atomic Center    3 is at  -0.522718  1.447741 -0.000120
       Atomic Center    4 is at  -0.036382  0.170009 -0.000108
       Atomic Center    5 is at  -1.075645 -0.719840  0.000007
       Atomic Center    6 is at  -2.662689  2.138680 -0.000024
       Atomic Center    7 is at   0.071949  2.346541 -0.000188
       Atomic Center    8 is at  -3.497081 -0.775075  0.000148
       Atomic Center    9 is at  -3.565188 -1.417581 -0.882610
       Atomic Center   10 is at  -3.565112 -1.417455  0.883004
       Atomic Center   11 is at  -4.348446 -0.093704  0.000137
       Atomic Center   12 is at   1.315049 -0.390661 -0.000163
       Atomic Center   13 is at   1.587462 -1.568100 -0.000169
       Atomic Center   14 is at   2.240302  0.600376  0.000062
       Atomic Center   15 is at   3.611426  0.167691  0.000203
       Atomic Center   16 is at   4.202817  1.080728  0.000391
       Atomic Center   17 is at   3.825005 -0.427821  0.889035
       Atomic Center   18 is at   3.825251 -0.427612 -0.888710
   13058 points will be used for fitting atomic charges
 Fitting point charges to electrostatic potential
 Charges from ESP fit, RMS=   0.00357 RRMS=   0.23106:
 ESP charges:
               1
     1  C    0.407979
     2  C   -0.303756
     3  C   -0.029579
     4  C   -0.146208
     5  O   -0.217686
     6  H    0.143812
     7  H    0.110592
     8  C   -0.434170
     9  H    0.136120
    10  H    0.136120
    11  H    0.121622
    12  C    0.852743
    13  O   -0.569582
    14  O   -0.469821
    15  C    0.128129
    16  H    0.053871
    17  H    0.039918
    18  H    0.039895
 Sum of ESP charges =   0.00000
 ESP charges with hydrogens summed into heavy atoms:
               1
     1  C    0.407979
     2  C   -0.159944
     3  C    0.081012
     4  C   -0.146208
     5  O   -0.217686
     8  C   -0.040307
    12  C    0.852743
    13  O   -0.569582
    14  O   -0.469821
    15  C    0.261813
 Charge=   0.00000 Dipole=    -1.2538     2.4594     0.0002 Tot=     2.7606
 -----------------------------------------------------------------

              Electrostatic Properties (Atomic Units)

 -----------------------------------------------------------------
    Center     Electric         -------- Electric Field --------
               Potential          X             Y             Z
 -----------------------------------------------------------------
    1 Atom    -14.701971
    2 Atom    -14.767014
    3 Atom    -14.759211
    4 Atom    -14.711732
    5 Atom    -22.295951
    6 Atom     -1.083697
    7 Atom     -1.082697
    8 Atom    -14.755840
    9 Atom     -1.096276
   10 Atom     -1.096276
   11 Atom     -1.094423
   12 Atom    -14.642519
   13 Atom    -22.388376
   14 Atom    -22.325354
   15 Atom    -14.717846
   16 Atom     -1.101392
   17 Atom     -1.104993
   18 Atom     -1.104992
 -----------------------------------------------------------------
 ******************************Gaussian NBO Version 3.1******************************
             N A T U R A L   A T O M I C   O R B I T A L   A N D
          N A T U R A L   B O N D   O R B I T A L   A N A L Y S I S
 ******************************Gaussian NBO Version 3.1******************************
       /RESON  / : Allow strongly delocalized NBO set

 Analyzing the SCF density

 Job title: Title Card Required                                             

 Storage needed:    216730 in NPA ( 536869112 available)


 NATURAL POPULATIONS:  Natural atomic orbital occupancies 
                                                          
   NAO  Atom  No  lang   Type(AO)    Occupancy      Energy
 ----------------------------------------------------------
     1    C    1  S      Cor( 1S)     1.99901     -10.11973
     2    C    1  S      Val( 2S)     0.85849      -0.17104
     3    C    1  S      Ryd( 3S)     0.00150       0.76102
     4    C    1  S      Ryd( 4S)     0.00011       1.47897
     5    C    1  S      Ryd( 5S)     0.00002      22.46711
     6    C    1  px     Val( 2p)     0.82307      -0.04706
     7    C    1  px     Ryd( 4p)     0.00516       1.28517
     8    C    1  px     Ryd( 3p)     0.00035       0.67188
     9    C    1  px     Ryd( 5p)     0.00013       2.67544
    10    C    1  py     Val( 2p)     0.96702      -0.06157
    11    C    1  py     Ryd( 4p)     0.00722       1.03478
    12    C    1  py     Ryd( 3p)     0.00039       0.69958
    13    C    1  py     Ryd( 5p)     0.00014       2.73341
    14    C    1  pz     Val( 2p)     0.98641      -0.13340
    15    C    1  pz     Ryd( 3p)     0.00225       0.62924
    16    C    1  pz     Ryd( 4p)     0.00026       0.65595
    17    C    1  pz     Ryd( 5p)     0.00014       2.34793
    18    C    1  dxy    Ryd( 3d)     0.00195       2.51043
    19    C    1  dxz    Ryd( 3d)     0.00168       1.61079
    20    C    1  dyz    Ryd( 3d)     0.00142       1.64036
    21    C    1  dx2y2  Ryd( 3d)     0.00176       2.49462
    22    C    1  dz2    Ryd( 3d)     0.00067       2.03559

    23    C    2  S      Cor( 1S)     1.99902     -10.03749
    24    C    2  S      Val( 2S)     0.96153      -0.17527
    25    C    2  S      Ryd( 3S)     0.00099       0.84219
    26    C    2  S      Ryd( 4S)     0.00007       1.49106
    27    C    2  S      Ryd( 5S)     0.00001      22.34655
    28    C    2  px     Val( 2p)     1.10024      -0.07156
    29    C    2  px     Ryd( 4p)     0.00372       0.90236
    30    C    2  px     Ryd( 3p)     0.00037       0.49966
    31    C    2  px     Ryd( 5p)     0.00013       2.94540
    32    C    2  py     Val( 2p)     1.14017      -0.07843
    33    C    2  py     Ryd( 4p)     0.00432       0.91746
    34    C    2  py     Ryd( 3p)     0.00030       0.52227
    35    C    2  py     Ryd( 5p)     0.00012       2.93823
    36    C    2  pz     Val( 2p)     1.09596      -0.12602
    37    C    2  pz     Ryd( 4p)     0.00173       0.49486
    38    C    2  pz     Ryd( 3p)     0.00037       0.33226
    39    C    2  pz     Ryd( 5p)     0.00004       2.64079
    40    C    2  dxy    Ryd( 3d)     0.00068       2.42754
    41    C    2  dxz    Ryd( 3d)     0.00056       1.62082
    42    C    2  dyz    Ryd( 3d)     0.00074       1.66989
    43    C    2  dx2y2  Ryd( 3d)     0.00078       2.64004
    44    C    2  dz2    Ryd( 3d)     0.00045       2.12182

    45    C    3  S      Cor( 1S)     1.99908     -10.04597
    46    C    3  S      Val( 2S)     0.96610      -0.18130
    47    C    3  S      Ryd( 3S)     0.00109       0.85764
    48    C    3  S      Ryd( 4S)     0.00008       1.82127
    49    C    3  S      Ryd( 5S)     0.00001      21.99321
    50    C    3  px     Val( 2p)     1.07824      -0.06853
    51    C    3  px     Ryd( 4p)     0.00354       0.95801
    52    C    3  px     Ryd( 3p)     0.00044       0.48423
    53    C    3  px     Ryd( 5p)     0.00016       3.09160
    54    C    3  py     Val( 2p)     1.15583      -0.07493
    55    C    3  py     Ryd( 4p)     0.00464       1.00478
    56    C    3  py     Ryd( 3p)     0.00029       0.31939
    57    C    3  py     Ryd( 5p)     0.00011       3.09231
    58    C    3  pz     Val( 2p)     1.00609      -0.12402
    59    C    3  pz     Ryd( 4p)     0.00118       0.53800
    60    C    3  pz     Ryd( 3p)     0.00033       0.29628
    61    C    3  pz     Ryd( 5p)     0.00006       2.66926
    62    C    3  dxy    Ryd( 3d)     0.00081       2.50719
    63    C    3  dxz    Ryd( 3d)     0.00063       1.61559
    64    C    3  dyz    Ryd( 3d)     0.00069       1.67165
    65    C    3  dx2y2  Ryd( 3d)     0.00060       2.62308
    66    C    3  dz2    Ryd( 3d)     0.00045       2.14402

    67    C    4  S      Cor( 1S)     1.99883     -10.11268
    68    C    4  S      Val( 2S)     0.87013      -0.16954
    69    C    4  S      Ryd( 3S)     0.00206       0.85286
    70    C    4  S      Ryd( 4S)     0.00022       0.92313
    71    C    4  S      Ryd( 5S)     0.00002      23.03734
    72    C    4  px     Val( 2p)     0.89538      -0.06475
    73    C    4  px     Ryd( 4p)     0.00463       1.50151
    74    C    4  px     Ryd( 3p)     0.00035       0.65762
    75    C    4  px     Ryd( 5p)     0.00014       2.90018
    76    C    4  py     Val( 2p)     0.92915      -0.06844
    77    C    4  py     Ryd( 4p)     0.00973       1.23515
    78    C    4  py     Ryd( 3p)     0.00022       0.59299
    79    C    4  py     Ryd( 5p)     0.00020       2.88487
    80    C    4  pz     Val( 2p)     1.10835      -0.13967
    81    C    4  pz     Ryd( 4p)     0.00205       0.63814
    82    C    4  pz     Ryd( 3p)     0.00013       0.48879
    83    C    4  pz     Ryd( 5p)     0.00013       2.57010
    84    C    4  dxy    Ryd( 3d)     0.00192       2.64297
    85    C    4  dxz    Ryd( 3d)     0.00129       1.60121
    86    C    4  dyz    Ryd( 3d)     0.00136       1.62322
    87    C    4  dx2y2  Ryd( 3d)     0.00165       2.53165
    88    C    4  dz2    Ryd( 3d)     0.00070       2.05415

    89    O    5  S      Cor( 1S)     1.99969     -18.97365
    90    O    5  S      Val( 2S)     1.59028      -0.90533
    91    O    5  S      Ryd( 3S)     0.00154       0.94076
    92    O    5  S      Ryd( 4S)     0.00005       1.17030
    93    O    5  S      Ryd( 5S)     0.00000      49.59165
    94    O    5  px     Val( 2p)     1.39298      -0.33844
    95    O    5  px     Ryd( 3p)     0.00167       0.97070
    96    O    5  px     Ryd( 4p)     0.00068       1.01550
    97    O    5  px     Ryd( 5p)     0.00001       5.32066
    98    O    5  py     Val( 2p)     1.74832      -0.37431
    99    O    5  py     Ryd( 3p)     0.00437       0.47164
   100    O    5  py     Ryd( 4p)     0.00081       0.99763
   101    O    5  py     Ryd( 5p)     0.00007       5.12464
   102    O    5  pz     Val( 2p)     1.69803      -0.34108
   103    O    5  pz     Ryd( 3p)     0.00196       0.43757
   104    O    5  pz     Ryd( 4p)     0.00019       0.83127
   105    O    5  pz     Ryd( 5p)     0.00001       4.90535
   106    O    5  dxy    Ryd( 3d)     0.00154       3.63215
   107    O    5  dxz    Ryd( 3d)     0.00036       2.92822
   108    O    5  dyz    Ryd( 3d)     0.00115       2.89690
   109    O    5  dx2y2  Ryd( 3d)     0.00087       3.19577
   110    O    5  dz2    Ryd( 3d)     0.00065       3.28783

   111    H    6  S      Val( 1S)     0.77386       0.03964
   112    H    6  S      Ryd( 2S)     0.00043       0.65067
   113    H    6  S      Ryd( 3S)     0.00023       1.95365
   114    H    6  px     Ryd( 2p)     0.00025       2.28854
   115    H    6  py     Ryd( 2p)     0.00032       2.39924
   116    H    6  pz     Ryd( 2p)     0.00017       1.59060

   117    H    7  S      Val( 1S)     0.76415       0.04817
   118    H    7  S      Ryd( 3S)     0.00070       1.42419
   119    H    7  S      Ryd( 2S)     0.00023       1.19457
   120    H    7  px     Ryd( 2p)     0.00022       2.18549
   121    H    7  py     Ryd( 2p)     0.00034       2.53166
   122    H    7  pz     Ryd( 2p)     0.00015       1.59389

   123    C    8  S      Cor( 1S)     1.99928     -10.04543
   124    C    8  S      Val( 2S)     1.08755      -0.26528
   125    C    8  S      Ryd( 3S)     0.00080       0.97162
   126    C    8  S      Ryd( 4S)     0.00006       1.29239
   127    C    8  S      Ryd( 5S)     0.00000      22.59479
   128    C    8  px     Val( 2p)     1.11276      -0.11142
   129    C    8  px     Ryd( 4p)     0.00164       0.55918
   130    C    8  px     Ryd( 3p)     0.00018       0.44773
   131    C    8  px     Ryd( 5p)     0.00007       2.82530
   132    C    8  py     Val( 2p)     1.18863      -0.11419
   133    C    8  py     Ryd( 4p)     0.00222       0.53128
   134    C    8  py     Ryd( 3p)     0.00007       0.45415
   135    C    8  py     Ryd( 5p)     0.00005       2.85186
   136    C    8  pz     Val( 2p)     1.22184      -0.11794
   137    C    8  pz     Ryd( 4p)     0.00071       0.50823
   138    C    8  pz     Ryd( 3p)     0.00006       0.40684
   139    C    8  pz     Ryd( 5p)     0.00006       2.84331
   140    C    8  dxy    Ryd( 3d)     0.00089       2.33719
   141    C    8  dxz    Ryd( 3d)     0.00025       1.75053
   142    C    8  dyz    Ryd( 3d)     0.00100       2.20748
   143    C    8  dx2y2  Ryd( 3d)     0.00030       2.01988
   144    C    8  dz2    Ryd( 3d)     0.00071       2.11024

   145    H    9  S      Val( 1S)     0.77345       0.02059
   146    H    9  S      Ryd( 2S)     0.00099       0.69721
   147    H    9  S      Ryd( 3S)     0.00014       2.02826
   148    H    9  px     Ryd( 2p)     0.00016       1.71827
   149    H    9  py     Ryd( 2p)     0.00017       2.08849
   150    H    9  pz     Ryd( 2p)     0.00022       2.36677

   151    H   10  S      Val( 1S)     0.77345       0.02059
   152    H   10  S      Ryd( 2S)     0.00099       0.69720
   153    H   10  S      Ryd( 3S)     0.00014       2.02827
   154    H   10  px     Ryd( 2p)     0.00016       1.71826
   155    H   10  py     Ryd( 2p)     0.00017       2.08836
   156    H   10  pz     Ryd( 2p)     0.00022       2.36691

   157    H   11  S      Val( 1S)     0.77966       0.01576
   158    H   11  S      Ryd( 2S)     0.00047       0.54974
   159    H   11  S      Ryd( 3S)     0.00009       2.15264
   160    H   11  px     Ryd( 2p)     0.00025       2.30328
   161    H   11  py     Ryd( 2p)     0.00017       2.10201
   162    H   11  pz     Ryd( 2p)     0.00009       1.71968

   163    C   12  S      Cor( 1S)     1.99926     -10.18879
   164    C   12  S      Val( 2S)     0.75788      -0.13433
   165    C   12  S      Ryd( 4S)     0.00364       1.08177
   166    C   12  S      Ryd( 3S)     0.00016       0.60976
   167    C   12  S      Ryd( 5S)     0.00007      22.49746
   168    C   12  px     Val( 2p)     0.89079      -0.06142
   169    C   12  px     Ryd( 4p)     0.00485       1.43786
   170    C   12  px     Ryd( 3p)     0.00048       0.63581
   171    C   12  px     Ryd( 5p)     0.00025       2.13078
   172    C   12  py     Val( 2p)     0.75956      -0.01206
   173    C   12  py     Ryd( 4p)     0.01917       1.19656
   174    C   12  py     Ryd( 3p)     0.00020       0.56892
   175    C   12  py     Ryd( 5p)     0.00017       2.30680
   176    C   12  pz     Val( 2p)     0.79639      -0.13304
   177    C   12  pz     Ryd( 4p)     0.00083       0.77930
   178    C   12  pz     Ryd( 3p)     0.00040       0.47242
   179    C   12  pz     Ryd( 5p)     0.00014       2.28200
   180    C   12  dxy    Ryd( 3d)     0.00524       2.57974
   181    C   12  dxz    Ryd( 3d)     0.00170       1.53503
   182    C   12  dyz    Ryd( 3d)     0.00501       1.63729
   183    C   12  dx2y2  Ryd( 3d)     0.00262       2.61674
   184    C   12  dz2    Ryd( 3d)     0.00071       2.08419

   185    O   13  S      Cor( 1S)     1.99975     -18.84364
   186    O   13  S      Val( 2S)     1.70268      -0.89021
   187    O   13  S      Ryd( 4S)     0.00144       1.49154
   188    O   13  S      Ryd( 3S)     0.00007       1.35329
   189    O   13  S      Ryd( 5S)     0.00000      49.73324
   190    O   13  px     Val( 2p)     1.82265      -0.26548
   191    O   13  px     Ryd( 3p)     0.00249       0.81740
   192    O   13  px     Ryd( 4p)     0.00020       0.95876
   193    O   13  px     Ryd( 5p)     0.00001       5.05893
   194    O   13  py     Val( 2p)     1.58022      -0.29781
   195    O   13  py     Ryd( 3p)     0.00069       0.70902
   196    O   13  py     Ryd( 4p)     0.00018       0.98522
   197    O   13  py     Ryd( 5p)     0.00013       5.20812
   198    O   13  pz     Val( 2p)     1.46653      -0.25311
   199    O   13  pz     Ryd( 3p)     0.00126       0.64854
   200    O   13  pz     Ryd( 4p)     0.00003       0.90685
   201    O   13  pz     Ryd( 5p)     0.00002       4.89057
   202    O   13  dxy    Ryd( 3d)     0.00155       3.33846
   203    O   13  dxz    Ryd( 3d)     0.00008       2.85977
   204    O   13  dyz    Ryd( 3d)     0.00165       3.10220
   205    O   13  dx2y2  Ryd( 3d)     0.00161       3.52252
   206    O   13  dz2    Ryd( 3d)     0.00047       3.10812

   207    O   14  S      Cor( 1S)     1.99974     -18.97445
   208    O   14  S      Val( 2S)     1.62587      -0.89381
   209    O   14  S      Ryd( 4S)     0.00132       1.17042
   210    O   14  S      Ryd( 3S)     0.00016       1.06175
   211    O   14  S      Ryd( 5S)     0.00000      49.65853
   212    O   14  px     Val( 2p)     1.38993      -0.32339
   213    O   14  px     Ryd( 4p)     0.00135       1.09102
   214    O   14  px     Ryd( 3p)     0.00051       0.95082
   215    O   14  px     Ryd( 5p)     0.00003       5.23775
   216    O   14  py     Val( 2p)     1.72043      -0.34863
   217    O   14  py     Ryd( 3p)     0.00248       0.61892
   218    O   14  py     Ryd( 4p)     0.00092       0.88461
   219    O   14  py     Ryd( 5p)     0.00016       5.06024
   220    O   14  pz     Val( 2p)     1.80460      -0.32969
   221    O   14  pz     Ryd( 3p)     0.00271       0.54253
   222    O   14  pz     Ryd( 4p)     0.00053       0.76535
   223    O   14  pz     Ryd( 5p)     0.00000       4.90422
   224    O   14  dxy    Ryd( 3d)     0.00133       3.50123
   225    O   14  dxz    Ryd( 3d)     0.00013       2.95117
   226    O   14  dyz    Ryd( 3d)     0.00091       2.90301
   227    O   14  dx2y2  Ryd( 3d)     0.00083       3.27327
   228    O   14  dz2    Ryd( 3d)     0.00065       3.24073

   229    C   15  S      Cor( 1S)     1.99925     -10.10453
   230    C   15  S      Val( 2S)     1.09247      -0.28478
   231    C   15  S      Ryd( 4S)     0.00218       0.88566
   232    C   15  S      Ryd( 3S)     0.00012       0.75981
   233    C   15  S      Ryd( 5S)     0.00000      23.23541
   234    C   15  px     Val( 2p)     0.74693      -0.08986
   235    C   15  px     Ryd( 3p)     0.00299       0.59546
   236    C   15  px     Ryd( 4p)     0.00019       1.32079
   237    C   15  px     Ryd( 5p)     0.00006       1.89240
   238    C   15  py     Val( 2p)     1.15932      -0.10908
   239    C   15  py     Ryd( 3p)     0.00309       0.63223
   240    C   15  py     Ryd( 4p)     0.00029       1.37546
   241    C   15  py     Ryd( 5p)     0.00006       1.87273
   242    C   15  pz     Val( 2p)     1.19982      -0.11685
   243    C   15  pz     Ryd( 3p)     0.00057       0.55215
   244    C   15  pz     Ryd( 4p)     0.00035       1.31250
   245    C   15  pz     Ryd( 5p)     0.00004       1.92122
   246    C   15  dxy    Ryd( 3d)     0.00157       2.08486
   247    C   15  dxz    Ryd( 3d)     0.00123       1.73879
   248    C   15  dyz    Ryd( 3d)     0.00089       2.15883
   249    C   15  dx2y2  Ryd( 3d)     0.00161       2.05099
   250    C   15  dz2    Ryd( 3d)     0.00103       2.11707

   251    H   16  S      Val( 1S)     0.81300       0.00879
   252    H   16  S      Ryd( 2S)     0.00034       0.51550
   253    H   16  S      Ryd( 3S)     0.00014       2.14107
   254    H   16  px     Ryd( 2p)     0.00014       1.97811
   255    H   16  py     Ryd( 2p)     0.00038       2.38892
   256    H   16  pz     Ryd( 2p)     0.00013       1.71862

   257    H   17  S      Val( 1S)     0.81166       0.01046
   258    H   17  S      Ryd( 2S)     0.00107       0.56306
   259    H   17  S      Ryd( 3S)     0.00016       2.15627
   260    H   17  px     Ryd( 2p)     0.00008       1.73983
   261    H   17  py     Ryd( 2p)     0.00025       2.03703
   262    H   17  pz     Ryd( 2p)     0.00033       2.39113

   263    H   18  S      Val( 1S)     0.81166       0.01046
   264    H   18  S      Ryd( 2S)     0.00107       0.56304
   265    H   18  S      Ryd( 3S)     0.00016       2.15628
   266    H   18  px     Ryd( 2p)     0.00008       1.73995
   267    H   18  py     Ryd( 2p)     0.00025       2.03684
   268    H   18  pz     Ryd( 2p)     0.00033       2.39121

 WARNING:  1 low occupancy (<1.9990e) core orbital  found on  C    4

 WARNING:  Population inversion found on atom  C    1
           Population inversion found on atom  C    2
           Population inversion found on atom  C    3
           Population inversion found on atom  C    4
           Population inversion found on atom  H    7
           Population inversion found on atom  C    8
           Population inversion found on atom  C   12
           Population inversion found on atom  O   13
           Population inversion found on atom  O   14
           Population inversion found on atom  C   15


 Summary of Natural Population Analysis:                  
                                                          
                                       Natural Population 
                Natural  -----------------------------------------------
    Atom  No    Charge         Core      Valence    Rydberg      Total
 -----------------------------------------------------------------------
      C    1    0.34085      1.99901     3.63498    0.02516     5.65915
      C    2   -0.31229      1.99902     4.29790    0.01537     6.31229
      C    3   -0.22043      1.99908     4.20626    0.01510     6.22043
      C    4    0.17137      1.99883     3.80302    0.02677     5.82863
      O    5   -0.44524      1.99969     6.42960    0.01594     8.44524
      H    6    0.22475      0.00000     0.77386    0.00139     0.77525
      H    7    0.23421      0.00000     0.76415    0.00164     0.76579
      C    8   -0.61913      1.99928     4.61078    0.00906     6.61913
      H    9    0.22487      0.00000     0.77345    0.00168     0.77513
      H   10    0.22487      0.00000     0.77345    0.00168     0.77513
      H   11    0.21927      0.00000     0.77966    0.00107     0.78073
      C   12    0.75047      1.99926     3.20462    0.04565     5.24953
      O   13   -0.58369      1.99975     6.57207    0.01187     8.58369
      O   14   -0.55458      1.99974     6.54083    0.01402     8.55458
      C   15   -0.21408      1.99925     4.19853    0.01629     6.21408
      H   16    0.18587      0.00000     0.81300    0.00113     0.81413
      H   17    0.18646      0.00000     0.81166    0.00189     0.81354
      H   18    0.18645      0.00000     0.81166    0.00189     0.81355
 =======================================================================
   * Total *    0.00000     19.99293    53.79948    0.20759    74.00000

                                 Natural Population      
 --------------------------------------------------------
   Core                      19.99293 ( 99.9646% of  20)
   Valence                   53.79948 ( 99.6287% of  54)
   Natural Minimal Basis     73.79241 ( 99.7195% of  74)
   Natural Rydberg Basis      0.20759 (  0.2805% of  74)
 --------------------------------------------------------

    Atom  No          Natural Electron Configuration
 ----------------------------------------------------------------------------
      C    1      [core]2S( 0.86)2p( 2.78)3d( 0.01)4p( 0.01)
      C    2      [core]2S( 0.96)2p( 3.34)4p( 0.01)
      C    3      [core]2S( 0.97)2p( 3.24)4p( 0.01)
      C    4      [core]2S( 0.87)2p( 2.93)3d( 0.01)4p( 0.02)
      O    5      [core]2S( 1.59)2p( 4.84)3p( 0.01)
      H    6            1S( 0.77)
      H    7            1S( 0.76)
      C    8      [core]2S( 1.09)2p( 3.52)
      H    9            1S( 0.77)
      H   10            1S( 0.77)
      H   11            1S( 0.78)
      C   12      [core]2S( 0.76)2p( 2.45)3d( 0.02)4p( 0.02)
      O   13      [core]2S( 1.70)2p( 4.87)3d( 0.01)
      O   14      [core]2S( 1.63)2p( 4.91)3p( 0.01)
      C   15      [core]2S( 1.09)2p( 3.11)3p( 0.01)3d( 0.01)
      H   16            1S( 0.81)
      H   17            1S( 0.81)
      H   18            1S( 0.81)


 NBO analysis skipped by request.
 Calling FoFJK, ICntrl=      2127 FMM=F ISym2X=0 I1Cent= 0 IOpClX= 0 NMat=1 NMatS=1 NMatT=0.
 ***** Axes restored to original set *****
 -------------------------------------------------------------------
 Center     Atomic                   Forces (Hartrees/Bohr)
 Number     Number              X              Y              Z
 -------------------------------------------------------------------
      1        6           0.000040648    0.000160591   -0.000004002
      2        6           0.000032552   -0.000025451    0.000000112
      3        6          -0.000052066   -0.000044022    0.000002041
      4        6           0.000093924   -0.000003823    0.000003247
      5        8          -0.000104012   -0.000127117    0.000007976
      6        1          -0.000014961    0.000015727   -0.000000022
      7        1           0.000019345    0.000025408   -0.000000298
      8        6           0.000040904   -0.000056892   -0.000000129
      9        1          -0.000012873    0.000013034    0.000008374
     10        1          -0.000013149    0.000012895   -0.000008350
     11        1          -0.000017307   -0.000015889    0.000000323
     12        6           0.000056753   -0.000031632   -0.000029418
     13        8           0.000028493   -0.000009607    0.000010167
     14        8          -0.000126191    0.000086373    0.000008520
     15        6           0.000048814    0.000005922    0.000001296
     16        1          -0.000003178   -0.000028930    0.000000512
     17        1          -0.000009622    0.000011372   -0.000018923
     18        1          -0.000008076    0.000012040    0.000018574
 -------------------------------------------------------------------
 Cartesian Forces:  Max     0.000160591 RMS     0.000045425

 GradGradGradGradGradGradGradGradGradGradGradGradGradGradGradGradGradGrad
 Berny optimization.
 FormGI is forming the generalized inverse of G from B-inverse, IUseBI=4.
 Internal  Forces:  Max     0.000124411 RMS     0.000029191
 Search for a local minimum.
 Step number   1 out of a maximum of   88
 All quantities printed in internal units (Hartrees-Bohrs-Radians)
 Mixed Optimization -- En-DIIS/RFO-DIIS
 Second derivative matrix not updated -- first step.
 ITU=  0
     Eigenvalues ---    0.00093   0.00190   0.00481   0.01147   0.01241
     Eigenvalues ---    0.01388   0.01812   0.02129   0.04266   0.04939
     Eigenvalues ---    0.05596   0.05630   0.07100   0.08277   0.08448
     Eigenvalues ---    0.09279   0.10132   0.12109   0.12618   0.12690
     Eigenvalues ---    0.14719   0.14844   0.17447   0.18463   0.18624
     Eigenvalues ---    0.19406   0.21445   0.24282   0.24506   0.26235
     Eigenvalues ---    0.31330   0.32861   0.33049   0.33689   0.33711
     Eigenvalues ---    0.33993   0.34506   0.34626   0.35527   0.36475
     Eigenvalues ---    0.37152   0.37680   0.38526   0.42668   0.44992
     Eigenvalues ---    0.45070   0.52688   0.84816
 RFO step:  Lambda=-3.07637630D-07 EMin= 9.30261576D-04
 Linear search not attempted -- first point.
 Iteration  1 RMS(Cart)=  0.00059781 RMS(Int)=  0.00000014
 Iteration  2 RMS(Cart)=  0.00000022 RMS(Int)=  0.00000000
 Variable       Old X    -DE/DX   Delta X   Delta X   Delta X     New X
                                 (Linear)    (Quad)   (Total)
    R1        2.58613   0.00002   0.00000   0.00012   0.00012   2.58625
    R2        2.56516  -0.00010   0.00000  -0.00041  -0.00041   2.56475
    R3        2.80763  -0.00001   0.00000  -0.00007  -0.00007   2.80756
    R4        2.69104  -0.00001   0.00000  -0.00010  -0.00010   2.69094
    R5        2.03823   0.00000   0.00000  -0.00001  -0.00001   2.03821
    R6        2.58355   0.00001   0.00000   0.00009   0.00009   2.58365
    R7        2.03659  -0.00001   0.00000  -0.00002  -0.00002   2.03657
    R8        2.58547   0.00004   0.00000   0.00013   0.00013   2.58561
    R9        2.76489   0.00001   0.00000   0.00003   0.00003   2.76493
   R10        2.06726   0.00002   0.00000   0.00006   0.00006   2.06732
   R11        2.06726   0.00002   0.00000   0.00006   0.00006   2.06732
   R12        2.06066   0.00002   0.00000   0.00006   0.00006   2.06072
   R13        2.28381  -0.00001   0.00000   0.00001   0.00001   2.28382
   R14        2.56213  -0.00012   0.00000  -0.00034  -0.00034   2.56179
   R15        2.71700   0.00002   0.00000   0.00011   0.00011   2.71711
   R16        2.05571   0.00002   0.00000   0.00005   0.00005   2.05575
   R17        2.06168   0.00002   0.00000   0.00005   0.00005   2.06173
   R18        2.06168   0.00002   0.00000   0.00005   0.00005   2.06173
    A1        1.91731  -0.00001   0.00000   0.00001   0.00001   1.91731
    A2        2.32795  -0.00005   0.00000  -0.00047  -0.00047   2.32748
    A3        2.03793   0.00007   0.00000   0.00047   0.00047   2.03839
    A4        1.85971   0.00001   0.00000  -0.00001  -0.00001   1.85970
    A5        2.19998  -0.00003   0.00000  -0.00024  -0.00024   2.19975
    A6        2.22349   0.00002   0.00000   0.00025   0.00025   2.22374
    A7        1.85587   0.00000   0.00000   0.00003   0.00003   1.85590
    A8        2.23392   0.00003   0.00000   0.00033   0.00033   2.23425
    A9        2.19340  -0.00003   0.00000  -0.00036  -0.00036   2.19304
   A10        1.91520  -0.00004   0.00000  -0.00016  -0.00016   1.91504
   A11        2.32775   0.00000   0.00000  -0.00002  -0.00002   2.32773
   A12        2.04023   0.00004   0.00000   0.00019   0.00019   2.04042
   A13        1.87669   0.00005   0.00000   0.00014   0.00014   1.87683
   A14        1.93750   0.00001   0.00000   0.00016   0.00016   1.93765
   A15        1.93750   0.00001   0.00000   0.00016   0.00016   1.93765
   A16        1.91979   0.00000   0.00000  -0.00006  -0.00006   1.91972
   A17        1.87809  -0.00001   0.00000  -0.00015  -0.00015   1.87794
   A18        1.89481  -0.00001   0.00000  -0.00006  -0.00006   1.89475
   A19        1.89481  -0.00001   0.00000  -0.00006  -0.00006   1.89475
   A20        2.19142   0.00007   0.00000   0.00028   0.00028   2.19170
   A21        1.92862  -0.00007   0.00000  -0.00031  -0.00031   1.92831
   A22        2.16315   0.00000   0.00000   0.00002   0.00002   2.16317
   A23        2.01620   0.00008   0.00000   0.00033   0.00033   2.01653
   A24        1.83989  -0.00003   0.00000  -0.00020  -0.00020   1.83969
   A25        1.92947  -0.00001   0.00000  -0.00009  -0.00009   1.92938
   A26        1.92947  -0.00001   0.00000  -0.00009  -0.00009   1.92938
   A27        1.93004   0.00002   0.00000   0.00014   0.00014   1.93018
   A28        1.93004   0.00002   0.00000   0.00014   0.00014   1.93018
   A29        1.90454   0.00001   0.00000   0.00010   0.00010   1.90464
    D1        0.00001   0.00000   0.00000  -0.00001  -0.00001   0.00000
    D2       -3.14159   0.00000   0.00000  -0.00001  -0.00001  -3.14159
    D3        3.14159   0.00000   0.00000   0.00001   0.00001   3.14159
    D4       -0.00001   0.00000   0.00000   0.00001   0.00001   0.00000
    D5       -0.00002   0.00000   0.00000   0.00002   0.00002   0.00000
    D6        3.14158   0.00000   0.00000   0.00001   0.00001  -3.14159
    D7        2.09754   0.00000   0.00000  -0.00005  -0.00005   2.09749
    D8       -2.09746   0.00000   0.00000  -0.00002  -0.00002  -2.09749
    D9        0.00004   0.00000   0.00000  -0.00003  -0.00003   0.00000
   D10       -1.04407   0.00000   0.00000  -0.00004  -0.00004  -1.04410
   D11        1.04412   0.00000   0.00000  -0.00001  -0.00001   1.04411
   D12       -3.14157   0.00000   0.00000  -0.00002  -0.00002  -3.14159
   D13        0.00001   0.00000   0.00000  -0.00001  -0.00001   0.00000
   D14       -3.14159   0.00000   0.00000   0.00000   0.00000  -3.14159
   D15       -3.14158   0.00000   0.00000  -0.00001  -0.00001   3.14159
   D16        0.00000   0.00000   0.00000   0.00000   0.00000   0.00000
   D17       -0.00002   0.00000   0.00000   0.00002   0.00002   0.00000
   D18       -3.14159   0.00000   0.00000  -0.00001  -0.00001  -3.14159
   D19        3.14158   0.00000   0.00000   0.00002   0.00002   3.14159
   D20        0.00001   0.00000   0.00000  -0.00001  -0.00001   0.00000
   D21        0.00003   0.00000   0.00000  -0.00003  -0.00003   0.00000
   D22       -3.14159   0.00000   0.00000   0.00000   0.00000   3.14159
   D23       -3.14157   0.00001   0.00000  -0.00003  -0.00003   3.14159
   D24        0.00024  -0.00001   0.00000  -0.00024  -0.00024   0.00000
   D25        0.00006   0.00001   0.00000  -0.00006  -0.00006   0.00000
   D26       -3.14133  -0.00001   0.00000  -0.00027  -0.00027   3.14159
   D27        3.14146   0.00001   0.00000   0.00013   0.00013   3.14159
   D28        0.00008  -0.00001   0.00000  -0.00008  -0.00008   0.00000
   D29       -3.14158   0.00000   0.00000  -0.00002  -0.00002   3.14159
   D30       -1.05540   0.00000   0.00000  -0.00002  -0.00002  -1.05542
   D31        1.05543   0.00000   0.00000  -0.00002  -0.00002   1.05541
         Item               Value     Threshold  Converged?
 Maximum Force            0.000124     0.000450     YES
 RMS     Force            0.000029     0.000300     YES
 Maximum Displacement     0.001868     0.001800     NO 
 RMS     Displacement     0.000598     0.001200     YES
 Predicted change in Energy=-1.538188D-07
 GradGradGradGradGradGradGradGradGradGradGradGradGradGradGradGradGradGrad

                          Input orientation:                          
 ---------------------------------------------------------------------
 Center     Atomic      Atomic             Coordinates (Angstroms)
 Number     Number       Type             X           Y           Z
 ---------------------------------------------------------------------
      1          6           0       -1.420784    0.402517    0.018207
      2          6           0       -0.953180   -0.883651    0.030060
      3          6           0        0.468196   -0.798706    0.015862
      4          6           0        0.773604    0.533809   -0.003714
      5          8           0       -0.378617    1.271696   -0.002349
      6          1           0       -1.556039   -1.777857    0.046872
      7          1           0        1.181429   -1.606629    0.019433
      8          6           0       -2.784484    0.992080    0.023390
      9          1           0       -2.932849    1.630026    0.899632
     10          1           0       -2.949157    1.607824   -0.865727
     11          1           0       -3.533259    0.199484    0.040276
     12          6           0        2.034738    1.275340   -0.024688
     13          8           0        2.142467    2.478966   -0.040818
     14          8           0        3.087404    0.421143   -0.023670
     15          6           0        4.386125    1.037823   -0.043421
     16          1           0        5.097108    0.214461   -0.039631
     17          1           0        4.507745    1.645679   -0.941224
     18          1           0        4.524162    1.668040    0.836409
 ---------------------------------------------------------------------
                    Distance matrix (angstroms):
                    1          2          3          4          5
     1  C    0.000000
     2  C    1.368584   0.000000
     3  C    2.238568   1.423983   0.000000
     4  C    2.198422   2.234304   1.367206   0.000000
     5  O    1.357205   2.230850   2.236960   1.368244   0.000000
     6  H    2.184753   1.078577   2.248828   3.282316   3.269330
     7  H    3.287580   2.253745   1.077708   2.179067   3.273984
     8  C    1.485695   2.621466   3.713071   3.587581   2.422198
     9  H    2.137762   3.315693   4.271639   3.969322   2.732411
    10  H    2.137762   3.315691   4.271638   3.969323   2.732413
    11  H    2.122325   2.798231   4.124152   4.320044   3.332150
    12  C    3.564308   3.686718   2.599492   1.463135   2.413461
    13  O    4.124546   4.571131   3.680968   2.378822   2.795504
    14  O    4.508421   4.246374   2.889609   2.316627   3.568921
    15  C    5.841884   5.675001   4.327415   3.647727   4.770655
    16  H    6.520860   6.149527   4.738819   4.335430   5.576979
    17  H    6.132977   6.096113   4.817570   4.007366   4.989778
    18  H    6.132975   6.096113   4.817571   4.007365   4.989774
                    6          7          8          9         10
     6  H    0.000000
     7  H    2.742956   0.000000
     8  C    3.030211   4.741495   0.000000
     9  H    3.773125   5.308293   1.093977   0.000000
    10  H    3.773122   5.308292   1.093977   1.765574   0.000000
    11  H    2.796304   5.048838   1.090486   1.773538   1.773538
    12  C    4.713896   3.005965   4.827778   5.065282   5.065284
    13  O    5.639785   4.197536   5.146824   5.231059   5.231061
    14  O    5.138302   2.783246   5.899767   6.209455   6.209456
    15  C    6.576133   4.155376   7.171066   7.403204   7.403206
    16  H    6.945587   4.318842   7.920110   8.207694   8.207696
    17  H    7.033236   4.750236   7.384732   7.664948   7.457380
    18  H    7.033237   4.750239   7.384729   7.457376   7.664946
                   11         12         13         14         15
[...]
 0065307,-0.3075022,0.0972894,0.0007567,0.0329761,-0.7143085,0.0075057,
 0.0015654,0.0069118,-0.0932597,0.0198172,-0.0823635,0.0024133,-0.06725
 8,0.0313862,0.0023511,0.0022234,0.0024906,0.1689076,0.0504099,0.064265
 9,0.0001684,0.0581934,0.076735,0.0004607,0.0002448,0.0004046,0.1561163
 ,0.0106449,0.0105706,0.0009037,0.1616761,0.0609244,-0.0007147,-0.00099
 75,0.0006812,0.1228559,-0.0261882,0.0202405,-0.010144,0.0608167,0.0238
 469,-0.0729168,0.0484274,-0.0905338,-0.0258594,-0.0269151,0.022146,0.0
 095925,0.0609043,0.0279057,0.0704487,-0.0499764,0.0887986,-0.029192,-0
 .0227469,-0.0348837,0.0014743,-0.106696,-0.0330202,0.0025247,0.0023775
 ,0.0018612,0.0893072,2.4901338,0.3399427,-0.0244403,0.04389,1.6731964,
 -0.0175851,-0.0207172,-0.0203198,0.3074453,-0.802455,-0.2131501,0.0068
 977,-0.2487191,-1.2668001,0.0138779,0.0073446,0.0135493,-0.3461172,-1.
 9291552,0.0477828,0.0146055,0.4163511,-0.6264625,0.0004737,0.0099699,0
 .0038782,-0.2830927,0.9487258,0.1004788,-0.007348,0.2114063,0.3132981,
 -0.002245,-0.0087421,-0.0012207,0.2901769,-0.0610947,0.043205,0.000874
 5,0.1168545,-0.0297672,0.0004579,-0.000052,0.0011382,0.0924137,-0.0349
 17,0.0028117,-0.025936,-0.0918872,0.0249899,0.0733334,0.042836,0.07059
 54,-0.0588372,-0.0352151,0.0021349,0.0254714,-0.0942983,0.0213391,-0.0
 736268,-0.0408966,-0.0726539,-0.0548867\Polar=131.837293,7.3702223,94.
 7866604,-0.7675937,-0.5209377,58.7862935\PG=C01 [X(C7H8O3)]\NImag=0\\0
 .68328591,-0.13505793,0.66918691,-0.00304634,-0.00503373,0.16973617,-0
 .13666956,0.07664809,-0.00030966,0.61682979,0.10229326,-0.35280393,0.0
 0266322,0.10940962,0.81269874,-0.00063210,0.00290010,-0.06588503,-0.00
 600410,-0.00977379,0.11595241,-0.03160494,0.08016436,-0.00063193,-0.27
 826658,-0.02933824,0.00240464,0.64472277,0.02040039,0.00833747,-0.0001
 7878,0.00504304,-0.11460841,0.00066666,-0.13013626,0.79222262,0.000119
 53,-0.00073085,0.00911343,0.00197233,0.00098425,-0.05791513,-0.0031629
 7,-0.00718543,0.12528803,-0.11021423,-0.03836412,0.00163064,-0.0417115
 2,-0.00862527,0.00060333,-0.09352354,-0.05532656,0.00097594,0.65355228
 ,-0.00126051,-0.00956882,0.00030909,-0.07602895,-0.00473488,0.00091101
 ,-0.05232538,-0.37991037,0.00446587,0.11051123,0.71591707,0.00116406,0
 .00065184,0.01406889,0.00145088,0.00028837,0.01184579,0.00093822,0.004
 49362,-0.06324745,-0.00623964,-0.00840705,0.12866560,-0.17357215,-0.08
 380718,0.00201913,-0.00846793,-0.05286009,0.00087030,-0.03757807,0.043
 68130,-0.00008705,-0.16466274,0.10002673,-0.00032815,0.46560137,-0.055
 06495,-0.17383878,0.00182609,-0.00288625,-0.08091413,0.00121751,0.0106
 9843,-0.07471739,0.00099732,0.05354209,-0.15150598,0.00060536,0.005020
 54,0.46204628,0.00165776,0.00209160,-0.06910581,0.00024193,0.00167913,
 0.01376970,0.00032767,0.00069264,0.01244571,0.00025635,0.00017597,-0.0
 6403375,-0.00349258,-0.00466994,0.09443080,0.00973961,0.00943169,-0.00
 022486,-0.14880874,-0.13851599,0.00285498,-0.00536736,-0.02402647,0.00
 034148,-0.00658587,0.00067724,0.00008956,0.00152274,0.00481675,0.00000
 301,0.14793928,-0.01849917,-0.01036249,0.00027900,-0.13571216,-0.26209
 000,0.00419343,0.00364959,0.00670851,-0.00013196,0.00303167,-0.0008381
 5,0.00003323,-0.00050948,-0.00469920,0.00016949,0.14868388,0.27044419,
 0.00012635,0.00002099,-0.00176551,0.00281972,0.00421933,-0.02836650,-0
 .00000652,0.00012369,-0.00110679,0.00005996,0.00005498,0.00403025,0.00
 006998,0.00012029,0.00840362,-0.00303010,-0.00449357,0.02238564,-0.005
 82835,-0.00087375,0.00009941,-0.00629271,0.02099286,-0.00019909,-0.187
 04372,0.15125930,-0.00047009,0.00892948,-0.00631743,-0.00000561,0.0019
 0716,-0.00450920,0.00011379,0.00076028,-0.00061424,-0.00001637,0.18832
 834,-0.00363059,-0.00141040,0.00009836,-0.00533825,0.00937124,-0.00005
 933,0.14744998,-0.22748172,0.00109547,0.02035191,-0.00891963,-0.000079
 33,0.00136639,-0.00486051,0.00015019,0.00075262,-0.00019917,-0.0000276
 9,-0.16156558,0.23216399,0.00013408,0.00007289,0.00374245,0.00013200,-
 0.00030256,0.00073333,-0.00042219,0.00106028,-0.03204713,-0.00034095,0
 .00016702,-0.00027662,0.00003991,0.00020446,0.00808467,-0.00003356,-0.
 00001506,-0.00184785,0.00050932,-0.00113079,0.02355008,-0.20689565,0.0
 5908745,0.00056306,-0.00412489,0.00399087,0.00004528,0.00151593,0.0005
 5571,0.00003920,0.00185875,-0.00460017,0.00006173,-0.03739029,0.006181
 25,0.00024463,0.00038166,-0.00058157,-0.00002633,0.00026174,0.00015426
 ,0.00000086,0.51994613,0.06759213,-0.11516801,0.00000013,0.02436478,-0
 .00139237,-0.00012945,0.00036524,-0.00413713,0.00013057,0.00179606,-0.
 00575487,0.00008443,-0.03343806,0.01346190,0.00010826,-0.00036640,0.00
 039162,-0.00004253,0.00105766,0.00059695,-0.00001018,0.03505296,0.5597
 1147,0.00045614,0.00007868,-0.06550811,-0.00021089,0.00005874,0.006211
 58,0.00004159,0.00012880,0.00651289,-0.00001874,0.00014352,0.00227755,
 0.00074286,-0.00025771,-0.00249623,-0.00002903,-0.00004053,-0.00325866
 ,-0.00001050,-0.00000183,0.00056456,-0.00032513,-0.00066627,0.53248213
 ,-0.00721430,0.02148301,0.02593244,-0.00156194,-0.00093381,-0.00014149
 ,-0.00084962,-0.00010543,-0.00082475,-0.00283822,0.00131507,-0.0004213
 2,0.00412126,-0.00077298,-0.00034696,0.00004826,0.00006619,0.00021051,
 -0.00022672,-0.00011046,-0.00015135,-0.05025546,0.01744218,0.02650994,
 0.05439435,0.00467496,-0.01187818,-0.00921522,0.00142213,0.00126709,-0
 .00034143,0.00028536,-0.00024345,0.00095186,0.00049355,-0.00013806,0.0
 0017390,-0.00113719,0.00065115,0.00021194,-0.00010422,0.00011752,-0.00
 047279,0.00015096,0.00006202,0.00002880,0.01695615,-0.13131019,-0.1222
 8367,-0.02399493,0.14278326,0.00185188,0.00076490,0.00321137,-0.000850
 79,0.00081050,-0.00037202,0.00001253,0.00043013,-0.00023080,0.00090338
 ,-0.00019808,-0.00012590,-0.00025786,0.00005710,0.00060476,-0.00001602
 ,0.00000948,0.00016631,-0.00003061,0.00003271,0.00002206,0.02554007,-0
 .12216649,-0.21370079,-0.02844672,0.13425175,0.23078609,-0.00773001,0.
 02081228,-0.02626419,-0.00154329,-0.00094488,0.00018687,-0.00083445,-0
 .00009245,0.00083871,-0.00284663,0.00132932,0.00043834,0.00413166,-0.0
 0076576,0.00030120,0.00004471,0.00006073,-0.00020996,-0.00022328,-0.00
 010715,0.00015863,-0.05128154,0.01896536,-0.03002555,0.00014113,-0.002
 61658,0.00268499,0.05551759,0.00480235,-0.01166211,0.00950826,0.001449
 03,0.00125414,0.00027377,0.00026748,-0.00027822,-0.00095597,0.00046803
 ,-0.00013786,-0.00018238,-0.00113489,0.00064479,-0.00019209,-0.0000950
 0,0.00012921,0.00047561,0.00015117,0.00006044,-0.00003260,0.01850610,-
 0.12522462,0.11974264,-0.00297056,0.01147004,-0.01566763,-0.02568501,0
 .13609970,-0.00177092,-0.00077502,0.00351101,0.00083644,-0.00083429,-0
 .00037770,-0.00000802,-0.00042730,-0.00021120,-0.00086520,0.00017406,-
 0.00011770,0.00022132,-0.00004402,0.00060070,0.00002066,-0.00000967,0.
 00015817,0.00003135,-0.00003171,0.00002021,-0.02904376,0.11961672,-0.2
 1876016,-0.00302131,0.01488077,-0.02185809,0.03237224,-0.13142430,0.23
 634634,-0.01797964,-0.02640207,0.00047231,0.00182535,0.00017429,-0.000
 02048,-0.00032893,-0.00010508,0.00000142,0.00007519,-0.00161485,0.0000
 2432,-0.00684485,0.00379785,0.00002449,-0.00015158,0.00071907,-0.00000
 412,0.00013852,0.00007390,-0.00000268,-0.17276631,-0.13048839,0.002817
 96,0.00357493,0.00398519,-0.00118602,0.00394928,0.00435046,0.00103152,
 0.18896856,0.00900093,0.01100455,-0.00025671,0.00002489,0.00004647,-0.
 00000275,-0.00031343,0.00020545,-0.00000370,0.00067060,0.00066375,-0.0
 0000812,0.00412362,-0.00035855,-0.00002132,0.00006152,-0.00000435,0.00
 000427,-0.00003499,-0.00000700,-0.00000022,-0.13589661,-0.19171536,0.0
 0309587,-0.01169678,-0.01279961,0.00175646,-0.01124236,-0.01237749,-0.
 00120087,0.14505985,0.20548970,0.00002706,0.00007035,-0.00279663,-0.00
 001860,-0.00000413,-0.00015383,0.00000404,-0.00000562,-0.00031850,-0.0
 0000441,0.00001298,0.00051020,0.00002037,-0.00001831,0.00097499,0.0000
 0414,-0.00000180,0.00038053,-0.00000131,-0.00000123,-0.00005048,0.0028
 8598,0.00304591,-0.04544114,-0.01902926,-0.01812257,0.00146986,0.01926
 810,0.01838924,0.00067337,-0.00315856,-0.00336423,0.04461629,0.0057595
 5,0.02023980,-0.00029107,0.01548294,-0.00582903,-0.00001359,-0.0086081
 2,-0.01740327,0.00028358,-0.18662268,-0.05221323,0.00175944,-0.0472592
 8,-0.01137577,0.00051659,0.00145057,-0.00010199,0.00000259,0.00043644,
 0.00152916,-0.00004935,-0.00110661,-0.00222787,0.00005455,0.00117554,-
 0.00035575,-0.00035787,0.00118896,-0.00034517,0.00034479,0.00002569,0.
 00024944,-0.00000168,0.58603804,0.00971476,0.00418120,-0.00011967,0.00
 500049,-0.01133617,0.00017276,-0.02923798,-0.01135620,0.00039277,-0.06
 688567,-0.10750432,0.00112427,0.01629461,0.00897869,-0.00034918,-0.000
 66018,0.00018666,0.00002377,0.00026657,-0.00104970,-0.00002478,0.00025
 551,-0.00009472,0.00002103,0.00094108,-0.00007242,-0.00035713,0.000956
 96,-0.00006126,0.00034121,0.00050218,-0.00026473,0.00000100,0.08018791
 ,0.94156967,-0.00015872,-0.00021689,0.00180534,-0.00014977,0.00027280,
 0.00607477,0.00043237,0.00028343,-0.00160756,0.00194394,0.00098875,-0.
 06725825,0.00016866,-0.00009357,-0.00682086,0.00000961,0.00001861,0.00
 159149,-0.00003347,-0.00003644,-0.00282362,0.00002331,0.00004395,0.001
 76378,-0.00039787,-0.00009044,0.00001003,0.00035212,0.00009854,-0.0000
 1455,-0.00000486,0.00000334,0.00018387,-0.00449594,-0.00995927,0.20864
 159,0.00062218,-0.00299304,0.00003145,-0.00313282,-0.00157855,0.000035
 15,-0.00402304,0.00262827,0.00003307,0.00011412,-0.04129254,0.00070779
 ,0.00393060,-0.00114989,-0.00002375,-0.00071261,-0.00004296,0.00000111
 ,0.00000516,-0.00032792,0.00000797,0.00015598,0.00016650,-0.00000502,-
 0.00018412,0.00012036,0.00005942,-0.00018542,0.00011819,-0.00005856,-0
 .00007831,-0.00005942,0.00000151,-0.11804957,-0.06945102,0.00123012,0.
 10886941,-0.00421373,-0.00873191,0.00014812,-0.00638559,0.00370718,-0.
 00000620,0.00206267,0.00954086,-0.00009961,-0.02606458,-0.06066714,0.0
 0126174,0.00730340,0.00441388,-0.00012556,-0.00075839,0.00018211,-0.00
 000347,0.00036152,0.00056232,-0.00000511,0.00035217,0.00099914,-0.0000
 1784,-0.00071880,0.00010089,0.00025352,-0.00072366,0.00009373,-0.00024
 202,-0.00003694,0.00004916,-0.00000023,-0.06701373,-0.68386856,0.00821
 984,0.05497769,0.81673734,0.00004679,0.00013684,-0.00005016,0.00009559
 ,-0.00005060,-0.00147679,0.00004018,-0.00010484,0.00313537,0.00051630,
 0.00140241,0.02050391,-0.00013005,-0.00004748,-0.00020456,0.00001011,-
 0.00001008,-0.00065078,-0.00000070,0.00000125,0.00042101,-0.00000735,-
 0.00001612,-0.00016010,0.00002221,0.00003477,0.00002023,-0.00000021,-0
 .00003881,0.00002869,0.00000122,-0.00000002,0.00000373,0.00119949,0.00
 824234,-0.07953887,-0.00138301,-0.01035086,0.03412966,-0.00143254,-0.0
 0113695,0.00002695,-0.00411907,0.00216509,0.00000673,0.00183396,0.0043
 6650,-0.00006335,-0.05595356,0.01580841,0.00041044,-0.00527409,-0.0067
 1557,0.00015085,-0.00037217,-0.00017473,0.00000441,-0.00101303,-0.0001
 5583,0.00001249,-0.00025764,-0.00005304,0.00000111,-0.00041223,0.00015
 596,0.00011863,-0.00041528,0.00015280,-0.00011477,-0.00042360,0.000006
 10,0.00000352,-0.19197169,0.06527548,0.00035600,0.00654953,0.04929094,
 -0.00041869,0.49085226,-0.00065152,0.00292890,-0.00003161,0.00277537,-
 0.00051946,-0.00002468,-0.00339060,-0.00397156,0.00009283,0.00181065,0
 .01592353,-0.00009118,-0.00650534,-0.00004283,0.00008471,0.00010437,0.
 00001444,-0.00000282,-0.00026728,0.00087265,-0.00000691,-0.00008098,-0
 .00044385,0.00000370,0.00004138,-0.00000588,0.00003325,0.00003955,-0.0
 0000703,-0.00003370,-0.00006162,0.00007995,-0.00000087,0.03420436,-0.1
 5634120,0.00083806,0.05451545,-0.08118557,0.00087357,-0.02366844,0.343
 26865,0.00002084,-0.00002713,-0.00006309,-0.00000095,-0.00001904,-0.00
 044294,0.00003420,0.00002118,0.00091959,0.00058646,-0.00022049,0.00999
 978,0.00014822,0.00008666,0.00191300,0.00000090,-0.00000024,-0.0001329
 8,0.00001389,-0.00000794,0.00012691,0.00000146,0.00000344,-0.00020943,
 0.00005152,0.00001089,0.00000329,-0.00004480,-0.00001344,0.00000748,0.
 00000437,-0.00000150,-0.00003473,0.00074671,0.00055106,-0.06458424,-0.
 00048437,0.00092182,0.02832017,-0.00356116,-0.00317858,0.07318724,0.00
 014257,0.00110087,-0.00001524,0.00097945,-0.00075069,0.00000430,-0.000
 40271,-0.00120865,0.00001262,0.00227255,0.00536600,-0.00005353,0.00039
 457,-0.00041553,0.00001440,0.00017542,0.00003800,-0.00000211,-0.000108
 61,-0.00062445,0.00000641,-0.00005521,-0.00024721,0.00000106,0.0001654
 4,-0.00006645,-0.00004931,0.00016522,-0.00006485,0.00004778,0.00006529
 ,0.00004511,-0.00000134,-0.06410419,0.00821079,0.00049805,0.00398325,-
 0.01578684,0.00010862,-0.15923547,-0.03527430,0.00133518,0.46592185,-0
 .00009134,-0.00026346,0.00000406,0.00036410,0.00002219,0.00000169,-0.0
 0027928,-0.00052707,0.00000063,0.00355535,-0.00308904,0.00005355,0.002
 15865,0.00097024,-0.00001469,0.00003551,0.00002791,-0.00000069,-0.0000
 9437,0.00013565,-0.00000416,0.00008454,0.00008162,-0.00000530,0.000036
 64,-0.00001470,-0.00001493,0.00003539,-0.00001382,0.00001446,0.0000728
 2,-0.00001281,-0.00000075,0.01664251,0.02336425,-0.00043504,0.00299554
 ,-0.00579093,-0.00002713,-0.06186142,-0.11538672,0.00123375,-0.0783079
 7,0.57882278,-0.00000024,-0.00000695,-0.00000779,-0.00000971,0.0000119
 8,0.00042358,0.00000093,0.00000921,-0.00068228,-0.00003077,0.00003684,
 0.00378097,-0.00001798,0.00000909,0.00138803,-0.00000207,-0.00000071,-
 0.00000073,-0.00000026,0.00000073,-0.00026486,-0.00000312,-0.00000223,
 -0.00027732,0.00005834,-0.00001963,-0.00000628,-0.00006242,0.00002103,
 -0.00000694,-0.00000169,-0.00000049,-0.00001880,0.00039199,-0.00035712
 ,0.00099349,-0.00012760,0.00014635,-0.00574824,0.00166952,0.00098813,-
 0.06274617,0.00204704,0.00074971,0.58089034,-0.00007414,0.00002257,0.0
 0000066,-0.00018374,0.00000949,0.00000115,0.00006865,0.00018177,-0.000
 00316,-0.00081725,0.00118393,-0.00000597,-0.00050824,-0.00043314,0.000
 01055,-0.00002667,-0.00000560,0.00000039,-0.00004597,-0.00001046,0.000
 00110,-0.00001879,-0.00003276,0.00000043,-0.00001635,0.00000899,0.0000
 0590,-0.00001649,0.00000885,-0.00000582,-0.00002724,0.00000334,0.00000
 022,-0.00192610,-0.00689217,0.00010669,0.00144631,0.00111841,-0.000021
 95,-0.03707918,0.02150520,0.00007229,-0.15115180,0.12973005,-0.0007178
 7,0.18158874,-0.00003168,0.00011893,-0.00000085,0.00005830,-0.00004925
 ,-0.00000051,-0.00001687,-0.00000534,-0.00000010,-0.00030659,0.0008261
 8,-0.00000569,-0.00030124,-0.00011705,0.00000480,0.00000915,0.00000198
 ,-0.00000001,-0.00001827,-0.00003839,0.00000139,-0.00001348,-0.0000291
 4,0.00000027,0.00000532,-0.00000431,-0.00000046,0.00000530,-0.00000428
 ,0.00000046,-0.00000416,0.00000687,-0.00000004,-0.00325695,-0.00438334
 ,0.00008826,0.00220055,0.00192600,-0.00003708,-0.01851093,0.01414602,-
 0.00000656,0.14244070,-0.21647356,0.00075105,-0.14211181,0.22635765,0.
 00000134,-0.00000136,0.00002773,0.00000053,-0.00000005,-0.00004666,-0.
 00000066,-0.00000194,-0.00002600,0.00001277,-0.00001947,0.00014821,0.0
 0000889,0.00000602,0.00004346,0.00000020,0.00000012,0.00000775,0.00000
 120,0.00000132,0.00005894,0.00000018,0.00000045,-0.00001726,0.00000148
 ,-0.00000093,-0.00000027,-0.00000132,0.00000087,-0.00000017,0.00000031
 ,-0.00000011,0.00000059,0.00006102,0.00012183,0.00024117,-0.00003554,-
 0.00002709,0.00059400,0.00057559,-0.00037614,0.00003233,-0.00087776,0.
 00086845,-0.05218849,0.00054196,-0.00094726,0.04672042,-0.00016712,-0.
 00017769,0.00001176,-0.00011866,0.00016885,-0.00011181,0.00014559,0.00
 014492,0.00011231,-0.00051906,-0.00029341,-0.00075908,-0.00002715,0.00
 001281,-0.00025444,-0.00001874,-0.00000357,0.00000373,0.00000819,0.000
 09690,0.00006977,0.00001670,0.00002619,0.00006312,-0.00004073,0.000014
 10,0.00000935,-0.00002124,0.00000716,-0.00000876,-0.00001114,-0.000000
 89,0.00000245,0.00404560,-0.00718934,0.00161533,0.00033136,0.00310143,
 -0.00015010,-0.02033685,-0.02221931,0.02816915,-0.04930805,-0.00625628
 ,0.01095268,0.00422279,0.00968701,-0.01768179,0.05962869,0.00001143,-0
 .00003508,0.00001681,-0.00010527,0.00003958,-0.00006271,0.00004707,0.0
 0011044,0.00000776,-0.00032621,-0.00028051,0.00016644,-0.00014042,-0.0
 0005767,-0.00010493,-0.00002306,-0.00000540,-0.00000030,0.00002800,0.0
 0007116,0.00006497,-0.00000191,0.00001394,0.00001703,-0.00001479,0.000
 00731,0.00000218,-0.00001218,0.00000741,-0.00000263,-0.00001121,-0.000
 00299,0.00000181,0.00351163,-0.00093756,-0.00045027,-0.00042999,0.0009
 4597,0.00003653,-0.01232414,-0.00957435,0.00956054,-0.01086574,-0.1278
 7433,0.11972600,-0.00197428,-0.01091735,0.01987462,0.02001800,0.137075
 39,-0.00000292,-0.00002610,-0.00001702,-0.00002629,-0.00003299,0.00001
 519,-0.00004165,-0.00005470,-0.00001127,0.00012033,-0.00014748,-0.0003
 7995,0.00011733,-0.00000487,0.00000358,-0.00000091,0.,0.00000301,-0.00
 001182,-0.00002593,-0.00000790,0.00000122,-0.00000407,0.00000759,0.000
 00204,0.00000125,-0.00000289,0.00000822,-0.00000098,0.00000314,0.00000
 250,-0.00000058,0.00000029,-0.00159427,0.00341675,0.00063449,-0.001325
 53,-0.00165031,0.00036948,0.00539537,-0.00162017,0.00645999,0.01790396
 ,0.12046957,-0.23611190,-0.00100899,-0.00195157,0.00215132,-0.02054691
 ,-0.13318356,0.24741904,-0.00016719,-0.00017738,-0.00000452,-0.0001160
 7,0.00017222,0.00010993,0.00014418,0.00014297,-0.00011882,-0.00050706,
 -0.00027145,0.00076853,-0.00002458,0.00001932,0.00025453,-0.00001878,-
 0.00000366,-0.00000324,0.00000708,0.00009556,-0.00007246,0.00001551,0.
 00002466,-0.00006391,-0.00002122,0.00000740,0.00000903,-0.00004093,0.0
 0001385,-0.00000900,-0.00001122,-0.00000094,-0.00000221,0.00404491,-0.
 00728997,-0.00149556,0.00035798,0.00313405,0.00007154,-0.02093936,-0.0
 2287694,-0.02709391,-0.04989958,-0.00882044,-0.01414677,0.00456547,0.0
 1016564,0.01739159,0.00216981,0.00261305,0.00100831,0.06044104,0.00001
 123,-0.00003480,-0.00001657,-0.00010338,0.00004195,0.00006393,0.000047
 88,0.00011150,-0.00001170,-0.00033214,-0.00028090,-0.00016300,-0.00014
 135,-0.00005484,0.00010897,-0.00002301,-0.00000538,0.00000094,0.000027
 07,0.00007010,-0.00006743,-0.00000225,0.00001360,-0.00001713,-0.000012
 33,0.00000750,0.00000275,-0.00001487,0.00000722,-0.00000215,-0.0000113
 0,-0.00000301,-0.00000152,0.00355793,-0.00101030,0.00042635,-0.0003972
 2,0.00098554,-0.00004471,-0.01262024,-0.00975568,-0.00891442,-0.013588
 78,-0.13397822,-0.12206300,-0.00231239,-0.01136163,-0.01949934,0.00286
 310,0.01141405,0.01481571,0.02305205,0.14383329,0.00000541,0.00002983,
 -0.00001723,0.00003132,0.00002913,0.00001024,0.00003757,0.00004897,-0.
 00001092,-0.00010969,0.00015006,-0.00039153,-0.00011329,0.00000601,-0.
 00000182,0.00000189,0.00000027,0.00000302,0.00001086,0.00002220,-0.000
 00574,-0.00000131,0.00000347,0.00000912,-0.00000746,0.00000073,0.00000
 303,-0.00000097,-0.00000176,-0.00000260,-0.00000200,0.00000068,0.00000
 040,0.00144303,-0.00324164,0.00070791,0.00133580,0.00157688,0.00030326
 ,-0.00457365,0.00245242,0.00724380,-0.02098013,-0.12289318,-0.22941661
 ,0.00102245,0.00210390,0.00225295,-0.00149675,-0.01567028,-0.02053620,
 0.02339694,0.13538232,0.23984892\\-0.00000003,0.00000111,-0.00000001,-
 0.00000073,0.00000081,0.,-0.00000068,0.00000010,0.,0.00000002,-0.00000
 006,0.,0.00000028,0.00000045,0.,-0.00000118,0.00000110,0.,-0.00000109,
 -0.00000026,0.00000001,0.00000023,0.00000171,-0.00000002,0.00000053,0.
 00000180,-0.00000003,0.00000052,0.00000179,-0.00000003,-0.00000019,0.0
 0000209,-0.00000003,0.00000039,-0.00000071,0.,0.00000095,-0.00000077,0
 .,-0.00000015,-0.00000120,0.00000002,0.00000023,-0.00000186,0.00000002
 ,-0.00000018,-0.00000223,0.00000003,0.00000054,-0.00000194,0.00000002,
 0.00000054,-0.00000193,0.00000002\\\@


 WE ARE PERHAPS NOT FAR REMOVED FROM THE TIME WHEN WE SHALL BE ABLE TO SUBMIT
 THE BULK OF CHEMICAL PHENOMENA TO CALCULATION.

            -- JOSEPH LOUIS GAY-LUSSAC
               MEMOIRES DE LA SOCIETE D'ARCUEIL, 2, 207 (1808)
 Job cpu time:       0 days  0 hours 31 minutes 44.7 seconds.
 File lengths (MBytes):  RWF=    178 Int=      0 D2E=      0 Chk=      7 Scr=      1
 Normal termination of Gaussian 09 at Thu Feb  2 15:50:19 2023.
