 Entering Gaussian System, Link 0=g09
 Initial command:
 /cm/shared/apps/gaussian/g09revD.01/g09/l1.exe "//home/sweav003/HartwigDocs/IrCatCycEth/G09-Table2_2.com.o9624917.tmp/Gau-103648.inp" -scrdir="//home/sweav003/HartwigDocs/IrCatCycEth/G09-Table2_2.com.o9624917.tmp/"
 Entering Link 1 = /cm/shared/apps/gaussian/g09revD.01/g09/l1.exe PID=    103649.
  
 Copyright (c) 1988,1990,1992,1993,1995,1998,2003,2009,2013,
            Gaussian, Inc.  All Rights Reserved.
  
 This is part of the Gaussian(R) 09 program.  It is based on
 the Gaussian(R) 03 system (copyright 2003, Gaussian, Inc.),
 the Gaussian(R) 98 system (copyright 1998, Gaussian, Inc.),
 the Gaussian(R) 94 system (copyright 1995, Gaussian, Inc.),
 the Gaussian 92(TM) system (copyright 1992, Gaussian, Inc.),
 the Gaussian 90(TM) system (copyright 1990, Gaussian, Inc.),
 the Gaussian 88(TM) system (copyright 1988, Gaussian, Inc.),
 the Gaussian 86(TM) system (copyright 1986, Carnegie Mellon
 University), and the Gaussian 82(TM) system (copyright 1983,
 Carnegie Mellon University). Gaussian is a federally registered
 trademark of Gaussian, Inc.
  
 This software contains proprietary and confidential information,
 including trade secrets, belonging to Gaussian, Inc.
  
 This software is provided under written license and may be
 used, copied, transmitted, or stored only in accord with that
 written license.
  
 The following legend is applicable only to US Government
 contracts under FAR:
  
                    RESTRICTED RIGHTS LEGEND
  
 Use, reproduction and disclosure by the US Government is
 subject to restrictions as set forth in subparagraphs (a)
 and (c) of the Commercial Computer Software - Restricted
 Rights clause in FAR 52.227-19.
  
 Gaussian, Inc.
 340 Quinnipiac St., Bldg. 40, Wallingford CT 06492
  
  
 ---------------------------------------------------------------
 Warning -- This program may not be used in any manner that
 competes with the business of Gaussian, Inc. or will provide
 assistance to any competitor of Gaussian, Inc.  The licensee
 of this program is prohibited from giving any competitor of
 Gaussian, Inc. access to this program.  By using this program,
 the user acknowledges that Gaussian, Inc. is engaged in the
 business of creating and licensing software in the field of
 computational chemistry and represents and warrants to the
 licensee that it is not a competitor of Gaussian, Inc. and that
 it will not use this program in any manner prohibited above.
 ---------------------------------------------------------------
  

 Cite this work as:
 Gaussian 09, Revision D.01,
 M. J. Frisch, G. W. Trucks, H. B. Schlegel, G. E. Scuseria, 
 M. A. Robb, J. R. Cheeseman, G. Scalmani, V. Barone, B. Mennucci, 
 G. A. Petersson, H. Nakatsuji, M. Caricato, X. Li, H. P. Hratchian, 
 A. F. Izmaylov, J. Bloino, G. Zheng, J. L. Sonnenberg, M. Hada, 
 M. Ehara, K. Toyota, R. Fukuda, J. Hasegawa, M. Ishida, T. Nakajima, 
 Y. Honda, O. Kitao, H. Nakai, T. Vreven, J. A. Montgomery, Jr., 
 J. E. Peralta, F. Ogliaro, M. Bearpark, J. J. Heyd, E. Brothers, 
 K. N. Kudin, V. N. Staroverov, T. Keith, R. Kobayashi, J. Normand, 
 K. Raghavachari, A. Rendell, J. C. Burant, S. S. Iyengar, J. Tomasi, 
 M. Cossi, N. Rega, J. M. Millam, M. Klene, J. E. Knox, J. B. Cross, 
 V. Bakken, C. Adamo, J. Jaramillo, R. Gomperts, R. E. Stratmann, 
 O. Yazyev, A. J. Austin, R. Cammi, C. Pomelli, J. W. Ochterski, 
 R. L. Martin, K. Morokuma, V. G. Zakrzewski, G. A. Voth, 
 P. Salvador, J. J. Dannenberg, S. Dapprich, A. D. Daniels, 
 O. Farkas, J. B. Foresman, J. V. Ortiz, J. Cioslowski, 
 and D. J. Fox, Gaussian, Inc., Wallingford CT, 2013.
 
 ******************************************
 Gaussian 09:  ES64L-G09RevD.01 24-Apr-2013
                 2-Nov-2021 
 ******************************************
 %mem=100MW
 %nprocshared=20
 Will use up to   20 processors via shared memory.
 %chk=Table2_2.chk
 ----------------------------------------------------------------------
 # opt freq b3lyp/6-311+g(d,p) geom=connectivity pop=(hirshfeld,chelpg,
 mbs,npa)
 ----------------------------------------------------------------------
 1/14=-1,18=20,19=15,26=3,38=1,57=2/1,3;
 2/9=110,12=2,17=6,18=5,40=1/2;
 3/5=4,6=6,7=111,11=2,16=1,25=1,30=1,71=1,74=-5/1,2,3;
 4//1;
 5/5=2,38=5/2;
 6/7=2,8=2,9=2,10=2,15=8,20=3,27=100,28=1,40=-1,79=1/1,2,7;
 7//1,2,3,16;
 1/14=-1,18=20,19=15,26=3/3(2);
 2/9=110/2;
 99//99;
 2/9=110/2;
 3/5=4,6=6,7=111,11=2,16=1,25=1,30=1,71=1,74=-5/1,2,3;
 4/5=5,16=3,69=1/1;
 5/5=2,38=5/2;
 7//1,2,3,16;
 1/14=-1,18=20,19=15,26=3/3(-5);
 2/9=110/2;
 6/7=2,8=2,9=2,10=2,15=8,19=2,20=3,27=100,28=1,40=-1,79=1/1,2,7;
 99/9=1/99;
 -------------------
 Title Card Required
 -------------------
 Symbolic Z-matrix:
 Charge =  0 Multiplicity = 1
 C                    -0.43677  -0.38462   0. 
 O                     0.9936   -0.38462   0. 
 C                     1.4956    0.95477   0. 
 C                     0.31904   1.92494  0. 
 C                    -0.93231   1.05758  0. 
 H                     2.13243   1.06227   0.91536 
 H                     2.13243   1.06227  -0.91536 
 H                     0.35043   2.58413   0.9019 
 H                     0.35043   2.58413  -0.90191 
 H                    -1.56059   1.25954   0.9019 
 H                    -1.56059   1.25954  -0.90191 
 C                    -0.88238  -1.15303   1.258 
 H                    -1.95076  -1.20592   1.28387 
 H                    -0.47676  -2.14286   1.23369 
 H                    -0.52924  -0.64419   2.13052 
 C                    -0.88238  -1.15303  -1.258 
 H                    -0.46194  -2.13684  -1.24262 
 H                    -1.95005  -1.22164  -1.27451 
 H                    -0.54476  -0.63449  -2.13095 
 

 GradGradGradGradGradGradGradGradGradGradGradGradGradGradGradGradGradGrad
 Berny optimization.
 Initialization pass.
                           ----------------------------
                           !    Initial Parameters    !
                           ! (Angstroms and Degrees)  !
 --------------------------                            --------------------------
 ! Name  Definition              Value          Derivative Info.                !
 --------------------------------------------------------------------------------
 ! R1    R(1,2)                  1.4304         estimate D2E/DX2                !
 ! R2    R(1,5)                  1.525          estimate D2E/DX2                !
 ! R3    R(1,12)                 1.54           estimate D2E/DX2                !
 ! R4    R(1,16)                 1.54           estimate D2E/DX2                !
 ! R5    R(2,3)                  1.4304         estimate D2E/DX2                !
 ! R6    R(3,4)                  1.525          estimate D2E/DX2                !
 ! R7    R(3,6)                  1.1203         estimate D2E/DX2                !
 ! R8    R(3,7)                  1.1203         estimate D2E/DX2                !
 ! R9    R(4,5)                  1.5226         estimate D2E/DX2                !
 ! R10   R(4,8)                  1.1176         estimate D2E/DX2                !
 ! R11   R(4,9)                  1.1176         estimate D2E/DX2                !
 ! R12   R(5,10)                 1.1176         estimate D2E/DX2                !
 ! R13   R(5,11)                 1.1176         estimate D2E/DX2                !
 ! R14   R(12,13)                1.07           estimate D2E/DX2                !
 ! R15   R(12,14)                1.07           estimate D2E/DX2                !
 ! R16   R(12,15)                1.07           estimate D2E/DX2                !
 ! R17   R(16,17)                1.07           estimate D2E/DX2                !
 ! R18   R(16,18)                1.07           estimate D2E/DX2                !
 ! R19   R(16,19)                1.07           estimate D2E/DX2                !
 ! A1    A(2,1,5)              108.9629         estimate D2E/DX2                !
 ! A2    A(2,1,12)             106.8196         estimate D2E/DX2                !
 ! A3    A(2,1,16)             106.8196         estimate D2E/DX2                !
 ! A4    A(5,1,12)             112.2012         estimate D2E/DX2                !
 ! A5    A(5,1,16)             112.2011         estimate D2E/DX2                !
 ! A6    A(12,1,16)            109.5484         estimate D2E/DX2                !
 ! A7    A(1,2,3)              110.5455         estimate D2E/DX2                !
 ! A8    A(2,3,4)              108.9629         estimate D2E/DX2                !
 ! A9    A(2,3,6)              106.8196         estimate D2E/DX2                !
 ! A10   A(2,3,7)              106.8196         estimate D2E/DX2                !
 ! A11   A(4,3,6)              112.1817         estimate D2E/DX2                !
 ! A12   A(4,3,7)              112.1816         estimate D2E/DX2                !
 ! A13   A(6,3,7)              109.5889         estimate D2E/DX2                !
 ! A14   A(3,4,5)              105.7643         estimate D2E/DX2                !
 ! A15   A(3,4,8)              110.7069         estimate D2E/DX2                !
 ! A16   A(3,4,9)              110.7068         estimate D2E/DX2                !
 ! A17   A(5,4,8)              111.045          estimate D2E/DX2                !
 ! A18   A(5,4,9)              111.0451         estimate D2E/DX2                !
 ! A19   A(8,4,9)              107.6128         estimate D2E/DX2                !
 ! A20   A(1,5,4)              105.7644         estimate D2E/DX2                !
 ! A21   A(1,5,10)             110.7069         estimate D2E/DX2                !
 ! A22   A(1,5,11)             110.7069         estimate D2E/DX2                !
 ! A23   A(4,5,10)             111.045          estimate D2E/DX2                !
 ! A24   A(4,5,11)             111.045          estimate D2E/DX2                !
 ! A25   A(10,5,11)            107.6128         estimate D2E/DX2                !
 ! A26   A(1,12,13)            109.4712         estimate D2E/DX2                !
 ! A27   A(1,12,14)            109.4712         estimate D2E/DX2                !
 ! A28   A(1,12,15)            109.4712         estimate D2E/DX2                !
 ! A29   A(13,12,14)           109.4713         estimate D2E/DX2                !
 ! A30   A(13,12,15)           109.4712         estimate D2E/DX2                !
 ! A31   A(14,12,15)           109.4712         estimate D2E/DX2                !
 ! A32   A(1,16,17)            109.4712         estimate D2E/DX2                !
 ! A33   A(1,16,18)            109.4712         estimate D2E/DX2                !
 ! A34   A(1,16,19)            109.4712         estimate D2E/DX2                !
 ! A35   A(17,16,18)           109.4713         estimate D2E/DX2                !
 ! A36   A(17,16,19)           109.4712         estimate D2E/DX2                !
 ! A37   A(18,16,19)           109.4712         estimate D2E/DX2                !
 ! D1    D(5,1,2,3)              0.0            estimate D2E/DX2                !
 ! D2    D(12,1,2,3)          -121.4173         estimate D2E/DX2                !
 ! D3    D(16,1,2,3)           121.4173         estimate D2E/DX2                !
 ! D4    D(2,1,5,4)              0.0            estimate D2E/DX2                !
 ! D5    D(2,1,5,10)          -120.3722         estimate D2E/DX2                !
 ! D6    D(2,1,5,11)           120.3722         estimate D2E/DX2                !
 ! D7    D(12,1,5,4)           118.0794         estimate D2E/DX2                !
 ! D8    D(12,1,5,10)           -2.2928         estimate D2E/DX2                !
 ! D9    D(12,1,5,11)         -121.5484         estimate D2E/DX2                !
 ! D10   D(16,1,5,4)          -118.0794         estimate D2E/DX2                !
 ! D11   D(16,1,5,10)          121.5484         estimate D2E/DX2                !
 ! D12   D(16,1,5,11)            2.2928         estimate D2E/DX2                !
 ! D13   D(2,1,12,13)         -178.202          estimate D2E/DX2                !
 ! D14   D(2,1,12,14)          -58.202          estimate D2E/DX2                !
 ! D15   D(2,1,12,15)           61.798          estimate D2E/DX2                !
 ! D16   D(5,1,12,13)           62.4553         estimate D2E/DX2                !
 ! D17   D(5,1,12,14)         -177.5446         estimate D2E/DX2                !
 ! D18   D(5,1,12,15)          -57.5446         estimate D2E/DX2                !
 ! D19   D(16,1,12,13)         -62.8539         estimate D2E/DX2                !
 ! D20   D(16,1,12,14)          57.1461         estimate D2E/DX2                !
 ! D21   D(16,1,12,15)         177.1461         estimate D2E/DX2                !
 ! D22   D(2,1,16,17)           57.1618         estimate D2E/DX2                !
 ! D23   D(2,1,16,18)          177.1618         estimate D2E/DX2                !
 ! D24   D(2,1,16,19)          -62.8382         estimate D2E/DX2                !
 ! D25   D(5,1,16,17)          176.5044         estimate D2E/DX2                !
 ! D26   D(5,1,16,18)          -63.4956         estimate D2E/DX2                !
 ! D27   D(5,1,16,19)           56.5044         estimate D2E/DX2                !
 ! D28   D(12,1,16,17)         -58.1863         estimate D2E/DX2                !
 ! D29   D(12,1,16,18)          61.8137         estimate D2E/DX2                !
 ! D30   D(12,1,16,19)        -178.1863         estimate D2E/DX2                !
 ! D31   D(1,2,3,4)              0.0            estimate D2E/DX2                !
 ! D32   D(1,2,3,6)            121.3939         estimate D2E/DX2                !
 ! D33   D(1,2,3,7)           -121.3939         estimate D2E/DX2                !
 ! D34   D(2,3,4,5)              0.0            estimate D2E/DX2                !
 ! D35   D(2,3,4,8)            120.3722         estimate D2E/DX2                !
 ! D36   D(2,3,4,9)           -120.3722         estimate D2E/DX2                !
 ! D37   D(6,3,4,5)           -118.0675         estimate D2E/DX2                !
 ! D38   D(6,3,4,8)              2.3047         estimate D2E/DX2                !
 ! D39   D(6,3,4,9)            121.5603         estimate D2E/DX2                !
 ! D40   D(7,3,4,5)            118.0675         estimate D2E/DX2                !
 ! D41   D(7,3,4,8)           -121.5603         estimate D2E/DX2                !
 ! D42   D(7,3,4,9)             -2.3047         estimate D2E/DX2                !
 ! D43   D(3,4,5,1)              0.0            estimate D2E/DX2                !
 ! D44   D(3,4,5,10)           120.1512         estimate D2E/DX2                !
 ! D45   D(3,4,5,11)          -120.1512         estimate D2E/DX2                !
 ! D46   D(8,4,5,1)           -120.1511         estimate D2E/DX2                !
 ! D47   D(8,4,5,10)             0.0            estimate D2E/DX2                !
 ! D48   D(8,4,5,11)           119.6977         estimate D2E/DX2                !
 ! D49   D(9,4,5,1)            120.1511         estimate D2E/DX2                !
 ! D50   D(9,4,5,10)          -119.6977         estimate D2E/DX2                !
 ! D51   D(9,4,5,11)            -0.0001         estimate D2E/DX2                !
 --------------------------------------------------------------------------------
 Trust Radius=3.00D-01 FncErr=1.00D-07 GrdErr=1.00D-06
 Number of steps in this run=    114 maximum allowed number of steps=    114.
 GradGradGradGradGradGradGradGradGradGradGradGradGradGradGradGradGradGrad

                          Input orientation:                          
 ---------------------------------------------------------------------
 Center     Atomic      Atomic             Coordinates (Angstroms)
 Number     Number       Type             X           Y           Z
 ---------------------------------------------------------------------
      1          6           0       -0.436767   -0.384615    0.000000
      2          8           0        0.993604   -0.384615    0.000000
      3          6           0        1.495595    0.954775    0.000000
      4          6           0        0.319040    1.924942   -0.000001
      5          6           0       -0.932311    1.057584   -0.000001
      6          1           0        2.132434    1.062274    0.915360
      7          1           0        2.132434    1.062274   -0.915360
      8          1           0        0.350427    2.584134    0.901902
      9          1           0        0.350429    2.584133   -0.901905
     10          1           0       -1.560590    1.259538    0.901902
     11          1           0       -1.560590    1.259537   -0.901905
     12          6           0       -0.882381   -1.153026    1.258003
     13          1           0       -1.950760   -1.205916    1.283870
     14          1           0       -0.476759   -2.142865    1.233690
     15          1           0       -0.529238   -0.644194    2.130517
     16          6           0       -0.882381   -1.153026   -1.258003
     17          1           0       -0.461944   -2.136843   -1.242616
     18          1           0       -1.950051   -1.221645   -1.274514
     19          1           0       -0.544763   -0.634487   -2.130947
 ---------------------------------------------------------------------
                    Distance matrix (angstroms):
                    1          2          3          4          5
     1  C    0.000000
     2  O    1.430371   0.000000
     3  C    2.351167   1.430371   0.000000
     4  C    2.430082   2.406053   1.524961   0.000000
     5  C    1.524960   2.406052   2.430082   1.522560   0.000000
     6  H    3.087421   2.056284   1.120270   2.206916   3.198526
     7  H    3.087421   2.056284   1.120270   2.206915   3.198526
     8  H    3.201027   3.168687   2.186241   1.117564   2.188424
     9  H    3.201027   3.168686   2.186240   1.117564   2.188425
    10  H    2.186240   3.168686   3.201027   2.188424   1.117564
    11  H    2.186240   3.168687   3.201028   2.188425   1.117564
    12  C    1.540000   2.385864   3.417626   3.535516   2.543986
    13  H    2.148263   3.315439   4.265474   4.074627   2.794458
    14  H    2.148263   2.602960   3.873957   4.324620   3.460114
    15  H    2.148263   2.631641   3.346005   3.443710   2.756378
    16  C    1.540000   2.385864   3.417626   3.535515   2.543985
    17  H    2.148263   2.594806   3.864474   4.318811   3.459726
    18  H    2.148263   3.315133   4.270089   4.083401   2.802688
    19  H    2.148263   2.640065   3.351081   3.440604   2.748495
                    6          7          8          9         10
     6  H    0.000000
     7  H    1.830720   0.000000
     8  H    2.343456   2.965476   0.000000
     9  H    2.965476   2.343454   1.803807   0.000000
    10  H    3.698313   4.120653   2.325197   2.942833   0.000000
    11  H    4.120654   3.698313   2.942832   2.325199   1.803807
    12  C    3.756869   4.326681   3.951327   4.489029   2.531253
    13  H    4.685398   5.162729   4.450375   4.943436   2.525192
    14  H    4.145134   4.658242   4.810284   5.252572   3.586240
    15  H    3.387202   4.390205   3.564464   4.515694   2.489452
    16  C    4.326681   3.756869   4.489028   3.951327   3.308417
    17  H    4.649947   4.131857   5.248479   4.802463   4.164299
    18  H    5.165125   4.691690   4.951054   4.462621   3.323362
    19  H    4.396176   3.394706   4.512101   3.559694   3.717177
                   11         12         13         14         15
    11  H    0.000000
    12  C    3.308418   0.000000
    13  H    3.317876   1.070000   0.000000
    14  H    4.160744   1.070000   1.747303   0.000000
    15  H    3.726051   1.070000   1.747303   1.747303   0.000000
    16  C    2.531251   2.516007   2.757780   2.711613   3.444661
    17  H    3.585876   2.719883   3.076740   2.476358   3.689249
    18  H    2.539051   2.749231   2.558432   3.051282   3.734487
    19  H    2.475838   3.444975   3.736888   3.687901   4.261503
                   16         17         18         19
    16  C    0.000000
    17  H    1.070000   0.000000
    18  H    1.070000   1.747303   0.000000
    19  H    1.070000   1.747303   1.747303   0.000000
 Stoichiometry    C6H12O
 Framework group  C1[X(C6H12O)]
 Deg. of freedom    51
 Full point group                 C1      NOp   1
 Largest Abelian subgroup         C1      NOp   1
 Largest concise Abelian subgroup C1      NOp   1
                         Standard orientation:                         
 ---------------------------------------------------------------------
 Center     Atomic      Atomic             Coordinates (Angstroms)
 Number     Number       Type             X           Y           Z
 ---------------------------------------------------------------------
      1          6           0        0.614639    0.033037    0.000000
      2          8           0       -0.169808   -1.163042    0.000000
      3          6           0       -1.565111   -0.848257    0.000000
      4          6           0       -1.731118    0.667641    0.000001
      5          6           0       -0.319563    1.238345    0.000001
      6          1           0       -2.004258   -1.321828   -0.915360
      7          1           0       -2.004258   -1.321828    0.915360
      8          1           0       -2.299549    1.002910   -0.901902
      9          1           0       -2.299549    1.002908    0.901905
     10          1           0       -0.143876    1.874469   -0.901902
     11          1           0       -0.143875    1.874469    0.901905
     12          6           0        1.501570   -0.015753   -1.258004
     13          1           0        2.131719    0.848621   -1.283870
     14          1           0        2.106823   -0.897784   -1.233691
     15          1           0        0.882412   -0.031997   -2.130517
     16          6           0        1.501570   -0.015753    1.258003
     17          1           0        2.093663   -0.906870    1.242616
     18          1           0        2.144482    0.839402    1.274514
     19          1           0        0.882809   -0.013692    2.130947
 ---------------------------------------------------------------------
 Rotational constants (GHZ):      3.9435261      2.2699997      2.1614993
 Standard basis: 6-311+G(d,p) (5D, 7F)
 There are   233 symmetry adapted cartesian basis functions of A   symmetry.
 There are   226 symmetry adapted basis functions of A   symmetry.
   226 basis functions,   348 primitive gaussians,   233 cartesian basis functions
    28 alpha electrons       28 beta electrons
       nuclear repulsion energy       337.6957055594 Hartrees.
 NAtoms=   19 NActive=   19 NUniq=   19 SFac= 1.00D+00 NAtFMM=   60 NAOKFM=F Big=F
 Integral buffers will be    131072 words long.
 Raffenetti 2 integral format.
 Two-electron integral symmetry is turned on.
 One-electron integrals computed using PRISM.
 NBasis=   226 RedAO= T EigKep=  7.19D-06  NBF=   226
 NBsUse=   226 1.00D-06 EigRej= -1.00D+00 NBFU=   226
 ExpMin= 4.38D-02 ExpMax= 8.59D+03 ExpMxC= 1.30D+03 IAcc=2 IRadAn=         4 AccDes= 0.00D+00
 Harris functional with IExCor=  402 and IRadAn=       4 diagonalized for initial guess.
 HarFok:  IExCor=  402 AccDes= 0.00D+00 IRadAn=         4 IDoV= 1 UseB2=F ITyADJ=14
 ICtDFT=  3500011 ScaDFX=  1.000000  1.000000  1.000000  1.000000
 FoFCou: FMM=F IPFlag=           0 FMFlag=      100000 FMFlg1=           0
         NFxFlg=           0 DoJE=T BraDBF=F KetDBF=T FulRan=T
         wScrn=  0.000000 ICntrl=     500 IOpCl=  0 I1Cent=   200000004 NGrid=           0
         NMat0=    1 NMatS0=      1 NMatT0=    0 NMatD0=    1 NMtDS0=    0 NMtDT0=    0
 Petite list used in FoFCou.
 Requested convergence on RMS density matrix=1.00D-08 within 128 cycles.
 Requested convergence on MAX density matrix=1.00D-06.
 Requested convergence on             energy=1.00D-06.
 No special actions if energy rises.
 SCF Done:  E(RB3LYP) =  -311.164902308     A.U. after   12 cycles
            NFock= 12  Conv=0.49D-08     -V/T= 2.0042

 **********************************************************************

            Population analysis using the SCF density.

 **********************************************************************

 Orbital symmetries:
       Occupied  (A) (A) (A) (A) (A) (A) (A) (A) (A) (A) (A) (A)
                 (A) (A) (A) (A) (A) (A) (A) (A) (A) (A) (A) (A)
                 (A) (A) (A) (A)
       Virtual   (A) (A) (A) (A) (A) (A) (A) (A) (A) (A) (A) (A)
                 (A) (A) (A) (A) (A) (A) (A) (A) (A) (A) (A) (A)
                 (A) (A) (A) (A) (A) (A) (A) (A) (A) (A) (A) (A)
                 (A) (A) (A) (A) (A) (A) (A) (A) (A) (A) (A) (A)
                 (A) (A) (A) (A) (A) (A) (A) (A) (A) (A) (A) (A)
                 (A) (A) (A) (A) (A) (A) (A) (A) (A) (A) (A) (A)
                 (A) (A) (A) (A) (A) (A) (A) (A) (A) (A) (A) (A)
                 (A) (A) (A) (A) (A) (A) (A) (A) (A) (A) (A) (A)
                 (A) (A) (A) (A) (A) (A) (A) (A) (A) (A) (A) (A)
                 (A) (A) (A) (A) (A) (A) (A) (A) (A) (A) (A) (A)
                 (A) (A) (A) (A) (A) (A) (A) (A) (A) (A) (A) (A)
                 (A) (A) (A) (A) (A) (A) (A) (A) (A) (A) (A) (A)
                 (A) (A) (A) (A) (A) (A) (A) (A) (A) (A) (A) (A)
                 (A) (A) (A) (A) (A) (A) (A) (A) (A) (A) (A) (A)
                 (A) (A) (A) (A) (A) (A) (A) (A) (A) (A) (A) (A)
                 (A) (A) (A) (A) (A) (A) (A) (A) (A) (A) (A) (A)
                 (A) (A) (A) (A) (A) (A)
 The electronic state is 1-A.
 Alpha  occ. eigenvalues --  -19.11123 -10.22248 -10.21587 -10.17835 -10.17531
 Alpha  occ. eigenvalues --  -10.14752 -10.14752  -1.03314  -0.79970  -0.77821
 Alpha  occ. eigenvalues --   -0.69380  -0.67336  -0.59783  -0.54899  -0.49207
 Alpha  occ. eigenvalues --   -0.48180  -0.44851  -0.42690  -0.42659  -0.41690
 Alpha  occ. eigenvalues --   -0.38472  -0.38376  -0.36044  -0.35631  -0.33091
 Alpha  occ. eigenvalues --   -0.32206  -0.31949  -0.24417
 Alpha virt. eigenvalues --   -0.00192   0.01863   0.01971   0.02935   0.04282
 Alpha virt. eigenvalues --    0.04464   0.04702   0.05862   0.06040   0.06706
 Alpha virt. eigenvalues --    0.08584   0.08848   0.09163   0.09814   0.09938
 Alpha virt. eigenvalues --    0.10372   0.12596   0.13186   0.13686   0.14911
 Alpha virt. eigenvalues --    0.14989   0.15064   0.16667   0.17171   0.17707
 Alpha virt. eigenvalues --    0.20012   0.20192   0.20573   0.21264   0.21572
 Alpha virt. eigenvalues --    0.22294   0.24872   0.25074   0.26012   0.26067
 Alpha virt. eigenvalues --    0.26732   0.27358   0.27607   0.28970   0.30259
 Alpha virt. eigenvalues --    0.30974   0.32860   0.33448   0.34906   0.36293
 Alpha virt. eigenvalues --    0.39168   0.41031   0.42496   0.42870   0.43134
 Alpha virt. eigenvalues --    0.46276   0.47939   0.48328   0.50097   0.51037
 Alpha virt. eigenvalues --    0.51813   0.54761   0.56680   0.57846   0.61302
 Alpha virt. eigenvalues --    0.62035   0.62156   0.63677   0.65757   0.65975
 Alpha virt. eigenvalues --    0.66870   0.67441   0.68655   0.69596   0.69921
 Alpha virt. eigenvalues --    0.71839   0.72837   0.73491   0.75699   0.76062
 Alpha virt. eigenvalues --    0.77371   0.78567   0.83532   0.88679   0.92258
 Alpha virt. eigenvalues --    0.94541   1.01946   1.04632   1.12682   1.15244
 Alpha virt. eigenvalues --    1.17263   1.23115   1.25150   1.26693   1.28746
 Alpha virt. eigenvalues --    1.30271   1.34562   1.40355   1.42347   1.43030
 Alpha virt. eigenvalues --    1.45737   1.47456   1.47703   1.49236   1.50947
 Alpha virt. eigenvalues --    1.51399   1.54688   1.56059   1.57933   1.58054
 Alpha virt. eigenvalues --    1.59335   1.60868   1.63599   1.64899   1.67896
 Alpha virt. eigenvalues --    1.68025   1.68312   1.71894   1.73198   1.73993
 Alpha virt. eigenvalues --    1.74353   1.78338   1.78847   1.80585   1.83454
 Alpha virt. eigenvalues --    1.83690   1.84787   1.90997   1.92979   1.93737
 Alpha virt. eigenvalues --    1.99714   2.01116   2.06307   2.08815   2.09621
 Alpha virt. eigenvalues --    2.14337   2.14502   2.20189   2.21250   2.27638
 Alpha virt. eigenvalues --    2.28708   2.30348   2.36451   2.36683   2.41187
 Alpha virt. eigenvalues --    2.45440   2.45778   2.50077   2.51427   2.53384
 Alpha virt. eigenvalues --    2.53923   2.54404   2.55663   2.57436   2.59207
 Alpha virt. eigenvalues --    2.61730   2.62666   2.64004   2.65105   2.68961
 Alpha virt. eigenvalues --    2.69356   2.71186   2.72883   2.76231   2.78106
 Alpha virt. eigenvalues --    2.82604   2.83549   2.86582   2.91987   3.00049
 Alpha virt. eigenvalues --    3.02699   3.07372   3.08248   3.13180   3.16820
 Alpha virt. eigenvalues --    3.21141   3.23268   3.27460   3.32847   3.50393
 Alpha virt. eigenvalues --    3.58360   3.80575   3.85166   3.85731   3.88814
 Alpha virt. eigenvalues --    3.90110   3.98940   3.99432   4.08954   4.15713
 Alpha virt. eigenvalues --    4.31510   4.33939   4.41168   5.15624   5.41645
 Alpha virt. eigenvalues --    5.71996  23.74730  23.82874  23.85716  23.87983
 Alpha virt. eigenvalues --   24.01689  24.03031  49.96077
          Condensed to atoms (all electrons):
               1          2          3          4          5          6
     1  C    6.503476   0.410616  -0.598690   0.226146  -0.445838  -0.001125
     2  O    0.410616   8.130441   0.134003  -0.047670  -0.043655  -0.070072
     3  C   -0.598690   0.134003   5.675527  -0.186703   0.332518   0.437081
     4  C    0.226146  -0.047670  -0.186703   5.795865  -0.282471  -0.060097
     5  C   -0.445838  -0.043655   0.332518  -0.282471   6.129651   0.007121
     6  H   -0.001125  -0.070072   0.437081  -0.060097   0.007121   0.599021
     7  H   -0.001691  -0.069876   0.437576  -0.060083   0.007260  -0.053743
     8  H    0.008378   0.005870  -0.057181   0.442238  -0.048160  -0.013155
     9  H    0.008375   0.005880  -0.057045   0.442522  -0.048612   0.006853
    10  H   -0.060467   0.002683   0.000036  -0.036804   0.433342   0.000190
    11  H   -0.059409   0.002673  -0.000411  -0.036702   0.432551  -0.000461
    12  C    0.113397  -0.181124   0.046816   0.035458  -0.075211   0.034844
    13  H   -0.081178   0.019295   0.003500  -0.001186   0.011088  -0.000242
    14  H   -0.045439  -0.014104   0.002352  -0.007312   0.020527   0.000256
    15  H    0.021136  -0.012772  -0.008511   0.009012  -0.037998  -0.000136
    16  C    0.113248  -0.181614   0.047320   0.035939  -0.076888  -0.025534
    17  H   -0.043576  -0.014455   0.002298  -0.007213   0.020087  -0.000125
    18  H   -0.080868   0.019250   0.003329  -0.001241   0.010763   0.000127
    19  H    0.018129  -0.012508  -0.007921   0.008524  -0.036062  -0.000020
               7          8          9         10         11         12
     1  C   -0.001691   0.008378   0.008375  -0.060467  -0.059409   0.113397
     2  O   -0.069876   0.005870   0.005880   0.002683   0.002673  -0.181124
     3  C    0.437576  -0.057181  -0.057045   0.000036  -0.000411   0.046816
     4  C   -0.060083   0.442238   0.442522  -0.036804  -0.036702   0.035458
     5  C    0.007260  -0.048160  -0.048612   0.433342   0.432551  -0.075211
     6  H   -0.053743  -0.013155   0.006853   0.000190  -0.000461   0.034844
     7  H    0.598761   0.006843  -0.013176  -0.000459   0.000197  -0.025498
     8  H    0.006843   0.538041  -0.030788  -0.014062   0.004941   0.004379
     9  H   -0.013176  -0.030788   0.538096   0.004949  -0.014060  -0.002667
    10  H   -0.000459  -0.014062   0.004949   0.528182  -0.028606   0.015125
    11  H    0.000197   0.004941  -0.014060  -0.028606   0.528029   0.000435
    12  C   -0.025498   0.004379  -0.002667   0.015125   0.000435   5.684997
    13  H    0.000128   0.000083  -0.000034  -0.000916   0.000248   0.400455
    14  H   -0.000120  -0.000005   0.000050   0.001035  -0.000445   0.425012
    15  H   -0.000019  -0.000046  -0.000067  -0.000252   0.000182   0.383075
    16  C    0.034783  -0.002665   0.004353   0.000292   0.015143  -0.448910
    17  H    0.000265   0.000050  -0.000006  -0.000443   0.001038  -0.010452
    18  H   -0.000237  -0.000033   0.000083   0.000222  -0.000902   0.016085
    19  H   -0.000133  -0.000069  -0.000046   0.000209  -0.000315   0.020384
              13         14         15         16         17         18
     1  C   -0.081178  -0.045439   0.021136   0.113248  -0.043576  -0.080868
     2  O    0.019295  -0.014104  -0.012772  -0.181614  -0.014455   0.019250
     3  C    0.003500   0.002352  -0.008511   0.047320   0.002298   0.003329
     4  C   -0.001186  -0.007312   0.009012   0.035939  -0.007213  -0.001241
     5  C    0.011088   0.020527  -0.037998  -0.076888   0.020087   0.010763
     6  H   -0.000242   0.000256  -0.000136  -0.025534  -0.000125   0.000127
     7  H    0.000128  -0.000120  -0.000019   0.034783   0.000265  -0.000237
     8  H    0.000083  -0.000005  -0.000046  -0.002665   0.000050  -0.000033
     9  H   -0.000034   0.000050  -0.000067   0.004353  -0.000006   0.000083
    10  H   -0.000916   0.001035  -0.000252   0.000292  -0.000443   0.000222
    11  H    0.000248  -0.000445   0.000182   0.015143   0.001038  -0.000902
    12  C    0.400455   0.425012   0.383075  -0.448910  -0.010452   0.016085
    13  H    0.562718  -0.029169  -0.029441   0.015462   0.000245  -0.001070
    14  H   -0.029169   0.529625  -0.022737  -0.009483   0.002460   0.000195
    15  H   -0.029441  -0.022737   0.533923   0.020446   0.000061   0.000033
    16  C    0.015462  -0.009483   0.020446   5.685711   0.425211   0.400418
    17  H    0.000245   0.002460   0.000061   0.425211   0.528720  -0.029214
    18  H   -0.001070   0.000195   0.000033   0.400418  -0.029214   0.562458
    19  H    0.000023   0.000093  -0.000598   0.383224  -0.022717  -0.029476
              19
     1  C    0.018129
     2  O   -0.012508
     3  C   -0.007921
     4  C    0.008524
     5  C   -0.036062
     6  H   -0.000020
     7  H   -0.000133
     8  H   -0.000069
     9  H   -0.000046
    10  H    0.000209
    11  H   -0.000315
    12  C    0.020384
    13  H    0.000023
    14  H    0.000093
    15  H   -0.000598
    16  C    0.383224
    17  H   -0.022717
    18  H   -0.029476
    19  H    0.535109
 Mulliken charges:
               1
     1  C   -0.004618
     2  O   -0.082862
     3  C   -0.205894
     4  C   -0.268224
     5  C   -0.310013
     6  H    0.139219
     7  H    0.139225
     8  H    0.155341
     9  H    0.155341
    10  H    0.155745
    11  H    0.155875
    12  C   -0.436600
    13  H    0.129990
    14  H    0.147210
    15  H    0.144709
    16  C   -0.436456
    17  H    0.147767
    18  H    0.130079
    19  H    0.144167
 Sum of Mulliken charges =   0.00000
 Mulliken charges with hydrogens summed into heavy atoms:
               1
     1  C   -0.004618
     2  O   -0.082862
     3  C    0.072549
     4  C    0.042458
     5  C    0.001607
    12  C   -0.014691
    16  C   -0.014442
 Electronic spatial extent (au):  <R**2>=            755.1110
 Charge=              0.0000 electrons
 Dipole moment (field-independent basis, Debye):
    X=             -0.6198    Y=              1.6761    Z=             -0.0003  Tot=              1.7870
 Quadrupole moment (field-independent basis, Debye-Ang):
   XX=            -43.6907   YY=            -48.1568   ZZ=            -44.9616
   XY=              0.4172   XZ=              0.0013   YZ=             -0.0006
 Traceless Quadrupole moment (field-independent basis, Debye-Ang):
   XX=              1.9123   YY=             -2.5538   ZZ=              0.6415
   XY=              0.4172   XZ=              0.0013   YZ=             -0.0006
 Octapole moment (field-independent basis, Debye-Ang**2):
  XXX=             -1.8483  YYY=             -0.1986  ZZZ=             -0.0072  XYY=              0.4553
  XXY=             -3.7221  XXZ=              0.0038  XZZ=             -4.1150  YZZ=             -0.8526
  YYZ=              0.0021  XYZ=             -0.0150
 Hexadecapole moment (field-independent basis, Debye-Ang**3):
 XXXX=           -561.2654 YYYY=           -263.0531 ZZZZ=           -246.1430 XXXY=              0.8962
 XXXZ=              0.0118 YYYX=              2.4981 YYYZ=             -0.0545 ZZZX=             -0.0009
 ZZZY=              0.0477 XXYY=           -129.4916 XXZZ=           -134.2701 YYZZ=            -81.3540
 XXYZ=             -0.0209 YYXZ=              0.0045 ZZXY=             -0.2086
 N-N= 3.376957055594D+02 E-N=-1.399542381236D+03  KE= 3.098764853072D+02
 There are a total of      155798 grid points.
 ElSum from          density=       56.0002123900
 ElSum from atomic densities=       56.0004512548

 Hirshfeld populations at iteration   1 (CX, CA, CB, DipXYZ):
               1          2          3          4          5          6
     1  C    0.000000   2.956418   2.956418  -0.037297  -0.042813   0.000007
     2  O    0.000000   4.093201   4.093201  -0.058158   0.169707  -0.000023
     3  C    0.000000   2.993355   2.993355   0.054031   0.009790  -0.000003
     4  C    0.000000   3.031331   3.031331   0.006332  -0.005503  -0.000011
     5  C    0.000000   3.030618   3.030618  -0.004125  -0.005104  -0.000003
     6  H    0.000000   0.483241   0.483241  -0.056685  -0.055210  -0.116564
     7  H    0.000000   0.483236   0.483236  -0.056689  -0.055212   0.116579
     8  H    0.000000   0.480842   0.480842  -0.069685   0.041718  -0.120857
     9  H    0.000000   0.480848   0.480848  -0.069685   0.041716   0.120848
    10  H    0.000000   0.480489   0.480489   0.018013   0.081273  -0.116304
    11  H    0.000000   0.480483   0.480483   0.018018   0.081295   0.116287
    12  C    0.000000   3.055253   3.055253   0.011548   0.002942   0.001712
    13  H    0.000000   0.483599   0.483599   0.086910   0.117682  -0.001791
    14  H    0.000001   0.481161   0.481161   0.088144  -0.121794   0.001511
    15  H    0.000000   0.483012   0.483012  -0.083751  -0.002746  -0.122892
    16  C    0.000000   3.055250   3.055250   0.011542   0.003028  -0.001696
    17  H    0.000001   0.481144   0.481144   0.086546  -0.123005  -0.000122
    18  H    0.000000   0.483562   0.483562   0.088669   0.116425   0.000487
    19  H    0.000000   0.483064   0.483064  -0.083769  -0.000389   0.122761
       Tot   0.000005  28.000106  28.000106  -0.050091   0.253799  -0.000075

 Dip from Atomic Chgs             -0.193762   0.405542  -0.000049
         Total Dipole             -0.243853   0.659340  -0.000124

 Hirshfeld charges, spin densities, dipoles, and CM5 charges using IRadAn=      4:
              Q-H        S-H        Dx         Dy         Dz        Q-CM5   
     1  C    0.087165   0.000000  -0.037297  -0.042813   0.000007   0.079890
     2  O   -0.186402   0.000000  -0.058158   0.169707  -0.000023  -0.273615
     3  C    0.013290   0.000000   0.054031   0.009790  -0.000003  -0.061546
     4  C   -0.062662   0.000000   0.006332  -0.005503  -0.000011  -0.162735
     5  C   -0.061236   0.000000  -0.004125  -0.005104  -0.000003  -0.158654
     6  H    0.033518   0.000000  -0.056685  -0.055210  -0.116564   0.092637
     7  H    0.033528   0.000000  -0.056689  -0.055212   0.116579   0.092647
     8  H    0.038315   0.000000  -0.069685   0.041718  -0.120857   0.090286
     9  H    0.038305   0.000000  -0.069685   0.041716   0.120848   0.090276
    10  H    0.039021   0.000000   0.018013   0.081273  -0.116304   0.092490
    11  H    0.039034   0.000000   0.018018   0.081295   0.116287   0.092502
    12  C   -0.110506   0.000000   0.011548   0.002942   0.001712  -0.262571
    13  H    0.032803   0.000000   0.086910   0.117682  -0.001791   0.088504
    14  H    0.037679   0.000000   0.088144  -0.121794   0.001511   0.095297
    15  H    0.033977   0.000000  -0.083751  -0.002746  -0.122892   0.091570
    16  C   -0.110501   0.000000   0.011542   0.003028  -0.001696  -0.262567
    17  H    0.037711   0.000000   0.086546  -0.123005  -0.000122   0.095372
    18  H    0.032876   0.000000   0.088669   0.116425   0.000487   0.088579
    19  H    0.033873   0.000000  -0.083769  -0.000389   0.122761   0.091425
       Tot  -0.000212   0.000000  -0.050091   0.253799  -0.000075  -0.000212
 Hirshfeld charges with hydrogens summed into heavy atoms:
              Q-H       Q-CM5   
     1  C    0.087165   0.079890
     2  O   -0.186402  -0.273615
     3  C    0.080336   0.123737
     4  C    0.013958   0.017827
     5  C    0.016820   0.026338
    12  C   -0.006048   0.012801
    16  C   -0.006041   0.012810
 
 EQQ= 0.000000000000E+00 EQD= 0.000000000000E+00 EDD=-0.224041539501E-02
 EQQ+QD+DD=-0.224041539501E-02
 
          MBS Condensed to atoms (all electrons):
               1          2          3          4          5          6
     1  C    4.666363   0.266843  -0.043781  -0.035409   0.365192   0.001915
     2  O    0.266843   8.050050   0.270833  -0.021282  -0.021882  -0.021730
     3  C   -0.043781   0.270833   4.711645   0.360498  -0.035861   0.367309
     4  C   -0.035409  -0.021282   0.360498   4.827708   0.360115  -0.022313
     5  C    0.365192  -0.021882  -0.035861   0.360115   4.840768   0.001141
     6  H    0.001915  -0.021730   0.367309  -0.022313   0.001141   0.621495
     7  H    0.001915  -0.021729   0.367317  -0.022313   0.001141  -0.027142
     8  H    0.001399   0.000580  -0.020804   0.372982  -0.020442  -0.006091
     9  H    0.001399   0.000580  -0.020805   0.372978  -0.020443   0.001714
    10  H   -0.021324   0.000580   0.001439  -0.020335   0.371965  -0.000040
    11  H   -0.021320   0.000581   0.001439  -0.020336   0.371973  -0.000031
    12  C    0.362807  -0.024749   0.001456   0.000739  -0.026944   0.000040
    13  H   -0.019899   0.000919  -0.000055   0.000031  -0.001740  -0.000002
    14  H   -0.021968  -0.000537  -0.000024  -0.000038   0.001572   0.000003
    15  H   -0.022196  -0.000453   0.000179   0.000106  -0.002602  -0.000056
    16  C    0.362848  -0.024743   0.001460   0.000738  -0.026939  -0.000055
    17  H   -0.021934  -0.000568  -0.000023  -0.000039   0.001571  -0.000002
    18  H   -0.019912   0.000919  -0.000055   0.000030  -0.001635   0.000002
    19  H   -0.022232  -0.000423   0.000174   0.000111  -0.002717  -0.000001
               7          8          9         10         11         12
     1  C    0.001915   0.001399   0.001399  -0.021324  -0.021320   0.362807
     2  O   -0.021729   0.000580   0.000580   0.000580   0.000581  -0.024749
     3  C    0.367317  -0.020804  -0.020805   0.001439   0.001439   0.001456
     4  C   -0.022313   0.372982   0.372978  -0.020335  -0.020336   0.000739
     5  C    0.001141  -0.020442  -0.020443   0.371965   0.371973  -0.026944
     6  H   -0.027142  -0.006091   0.001714  -0.000040  -0.000031   0.000040
     7  H    0.621459   0.001714  -0.006091  -0.000031  -0.000040  -0.000055
     8  H    0.001714   0.616879  -0.023531  -0.007281   0.001715  -0.000021
     9  H   -0.006091  -0.023531   0.616898   0.001715  -0.007280  -0.000014
    10  H   -0.000031  -0.007281   0.001715   0.619840  -0.023526  -0.006021
    11  H   -0.000040   0.001715  -0.007280  -0.023526   0.619800   0.001305
    12  C   -0.000055  -0.000021  -0.000014  -0.006021   0.001305   4.860631
    13  H    0.000002  -0.000001  -0.000001   0.000143  -0.000009   0.374196
    14  H   -0.000002   0.000001   0.000001   0.000142  -0.000056   0.381069
    15  H   -0.000001  -0.000004  -0.000002   0.000791   0.000019   0.379002
    16  C    0.000039  -0.000014  -0.000020   0.001308  -0.006035  -0.032141
    17  H    0.000003   0.000001   0.000001  -0.000056   0.000143  -0.002793
    18  H   -0.000002  -0.000001  -0.000001  -0.000013   0.000138  -0.001344
    19  H   -0.000054  -0.000003  -0.000005   0.000020   0.000810   0.001641
              13         14         15         16         17         18
     1  C   -0.019899  -0.021968  -0.022196   0.362848  -0.021934  -0.019912
     2  O    0.000919  -0.000537  -0.000453  -0.024743  -0.000568   0.000919
     3  C   -0.000055  -0.000024   0.000179   0.001460  -0.000023  -0.000055
     4  C    0.000031  -0.000038   0.000106   0.000738  -0.000039   0.000030
     5  C   -0.001740   0.001572  -0.002602  -0.026939   0.001571  -0.001635
     6  H   -0.000002   0.000003  -0.000056  -0.000055  -0.000002   0.000002
     7  H    0.000002  -0.000002  -0.000001   0.000039   0.000003  -0.000002
     8  H   -0.000001   0.000001  -0.000004  -0.000014   0.000001  -0.000001
     9  H   -0.000001   0.000001  -0.000002  -0.000020   0.000001  -0.000001
    10  H    0.000143   0.000142   0.000791   0.001308  -0.000056  -0.000013
    11  H   -0.000009  -0.000056   0.000019  -0.006035   0.000143   0.000138
    12  C    0.374196   0.381069   0.379002  -0.032141  -0.002793  -0.001344
    13  H    0.606951  -0.022132  -0.022011  -0.001272   0.000078  -0.000057
    14  H   -0.022132   0.587325  -0.022735  -0.002873   0.000807   0.000077
    15  H   -0.022011  -0.022735   0.598702   0.001640   0.000018   0.000017
    16  C   -0.001272  -0.002873   0.001640   4.860605   0.381017   0.374206
    17  H    0.000078   0.000807   0.000018   0.381017   0.586966  -0.022103
    18  H   -0.000057   0.000077   0.000017   0.374206  -0.022103   0.606869
    19  H    0.000013   0.000021  -0.000069   0.379045  -0.022735  -0.022048
              19
     1  C   -0.022232
     2  O   -0.000423
     3  C    0.000174
     4  C    0.000111
     5  C   -0.002717
     6  H   -0.000001
     7  H   -0.000054
     8  H   -0.000003
     9  H   -0.000005
    10  H    0.000020
    11  H    0.000810
    12  C    0.001641
    13  H    0.000013
    14  H    0.000021
    15  H   -0.000069
    16  C    0.379045
    17  H   -0.022735
    18  H   -0.022048
    19  H    0.599134
 MBS Mulliken charges:
               1
     1  C    0.219296
     2  O   -0.453788
     3  C    0.037658
     4  C   -0.153972
     5  C   -0.154233
     6  H    0.083843
     7  H    0.083870
     8  H    0.082923
     9  H    0.082908
    10  H    0.080683
    11  H    0.080709
    12  C   -0.268806
    13  H    0.084845
    14  H    0.099348
    15  H    0.089655
    16  C   -0.268816
    17  H    0.099648
    18  H    0.084912
    19  H    0.089316
 Sum of MBS Mulliken charges =   0.00000
 MBS Mulliken charges with hydrogens summed into heavy atoms:
               1
     1  C    0.219296
     2  O   -0.453788
     3  C    0.205371
     4  C    0.011859
     5  C    0.007159
    12  C    0.005043
    16  C    0.005061
 Breneman (CHELPG) radii used.
 Generate Potential Derived Charges using the Breneman model, NDens= 1.
 Grid spacing= 0.300 Box extension= 2.800
 NStep X,Y,Z=   35     31     34   Total possible points=       36890
 Number of Points to Fit=   11815

 **********************************************************************

            Electrostatic Properties Using The SCF Density

 **********************************************************************

       Atomic Center    1 is at   0.614639  0.033037  0.000000
       Atomic Center    2 is at  -0.169808 -1.163042  0.000000
       Atomic Center    3 is at  -1.565111 -0.848257  0.000000
       Atomic Center    4 is at  -1.731118  0.667641  0.000001
       Atomic Center    5 is at  -0.319563  1.238345  0.000001
       Atomic Center    6 is at  -2.004258 -1.321828 -0.915360
       Atomic Center    7 is at  -2.004258 -1.321828  0.915360
       Atomic Center    8 is at  -2.299549  1.002910 -0.901902
       Atomic Center    9 is at  -2.299549  1.002908  0.901905
       Atomic Center   10 is at  -0.143876  1.874469 -0.901902
       Atomic Center   11 is at  -0.143875  1.874469  0.901905
       Atomic Center   12 is at   1.501570 -0.015753 -1.258004
       Atomic Center   13 is at   2.131719  0.848621 -1.283870
       Atomic Center   14 is at   2.106823 -0.897784 -1.233691
       Atomic Center   15 is at   0.882412 -0.031997 -2.130517
       Atomic Center   16 is at   1.501570 -0.015753  1.258003
       Atomic Center   17 is at   2.093663 -0.906870  1.242616
       Atomic Center   18 is at   2.144482  0.839402  1.274514
       Atomic Center   19 is at   0.882809 -0.013692  2.130947
   11815 points will be used for fitting atomic charges
 Fitting point charges to electrostatic potential
 Charges from ESP fit, RMS=   0.00234 RRMS=   0.23359:
 ESP charges:
               1
     1  C    0.727159
     2  O   -0.580065
     3  C    0.262091
     4  C   -0.069494
     5  C    0.062818
     6  H   -0.012460
     7  H   -0.012360
     8  H    0.006567
     9  H    0.006632
    10  H   -0.039759
    11  H   -0.039735
    12  C   -0.394816
    13  H    0.055448
    14  H    0.093045
    15  H    0.091964
    16  C   -0.406435
    17  H    0.096053
    18  H    0.058283
    19  H    0.095064
 Sum of ESP charges =   0.00000
 ESP charges with hydrogens summed into heavy atoms:
               1
     1  C    0.727159
     2  O   -0.580065
     3  C    0.237272
     4  C   -0.056295
     5  C   -0.016676
    12  C   -0.154360
    16  C   -0.157035
 Charge=   0.00000 Dipole=    -0.6314     1.6258    -0.0007 Tot=     1.7441
 -----------------------------------------------------------------

              Electrostatic Properties (Atomic Units)

 -----------------------------------------------------------------
    Center     Electric         -------- Electric Field --------
               Potential          X             Y             Z
 -----------------------------------------------------------------
    1 Atom    -14.722209
    2 Atom    -22.384549
    3 Atom    -14.729541
    4 Atom    -14.767451
    5 Atom    -14.771146
    6 Atom     -1.128751
    7 Atom     -1.128756
    8 Atom     -1.118294
    9 Atom     -1.118300
   10 Atom     -1.118209
   11 Atom     -1.118183
   12 Atom    -14.801154
   13 Atom     -1.128969
   14 Atom     -1.133674
   15 Atom     -1.131451
   16 Atom    -14.801151
   17 Atom     -1.133686
   18 Atom     -1.128945
   19 Atom     -1.131457
 -----------------------------------------------------------------
 ******************************Gaussian NBO Version 3.1******************************
             N A T U R A L   A T O M I C   O R B I T A L   A N D
          N A T U R A L   B O N D   O R B I T A L   A N A L Y S I S
 ******************************Gaussian NBO Version 3.1******************************
       /RESON  / : Allow strongly delocalized NBO set

 Analyzing the SCF density

 Job title: Title Card Required                                             

 Storage needed:    154556 in NPA ( 104855605 available)


 NATURAL POPULATIONS:  Natural atomic orbital occupancies 
                                                          
   NAO  Atom  No  lang   Type(AO)    Occupancy      Energy
 ----------------------------------------------------------
     1    C    1  S      Cor( 1S)     1.99915     -10.09437
     2    C    1  S      Val( 2S)     0.89891      -0.19638
     3    C    1  S      Ryd( 3S)     0.00085       1.16732
     4    C    1  S      Ryd( 4S)     0.00026       1.30080
     5    C    1  S      Ryd( 5S)     0.00001      22.99031
     6    C    1  px     Val( 2p)     0.94586      -0.07764
     7    C    1  px     Ryd( 3p)     0.00380       0.79691
     8    C    1  px     Ryd( 4p)     0.00033       0.89611
     9    C    1  px     Ryd( 5p)     0.00007       2.72384
    10    C    1  py     Val( 2p)     0.81100      -0.05156
    11    C    1  py     Ryd( 3p)     0.00648       0.75629
    12    C    1  py     Ryd( 4p)     0.00052       0.92370
    13    C    1  py     Ryd( 5p)     0.00004       2.69902
    14    C    1  pz     Val( 2p)     1.04525      -0.08484
    15    C    1  pz     Ryd( 3p)     0.00335       0.84917
    16    C    1  pz     Ryd( 4p)     0.00049       0.90426
    17    C    1  pz     Ryd( 5p)     0.00002       2.73349
    18    C    1  dxy    Ryd( 3d)     0.00200       2.32064
    19    C    1  dxz    Ryd( 3d)     0.00129       2.30725
    20    C    1  dyz    Ryd( 3d)     0.00151       1.81341
    21    C    1  dx2y2  Ryd( 3d)     0.00162       1.89920
    22    C    1  dz2    Ryd( 3d)     0.00141       2.20127

    23    O    2  S      Cor( 1S)     1.99975     -18.89651
    24    O    2  S      Val( 2S)     1.61911      -0.85005
    25    O    2  S      Ryd( 3S)     0.00249       0.99793
    26    O    2  S      Ryd( 4S)     0.00008       1.47488
    27    O    2  S      Ryd( 5S)     0.00000      49.59889
    28    O    2  px     Val( 2p)     1.39361      -0.26759
    29    O    2  px     Ryd( 3p)     0.00278       0.88881
    30    O    2  px     Ryd( 4p)     0.00077       1.00767
    31    O    2  px     Ryd( 5p)     0.00001       5.19878
    32    O    2  py     Val( 2p)     1.66856      -0.29617
    33    O    2  py     Ryd( 3p)     0.00369       0.65679
    34    O    2  py     Ryd( 4p)     0.00130       0.83080
    35    O    2  py     Ryd( 5p)     0.00006       5.11272
    36    O    2  pz     Val( 2p)     1.92073      -0.27951
    37    O    2  pz     Ryd( 3p)     0.00499       0.64656
    38    O    2  pz     Ryd( 4p)     0.00081       0.85461
    39    O    2  pz     Ryd( 5p)     0.00001       5.03366
    40    O    2  dxy    Ryd( 3d)     0.00102       3.35972
    41    O    2  dxz    Ryd( 3d)     0.00031       3.06674
    42    O    2  dyz    Ryd( 3d)     0.00074       2.99153
    43    O    2  dx2y2  Ryd( 3d)     0.00098       3.33851
    44    O    2  dz2    Ryd( 3d)     0.00058       3.27909

    45    C    3  S      Cor( 1S)     1.99928     -10.09238
    46    C    3  S      Val( 2S)     1.02064      -0.24100
    47    C    3  S      Ryd( 4S)     0.00156       1.02428
    48    C    3  S      Ryd( 3S)     0.00037       0.61603
    49    C    3  S      Ryd( 5S)     0.00001      23.36411
    50    C    3  px     Val( 2p)     0.75946      -0.05703
    51    C    3  px     Ryd( 4p)     0.00455       0.61548
    52    C    3  px     Ryd( 3p)     0.00024       0.46923
    53    C    3  px     Ryd( 5p)     0.00008       2.77663
    54    C    3  py     Val( 2p)     1.04782      -0.08286
    55    C    3  py     Ryd( 4p)     0.00344       0.68183
    56    C    3  py     Ryd( 3p)     0.00033       0.51408
    57    C    3  py     Ryd( 5p)     0.00022       2.64916
    58    C    3  pz     Val( 2p)     1.17953      -0.08988
    59    C    3  pz     Ryd( 4p)     0.00223       0.83133
    60    C    3  pz     Ryd( 3p)     0.00080       0.57284
    61    C    3  pz     Ryd( 5p)     0.00008       2.66366
    62    C    3  dxy    Ryd( 3d)     0.00164       1.89494
    63    C    3  dxz    Ryd( 3d)     0.00206       1.97461
    64    C    3  dyz    Ryd( 3d)     0.00077       2.03532
    65    C    3  dx2y2  Ryd( 3d)     0.00177       2.27253
    66    C    3  dz2    Ryd( 3d)     0.00117       2.13671

    67    C    4  S      Cor( 1S)     1.99931     -10.04000
    68    C    4  S      Val( 2S)     1.04154      -0.24492
    69    C    4  S      Ryd( 3S)     0.00128       0.73234
    70    C    4  S      Ryd( 4S)     0.00035       1.13051
    71    C    4  S      Ryd( 5S)     0.00000      23.18423
    72    C    4  px     Val( 2p)     1.10635      -0.09236
    73    C    4  px     Ryd( 4p)     0.00208       0.49732
    74    C    4  px     Ryd( 3p)     0.00035       0.27879
    75    C    4  px     Ryd( 5p)     0.00010       3.09787
    76    C    4  py     Val( 2p)     1.05871      -0.09270
    77    C    4  py     Ryd( 4p)     0.00237       0.51071
    78    C    4  py     Ryd( 3p)     0.00038       0.35178
    79    C    4  py     Ryd( 5p)     0.00014       3.05747
    80    C    4  pz     Val( 2p)     1.20525      -0.09152
    81    C    4  pz     Ryd( 4p)     0.00307       0.68483
    82    C    4  pz     Ryd( 3p)     0.00025       0.23847
    83    C    4  pz     Ryd( 5p)     0.00002       3.11731
    84    C    4  dxy    Ryd( 3d)     0.00049       1.99330
    85    C    4  dxz    Ryd( 3d)     0.00085       2.12097
    86    C    4  dyz    Ryd( 3d)     0.00055       1.92116
    87    C    4  dx2y2  Ryd( 3d)     0.00079       2.19968
    88    C    4  dz2    Ryd( 3d)     0.00070       2.15667

    89    C    5  S      Cor( 1S)     1.99917     -10.02944
    90    C    5  S      Val( 2S)     1.02444      -0.22696
    91    C    5  S      Ryd( 4S)     0.00119       1.07798
    92    C    5  S      Ryd( 3S)     0.00033       0.95967
    93    C    5  S      Ryd( 5S)     0.00000      23.06956
    94    C    5  px     Val( 2p)     1.03155      -0.08533
    95    C    5  px     Ryd( 4p)     0.00266       0.52980
    96    C    5  px     Ryd( 3p)     0.00060       0.37587
    97    C    5  px     Ryd( 5p)     0.00014       3.10111
    98    C    5  py     Val( 2p)     1.13468      -0.09729
    99    C    5  py     Ryd( 4p)     0.00207       0.49565
   100    C    5  py     Ryd( 3p)     0.00032       0.26782
   101    C    5  py     Ryd( 5p)     0.00006       3.15776
   102    C    5  pz     Val( 2p)     1.20653      -0.09021
   103    C    5  pz     Ryd( 4p)     0.00631       0.71375
   104    C    5  pz     Ryd( 3p)     0.00033       0.26659
   105    C    5  pz     Ryd( 5p)     0.00003       3.14010
   106    C    5  dxy    Ryd( 3d)     0.00079       2.19119
   107    C    5  dxz    Ryd( 3d)     0.00055       1.86311
   108    C    5  dyz    Ryd( 3d)     0.00088       2.21811
   109    C    5  dx2y2  Ryd( 3d)     0.00053       2.00888
   110    C    5  dz2    Ryd( 3d)     0.00072       2.14833

   111    H    6  S      Val( 1S)     0.82655       0.01382
   112    H    6  S      Ryd( 2S)     0.00137       0.53657
   113    H    6  S      Ryd( 3S)     0.00016       2.30591
   114    H    6  px     Ryd( 2p)     0.00011       1.96713
   115    H    6  py     Ryd( 2p)     0.00035       1.96507
   116    H    6  pz     Ryd( 2p)     0.00036       2.36207

   117    H    7  S      Val( 1S)     0.82652       0.01384
   118    H    7  S      Ryd( 2S)     0.00137       0.53634
   119    H    7  S      Ryd( 3S)     0.00016       2.30649
   120    H    7  px     Ryd( 2p)     0.00011       1.96718
   121    H    7  py     Ryd( 2p)     0.00035       1.96501
   122    H    7  pz     Ryd( 2p)     0.00036       2.36208

   123    H    8  S      Val( 1S)     0.79154       0.02191
   124    H    8  S      Ryd( 2S)     0.00117       0.65229
   125    H    8  S      Ryd( 3S)     0.00010       2.20533
   126    H    8  px     Ryd( 2p)     0.00021       2.06986
   127    H    8  py     Ryd( 2p)     0.00023       1.86284
   128    H    8  pz     Ryd( 2p)     0.00023       2.34400

   129    H    9  S      Val( 1S)     0.79156       0.02190
   130    H    9  S      Ryd( 2S)     0.00117       0.65222
   131    H    9  S      Ryd( 3S)     0.00010       2.20526
   132    H    9  px     Ryd( 2p)     0.00021       2.06980
   133    H    9  py     Ryd( 2p)     0.00023       1.86268
   134    H    9  pz     Ryd( 2p)     0.00023       2.34399

   135    H   10  S      Val( 1S)     0.78950       0.02647
   136    H   10  S      Ryd( 2S)     0.00074       0.79345
   137    H   10  S      Ryd( 3S)     0.00009       2.04786
   138    H   10  px     Ryd( 2p)     0.00021       1.80629
   139    H   10  py     Ryd( 2p)     0.00016       2.18334
   140    H   10  pz     Ryd( 2p)     0.00023       2.35978

   141    H   11  S      Val( 1S)     0.78948       0.02646
   142    H   11  S      Ryd( 2S)     0.00074       0.79428
   143    H   11  S      Ryd( 3S)     0.00009       2.04702
   144    H   11  px     Ryd( 2p)     0.00021       1.80575
   145    H   11  py     Ryd( 2p)     0.00016       2.18429
   146    H   11  pz     Ryd( 2p)     0.00023       2.35977

   147    C   12  S      Cor( 1S)     1.99924      -9.99518
   148    C   12  S      Val( 2S)     1.07102      -0.22062
   149    C   12  S      Ryd( 4S)     0.00061       1.04641
   150    C   12  S      Ryd( 3S)     0.00012       0.70404
   151    C   12  S      Ryd( 5S)     0.00000      23.14941
   152    C   12  px     Val( 2p)     1.16399      -0.07803
   153    C   12  px     Ryd( 4p)     0.00253       0.57634
   154    C   12  px     Ryd( 3p)     0.00017       0.27998
   155    C   12  px     Ryd( 5p)     0.00004       3.08835
   156    C   12  py     Val( 2p)     1.20924      -0.07660
   157    C   12  py     Ryd( 4p)     0.00225       0.60197
   158    C   12  py     Ryd( 3p)     0.00013       0.29637
   159    C   12  py     Ryd( 5p)     0.00005       3.08554
   160    C   12  pz     Val( 2p)     1.11948      -0.07961
   161    C   12  pz     Ryd( 4p)     0.00240       0.57677
   162    C   12  pz     Ryd( 3p)     0.00029       0.25606
   163    C   12  pz     Ryd( 5p)     0.00006       3.07352
   164    C   12  dxy    Ryd( 3d)     0.00114       2.29456
   165    C   12  dxz    Ryd( 3d)     0.00083       2.27694
   166    C   12  dyz    Ryd( 3d)     0.00012       1.84030
   167    C   12  dx2y2  Ryd( 3d)     0.00027       1.95997
   168    C   12  dz2    Ryd( 3d)     0.00089       2.20061

   169    H   13  S      Val( 1S)     0.80625       0.04708
   170    H   13  S      Ryd( 2S)     0.00069       0.78313
   171    H   13  S      Ryd( 3S)     0.00010       2.01787
   172    H   13  px     Ryd( 2p)     0.00018       2.16569
   173    H   13  py     Ryd( 2p)     0.00021       2.42161
   174    H   13  pz     Ryd( 2p)     0.00016       1.79912

   175    H   14  S      Val( 1S)     0.79386       0.06124
   176    H   14  S      Ryd( 2S)     0.00082       1.11672
   177    H   14  S      Ryd( 3S)     0.00013       1.65324
   178    H   14  px     Ryd( 2p)     0.00015       2.16694
   179    H   14  py     Ryd( 2p)     0.00024       2.45499
   180    H   14  pz     Ryd( 2p)     0.00013       1.80483

   181    H   15  S      Val( 1S)     0.80071       0.05462
   182    H   15  S      Ryd( 2S)     0.00088       1.16246
   183    H   15  S      Ryd( 3S)     0.00012       1.61132
   184    H   15  px     Ryd( 2p)     0.00018       2.09481
   185    H   15  py     Ryd( 2p)     0.00010       1.82800
   186    H   15  pz     Ryd( 2p)     0.00024       2.46121

   187    C   16  S      Cor( 1S)     1.99924      -9.99518
   188    C   16  S      Val( 2S)     1.07101      -0.22062
   189    C   16  S      Ryd( 4S)     0.00060       1.04657
   190    C   16  S      Ryd( 3S)     0.00012       0.70237
   191    C   16  S      Ryd( 5S)     0.00000      23.15083
   192    C   16  px     Val( 2p)     1.16369      -0.07801
   193    C   16  px     Ryd( 4p)     0.00254       0.57606
   194    C   16  px     Ryd( 3p)     0.00017       0.27998
   195    C   16  px     Ryd( 5p)     0.00004       3.08883
   196    C   16  py     Val( 2p)     1.20966      -0.07667
   197    C   16  py     Ryd( 4p)     0.00224       0.60157
   198    C   16  py     Ryd( 3p)     0.00013       0.29582
   199    C   16  py     Ryd( 5p)     0.00005       3.08607
   200    C   16  pz     Val( 2p)     1.11935      -0.07957
   201    C   16  pz     Ryd( 4p)     0.00241       0.57693
   202    C   16  pz     Ryd( 3p)     0.00029       0.25572
   203    C   16  pz     Ryd( 5p)     0.00006       3.07393
   204    C   16  dxy    Ryd( 3d)     0.00114       2.29359
   205    C   16  dxz    Ryd( 3d)     0.00083       2.27672
   206    C   16  dyz    Ryd( 3d)     0.00012       1.83943
   207    C   16  dx2y2  Ryd( 3d)     0.00027       1.96128
   208    C   16  dz2    Ryd( 3d)     0.00089       2.20128

   209    H   17  S      Val( 1S)     0.79359       0.06143
   210    H   17  S      Ryd( 2S)     0.00083       1.12754
   211    H   17  S      Ryd( 3S)     0.00013       1.64258
   212    H   17  px     Ryd( 2p)     0.00014       2.15340
   213    H   17  py     Ryd( 2p)     0.00024       2.46902
   214    H   17  pz     Ryd( 2p)     0.00013       1.80621

   215    H   18  S      Val( 1S)     0.80615       0.04712
   216    H   18  S      Ryd( 2S)     0.00069       0.78289
   217    H   18  S      Ryd( 3S)     0.00010       2.01759
   218    H   18  px     Ryd( 2p)     0.00018       2.17945
   219    H   18  py     Ryd( 2p)     0.00021       2.40864
   220    H   18  pz     Ryd( 2p)     0.00016       1.79690

   221    H   19  S      Val( 1S)     0.80109       0.05438
   222    H   19  S      Ryd( 2S)     0.00088       1.15261
   223    H   19  S      Ryd( 3S)     0.00012       1.62135
   224    H   19  px     Ryd( 2p)     0.00018       2.09383
   225    H   19  py     Ryd( 2p)     0.00010       1.82709
   226    H   19  pz     Ryd( 2p)     0.00024       2.46158

 WARNING:  Population inversion found on atom  C    3
           Population inversion found on atom  C    4
           Population inversion found on atom  C    5
           Population inversion found on atom  C   12
           Population inversion found on atom  C   16


 Summary of Natural Population Analysis:                  
                                                          
                                       Natural Population 
                Natural  -----------------------------------------------
    Atom  No    Charge         Core      Valence    Rydberg      Total
 -----------------------------------------------------------------------
      C    1    0.27579      1.99915     3.70102    0.02404     5.72421
      O    2   -0.62239      1.99975     6.60202    0.02063     8.62239
      C    3   -0.02804      1.99928     4.00745    0.02131     6.02804
      C    4   -0.42493      1.99931     4.41185    0.01377     6.42493
      C    5   -0.41386      1.99917     4.39720    0.01750     6.41386
      H    6    0.17111      0.00000     0.82655    0.00234     0.82889
      H    7    0.17114      0.00000     0.82652    0.00234     0.82886
      H    8    0.20652      0.00000     0.79154    0.00194     0.79348
      H    9    0.20650      0.00000     0.79156    0.00194     0.79350
      H   10    0.20905      0.00000     0.78950    0.00144     0.79095
      H   11    0.20908      0.00000     0.78948    0.00144     0.79092
      C   12   -0.57487      1.99924     4.56373    0.01190     6.57487
      H   13    0.19242      0.00000     0.80625    0.00133     0.80758
      H   14    0.20468      0.00000     0.79386    0.00147     0.79532
      H   15    0.19777      0.00000     0.80071    0.00152     0.80223
      C   16   -0.57484      1.99924     4.56371    0.01189     6.57484
      H   17    0.20495      0.00000     0.79359    0.00147     0.79505
      H   18    0.19252      0.00000     0.80615    0.00133     0.80748
      H   19    0.19740      0.00000     0.80109    0.00151     0.80260
 =======================================================================
   * Total *    0.00000     13.99513    41.86375    0.14112    56.00000

                                 Natural Population      
 --------------------------------------------------------
   Core                      13.99513 ( 99.9652% of  14)
   Valence                   41.86375 ( 99.6756% of  42)
   Natural Minimal Basis     55.85888 ( 99.7480% of  56)
   Natural Rydberg Basis      0.14112 (  0.2520% of  56)
 --------------------------------------------------------

    Atom  No          Natural Electron Configuration
 ----------------------------------------------------------------------------
      C    1      [core]2S( 0.90)2p( 2.80)3p( 0.01)3d( 0.01)
      O    2      [core]2S( 1.62)2p( 4.98)3p( 0.01)
      C    3      [core]2S( 1.02)2p( 2.99)3d( 0.01)4p( 0.01)
      C    4      [core]2S( 1.04)2p( 3.37)4p( 0.01)
      C    5      [core]2S( 1.02)2p( 3.37)4p( 0.01)
      H    6            1S( 0.83)
      H    7            1S( 0.83)
      H    8            1S( 0.79)
      H    9            1S( 0.79)
      H   10            1S( 0.79)
      H   11            1S( 0.79)
      C   12      [core]2S( 1.07)2p( 3.49)4p( 0.01)
      H   13            1S( 0.81)
      H   14            1S( 0.79)
      H   15            1S( 0.80)
      C   16      [core]2S( 1.07)2p( 3.49)4p( 0.01)
      H   17            1S( 0.79)
      H   18            1S( 0.81)
      H   19            1S( 0.80)


 NBO analysis skipped by request.
 Calling FoFJK, ICntrl=      2127 FMM=F ISym2X=0 I1Cent= 0 IOpClX= 0 NMat=1 NMatS=1 NMatT=0.
 ***** Axes restored to original set *****
 -------------------------------------------------------------------
 Center     Atomic                   Forces (Hartrees/Bohr)
 Number     Number              X              Y              Z
 -------------------------------------------------------------------
      1        6          -0.008500223   -0.027795929    0.000007138
      2        8           0.000878884    0.012221392   -0.000062706
      3        6           0.026730853   -0.007243029    0.000006666
      4        6           0.003626547    0.027932276   -0.000012123
      5        6          -0.021797664    0.009685379    0.000050006
      6        1          -0.005369238    0.001760430   -0.014413213
      7        1          -0.005368209    0.001755595    0.014416129
      8        1           0.000154255   -0.007222426   -0.013739686
      9        1           0.000159830   -0.007220906    0.013739385
     10        1           0.007035323   -0.002792986   -0.013459421
     11        1           0.007013493   -0.002806373    0.013471554
     12        6           0.004090399    0.010818730   -0.016790881
     13        1          -0.016314266   -0.002223795    0.002775102
     14        1           0.005398140   -0.013886884    0.001336353
     15        1           0.004548420    0.006115202    0.013908083
     16        6           0.004120051    0.010860509    0.016773516
     17        1           0.005541363   -0.013786055   -0.001350767
     18        1          -0.016322842   -0.002357344   -0.002693498
     19        1           0.004374885    0.006186213   -0.013961636
 -------------------------------------------------------------------
 Cartesian Forces:  Max     0.027932276 RMS     0.011004674

 GradGradGradGradGradGradGradGradGradGradGradGradGradGradGradGradGradGrad
 Berny optimization.
 FormGI is forming the generalized inverse of G from B-inverse, IUseBI=4.
 Internal  Forces:  Max     0.016483121 RMS     0.005936712
 Search for a local minimum.
 Step number   1 out of a maximum of  114
 All quantities printed in internal units (Hartrees-Bohrs-Radians)
 Mixed Optimization -- RFO/linear search
 Second derivative matrix not updated -- first step.
 ITU=  0
     Eigenvalues ---    0.00237   0.00237   0.00472   0.00823   0.02876
     Eigenvalues ---    0.03232   0.04446   0.04627   0.05175   0.05512
     Eigenvalues ---    0.05555   0.05720   0.05720   0.05720   0.05720
     Eigenvalues ---    0.05788   0.07266   0.07266   0.07894   0.08624
     Eigenvalues ---    0.10232   0.11592   0.11952   0.14569   0.16000
     Eigenvalues ---    0.16000   0.16000   0.16000   0.16000   0.16000
     Eigenvalues ---    0.17855   0.22231   0.28009   0.28519   0.28519
     Eigenvalues ---    0.29413   0.29933   0.31536   0.31536   0.31812
     Eigenvalues ---    0.31812   0.31812   0.31812   0.37230   0.37230
     Eigenvalues ---    0.37230   0.37230   0.37230   0.37230   0.39281
     Eigenvalues ---    0.39789
 RFO step:  Lambda=-1.24751877D-02 EMin= 2.36824163D-03
 Linear search not attempted -- first point.
 Iteration  1 RMS(Cart)=  0.02846856 RMS(Int)=  0.00030285
 Iteration  2 RMS(Cart)=  0.00033427 RMS(Int)=  0.00010722
 Iteration  3 RMS(Cart)=  0.00000013 RMS(Int)=  0.00010722
 Variable       Old X    -DE/DX   Delta X   Delta X   Delta X     New X
                                 (Linear)    (Quad)   (Total)
    R1        2.70301   0.00849   0.00000   0.02482   0.02497   2.72798
    R2        2.88176   0.01052   0.00000   0.03984   0.03995   2.92170
    R3        2.91018   0.00125   0.00000   0.00421   0.00421   2.91439
    R4        2.91018   0.00122   0.00000   0.00409   0.00409   2.91427
    R5        2.70301   0.00373   0.00000   0.00757   0.00757   2.71058
    R6        2.88176   0.00957   0.00000   0.02314   0.02299   2.90474
    R7        2.11700  -0.01466   0.00000  -0.04471  -0.04471   2.07229
    R8        2.11700  -0.01466   0.00000  -0.04472  -0.04472   2.07228
    R9        2.87722   0.01505   0.00000   0.04519   0.04509   2.92232
   R10        2.11189  -0.01534   0.00000  -0.04642  -0.04642   2.06547
   R11        2.11189  -0.01534   0.00000  -0.04641  -0.04641   2.06548
   R12        2.11189  -0.01532   0.00000  -0.04635  -0.04635   2.06554
   R13        2.11189  -0.01532   0.00000  -0.04635  -0.04635   2.06554
   R14        2.02201   0.01647   0.00000   0.04280   0.04280   2.06481
   R15        2.02201   0.01486   0.00000   0.03862   0.03862   2.06063
   R16        2.02201   0.01575   0.00000   0.04093   0.04093   2.06294
   R17        2.02201   0.01483   0.00000   0.03854   0.03854   2.06055
   R18        2.02201   0.01648   0.00000   0.04284   0.04284   2.06485
   R19        2.02201   0.01577   0.00000   0.04098   0.04098   2.06299
    A1        1.90176  -0.00659   0.00000  -0.04623  -0.04601   1.85575
    A2        1.86435   0.00278   0.00000   0.01778   0.01738   1.88173
    A3        1.86435   0.00274   0.00000   0.01748   0.01707   1.88143
    A4        1.95828   0.00134   0.00000   0.00069   0.00069   1.95897
    A5        1.95828   0.00138   0.00000   0.00090   0.00090   1.95918
    A6        1.91198  -0.00155   0.00000   0.01047   0.01030   1.92228
    A7        1.92938   0.00977   0.00000   0.05161   0.05180   1.98118
    A8        1.90176  -0.00482   0.00000  -0.02116  -0.02122   1.88054
    A9        1.86435   0.00348   0.00000   0.03017   0.03019   1.89455
   A10        1.86435   0.00347   0.00000   0.03010   0.03013   1.89448
   A11        1.95794   0.00058   0.00000  -0.00127  -0.00120   1.95674
   A12        1.95794   0.00059   0.00000  -0.00125  -0.00117   1.95677
   A13        1.91269  -0.00301   0.00000  -0.03317  -0.03354   1.87915
   A14        1.84594   0.00072   0.00000  -0.00246  -0.00274   1.84320
   A15        1.93220  -0.00016   0.00000   0.00206   0.00213   1.93433
   A16        1.93220  -0.00016   0.00000   0.00212   0.00220   1.93439
   A17        1.93810   0.00040   0.00000   0.00858   0.00866   1.94676
   A18        1.93810   0.00041   0.00000   0.00869   0.00877   1.94687
   A19        1.87820  -0.00116   0.00000  -0.01824  -0.01829   1.85990
   A20        1.84594   0.00093   0.00000   0.01825   0.01817   1.86411
   A21        1.93220  -0.00028   0.00000  -0.00341  -0.00351   1.92869
   A22        1.93220  -0.00029   0.00000  -0.00350  -0.00361   1.92859
   A23        1.93810   0.00028   0.00000   0.00309   0.00307   1.94117
   A24        1.93810   0.00028   0.00000   0.00321   0.00320   1.94130
   A25        1.87820  -0.00089   0.00000  -0.01710  -0.01714   1.86106
   A26        1.91063   0.00341   0.00000   0.02145   0.02132   1.93195
   A27        1.91063   0.00124   0.00000   0.00648   0.00641   1.91705
   A28        1.91063   0.00163   0.00000   0.00849   0.00842   1.91906
   A29        1.91063  -0.00205   0.00000  -0.01002  -0.01014   1.90049
   A30        1.91063  -0.00230   0.00000  -0.01188  -0.01202   1.89862
   A31        1.91063  -0.00192   0.00000  -0.01451  -0.01451   1.89613
   A32        1.91063   0.00112   0.00000   0.00573   0.00567   1.91631
   A33        1.91063   0.00341   0.00000   0.02144   0.02131   1.93194
   A34        1.91063   0.00173   0.00000   0.00912   0.00905   1.91968
   A35        1.91063  -0.00201   0.00000  -0.00986  -0.00997   1.90066
   A36        1.91063  -0.00191   0.00000  -0.01440  -0.01440   1.89623
   A37        1.91063  -0.00234   0.00000  -0.01203  -0.01217   1.89847
    D1        0.00000   0.00000   0.00000  -0.00007  -0.00007  -0.00007
    D2       -2.11913   0.00048   0.00000   0.01474   0.01493  -2.10420
    D3        2.11913  -0.00046   0.00000  -0.01481  -0.01499   2.10414
    D4        0.00000   0.00000   0.00000   0.00017   0.00017   0.00017
    D5       -2.10089  -0.00074   0.00000  -0.01269  -0.01267  -2.11357
    D6        2.10089   0.00074   0.00000   0.01312   0.01310   2.11399
    D7        2.06087   0.00000   0.00000  -0.00725  -0.00716   2.05371
    D8       -0.04002  -0.00074   0.00000  -0.02010  -0.02000  -0.06002
    D9       -2.12142   0.00074   0.00000   0.00571   0.00577  -2.11565
   D10       -2.06087   0.00003   0.00000   0.00783   0.00775  -2.05313
   D11        2.12142  -0.00071   0.00000  -0.00503  -0.00509   2.11633
   D12        0.04002   0.00077   0.00000   0.02078   0.02068   0.06070
   D13       -3.11021  -0.00309   0.00000  -0.02132  -0.02134  -3.13156
   D14       -1.01582  -0.00276   0.00000  -0.01649  -0.01649  -1.03231
   D15        1.07858  -0.00336   0.00000  -0.02510  -0.02516   1.05342
   D16        1.09005   0.00244   0.00000   0.02354   0.02355   1.11360
   D17       -3.09874   0.00277   0.00000   0.02836   0.02840  -3.07034
   D18       -1.00434   0.00217   0.00000   0.01976   0.01973  -0.98461
   D19       -1.09701   0.00084   0.00000   0.01400   0.01403  -1.08298
   D20        0.99739   0.00117   0.00000   0.01882   0.01888   1.01626
   D21        3.09178   0.00058   0.00000   0.01022   0.01021   3.10199
   D22        0.99766   0.00283   0.00000   0.02056   0.02056   1.01822
   D23        3.09206   0.00315   0.00000   0.02512   0.02514   3.11719
   D24       -1.09673   0.00342   0.00000   0.02910   0.02917  -1.06756
   D25        3.08058  -0.00270   0.00000  -0.02437  -0.02440   3.05618
   D26       -1.10821  -0.00238   0.00000  -0.01981  -0.01982  -1.12803
   D27        0.98619  -0.00210   0.00000  -0.01582  -0.01579   0.97040
   D28       -1.01554  -0.00112   0.00000  -0.01495  -0.01500  -1.03055
   D29        1.07885  -0.00081   0.00000  -0.01039  -0.01042   1.06843
   D30       -3.10994  -0.00053   0.00000  -0.00641  -0.00639  -3.11633
   D31        0.00000   0.00000   0.00000  -0.00005  -0.00005  -0.00005
   D32        2.11872   0.00002   0.00000   0.00420   0.00391   2.12264
   D33       -2.11872  -0.00002   0.00000  -0.00430  -0.00401  -2.12273
   D34        0.00000   0.00000   0.00000   0.00015   0.00015   0.00015
   D35        2.10089   0.00083   0.00000   0.01011   0.01008   2.11097
   D36       -2.10089  -0.00083   0.00000  -0.00997  -0.00995  -2.11084
   D37       -2.06067  -0.00154   0.00000  -0.02279  -0.02274  -2.08340
   D38        0.04022  -0.00072   0.00000  -0.01284  -0.01281   0.02742
   D39        2.12163  -0.00238   0.00000  -0.03292  -0.03284   2.08879
   D40        2.06067   0.00155   0.00000   0.02303   0.02298   2.08364
   D41       -2.12163   0.00238   0.00000   0.03298   0.03290  -2.08872
   D42       -0.04022   0.00071   0.00000   0.01290   0.01287  -0.02735
   D43        0.00000   0.00000   0.00000  -0.00019  -0.00019  -0.00019
   D44        2.09703   0.00037   0.00000   0.00852   0.00855   2.10558
   D45       -2.09703  -0.00037   0.00000  -0.00885  -0.00889  -2.10592
   D46       -2.09703  -0.00047   0.00000  -0.00589  -0.00587  -2.10290
   D47        0.00000  -0.00009   0.00000   0.00282   0.00287   0.00287
   D48        2.08912  -0.00084   0.00000  -0.01456  -0.01456   2.07455
   D49        2.09703   0.00046   0.00000   0.00565   0.00563   2.10266
   D50       -2.08912   0.00084   0.00000   0.01436   0.01436  -2.07475
   D51        0.00000   0.00009   0.00000  -0.00301  -0.00307  -0.00307
         Item               Value     Threshold  Converged?
 Maximum Force            0.016483     0.000450     NO 
 RMS     Force            0.005937     0.000300     NO 
 Maximum Displacement     0.068803     0.001800     NO 
 RMS     Displacement     0.028419     0.001200     NO 
 Predicted change in Energy=-6.569383D-03
 GradGradGradGradGradGradGradGradGradGradGradGradGradGradGradGradGradGrad

                          Input orientation:                          
 ---------------------------------------------------------------------
 Center     Atomic      Atomic             Coordinates (Angstroms)
 Number     Number       Type             X           Y           Z
 ---------------------------------------------------------------------
      1          6           0       -0.449938   -0.405824   -0.000022
      2          8           0        0.992918   -0.359920   -0.000307
      3          6           0        1.523070    0.972886   -0.000262
      4          6           0        0.335934    1.949338    0.000015
      5          6           0       -0.931529    1.063357    0.000351
      6          1           0        2.158628    1.095492    0.884940
      7          1           0        2.158333    1.095597   -0.885655
[...]
 9334098,-0.01587927,-0.03206373,0.01066475,0.01055038,-0.05287234,0.00
 915696,0.03824039,-0.09580246,0.01883301,0.00627435,0.58567913,-0.0039
 3208,0.00165798,0.00374617,0.00383687,-0.00668621,0.00666826,-0.030047
 53,0.02251542,-0.09749750,0.00240512,0.03066427,0.58020145,-0.07520693
 ,0.01462020,0.00030523,-0.03515819,0.02267299,0.00460072,-0.04469724,0
 .00129881,0.00680392,-0.13308108,-0.04024263,0.02620215,0.56086106,0.0
 1918178,-0.13717920,-0.00648858,0.01866282,-0.00742665,0.00055387,0.00
 524704,0.00728160,-0.00444304,-0.03991939,-0.09607249,0.01250252,-0.04
 036894,0.39587601,0.00269457,-0.01181931,-0.08235942,-0.00196521,0.000
 59186,0.00305572,-0.00761182,-0.00507936,0.00730283,0.02383181,0.01575
 300,-0.09044749,0.03624973,0.01558177,0.58668224,0.00115433,-0.0001361
 1,-0.00138277,-0.00090918,-0.00963298,-0.01188615,-0.06311383,-0.00296
 754,-0.03489323,-0.00334648,-0.00079206,-0.02405638,0.00126760,-0.0000
 1307,-0.00051486,0.06231572,0.00470698,-0.00072802,-0.00309889,-0.0154
 6885,-0.02242455,-0.03234001,-0.00310222,-0.04637135,-0.02327022,0.003
 66767,0.00189462,0.02142728,-0.00087461,0.00016679,-0.00005064,0.00851
 976,0.06476026,0.00244851,-0.00004446,-0.00043041,-0.00553057,-0.01286
 500,0.00373476,-0.03618629,-0.02273337,-0.27743377,-0.00077675,0.00080
 733,-0.01046403,0.00027370,-0.00053396,0.00029771,0.04611404,0.0343073
 6,0.29942844,0.00104121,-0.00087469,0.00119594,-0.01045376,-0.00709401
 ,0.00146478,-0.23277944,-0.01858988,0.11460293,-0.01454278,-0.00231449
 ,0.01072868,-0.00231102,0.00138374,-0.00176825,0.00568773,0.00127472,-
 0.00227064,0.25501349,0.00213429,-0.00527041,0.00249387,-0.03684045,-0
 .01346000,0.01052515,-0.01157659,-0.04682442,0.00949669,0.01648060,0.0
 0574396,-0.01132043,0.00302934,-0.00316056,0.00191435,0.00303327,0.003
 01331,-0.00070200,0.02697693,0.05862445,-0.00232939,-0.00100214,-0.000
 08676,-0.00674056,0.00084002,0.00714736,0.12046199,0.01264902,-0.12618
 733,-0.01077684,-0.00150094,0.00567290,-0.00191121,0.00036311,-0.00010
 315,0.02663168,0.00173277,-0.01734913,-0.12410360,-0.01219198,0.128988
 02,-0.00654491,-0.00114119,0.00159135,-0.00215114,0.00618502,-0.001795
 80,0.00478806,0.01994942,0.01235439,-0.04624243,-0.00779810,-0.0051874
 1,0.00054017,-0.02566824,-0.01049387,0.00121307,-0.00079751,-0.0002052
 0,-0.00084321,-0.00027660,0.00016304,0.04738030,0.00021320,-0.00061643
 ,0.00070313,0.00067829,-0.00356263,0.00162897,-0.00471758,-0.01236655,
 -0.00802733,-0.00728438,-0.26588460,-0.09588041,0.00114378,-0.01075270
 ,-0.00471920,-0.00014563,0.00080921,0.00074643,0.00064245,-0.00032673,
 0.00021099,0.00945087,0.28955882,0.00067539,0.00205958,-0.00047211,-0.
 00012970,0.00355614,0.00073100,0.00201856,0.00874143,0.00290352,-0.005
 07948,-0.09946152,-0.09107725,-0.00008913,0.01002802,0.00265285,0.0004
 8640,-0.00008906,0.00056108,-0.00014598,-0.00018924,0.00008023,0.00376
 381,0.10423346,0.09552176,-0.00049194,0.00055598,0.00045221,0.00137659
 ,-0.00078594,0.00153904,-0.00257727,0.00118449,-0.02977744,-0.04463135
 ,-0.00013306,0.00623512,-0.00322149,-0.00134446,0.02913951,-0.00326601
 ,0.00424431,-0.00175700,0.00106259,-0.00114676,0.00011317,-0.00029509,
 0.00018899,-0.00096870,0.05406084,-0.00024044,0.00045448,0.00063769,0.
 00027037,0.00083892,-0.00121904,-0.00027620,-0.00105130,0.01894076,-0.
 00070480,-0.05301793,0.01684745,-0.00011250,-0.00083152,0.01524449,0.0
 0220778,-0.00135442,0.00119022,-0.00049352,0.00075144,-0.00048486,0.00
 056922,0.00337732,-0.02966986,0.00070774,0.05157687,0.00000790,-0.0003
 6574,-0.00037709,0.00084495,0.00084639,0.00139341,-0.00140196,-0.00100
 308,-0.01083171,0.00549931,0.01839220,-0.30303446,0.00140182,0.0001859
 3,-0.00846493,-0.00146957,0.00148546,0.00105427,-0.00033519,-0.0000535
 1,0.00124306,0.00010867,0.00061534,-0.01230737,-0.00594833,-0.02149371
 ,0.32865545,-0.00135122,0.00106360,0.00775984,-0.00109999,0.00059715,-
 0.00087602,0.00118339,0.00032626,0.00095063,-0.00514286,0.00399652,0.0
 2564482,-0.06070775,0.01210518,0.04638456,-0.00049579,0.00012055,-0.00
 049487,0.00004658,-0.00017535,-0.00039220,0.00153865,0.00026350,-0.000
 43586,-0.00382864,-0.00202588,0.00124502,0.06248329,0.00395452,-0.0080
 9622,-0.03010848,0.00106516,-0.00089349,0.00081073,0.00027683,-0.00011
 583,-0.00023170,-0.00470191,0.00169972,0.02026705,0.01209118,-0.055396
 85,-0.04977099,0.00008332,0.00038473,-0.00019574,0.00008270,-0.0000985
 8,-0.00011627,0.00099596,0.00077771,0.00030082,-0.00419306,-0.00102192
 ,0.00121793,-0.01005000,0.06612130,-0.00097115,-0.00018844,-0.00335139
 ,0.00055618,-0.00025671,0.00019048,-0.00054673,-0.00037817,-0.00019941
 ,0.00188108,-0.00016359,-0.00939004,0.04689913,-0.05130342,-0.28291858
 ,0.00038760,-0.00022346,0.00042855,0.00015623,0.00000622,0.00025337,-0
 .00007152,0.00044248,0.00102307,0.00170215,0.00097123,0.00106020,-0.05
 391438,0.05327306,0.30672713,-0.00538705,-0.00086935,-0.00332953,-0.00
 137189,0.00026554,0.00014155,-0.00341218,-0.00167705,0.00215505,-0.017
 39362,0.00593257,-0.01254682,-0.21951033,0.04297300,-0.11717946,0.0001
 0759,-0.00012843,-0.00012160,-0.00080803,0.00095046,-0.00039647,-0.000
 49033,-0.00044813,-0.00002123,0.00135666,0.00046941,0.00025438,0.00640
 619,-0.00157119,0.00331664,0.23945137,0.02241633,-0.00283384,0.0166811
 6,0.00532382,-0.00287610,-0.00059488,-0.00318854,-0.00505167,0.0013027
 8,-0.01590325,0.00486280,-0.01127371,0.04188251,-0.05568060,0.02698293
 ,0.00020157,0.00000470,0.00012150,-0.00048928,0.00100872,-0.00015703,-
 0.00010312,-0.00025530,-0.00026137,0.00124629,0.00091209,0.00000894,-0
 .00564799,0.00131808,-0.00355378,-0.04537667,0.05960842,0.00307169,-0.
 00086748,0.00062536,0.00238584,-0.00066552,-0.00002788,0.00220515,0.00
 031421,-0.00023549,0.01017014,-0.00282216,0.00570270,-0.12066816,0.028
 38503,-0.12770805,0.00033579,-0.00010185,0.00024987,0.00036326,-0.0002
 7883,0.00028888,-0.00028013,0.00010289,0.00004185,-0.00022608,-0.00051
 751,0.00115649,-0.02567488,0.00601362,-0.01683151,0.12747325,-0.029203
 80,0.13569098,-0.07201650,-0.00788271,0.01296299,-0.03321625,-0.025814
 47,0.02792243,-0.00222862,0.00335915,0.00485112,-0.00133559,0.00207044
 ,-0.00014264,0.00561444,0.00448999,-0.00686598,0.00015564,-0.00015923,
 -0.00086776,-0.00083579,-0.00177362,-0.00049483,0.00073046,0.00004440,
 -0.00008477,0.00009296,-0.00001249,-0.00002703,0.00079696,0.00001787,-
 0.00015289,-0.00020226,0.00039320,-0.00053125,0.55982881,-0.01334449,-
 0.11147254,0.04572776,-0.00461978,0.00099559,0.00237595,0.00053679,-0.
 00073395,0.00019871,0.00163890,-0.00366632,0.00015499,-0.00773179,-0.0
 2401109,0.02218545,-0.00010290,-0.00007427,-0.00001736,-0.00021026,0.0
 0021200,-0.00013378,-0.00095435,-0.00052225,0.00032876,-0.00024703,-0.
 00016920,0.00019756,-0.00064915,0.00091374,0.00225520,0.00040672,-0.00
 142342,0.00029749,-0.01770547,0.53998280,0.01781305,0.04712074,-0.1441
 6653,0.00794864,0.00098850,0.00126780,-0.00028034,-0.00029726,0.000676
 47,-0.00009379,-0.00153355,-0.00048687,-0.00217886,0.00197843,0.001842
 38,-0.00014417,-0.00013887,-0.00041676,-0.00013441,-0.00013809,-0.0001
 7735,-0.00035114,-0.00023693,0.00017139,-0.00017921,-0.00003667,0.0000
 2161,0.00059811,-0.00188370,0.00080611,0.00045265,-0.00071701,-0.00012
 132,0.02665732,0.05144967,0.50791354,-0.00907231,0.00150628,-0.0024439
 0,-0.00073561,-0.00270627,0.00221261,0.00033383,0.00143391,0.00082358,
 -0.00028381,-0.00030566,-0.00021824,0.00082047,0.00048988,0.00016872,0
 .00002798,-0.00003545,-0.00020404,-0.00005328,-0.00031809,0.00000639,0
 .00008057,-0.00006713,0.00001055,0.00009622,0.00004400,-0.00000259,-0.
 00007100,-0.00036455,-0.00019690,0.00015204,-0.00030769,0.00018140,-0.
 30191503,-0.00678322,0.02043528,0.33045171,-0.01708368,-0.00078180,-0.
 00164889,-0.00347502,-0.00214745,0.00392361,-0.00027038,0.00118015,0.0
 0044877,0.00005821,0.00026768,-0.00023071,0.00021869,0.00073034,0.0000
 2912,0.00007663,-0.00006669,-0.00017132,-0.00015721,-0.00033402,-0.000
 10375,0.00006387,-0.00000988,-0.00000032,0.00010477,0.00004330,-0.0000
 2825,-0.00004253,-0.00022690,-0.00038872,0.00003301,-0.00029811,0.0002
 0317,-0.00587837,-0.04746510,0.00135460,0.00787037,0.04740157,0.022956
 77,-0.00261583,0.00056381,0.00445565,0.00432065,-0.00227694,0.00056563
 ,-0.00100876,-0.00138852,0.00005159,-0.00014625,-0.00000908,-0.0003035
 0,-0.00062205,0.00057715,0.00004848,0.00016346,0.00016772,0.00020637,0
 .00054101,0.00010554,-0.00011235,0.00002387,-0.00001332,0.00001708,0.0
 0000075,-0.00000571,-0.00022615,0.00003623,0.00008336,-0.00011082,0.00
 032929,-0.00008326,0.01839671,0.00128851,-0.04966648,-0.02176905,-0.00
 239916,0.05019560,0.00172078,-0.00913528,-0.00064962,0.00123835,0.0002
 2812,-0.00067292,-0.00005421,-0.00026628,-0.00022435,-0.00005721,-0.00
 025089,-0.00004686,0.00071247,-0.00088847,0.00134755,0.00002727,0.0000
 6843,0.00008969,0.00003738,0.00003014,0.00004231,-0.00008051,-0.000051
 07,0.00002849,0.00005742,0.00002641,-0.00000830,-0.00009849,-0.0000768
 9,0.00006064,-0.00003515,-0.00046523,0.00022195,-0.07742726,0.08472103
 ,0.00947772,-0.00985297,0.03039838,0.00369698,0.07950439,0.00719175,-0
 .01885368,-0.00271845,0.00021117,0.00201975,-0.00046528,-0.00009218,-0
 .00049953,-0.00027376,0.00062180,-0.00052136,0.00008655,-0.00161648,-0
 .00056604,0.00283224,0.00004035,0.00006381,0.00005425,-0.00003224,0.00
 010107,0.00003625,-0.00027864,-0.00006686,0.00008274,-0.00020034,-0.00
 011633,0.00007813,-0.00015722,0.00054856,0.00033428,0.00011411,-0.0005
 6474,0.00030366,0.08312449,-0.27435423,-0.02775866,-0.00058249,0.00258
 774,0.00021259,-0.09197648,0.29910766,-0.00987987,0.02535865,0.0022265
 3,-0.00152422,-0.00156695,0.00052100,-0.00021829,0.00013897,0.00009538
 ,-0.00052962,0.00119189,0.00043362,0.00253102,0.00171374,-0.00362214,0
 .00004370,-0.00002592,0.00005432,0.00001958,-0.00010239,0.00005875,0.0
 0040092,0.00021172,-0.00012723,-0.00002454,-0.00002316,-0.00003642,0.0
 0000236,0.00015466,0.00029387,-0.00014943,0.00030098,0.00010789,0.0105
 4334,-0.02941383,-0.05134473,0.00043815,-0.00204786,-0.00140477,-0.011
 92486,0.02887369,0.05420457,0.00156776,0.00309047,0.00878517,0.0012154
 6,0.00108001,-0.00041535,0.00011092,-0.00042728,0.00015125,0.00008301,
 0.00007560,0.00022261,-0.00003337,0.00019334,-0.00061756,-0.00007398,-
 0.00010887,0.00009389,0.00000733,0.00007198,-0.00003669,-0.00000034,0.
 00004919,-0.00002125,-0.00009935,-0.00003199,0.00001985,-0.00002733,0.
 00040097,0.00003470,0.00002155,0.00002340,0.00010384,-0.08407513,-0.03
 812643,-0.08496452,-0.01090004,-0.01241057,-0.02721298,0.00414758,0.00
 397185,0.01033772,0.08745001,0.00783898,0.00560199,0.01615517,0.001356
 13,0.00071839,-0.00111333,0.00005167,-0.00002009,-0.00007672,0.0000065
 5,0.00003724,-0.00001810,0.00033283,0.00146358,0.00112155,-0.00019382,
 -0.00009221,0.00011694,0.00002896,0.00004221,-0.00006058,0.00000274,0.
 00001199,-0.00001626,0.00007507,0.00001284,-0.00002498,0.00012638,-0.0
 0021950,-0.00007966,-0.00012146,0.00004692,-0.00004139,-0.03908902,-0.
 08623585,-0.08587883,0.00014053,-0.00128858,0.00015997,-0.01254066,-0.
 01062962,-0.02489139,0.04319455,0.09156069,-0.01159691,-0.01101619,-0.
 02370402,-0.00033987,-0.00052372,0.00340825,0.00021419,0.00027122,-0.0
 0064458,-0.00005982,0.00020123,0.00025995,0.00094964,-0.00167879,0.000
 29786,0.00022243,0.00025565,0.00012097,0.00002089,0.00006579,0.0001251
 0,0.00011192,0.00005511,-0.00002423,-0.00010816,-0.00013257,0.00012100
 ,-0.00043829,0.00093380,0.00074119,0.00000301,-0.00022863,0.00042364,-
 0.08293530,-0.08396103,-0.23055205,0.00109589,0.00187017,0.00331262,-0
 .00078129,-0.00107770,-0.00256709,0.09166228,0.09094932,0.25286351,-0.
 07217046,-0.00664674,-0.01836731,-0.03592158,-0.02245761,-0.02965368,-
 0.00340097,0.00399845,-0.00313060,-0.00037077,0.00062169,0.00048215,0.
 00398701,0.00324348,0.00911434,-0.00061337,-0.00160097,-0.00062052,-0.
 00023521,-0.00057514,-0.00024194,0.00027843,0.00005429,-0.00009594,0.0
 0019385,-0.00028209,-0.00013514,0.00018042,0.00261322,0.00102387,0.000
 59865,0.00053999,0.00022149,0.00665511,0.00367854,0.00497426,-0.000353
 77,0.00023502,-0.00010314,0.00002147,0.00002525,-0.00033606,-0.0003584
 1,-0.00109495,0.00242161,0.56235476,-0.01019376,-0.09605428,-0.0354028
 1,-0.00593549,0.00126966,-0.00292933,0.00000950,-0.00108996,-0.0003828
 2,-0.00031085,-0.00033003,-0.00069570,-0.00534333,-0.01651261,-0.02809
 528,-0.00012860,-0.00004629,-0.00004190,-0.00010569,0.00006911,-0.0000
 4630,-0.00013150,-0.00021757,0.00042758,-0.00023034,-0.00035461,0.0002
 6423,0.00003882,-0.00495557,-0.00070024,-0.00113100,0.00127585,-0.0014
 1490,0.00600142,0.00821364,0.01616440,0.00000973,0.00013607,-0.0004450
 6,0.00006059,0.00049992,0.00081079,-0.00092835,-0.00172736,0.00459385,
 -0.01501593,0.55381746,-0.02366043,-0.03495366,-0.15826893,-0.00608158
 ,-0.00059702,0.00297087,0.00088880,-0.00001696,-0.00058078,-0.00042121
 ,0.00017812,0.00078657,0.00120780,-0.00715634,-0.00413520,-0.00001474,
 0.00021962,-0.00000329,0.00021160,0.00025105,0.00007776,0.00021317,0.0
 0005994,-0.00022128,0.00012052,0.00033230,-0.00046444,-0.00053421,0.00
 051246,0.00085104,-0.00072018,0.00065676,0.00046823,-0.00690024,-0.008
 26185,-0.03375632,-0.00053215,-0.00064459,0.00050609,-0.00041842,-0.00
 137122,0.00149397,0.00135733,0.00245885,-0.00324754,-0.03177448,-0.042
 85355,0.49312178,0.00298916,-0.00980957,-0.00216307,0.00128699,-0.0000
 3882,0.00053537,0.00009301,-0.00022224,0.00000599,0.00006183,0.0000250
 5,0.00026159,-0.00021540,-0.00042949,-0.00213941,0.00004839,0.00011758
 ,0.00007188,0.00000230,0.00001749,-0.00000804,0.00001458,0.00000226,0.
 00004467,-0.00000863,0.00003781,-0.00003346,0.00016928,-0.00055588,-0.
 00005360,0.00023359,-0.00022143,0.00009854,-0.00019053,0.00005663,0.00
 052906,0.00006456,0.00013038,0.00002533,0.00028704,-0.00006395,0.00023
 775,-0.00000198,-0.00020466,0.00006154,-0.09778090,0.10464806,0.015040
 45,0.10228412,0.00636335,-0.01416423,-0.00155378,0.00009201,0.00186556
 ,0.00081105,-0.00009400,-0.00051017,0.00034212,0.00026890,0.00013856,-
 0.00002485,-0.00069854,0.00062693,-0.00293113,0.00003548,0.00020606,0.
 00005076,-0.00005707,0.00002542,-0.00001668,-0.00011698,-0.00001173,-0
 .00001411,0.00001169,0.00006851,-0.00001947,-0.00011055,-0.00092929,-0
 .00033588,-0.00025235,0.00042116,0.00005401,-0.00025936,0.00026195,0.0
 0101564,-0.00011588,0.00007574,0.00010444,0.00007173,0.00090499,-0.000
 35440,-0.00018371,0.00017968,0.00001726,0.10301910,-0.25412999,-0.0279
 7887,-0.11382842,0.27563881,0.01341550,-0.02692785,-0.00415887,0.00157
 048,0.00198331,0.00107379,-0.00001578,-0.00028376,0.00035636,0.0002403
 7,-0.00036309,-0.00044604,-0.00196736,-0.00098764,-0.00437970,0.000065
 42,0.00013367,0.00006520,-0.00002618,0.00003990,-0.00001028,-0.0002472
 6,-0.00009861,0.00017109,-0.00015339,-0.00011782,0.00012216,0.00012971
 ,-0.00145688,-0.00013124,0.00004704,0.00019162,-0.00001519,0.00043370,
 -0.00106366,0.00150642,-0.00007759,0.00001915,-0.00009050,-0.00013277,
 0.00073246,-0.00059732,-0.00020311,0.00030989,0.00029041,0.01325917,-0
 .02651815,-0.05049428,-0.01465227,0.03226991,0.05449605,-0.00963153,0.
 00069292,0.00364630,-0.00126577,-0.00269587,-0.00244756,0.00021291,0.0
 0163336,-0.00080932,0.00018107,-0.00009790,0.00029442,0.00001427,0.000
 56563,-0.00034366,-0.00019640,-0.00053225,-0.00012198,-0.00002423,-0.0
 0008279,0.00002878,0.00007784,-0.00003856,-0.00003331,0.00003103,0.000
 06356,-0.00003939,0.00017953,-0.00018028,-0.00002474,0.00053527,-0.000
 38703,0.00031315,-0.00008273,0.00011999,0.00084098,0.00085193,0.000089
 79,-0.00029223,-0.00007684,-0.00006876,-0.00009494,0.00038163,0.000035
 11,-0.00003709,-0.30019186,-0.03258936,0.00105994,-0.01277061,-0.00229
 064,0.00018304,0.32832292,-0.01207952,-0.00299595,0.00215659,-0.002385
 43,-0.00054080,-0.00292820,-0.00010242,0.00079839,0.00001914,-0.000053
 27,-0.00010237,0.00024627,-0.00046234,0.00058506,0.00027814,-0.0000985
 6,-0.00014799,-0.00010534,-0.00003081,-0.00013511,-0.00003563,-0.00001
 691,0.00001146,-0.00010379,0.00010041,0.00004784,-0.00014361,0.0002345
 3,0.00001276,0.00010900,0.00028039,-0.00055730,0.00001954,-0.00000639,
 0.00022499,0.00069464,0.00014050,0.00033206,0.00002163,0.00022344,0.00
 001105,-0.00003995,0.00006349,-0.00019031,0.00006325,-0.03178659,-0.05
 121910,-0.00008720,0.02864786,0.00554824,0.00010526,0.03620467,0.05099
 586,-0.02492206,-0.00092449,0.00312038,-0.00530445,-0.00439373,-0.0033
 7076,-0.00077733,0.00130252,-0.00068428,0.00006380,0.00035035,-0.00007
 917,0.00009345,0.00071543,0.00035128,-0.00011961,-0.00040796,-0.000173
 90,-0.00013017,-0.00024507,-0.00008397,0.00008790,-0.00002571,0.000086
 48,0.00003603,-0.00008263,0.00016249,0.00012276,0.00001508,0.00003167,
 0.00026892,-0.00018589,0.00017467,0.00025018,0.00028742,0.00069613,-0.
 00004130,-0.00003941,-0.00088925,-0.00002329,0.00012029,-0.00009027,0.
 00022755,-0.00006155,0.00042783,0.00392292,-0.00000333,-0.04896389,0.0
 0373453,0.00106680,-0.00117567,-0.00221068,0.00090487,0.04982715,0.000
 59473,0.00627831,-0.00830187,0.00120999,0.00092131,0.00050408,-0.00000
 669,-0.00040821,-0.00023797,0.00001669,0.00002705,-0.00013556,0.000325
 33,0.00009619,0.00056931,0.00000973,0.00008840,0.00006549,-0.00001185,
 0.00004089,-0.00001560,0.00000582,0.00002127,0.00007748,0.00009161,-0.
 00021638,0.00001908,-0.00016122,0.00011204,-0.00008631,-0.00025205,0.0
 0006313,0.00023499,-0.00034871,-0.00068372,-0.00140066,0.00035851,0.00
 003863,-0.00029040,-0.00007149,-0.00023201,0.00012727,0.00058468,0.000
 05507,-0.00046668,-0.06287243,-0.03872393,0.05095803,0.00343319,0.0081
 4523,-0.01186873,-0.00654842,-0.01887303,0.02472085,0.06364257,0.00348
 570,0.00728547,-0.01202672,0.00157991,0.00051709,0.00032459,-0.0000749
 5,0.00005136,0.00003170,-0.00007541,0.00000991,-0.00023966,0.00016084,
 0.00086002,-0.00004900,0.00001311,0.00000227,0.00001565,0.00005966,0.0
 0001813,0.00001780,0.00006603,0.00004671,0.00004702,-0.00013875,-0.000
 16638,-0.00015976,-0.00001383,0.00017757,0.00018060,0.00015042,0.00008
 233,0.00021983,-0.00091984,-0.00067648,-0.00214705,-0.00004877,-0.0001
 3612,0.00003470,-0.00017700,0.00032784,-0.00028923,0.00000233,0.000727
 98,-0.00065802,-0.03856899,-0.13864433,0.11925215,-0.00830866,-0.01621
 618,0.02203230,-0.00044158,-0.00267876,0.00160702,0.04324977,0.1484115
 8,0.00916311,0.01795861,-0.02354314,0.00067445,-0.00065325,0.00315964,
 -0.00036372,0.00012163,-0.00018795,-0.00006173,-0.00020201,-0.00053969
 ,-0.00040009,0.00120597,0.00107865,0.00014594,0.00002161,0.00010841,-0
 .00005584,-0.00011249,-0.00004300,-0.00005050,-0.00004614,0.00029849,-
 0.00021199,-0.00038703,0.00053200,0.00014905,0.00022833,0.00033211,0.0
 0046302,-0.00039985,0.00009213,-0.00301514,-0.00389598,-0.00421345,0.0
 0011318,-0.00014561,0.00031595,-0.00008266,-0.00008206,0.00030003,0.00
 047526,0.00099108,-0.00165283,0.04903900,0.11726853,-0.20014034,-0.001
 59684,-0.00250283,0.00341759,0.00008830,-0.00117460,0.00063306,-0.0544
 7281,-0.12819390,0.22005233\\-0.00000429,0.00000450,0.00000066,0.00000
 036,-0.00000338,-0.00000354,0.00000225,-0.00000701,-0.00000183,0.00000
 697,0.00000062,-0.00000385,0.00000220,-0.00000378,0.00000083,0.0000049
 2,-0.00000464,-0.00000298,0.00000281,-0.00000832,-0.00000454,0.0000080
 1,-0.00000214,-0.00000208,0.00000401,-0.00000293,-0.00000232,0.0000051
 7,0.00000401,0.00000096,0.00000242,0.00000509,0.00000175,-0.00000253,0
 .00000282,0.00000106,-0.00000307,0.00000590,0.00000384,-0.00000627,0.0
 0000148,0.00000205,-0.00000016,0.00000202,0.00000110,-0.00000378,0.000
 00170,0.00000340,-0.00000849,-0.00000047,0.00000159,-0.00000572,0.0000
 0454,0.00000316,-0.00000481,0.,0.00000075\\\@


 THERE IS NOTHING NOBLE IN BEING SUPERIOR TO SOME OTHER MAN.
 TRUE NOBILITY IS BEING SUPERIOR TO YOUR FORMER SELF.

                                                   -- HINDU PROVERB
 Job cpu time:       0 days  0 hours 32 minutes 38.8 seconds.
 File lengths (MBytes):  RWF=    144 Int=      0 D2E=      0 Chk=      5 Scr=      1
 Normal termination of Gaussian 09 at Tue Nov  2 17:19:53 2021.
