 Entering Gaussian System, Link 0=g09
 Initial command:
 /cm/shared/apps/gaussian/g09revD.01/g09/l1.exe "//home/sweav003/CHB/CHActivation_Mkhalid/OtherCharges/G09-Table4_7.com.o9447119.tmp/Gau-62245.inp" -scrdir="//home/sweav003/CHB/CHActivation_Mkhalid/OtherCharges/G09-Table4_7.com.o9447119.tmp/"
 Entering Link 1 = /cm/shared/apps/gaussian/g09revD.01/g09/l1.exe PID=     62246.
  
 Copyright (c) 1988,1990,1992,1993,1995,1998,2003,2009,2013,
            Gaussian, Inc.  All Rights Reserved.
  
 This is part of the Gaussian(R) 09 program.  It is based on
 the Gaussian(R) 03 system (copyright 2003, Gaussian, Inc.),
 the Gaussian(R) 98 system (copyright 1998, Gaussian, Inc.),
 the Gaussian(R) 94 system (copyright 1995, Gaussian, Inc.),
 the Gaussian 92(TM) system (copyright 1992, Gaussian, Inc.),
 the Gaussian 90(TM) system (copyright 1990, Gaussian, Inc.),
 the Gaussian 88(TM) system (copyright 1988, Gaussian, Inc.),
 the Gaussian 86(TM) system (copyright 1986, Carnegie Mellon
 University), and the Gaussian 82(TM) system (copyright 1983,
 Carnegie Mellon University). Gaussian is a federally registered
 trademark of Gaussian, Inc.
  
 This software contains proprietary and confidential information,
 including trade secrets, belonging to Gaussian, Inc.
  
 This software is provided under written license and may be
 used, copied, transmitted, or stored only in accord with that
 written license.
  
 The following legend is applicable only to US Government
 contracts under FAR:
  
                    RESTRICTED RIGHTS LEGEND
  
 Use, reproduction and disclosure by the US Government is
 subject to restrictions as set forth in subparagraphs (a)
 and (c) of the Commercial Computer Software - Restricted
 Rights clause in FAR 52.227-19.
  
 Gaussian, Inc.
 340 Quinnipiac St., Bldg. 40, Wallingford CT 06492
  
  
 ---------------------------------------------------------------
 Warning -- This program may not be used in any manner that
 competes with the business of Gaussian, Inc. or will provide
 assistance to any competitor of Gaussian, Inc.  The licensee
 of this program is prohibited from giving any competitor of
 Gaussian, Inc. access to this program.  By using this program,
 the user acknowledges that Gaussian, Inc. is engaged in the
 business of creating and licensing software in the field of
 computational chemistry and represents and warrants to the
 licensee that it is not a competitor of Gaussian, Inc. and that
 it will not use this program in any manner prohibited above.
 ---------------------------------------------------------------
  

 Cite this work as:
 Gaussian 09, Revision D.01,
 M. J. Frisch, G. W. Trucks, H. B. Schlegel, G. E. Scuseria, 
 M. A. Robb, J. R. Cheeseman, G. Scalmani, V. Barone, B. Mennucci, 
 G. A. Petersson, H. Nakatsuji, M. Caricato, X. Li, H. P. Hratchian, 
 A. F. Izmaylov, J. Bloino, G. Zheng, J. L. Sonnenberg, M. Hada, 
 M. Ehara, K. Toyota, R. Fukuda, J. Hasegawa, M. Ishida, T. Nakajima, 
 Y. Honda, O. Kitao, H. Nakai, T. Vreven, J. A. Montgomery, Jr., 
 J. E. Peralta, F. Ogliaro, M. Bearpark, J. J. Heyd, E. Brothers, 
 K. N. Kudin, V. N. Staroverov, T. Keith, R. Kobayashi, J. Normand, 
 K. Raghavachari, A. Rendell, J. C. Burant, S. S. Iyengar, J. Tomasi, 
 M. Cossi, N. Rega, J. M. Millam, M. Klene, J. E. Knox, J. B. Cross, 
 V. Bakken, C. Adamo, J. Jaramillo, R. Gomperts, R. E. Stratmann, 
 O. Yazyev, A. J. Austin, R. Cammi, C. Pomelli, J. W. Ochterski, 
 R. L. Martin, K. Morokuma, V. G. Zakrzewski, G. A. Voth, 
 P. Salvador, J. J. Dannenberg, S. Dapprich, A. D. Daniels, 
 O. Farkas, J. B. Foresman, J. V. Ortiz, J. Cioslowski, 
 and D. J. Fox, Gaussian, Inc., Wallingford CT, 2013.
 
 ******************************************
 Gaussian 09:  ES64L-G09RevD.01 24-Apr-2013
                23-Jul-2021 
 ******************************************
 %mem=100MW
 %nprocshared=20
 Will use up to   20 processors via shared memory.
 ---------------------------------------------------------------------
 # b3lyp/6-311+g(d,p) geom=connectivity pop=(hirshfeld,chelpg,mbs,npa)
 ---------------------------------------------------------------------
 1/38=1,57=2/1;
 2/12=2,17=6,18=5,40=1/2;
 3/5=4,6=6,7=111,11=2,16=1,25=1,30=1,74=-5/1,2,3;
 4//1;
 5/5=2,38=5/2;
 6/7=2,8=2,9=2,10=2,15=8,20=3,27=100,28=1,40=-1,79=1/1,2,7;
 99/5=1,9=1/99;
 --------
 Table4_7
 --------
 Symbolic Z-matrix:
 Charge =  0 Multiplicity = 1
 6                    -3.72498   0.       -0.60324 
 6                    -3.08012  -1.20608  -0.33282 
 6                    -1.796    -1.20361   0.20734 
 6                    -1.14148   0.        0.48228 
 6                    -1.796     1.20361   0.20734 
 6                    -3.08012   1.20608  -0.33282 
 1                    -4.72546   0.       -1.02126 
 1                    -3.57708  -2.14692  -0.54147 
 1                    -1.29439  -2.14344   0.41383 
 1                    -1.29439   2.14344   0.41383 
 1                    -3.57708   2.14692  -0.54147 
 6                     0.25695   0.        1.03942 
 1                     0.41716  -0.88843   1.66739 
 1                     0.41716   0.88843   1.66739 
 8                     1.18825   0.       -0.04236 
 6                     2.51592   0.        0.39417 
 1                     2.72422  -0.89888   1.00759 
 1                     2.72422   0.89888   1.00759 
 8                     3.30427   0.       -0.75794 
 6                     4.68995   0.       -0.4689 
 1                     4.985    -0.89346   0.09899 
 1                     5.21071   0.       -1.4256 
 1                     4.985     0.89346   0.09899 
 
                          Input orientation:                          
 ---------------------------------------------------------------------
 Center     Atomic      Atomic             Coordinates (Angstroms)
 Number     Number       Type             X           Y           Z
 ---------------------------------------------------------------------
      1          6           0       -3.724977    0.000000   -0.603241
      2          6           0       -3.080117   -1.206082   -0.332821
      3          6           0       -1.796004   -1.203608    0.207340
      4          6           0       -1.141478    0.000000    0.482275
      5          6           0       -1.796004    1.203608    0.207340
      6          6           0       -3.080117    1.206082   -0.332821
      7          1           0       -4.725456    0.000000   -1.021263
      8          1           0       -3.577075   -2.146916   -0.541467
      9          1           0       -1.294394   -2.143440    0.413829
     10          1           0       -1.294394    2.143440    0.413829
     11          1           0       -3.577075    2.146916   -0.541467
     12          6           0        0.256951    0.000000    1.039417
     13          1           0        0.417156   -0.888427    1.667386
     14          1           0        0.417156    0.888427    1.667387
     15          8           0        1.188254    0.000000   -0.042357
     16          6           0        2.515922    0.000000    0.394168
     17          1           0        2.724224   -0.898883    1.007590
     18          1           0        2.724224    0.898882    1.007591
     19          8           0        3.304265    0.000000   -0.757937
     20          6           0        4.689950    0.000000   -0.468898
     21          1           0        4.985003   -0.893455    0.098985
     22          1           0        5.210714    0.000000   -1.425596
     23          1           0        4.985003    0.893455    0.098985
 ---------------------------------------------------------------------
                    Distance matrix (angstroms):
                    1          2          3          4          5
     1  C    0.000000
     2  C    1.394132   0.000000
     3  C    2.413846   1.393100   0.000000
     4  C    2.802287   2.424322   1.397378   0.000000
     5  C    2.413846   2.783402   2.407216   1.397378   0.000000
     6  C    1.394132   2.412164   2.783402   2.424322   1.393100
     7  H    1.084297   2.153074   3.397032   3.886583   3.397032
     8  H    2.152891   1.084283   2.150059   3.404325   3.867678
     9  H    3.396542   2.150566   1.085143   2.149977   3.390720
    10  H    3.396542   3.868539   3.390720   2.149977   1.085143
    11  H    2.152891   3.396041   3.867678   3.404325   2.150059
    12  C    4.307444   3.804431   2.521041   1.505327   2.521041
    13  H    4.806487   4.041367   2.670047   2.150147   3.377339
    14  H    4.806487   4.540784   3.377340   2.150147   2.670047
    15  O    4.945142   4.444997   3.227509   2.388072   3.227509
    16  C    6.320098   5.770511   4.480657   3.658461   4.480657
    17  H    6.707828   5.965019   4.600622   4.003448   5.049092
    18  H    6.707828   6.318066   5.049092   4.003448   4.600622
    19  O    7.030944   6.511197   5.328525   4.615491   5.328525
    20  C    8.415999   7.864292   6.631257   5.908492   6.631257
    21  H    8.783800   8.082719   6.788961   6.203140   7.098695
    22  H    8.973452   8.449063   7.294467   6.632520   7.294467
    23  H    8.783800   8.345099   7.098695   6.203140   6.788961
                    6          7          8          9         10
     6  C    0.000000
     7  H    2.153074   0.000000
     8  H    3.396041   2.481578   0.000000
     9  H    3.868539   4.292553   2.474517   0.000000
    10  H    2.150566   4.292553   4.952815   4.286880   0.000000
    11  H    1.084283   2.481578   4.293832   4.952815   2.474517
    12  C    3.804431   5.391733   4.669925   2.718891   2.718891
    13  H    4.540783   5.870655   4.734629   2.464927   3.700409
    14  H    4.041368   5.870656   5.481444   3.700409   2.464928
    15  O    4.444997   5.994182   5.250402   3.311492   3.311492
    16  C    5.770511   7.378414   6.527578   4.371868   4.371868
    17  H    6.318066   7.773157   6.607839   4.248619   5.075192
    18  H    5.965019   7.773157   7.168182   5.075191   4.248620
    19  O    6.511197   8.034038   7.211723   5.207210   5.207210
    20  C    7.864292   9.431595   8.541558   6.417625   6.417625
    21  H    8.345099   9.815612   8.677011   6.410337   6.982312
    22  H    8.449063   9.944393   9.089344   7.091844   7.091844
    23  H    8.082719   9.815612   9.108414   6.982312   6.410337
                   11         12         13         14         15
    11  H    0.000000
    12  C    4.669925   0.000000
    13  H    5.481443   1.099688   0.000000
    14  H    4.734629   1.099688   1.776854   0.000000
    15  O    5.250402   1.427431   2.075359   2.075360   0.000000
    16  C    6.527578   2.349318   2.610595   2.610595   1.397589
    17  H    7.168182   2.626107   2.399584   2.992051   2.066297
    18  H    6.607839   2.626107   2.992050   2.399584   2.066297
    19  O    7.211723   3.537881   3.873873   3.873874   2.233732
    20  C    8.541558   4.682573   4.858990   4.858990   3.527579
    21  H    9.108414   4.902770   4.829610   5.147836   3.903017
    22  H    9.089344   5.533178   5.773564   5.773564   4.253650
    23  H    8.677011   4.902770   5.147836   4.829610   3.903017
                   16         17         18         19         20
    16  C    0.000000
    17  H    1.108001   0.000000
    18  H    1.108001   1.797765   0.000000
    19  O    1.396005   2.064346   2.064346   0.000000
    20  C    2.339077   2.617649   2.617649   1.415509   0.000000
    21  H    2.642301   2.436537   3.024758   2.087452   1.099004
    22  H    3.251683   3.593190   3.593191   2.019979   1.089250
    23  H    2.642301   3.024758   2.436538   2.087452   1.099004
                   21         22         23
    21  H    0.000000
    22  H    1.781447   0.000000
    23  H    1.786910   1.781447   0.000000
 Stoichiometry    C9H12O2
 Framework group  CS[SG(C5H2O2),X(C4H10)]
 Deg. of freedom    36
 Full point group                 CS      NOp   2
 Largest Abelian subgroup         CS      NOp   2
 Largest concise Abelian subgroup CS      NOp   2
                         Standard orientation:                         
 ---------------------------------------------------------------------
 Center     Atomic      Atomic             Coordinates (Angstroms)
 Number     Number       Type             X           Y           Z
 ---------------------------------------------------------------------
      1          6           0       -0.888278   -3.667467    0.000000
      2          6           0       -0.887504   -2.968203    1.206082
      3          6           0       -0.887504   -1.575105    1.203608
      4          6           0       -0.887144   -0.865180    0.000000
      5          6           0       -0.887504   -1.575105   -1.203608
      6          6           0       -0.887504   -2.968203   -1.206082
      7          1           0       -0.890885   -4.751761    0.000000
      8          1           0       -0.887872   -3.507183    2.146916
      9          1           0       -0.883344   -1.032673    2.143440
     10          1           0       -0.883344   -1.032673   -2.143440
     11          1           0       -0.887872   -3.507183   -2.146916
     12          6           0       -0.858471    0.639874    0.000000
     13          1           0       -1.375195    1.031035    0.888427
     14          1           0       -1.375195    1.031035   -0.888427
     15          8           0        0.499778    1.078871    0.000000
     16          6           0        0.612195    2.471932    0.000000
     17          1           0        0.127529    2.901788    0.898883
     18          1           0        0.127529    2.901788   -0.898883
     19          8           0        1.979841    2.751884    0.000000
     20          6           0        2.250701    4.141237    0.000000
     21          1           0        1.841649    4.633399    0.893455
     22          1           0        3.334477    4.250309    0.000000
     23          1           0        1.841649    4.633399   -0.893455
 ---------------------------------------------------------------------
 Rotational constants (GHZ):      3.5543433      0.4147660      0.4003320
 Standard basis: 6-311+G(d,p) (5D, 7F)
 There are   205 symmetry adapted cartesian basis functions of A'  symmetry.
 There are   120 symmetry adapted cartesian basis functions of A"  symmetry.
 There are   196 symmetry adapted basis functions of A'  symmetry.
 There are   118 symmetry adapted basis functions of A"  symmetry.
   314 basis functions,   492 primitive gaussians,   325 cartesian basis functions
    41 alpha electrons       41 beta electrons
       nuclear repulsion energy       575.8282663851 Hartrees.
 NAtoms=   23 NActive=   23 NUniq=   16 SFac= 2.07D+00 NAtFMM=   60 NAOKFM=F Big=F
 Integral buffers will be    131072 words long.
 Raffenetti 2 integral format.
 Two-electron integral symmetry is turned on.
 One-electron integrals computed using PRISM.
 NBasis=   314 RedAO= T EigKep=  2.22D-06  NBF=   196   118
 NBsUse=   314 1.00D-06 EigRej= -1.00D+00 NBFU=   196   118
 ExpMin= 4.38D-02 ExpMax= 8.59D+03 ExpMxC= 1.30D+03 IAcc=2 IRadAn=         4 AccDes= 0.00D+00
 Harris functional with IExCor=  402 and IRadAn=       4 diagonalized for initial guess.
 HarFok:  IExCor=  402 AccDes= 0.00D+00 IRadAn=         4 IDoV= 1 UseB2=F ITyADJ=14
 ICtDFT=  3500011 ScaDFX=  1.000000  1.000000  1.000000  1.000000
 FoFCou: FMM=F IPFlag=           0 FMFlag=      100000 FMFlg1=           0
         NFxFlg=           0 DoJE=T BraDBF=F KetDBF=T FulRan=T
         wScrn=  0.000000 ICntrl=     500 IOpCl=  0 I1Cent=   200000004 NGrid=           0
         NMat0=    1 NMatS0=      1 NMatT0=    0 NMatD0=    1 NMtDS0=    0 NMtDT0=    0
 Petite list used in FoFCou.
 Initial guess orbital symmetries:
       Occupied  (A') (A') (A') (A') (A") (A') (A") (A') (A') (A')
                 (A') (A') (A') (A') (A') (A") (A') (A') (A") (A')
                 (A') (A') (A") (A') (A') (A") (A') (A") (A') (A")
                 (A') (A") (A') (A') (A") (A') (A') (A") (A") (A')
                 (A")
       Virtual   (A') (A") (A') (A') (A') (A') (A") (A') (A') (A")
                 (A') (A') (A') (A") (A') (A") (A') (A') (A") (A')
                 (A") (A') (A') (A") (A') (A") (A") (A') (A') (A')
                 (A') (A") (A") (A') (A') (A") (A') (A") (A') (A')
                 (A') (A') (A') (A") (A') (A") (A") (A') (A') (A')
                 (A") (A') (A") (A') (A") (A') (A') (A") (A') (A")
                 (A') (A') (A") (A') (A') (A') (A') (A') (A") (A')
                 (A") (A') (A") (A') (A") (A') (A") (A") (A') (A')
                 (A') (A") (A') (A") (A') (A") (A") (A') (A') (A')
                 (A') (A') (A") (A') (A") (A') (A') (A") (A') (A')
                 (A") (A') (A') (A') (A") (A') (A") (A') (A") (A')
                 (A") (A') (A') (A") (A') (A') (A") (A') (A") (A")
                 (A') (A') (A") (A') (A") (A') (A') (A") (A") (A')
                 (A') (A') (A') (A") (A') (A") (A') (A") (A") (A')
                 (A') (A") (A') (A") (A') (A') (A") (A') (A") (A")
                 (A') (A") (A') (A') (A") (A') (A') (A") (A') (A")
                 (A') (A') (A") (A') (A") (A") (A') (A') (A") (A')
                 (A") (A') (A") (A') (A") (A') (A') (A') (A") (A')
                 (A") (A") (A') (A') (A') (A') (A') (A") (A') (A")
                 (A") (A') (A') (A") (A') (A') (A") (A") (A') (A')
                 (A") (A") (A') (A') (A") (A') (A') (A") (A') (A")
                 (A") (A') (A') (A') (A") (A') (A') (A') (A') (A")
                 (A') (A") (A") (A') (A') (A') (A") (A') (A") (A')
                 (A") (A') (A") (A') (A") (A") (A') (A') (A") (A')
                 (A') (A') (A") (A') (A") (A") (A") (A') (A') (A')
                 (A') (A") (A') (A') (A') (A") (A") (A") (A') (A')
                 (A') (A') (A') (A') (A') (A') (A") (A') (A') (A")
                 (A') (A') (A')
 The electronic state of the initial guess is 1-A'.
 Requested convergence on RMS density matrix=1.00D-08 within 128 cycles.
 Requested convergence on MAX density matrix=1.00D-06.
 Requested convergence on             energy=1.00D-06.
 No special actions if energy rises.
 SCF Done:  E(RB3LYP) =  -500.738116744     A.U. after   13 cycles
            NFock= 13  Conv=0.81D-08     -V/T= 2.0042

 **********************************************************************

            Population analysis using the SCF density.

 **********************************************************************

 Orbital symmetries:
       Occupied  (A') (A') (A') (A') (A') (A') (A') (A") (A') (A")
                 (A') (A') (A') (A') (A') (A") (A') (A') (A') (A")
                 (A') (A') (A') (A") (A') (A") (A') (A") (A') (A")
                 (A') (A") (A') (A') (A") (A') (A') (A") (A") (A')
                 (A")
       Virtual   (A') (A") (A') (A') (A') (A") (A') (A') (A") (A')
                 (A") (A') (A') (A') (A") (A') (A") (A') (A') (A")
                 (A') (A") (A') (A") (A') (A') (A") (A') (A') (A")
                 (A') (A") (A') (A') (A") (A") (A') (A') (A') (A')
                 (A") (A') (A') (A") (A') (A') (A") (A') (A') (A")
                 (A') (A") (A') (A") (A') (A') (A') (A") (A') (A")
                 (A') (A') (A") (A') (A') (A') (A') (A") (A') (A')
                 (A') (A") (A") (A') (A") (A') (A') (A") (A') (A")
                 (A') (A") (A') (A") (A") (A') (A") (A') (A') (A')
                 (A') (A") (A') (A') (A") (A') (A") (A') (A') (A')
                 (A') (A") (A') (A') (A') (A") (A') (A") (A") (A')
                 (A") (A') (A') (A') (A') (A") (A") (A') (A") (A')
                 (A') (A") (A") (A') (A') (A") (A') (A") (A") (A')
                 (A') (A') (A') (A") (A') (A") (A') (A") (A') (A")
                 (A') (A") (A') (A") (A') (A') (A") (A') (A") (A")
                 (A') (A") (A') (A') (A") (A') (A") (A') (A') (A')
                 (A") (A') (A") (A') (A") (A") (A') (A') (A") (A')
                 (A") (A') (A') (A") (A") (A') (A') (A') (A") (A')
                 (A") (A') (A") (A') (A') (A') (A') (A") (A') (A")
                 (A') (A") (A') (A") (A') (A') (A") (A") (A') (A')
                 (A") (A") (A") (A') (A') (A') (A') (A') (A") (A")
                 (A') (A") (A') (A") (A') (A') (A') (A') (A') (A')
                 (A") (A') (A") (A") (A') (A') (A") (A') (A') (A")
                 (A") (A') (A") (A') (A") (A") (A') (A') (A") (A')
                 (A') (A') (A") (A') (A") (A") (A') (A") (A') (A')
                 (A') (A") (A') (A') (A') (A") (A") (A") (A') (A')
                 (A') (A') (A') (A') (A') (A') (A") (A') (A') (A")
                 (A') (A') (A')
 The electronic state is 1-A'.
 Alpha  occ. eigenvalues --  -19.13493 -19.13423 -10.27230 -10.23067 -10.22102
 Alpha  occ. eigenvalues --  -10.18611 -10.17920 -10.17897 -10.17882 -10.17833
 Alpha  occ. eigenvalues --  -10.17818  -1.07944  -1.02436  -0.86445  -0.78161
 Alpha  occ. eigenvalues --   -0.75250  -0.72800  -0.67836  -0.63749  -0.61376
 Alpha  occ. eigenvalues --   -0.59236  -0.52791  -0.51603  -0.51226  -0.50222
 Alpha  occ. eigenvalues --   -0.47479  -0.46151  -0.43847  -0.43050  -0.42745
 Alpha  occ. eigenvalues --   -0.42015  -0.40024  -0.37211  -0.36654  -0.34924
 Alpha  occ. eigenvalues --   -0.34401  -0.33229  -0.28371  -0.26517  -0.25857
 Alpha  occ. eigenvalues --   -0.25822
 Alpha virt. eigenvalues --   -0.02358  -0.01730  -0.00057   0.00733   0.01818
 Alpha virt. eigenvalues --    0.02068   0.03258   0.03676   0.03812   0.04776
 Alpha virt. eigenvalues --    0.05528   0.05640   0.06582   0.06802   0.07540
 Alpha virt. eigenvalues --    0.08301   0.08744   0.09256   0.10884   0.11018
 Alpha virt. eigenvalues --    0.11861   0.12666   0.12938   0.14191   0.14239
 Alpha virt. eigenvalues --    0.14556   0.14662   0.14989   0.15834   0.16579
 Alpha virt. eigenvalues --    0.17026   0.17252   0.17465   0.18389   0.19548
 Alpha virt. eigenvalues --    0.19783   0.19883   0.20040   0.20260   0.20627
 Alpha virt. eigenvalues --    0.21094   0.21684   0.22208   0.23283   0.23528
 Alpha virt. eigenvalues --    0.23990   0.24080   0.24612   0.25023   0.25110
 Alpha virt. eigenvalues --    0.26038   0.26891   0.27830   0.28364   0.28574
 Alpha virt. eigenvalues --    0.29517   0.30256   0.30993   0.31033   0.32516
 Alpha virt. eigenvalues --    0.32798   0.33672   0.34861   0.35978   0.36928
 Alpha virt. eigenvalues --    0.39246   0.40511   0.43502   0.44198   0.46824
 Alpha virt. eigenvalues --    0.47955   0.48347   0.50685   0.51730   0.53060
 Alpha virt. eigenvalues --    0.53086   0.53902   0.54183   0.54401   0.55510
 Alpha virt. eigenvalues --    0.56231   0.57873   0.58927   0.60279   0.61258
 Alpha virt. eigenvalues --    0.61416   0.62115   0.62673   0.63501   0.65347
 Alpha virt. eigenvalues --    0.65717   0.67215   0.67372   0.69138   0.69387
 Alpha virt. eigenvalues --    0.69612   0.71222   0.71657   0.72080   0.72990
 Alpha virt. eigenvalues --    0.73490   0.74006   0.76380   0.82079   0.82571
 Alpha virt. eigenvalues --    0.82894   0.84993   0.85386   0.86519   0.88140
 Alpha virt. eigenvalues --    0.92907   0.93154   0.95435   0.98956   0.99227
 Alpha virt. eigenvalues --    0.99991   1.01316   1.02191   1.02676   1.04811
 Alpha virt. eigenvalues --    1.06054   1.07348   1.07652   1.09314   1.10349
 Alpha virt. eigenvalues --    1.13080   1.14716   1.16195   1.21257   1.27638
 Alpha virt. eigenvalues --    1.30759   1.33485   1.39259   1.40903   1.42813
 Alpha virt. eigenvalues --    1.43523   1.46746   1.48438   1.50161   1.50858
 Alpha virt. eigenvalues --    1.52385   1.54124   1.54236   1.55148   1.55429
 Alpha virt. eigenvalues --    1.55876   1.56275   1.57291   1.58316   1.61691
 Alpha virt. eigenvalues --    1.61942   1.62550   1.64110   1.65712   1.66054
 Alpha virt. eigenvalues --    1.67532   1.68740   1.69202   1.71015   1.74118
 Alpha virt. eigenvalues --    1.74806   1.76208   1.77341   1.78488   1.82097
 Alpha virt. eigenvalues --    1.82601   1.84640   1.86691   1.88823   1.92441
 Alpha virt. eigenvalues --    1.93075   1.93098   1.93967   1.94386   1.95755
 Alpha virt. eigenvalues --    2.00074   2.00574   2.01624   2.07987   2.09624
 Alpha virt. eigenvalues --    2.10737   2.12488   2.14094   2.17492   2.20093
 Alpha virt. eigenvalues --    2.21678   2.25454   2.32986   2.34456   2.36598
 Alpha virt. eigenvalues --    2.38756   2.38909   2.39536   2.40174   2.40438
 Alpha virt. eigenvalues --    2.42540   2.47665   2.48256   2.49633   2.50472
 Alpha virt. eigenvalues --    2.51916   2.53878   2.62171   2.63349   2.63742
 Alpha virt. eigenvalues --    2.66625   2.67272   2.69003   2.69445   2.72580
 Alpha virt. eigenvalues --    2.74720   2.75823   2.76427   2.79397   2.81024
 Alpha virt. eigenvalues --    2.82171   2.83816   2.84936   2.87179   2.87587
 Alpha virt. eigenvalues --    2.89090   2.92101   2.92216   2.93332   2.98555
 Alpha virt. eigenvalues --    3.00148   3.03999   3.07203   3.10490   3.13891
 Alpha virt. eigenvalues --    3.17916   3.19520   3.21409   3.25975   3.27166
 Alpha virt. eigenvalues --    3.34678   3.37485   3.37968   3.49119   3.53159
 Alpha virt. eigenvalues --    3.63064   3.68954   3.75983   3.78763   3.79337
 Alpha virt. eigenvalues --    3.82131   3.98366   3.98588   4.03350   4.04533
 Alpha virt. eigenvalues --    4.12476   4.14989   4.16168   4.18424   4.34687
 Alpha virt. eigenvalues --    4.84601   5.02637   5.06225   5.31057   5.44668
 Alpha virt. eigenvalues --    5.67946   5.74772  23.59982  23.78342  23.85365
 Alpha virt. eigenvalues --   23.89727  23.95754  23.96445  24.08130  24.09574
 Alpha virt. eigenvalues --   24.19450  49.91957  49.95583
          Condensed to atoms (all electrons):
               1          2          3          4          5          6
     1  C    5.161911   0.183658   0.306609  -0.641620   0.306609   0.183658
     2  C    0.183658   6.075338  -1.115550   0.544933   0.057087   0.489323
     3  C    0.306609  -1.115550  12.504335  -1.969660  -4.375925   0.057087
     4  C   -0.641620   0.544933  -1.969660  12.965256  -1.969660   0.544933
     5  C    0.306609   0.057087  -4.375925  -1.969660  12.504335  -1.115550
     6  C    0.183658   0.489323   0.057087   0.544933  -1.115550   6.075338
     7  H    0.376644  -0.005251  -0.020658   0.023859  -0.020658  -0.005251
     8  H    0.009218   0.366266  -0.030628   0.002171  -0.001426  -0.013769
     9  H   -0.003726   0.021301   0.310615  -0.043405  -0.013180   0.000728
    10  H   -0.003726   0.000728  -0.013180  -0.043405   0.310615   0.021301
    11  H    0.009218  -0.013769  -0.001426   0.002171  -0.030628   0.366266
    12  C    0.237802  -0.505976   0.567981  -3.397127   0.567981  -0.505976
    13  H    0.000698   0.022773   0.054346  -0.080671  -0.018464  -0.003417
    14  H    0.000698  -0.003417  -0.018464  -0.080671   0.054346   0.022773
    15  O    0.004244  -0.018840   0.013631  -0.047391   0.013631  -0.018840
    16  C    0.002574   0.021682   0.086605  -0.765895   0.086605   0.021682
    17  H    0.000104  -0.000341   0.030270   0.008246  -0.022852  -0.000057
    18  H    0.000104  -0.000057  -0.022852   0.008246   0.030270  -0.000341
    19  O   -0.000149   0.001396  -0.011639   0.022733  -0.011639   0.001396
    20  C    0.000038   0.000658   0.006068  -0.051405   0.006068   0.000658
    21  H    0.000001  -0.000022   0.001548  -0.000605  -0.001166   0.000009
    22  H    0.000002  -0.000009   0.000011   0.000152   0.000011  -0.000009
    23  H    0.000001   0.000009  -0.001166  -0.000605   0.001548  -0.000022
               7          8          9         10         11         12
     1  C    0.376644   0.009218  -0.003726  -0.003726   0.009218   0.237802
     2  C   -0.005251   0.366266   0.021301   0.000728  -0.013769  -0.505976
     3  C   -0.020658  -0.030628   0.310615  -0.013180  -0.001426   0.567981
     4  C    0.023859   0.002171  -0.043405  -0.043405   0.002171  -3.397127
     5  C   -0.020658  -0.001426  -0.013180   0.310615  -0.030628   0.567981
     6  C   -0.005251  -0.013769   0.000728   0.021301   0.366266  -0.505976
     7  H    0.540578  -0.007892  -0.000263  -0.000263  -0.007892   0.001116
     8  H   -0.007892   0.543391  -0.007938   0.000078  -0.000265   0.014246
     9  H   -0.000263  -0.007938   0.549512  -0.000219   0.000078   0.062231
    10  H   -0.000263   0.000078  -0.000219   0.549512  -0.007938   0.062231
    11  H   -0.007892  -0.000265   0.000078  -0.007938   0.543391   0.014246
    12  C    0.001116   0.014246   0.062231   0.062231   0.014246   8.704939
    13  H   -0.000004   0.000011   0.001700   0.000646   0.000012   0.371250
    14  H   -0.000004   0.000012   0.000646   0.001700   0.000011   0.371250
    15  O   -0.000001   0.000071  -0.000607  -0.000607   0.000071   0.185120
    16  C   -0.000076   0.000139   0.005106   0.005106   0.000139   0.129809
    17  H    0.000000   0.000000  -0.000144   0.000002   0.000000   0.000075
    18  H    0.000000   0.000000   0.000002  -0.000144   0.000000   0.000075
    19  O    0.000000   0.000000  -0.000075  -0.000075   0.000000  -0.028825
    20  C    0.000000   0.000000   0.000022   0.000022   0.000000  -0.010301
    21  H    0.000000   0.000000   0.000000   0.000000   0.000000  -0.000370
    22  H    0.000000   0.000000   0.000000   0.000000   0.000000   0.001817
    23  H    0.000000   0.000000   0.000000   0.000000   0.000000  -0.000370
              13         14         15         16         17         18
     1  C    0.000698   0.000698   0.004244   0.002574   0.000104   0.000104
     2  C    0.022773  -0.003417  -0.018840   0.021682  -0.000341  -0.000057
     3  C    0.054346  -0.018464   0.013631   0.086605   0.030270  -0.022852
     4  C   -0.080671  -0.080671  -0.047391  -0.765895   0.008246   0.008246
     5  C   -0.018464   0.054346   0.013631   0.086605  -0.022852   0.030270
     6  C   -0.003417   0.022773  -0.018840   0.021682  -0.000057  -0.000341
     7  H   -0.000004  -0.000004  -0.000001  -0.000076   0.000000   0.000000
     8  H    0.000011   0.000012   0.000071   0.000139   0.000000   0.000000
     9  H    0.001700   0.000646  -0.000607   0.005106  -0.000144   0.000002
    10  H    0.000646   0.001700  -0.000607   0.005106   0.000002  -0.000144
    11  H    0.000012   0.000011   0.000071   0.000139   0.000000   0.000000
    12  C    0.371250   0.371250   0.185120   0.129809   0.000075   0.000075
    13  H    0.618902  -0.062306  -0.053423   0.004732   0.016701  -0.007222
    14  H   -0.062306   0.618902  -0.053423   0.004732  -0.007222   0.016701
    15  O   -0.053423  -0.053423   8.092130   0.090423  -0.054174  -0.054174
    16  C    0.004732   0.004732   0.090423   5.366202   0.394503   0.394503
    17  H    0.016701  -0.007222  -0.054174   0.394503   0.668434  -0.088401
    18  H   -0.007222   0.016701  -0.054174   0.394503  -0.088401   0.668434
    19  O    0.000354   0.000354   0.018592   0.261018  -0.061228  -0.061228
    20  C    0.000100   0.000100  -0.005737  -0.095416  -0.003579  -0.003579
    21  H    0.000029  -0.000010   0.001203  -0.010201   0.015088  -0.005893
    22  H   -0.000001  -0.000001  -0.001919   0.027543  -0.000445  -0.000445
    23  H   -0.000010   0.000029   0.001203  -0.010201  -0.005893   0.015088
              19         20         21         22         23
     1  C   -0.000149   0.000038   0.000001   0.000002   0.000001
     2  C    0.001396   0.000658  -0.000022  -0.000009   0.000009
     3  C   -0.011639   0.006068   0.001548   0.000011  -0.001166
     4  C    0.022733  -0.051405  -0.000605   0.000152  -0.000605
     5  C   -0.011639   0.006068  -0.001166   0.000011   0.001548
     6  C    0.001396   0.000658   0.000009  -0.000009  -0.000022
     7  H    0.000000   0.000000   0.000000   0.000000   0.000000
     8  H    0.000000   0.000000   0.000000   0.000000   0.000000
     9  H   -0.000075   0.000022   0.000000   0.000000   0.000000
    10  H   -0.000075   0.000022   0.000000   0.000000   0.000000
    11  H    0.000000   0.000000   0.000000   0.000000   0.000000
    12  C   -0.028825  -0.010301  -0.000370   0.001817  -0.000370
    13  H    0.000354   0.000100   0.000029  -0.000001  -0.000010
    14  H    0.000354   0.000100  -0.000010  -0.000001   0.000029
    15  O    0.018592  -0.005737   0.001203  -0.001919   0.001203
    16  C    0.261018  -0.095416  -0.010201   0.027543  -0.010201
    17  H   -0.061228  -0.003579   0.015088  -0.000445  -0.005893
    18  H   -0.061228  -0.003579  -0.005893  -0.000445   0.015088
    19  O    8.105086   0.132853  -0.040898  -0.074429  -0.040898
    20  C    0.132853   4.985592   0.409144   0.411847   0.409144
    21  H   -0.040898   0.409144   0.592705  -0.027716  -0.057661
    22  H   -0.074429   0.411847  -0.027716   0.537528  -0.027716
    23  H   -0.040898   0.409144  -0.057661  -0.027716   0.592705
 Mulliken charges:
               1
     1  C   -0.134573
     2  C   -0.121920
     3  C   -0.357959
     4  C    0.969419
     5  C   -0.357959
     6  C   -0.121920
     7  H    0.126017
     8  H    0.126314
     9  H    0.117615
    10  H    0.117615
    11  H    0.126314
    12  C   -0.843224
    13  H    0.133263
    14  H    0.133263
    15  O   -0.111183
    16  C   -0.021316
    17  H    0.110913
    18  H    0.110913
    19  O   -0.212701
    20  C   -0.192299
    21  H    0.124816
    22  H    0.153778
    23  H    0.124816
 Sum of Mulliken charges =   0.00000
 Mulliken charges with hydrogens summed into heavy atoms:
               1
     1  C   -0.008556
     2  C    0.004394
     3  C   -0.240344
     4  C    0.969419
     5  C   -0.240344
     6  C    0.004394
    12  C   -0.576699
    15  O   -0.111183
    16  C    0.200510
    19  O   -0.212701
    20  C    0.211111
 Electronic spatial extent (au):  <R**2>=           2796.1638
 Charge=              0.0000 electrons
 Dipole moment (field-independent basis, Debye):
    X=             -1.7759    Y=              1.6018    Z=              0.0000  Tot=              2.3916
 Quadrupole moment (field-independent basis, Debye-Ang):
   XX=            -72.1619   YY=            -51.2090   ZZ=            -62.3063
   XY=              1.3890   XZ=              0.0000   YZ=              0.0000
 Traceless Quadrupole moment (field-independent basis, Debye-Ang):
   XX=            -10.2695   YY=             10.6834   ZZ=             -0.4139
   XY=              1.3890   XZ=              0.0000   YZ=              0.0000
 Octapole moment (field-independent basis, Debye-Ang**2):
  XXX=             24.4398  YYY=             42.4402  ZZZ=              0.0000  XYY=             20.8166
  XXY=             23.8528  XXZ=              0.0000  XZZ=             -0.3998  YZZ=             -0.6730
  YYZ=              0.0000  XYZ=              0.0000
 Hexadecapole moment (field-independent basis, Debye-Ang**3):
 XXXX=           -671.0919 YYYY=          -2475.9884 ZZZZ=           -327.7749 XXXY=           -534.9246
 XXXZ=              0.0000 YYYX=           -410.6780 YYYZ=              0.0000 ZZZX=              0.0000
 ZZZY=              0.0000 XXYY=           -557.0051 XXZZ=           -176.9250 YYZZ=           -495.8413
 XXYZ=              0.0000 YYXZ=              0.0000 ZZXY=           -174.1382
 N-N= 5.758282663851D+02 E-N=-2.319185281176D+03  KE= 4.986475749360D+02
 Symmetry A'   KE= 4.025220090019D+02
 Symmetry A"   KE= 9.612556593408D+01
 There are a total of      190610 grid points.
 ElSum from          density=       82.0001355715
 ElSum from atomic densities=       82.0000749188

 Hirshfeld populations at iteration   1 (CX, CA, CB, DipXYZ):
               1          2          3          4          5          6
     1  C    0.000000   3.022288   3.022288   0.004216  -0.063320   0.000000
     2  C    0.000000   3.022651   3.022651   0.006652  -0.030651   0.054559
     3  C    0.000000   3.020901   3.020901   0.012886   0.028513   0.051797
     4  C    0.000000   3.001974   3.001974   0.003739   0.067011   0.000000
     5  C    0.000000   3.020901   3.020901   0.012886   0.028513  -0.051797
     6  C    0.000000   3.022651   3.022651   0.006652  -0.030651  -0.054559
     7  H    0.000002   0.476008   0.476008   0.000479  -0.160758   0.000000
     8  H    0.000002   0.476020   0.476020   0.001414  -0.079575   0.139425
     9  H    0.000001   0.476048   0.476048   0.003482   0.073061   0.139977
    10  H    0.000001   0.476048   0.476048   0.003482   0.073061  -0.139977
    11  H    0.000002   0.476020   0.476020   0.001414  -0.079575  -0.139425
    12  C    0.000000   2.990987   2.990987   0.066110   0.015622   0.000000
    13  H    0.000001   0.483008   0.483008  -0.069895   0.045156   0.110335
    14  H    0.000001   0.483008   0.483008  -0.069895   0.045156  -0.110335
    15  O    0.000001   4.086189   4.086189  -0.144047   0.098407   0.000000
    16  C    0.000000   2.957225   2.957225   0.053751  -0.046028   0.000000
    17  H    0.000000   0.487027   0.487027  -0.055405   0.050097   0.104963
    18  H    0.000000   0.487027   0.487027  -0.055405   0.050097  -0.104963
    19  O    0.000001   4.087318   4.087318  -0.116027   0.138939   0.000000
    20  C    0.000000   3.008010   3.008010  -0.007535  -0.060750   0.000000
    21  H    0.000000   0.482490   0.482490  -0.041864   0.069551   0.113328
    22  H    0.000000   0.473779   0.473779   0.158245   0.021594   0.000000
    23  H    0.000000   0.482490   0.482490  -0.041864   0.069551  -0.113328
       Tot   0.000014  41.000068  41.000068  -0.266529   0.323023   0.000000

 Dip from Atomic Chgs             -0.432551   0.306779   0.000000
         Total Dipole             -0.699080   0.629802   0.000000

 Hirshfeld charges, spin densities, dipoles, and CM5 charges using IRadAn=      4:
              Q-H        S-H        Dx         Dy         Dz        Q-CM5   
     1  C   -0.044577   0.000000   0.004216  -0.063320   0.000000  -0.100246
     2  C   -0.045302   0.000000   0.006652  -0.030651   0.054559  -0.100906
     3  C   -0.041802   0.000000   0.012886   0.028513   0.051797  -0.094881
     4  C   -0.003948   0.000000   0.003739   0.067011   0.000000  -0.016266
     5  C   -0.041802   0.000000   0.012886   0.028513  -0.051797  -0.094881
     6  C   -0.045302   0.000000   0.006652  -0.030651  -0.054559  -0.100906
     7  H    0.047985   0.000000   0.000479  -0.160758   0.000000   0.103694
     8  H    0.047960   0.000000   0.001414  -0.079575   0.139425   0.103707
     9  H    0.047904   0.000000   0.003482   0.073061   0.139977   0.104928
    10  H    0.047904   0.000000   0.003482   0.073061  -0.139977   0.104928
    11  H    0.047960   0.000000   0.001414  -0.079575  -0.139425   0.103707
    12  C    0.018025   0.000000   0.066110   0.015622   0.000000  -0.057678
    13  H    0.033985   0.000000  -0.069895   0.045156   0.110335   0.097091
    14  H    0.033985   0.000000  -0.069895   0.045156  -0.110335   0.097091
    15  O   -0.172377   0.000000  -0.144047   0.098407   0.000000  -0.263387
    16  C    0.085550   0.000000   0.053751  -0.046028   0.000000   0.035649
    17  H    0.025946   0.000000  -0.055405   0.050097   0.104963   0.095544
    18  H    0.025946   0.000000  -0.055405   0.050097  -0.104963   0.095544
    19  O   -0.174636   0.000000  -0.116027   0.138939   0.000000  -0.274469
    20  C   -0.016021   0.000000  -0.007535  -0.060750   0.000000  -0.137438
    21  H    0.035020   0.000000  -0.041864   0.069551   0.113328   0.093160
    22  H    0.052442   0.000000   0.158245   0.021594   0.000000   0.112720
    23  H    0.035020   0.000000  -0.041864   0.069551  -0.113328   0.093160
       Tot  -0.000136   0.000000  -0.266529   0.323023   0.000000  -0.000136
 Hirshfeld charges with hydrogens summed into heavy atoms:
              Q-H       Q-CM5   
     1  C    0.003408   0.003447
     2  C    0.002658   0.002801
     3  C    0.006102   0.010047
     4  C   -0.003948  -0.016266
     5  C    0.006102   0.010047
     6  C    0.002658   0.002801
    12  C    0.085995   0.136503
    15  O   -0.172377  -0.263387
    16  C    0.137441   0.226738
    19  O   -0.174636  -0.274469
    20  C    0.106461   0.161602
 
 EQQ= 0.000000000000E+00 EQD= 0.000000000000E+00 EDD= 0.397387646218E-02
 EQQ+QD+DD= 0.397387646218E-02
 
          MBS Condensed to atoms (all electrons):
               1          2          3          4          5          6
     1  C    4.822550   0.505843  -0.030952  -0.011822  -0.030952   0.505843
     2  C    0.505843   4.822729   0.507578  -0.029369  -0.012080  -0.031497
     3  C   -0.030952   0.507578   4.828564   0.504147  -0.032625  -0.012080
     4  C   -0.011822  -0.029369   0.504147   4.786255   0.504147  -0.029369
     5  C   -0.030952  -0.012080  -0.032625   0.504147   4.828564   0.507578
     6  C    0.505843  -0.031497  -0.012080  -0.029369   0.507578   4.822729
     7  H    0.390310  -0.025760   0.001520   0.000047   0.001520  -0.025760
     8  H   -0.025736   0.390427  -0.025852   0.001476   0.000043   0.001523
     9  H    0.001518  -0.025634   0.388798  -0.026781   0.001527   0.000051
    10  H    0.001518   0.000051   0.001527  -0.026781   0.388798  -0.025634
    11  H   -0.025736   0.001523   0.000043   0.001476  -0.025852   0.390427
    12  C    0.000019   0.000904  -0.028040   0.389219  -0.028040   0.000904
    13  H    0.000001   0.000032  -0.003948  -0.024432   0.001342  -0.000029
    14  H    0.000001  -0.000029   0.001342  -0.024432  -0.003948   0.000032
    15  O    0.000000  -0.000003  -0.000207  -0.020786  -0.000207  -0.000003
    16  C    0.000000   0.000000   0.000006   0.001588   0.000006   0.000000
    17  H    0.000000   0.000000   0.000001  -0.000017   0.000000   0.000000
    18  H    0.000000   0.000000   0.000000  -0.000017   0.000001   0.000000
    19  O    0.000000   0.000000   0.000000  -0.000003   0.000000   0.000000
    20  C    0.000000   0.000000   0.000000   0.000000   0.000000   0.000000
    21  H    0.000000   0.000000   0.000000   0.000000   0.000000   0.000000
    22  H    0.000000   0.000000   0.000000   0.000000   0.000000   0.000000
    23  H    0.000000   0.000000   0.000000   0.000000   0.000000   0.000000
               7          8          9         10         11         12
     1  C    0.390310  -0.025736   0.001518   0.001518  -0.025736   0.000019
     2  C   -0.025760   0.390427  -0.025634   0.000051   0.001523   0.000904
     3  C    0.001520  -0.025852   0.388798   0.001527   0.000043  -0.028040
     4  C    0.000047   0.001476  -0.026781  -0.026781   0.001476   0.389219
     5  C    0.001520   0.000043   0.001527   0.388798  -0.025852  -0.028040
     6  C   -0.025760   0.001523   0.000051  -0.025634   0.390427   0.000904
     7  H    0.558794  -0.003728  -0.000041  -0.000041  -0.003728   0.000001
     8  H   -0.003728   0.558747  -0.003872   0.000002  -0.000042  -0.000019
     9  H   -0.000041  -0.003872   0.561933  -0.000044   0.000002  -0.003883
    10  H   -0.000041   0.000002  -0.000044   0.561933  -0.003872  -0.003883
    11  H   -0.003728  -0.000042   0.000002  -0.003872   0.558747  -0.000019
    12  C    0.000001  -0.000019  -0.003883  -0.003883  -0.000019   4.685482
    13  H    0.000000  -0.000002   0.001203   0.000049   0.000001   0.365167
    14  H    0.000000   0.000001   0.000049   0.001203  -0.000002   0.365167
    15  O    0.000000   0.000000   0.000100   0.000100   0.000000   0.266311
    16  C    0.000000   0.000000  -0.000012  -0.000012   0.000000  -0.032074
    17  H    0.000000   0.000000   0.000001   0.000000   0.000000  -0.003328
    18  H    0.000000   0.000000   0.000000   0.000001   0.000000  -0.003328
    19  O    0.000000   0.000000   0.000000   0.000000   0.000000   0.000709
    20  C    0.000000   0.000000   0.000000   0.000000   0.000000  -0.000034
    21  H    0.000000   0.000000   0.000000   0.000000   0.000000   0.000000
    22  H    0.000000   0.000000   0.000000   0.000000   0.000000   0.000000
    23  H    0.000000   0.000000   0.000000   0.000000   0.000000   0.000000
              13         14         15         16         17         18
     1  C    0.000001   0.000001   0.000000   0.000000   0.000000   0.000000
     2  C    0.000032  -0.000029  -0.000003   0.000000   0.000000   0.000000
     3  C   -0.003948   0.001342  -0.000207   0.000006   0.000001   0.000000
     4  C   -0.024432  -0.024432  -0.020786   0.001588  -0.000017  -0.000017
     5  C    0.001342  -0.003948  -0.000207   0.000006   0.000000   0.000001
     6  C   -0.000029   0.000032  -0.000003   0.000000   0.000000   0.000000
     7  H    0.000000   0.000000   0.000000   0.000000   0.000000   0.000000
     8  H   -0.000002   0.000001   0.000000   0.000000   0.000000   0.000000
     9  H    0.001203   0.000049   0.000100  -0.000012   0.000001   0.000000
    10  H    0.000049   0.001203   0.000100  -0.000012   0.000000   0.000001
    11  H    0.000001  -0.000002   0.000000   0.000000   0.000000   0.000000
    12  C    0.365167   0.365167   0.266311  -0.032074  -0.003328  -0.003328
    13  H    0.625650  -0.028787  -0.019270  -0.004246   0.003847  -0.000676
    14  H   -0.028787   0.625650  -0.019270  -0.004246  -0.000676   0.003847
    15  O   -0.019270  -0.019270   7.972793   0.282930  -0.021078  -0.021078
    16  C   -0.004246  -0.004246   0.282930   4.575101   0.353218   0.353218
    17  H    0.003847  -0.000676  -0.021078   0.353218   0.657611  -0.035943
    18  H   -0.000676   0.003847  -0.021078   0.353218  -0.035943   0.657611
    19  O   -0.000005  -0.000005  -0.016391   0.285872  -0.021287  -0.021287
    20  C    0.000001   0.000001   0.000744  -0.035613  -0.003148  -0.003148
    21  H    0.000000   0.000000  -0.000004  -0.004185   0.003661  -0.000641
    22  H    0.000000   0.000000  -0.000015   0.002506  -0.000041  -0.000041
    23  H    0.000000   0.000000  -0.000004  -0.004185  -0.000641   0.003661
              19         20         21         22         23
     1  C    0.000000   0.000000   0.000000   0.000000   0.000000
     2  C    0.000000   0.000000   0.000000   0.000000   0.000000
     3  C    0.000000   0.000000   0.000000   0.000000   0.000000
     4  C   -0.000003   0.000000   0.000000   0.000000   0.000000
     5  C    0.000000   0.000000   0.000000   0.000000   0.000000
     6  C    0.000000   0.000000   0.000000   0.000000   0.000000
     7  H    0.000000   0.000000   0.000000   0.000000   0.000000
     8  H    0.000000   0.000000   0.000000   0.000000   0.000000
     9  H    0.000000   0.000000   0.000000   0.000000   0.000000
    10  H    0.000000   0.000000   0.000000   0.000000   0.000000
    11  H    0.000000   0.000000   0.000000   0.000000   0.000000
    12  C    0.000709  -0.000034   0.000000   0.000000   0.000000
    13  H   -0.000005   0.000001   0.000000   0.000000   0.000000
    14  H   -0.000005   0.000001   0.000000   0.000000   0.000000
    15  O   -0.016391   0.000744  -0.000004  -0.000015  -0.000004
    16  C    0.285872  -0.035613  -0.004185   0.002506  -0.004185
    17  H   -0.021287  -0.003148   0.003661  -0.000041  -0.000641
    18  H   -0.021287  -0.003148  -0.000641  -0.000041   0.003661
    19  O    7.948181   0.279831  -0.018049  -0.019869  -0.018049
    20  C    0.279831   4.719749   0.365951   0.380270   0.365951
    21  H   -0.018049   0.365951   0.620654  -0.023297  -0.028230
    22  H   -0.019869   0.380270  -0.023297   0.565020  -0.023297
    23  H   -0.018049   0.365951  -0.028230  -0.023297   0.620654
 MBS Mulliken charges:
               1
     1  C   -0.102404
     2  C   -0.104715
     3  C   -0.099822
     4  C    0.005456
     5  C   -0.099822
     6  C   -0.104715
     7  H    0.106867
     8  H    0.107031
     9  H    0.105086
    10  H    0.105086
    11  H    0.107031
    12  C    0.028765
    13  H    0.084104
    14  H    0.084104
    15  O   -0.404661
    16  C    0.230129
    17  H    0.067820
    18  H    0.067820
    19  O   -0.399649
    20  C   -0.070555
    21  H    0.084139
    22  H    0.118764
    23  H    0.084139
 Sum of MBS Mulliken charges =   0.00000
 MBS Mulliken charges with hydrogens summed into heavy atoms:
               1
     1  C    0.004463
     2  C    0.002317
     3  C    0.005264
     4  C    0.005456
     5  C    0.005264
     6  C    0.002317
    12  C    0.196973
    15  O   -0.404661
    16  C    0.365769
    19  O   -0.399649
    20  C    0.216488
 Breneman (CHELPG) radii used.
 Generate Potential Derived Charges using the Breneman model, NDens= 1.
 Grid spacing= 0.300 Box extension= 2.800
 NStep X,Y,Z=   36     51     34   Total possible points=       62424
 Number of Points to Fit=   15216

 **********************************************************************

            Electrostatic Properties Using The SCF Density

 **********************************************************************

       Atomic Center    1 is at  -0.888278 -3.667467  0.000000
       Atomic Center    2 is at  -0.887504 -2.968203  1.206082
       Atomic Center    3 is at  -0.887504 -1.575105  1.203608
       Atomic Center    4 is at  -0.887144 -0.865180  0.000000
       Atomic Center    5 is at  -0.887504 -1.575105 -1.203608
       Atomic Center    6 is at  -0.887504 -2.968203 -1.206082
       Atomic Center    7 is at  -0.890885 -4.751761  0.000000
       Atomic Center    8 is at  -0.887872 -3.507183  2.146916
       Atomic Center    9 is at  -0.883344 -1.032673  2.143440
       Atomic Center   10 is at  -0.883344 -1.032673 -2.143440
       Atomic Center   11 is at  -0.887872 -3.507183 -2.146916
       Atomic Center   12 is at  -0.858471  0.639874  0.000000
       Atomic Center   13 is at  -1.375195  1.031035  0.888427
       Atomic Center   14 is at  -1.375195  1.031035 -0.888427
       Atomic Center   15 is at   0.499778  1.078871  0.000000
       Atomic Center   16 is at   0.612195  2.471932  0.000000
       Atomic Center   17 is at   0.127529  2.901788  0.898883
       Atomic Center   18 is at   0.127529  2.901788 -0.898883
       Atomic Center   19 is at   1.979841  2.751884  0.000000
       Atomic Center   20 is at   2.250701  4.141237  0.000000
       Atomic Center   21 is at   1.841649  4.633399  0.893455
       Atomic Center   22 is at   3.334477  4.250309  0.000000
       Atomic Center   23 is at   1.841649  4.633399 -0.893455
   15216 points will be used for fitting atomic charges
 Fitting point charges to electrostatic potential
 Charges from ESP fit, RMS=   0.00439 RRMS=   0.28320:
 ESP charges:
               1
     1  C   -0.064560
     2  C   -0.077850
     3  C   -0.174607
     4  C    0.148922
     5  C   -0.174607
     6  C   -0.077850
     7  H    0.078168
     8  H    0.080663
     9  H    0.126964
    10  H    0.126964
    11  H    0.080663
    12  C    0.094642
    13  H   -0.001536
    14  H   -0.001536
    15  O   -0.390100
    16  C    0.480530
    17  H   -0.001427
    18  H   -0.001427
    19  O   -0.462870
    20  C    0.205535
    21  H   -0.021952
    22  H    0.049225
    23  H   -0.021952
 Sum of ESP charges =   0.00000
 ESP charges with hydrogens summed into heavy atoms:
               1
     1  C    0.013608
     2  C    0.002813
     3  C   -0.047644
     4  C    0.148922
     5  C   -0.047644
     6  C    0.002813
    12  C    0.091569
    15  O   -0.390100
    16  C    0.477677
    19  O   -0.462870
    20  C    0.210857
 Charge=   0.00000 Dipole=    -1.9815     1.5368     0.0000 Tot=     2.5076
 -----------------------------------------------------------------

              Electrostatic Properties (Atomic Units)

 -----------------------------------------------------------------
    Center     Electric         -------- Electric Field --------
               Potential          X             Y             Z
 -----------------------------------------------------------------
    1 Atom    -14.772513
    2 Atom    -14.772904
    3 Atom    -14.772944
    4 Atom    -14.764805
    5 Atom    -14.772944
    6 Atom    -14.772904
    7 Atom     -1.107258
    8 Atom     -1.107492
    9 Atom     -1.106550
   10 Atom     -1.106550
   11 Atom     -1.107492
   12 Atom    -14.714451
   13 Atom     -1.111052
   14 Atom     -1.111052
   15 Atom    -22.361685
   16 Atom    -14.672255
   17 Atom     -1.113838
   18 Atom     -1.113838
   19 Atom    -22.360003
   20 Atom    -14.724102
   21 Atom     -1.111040
   22 Atom     -1.109145
   23 Atom     -1.111040
 -----------------------------------------------------------------
 ******************************Gaussian NBO Version 3.1******************************
             N A T U R A L   A T O M I C   O R B I T A L   A N D
          N A T U R A L   B O N D   O R B I T A L   A N A L Y S I S
 ******************************Gaussian NBO Version 3.1******************************
       /RESON  / : Allow strongly delocalized NBO set

 Analyzing the SCF density

 Job title: Table4_7                                                        

 Storage needed:    297712 in NPA ( 104854725 available)


 NATURAL POPULATIONS:  Natural atomic orbital occupancies 
                                                          
   NAO  Atom  No  lang   Type(AO)    Occupancy      Energy
 ----------------------------------------------------------
     1    C    1  S      Cor( 1S)     1.99916     -10.03245
     2    C    1  S      Val( 2S)     0.95327      -0.16346
     3    C    1  S      Ryd( 3S)     0.00144       0.75990
     4    C    1  S      Ryd( 4S)     0.00012       0.96273
     5    C    1  S      Ryd( 5S)     0.00000      22.87867
     6    C    1  px     Val( 2p)     0.99411      -0.10901
     7    C    1  px     Ryd( 4p)     0.00117       0.51405
     8    C    1  px     Ryd( 3p)     0.00024       0.33424
     9    C    1  px     Ryd( 5p)     0.00001       2.65933
    10    C    1  py     Val( 2p)     1.17213      -0.05419
    11    C    1  py     Ryd( 4p)     0.00668       1.03441
    12    C    1  py     Ryd( 3p)     0.00027       0.29467
    13    C    1  py     Ryd( 5p)     0.00006       3.19520
    14    C    1  pz     Val( 2p)     1.06315      -0.04684
    15    C    1  pz     Ryd( 4p)     0.00443       0.76380
    16    C    1  pz     Ryd( 3p)     0.00061       0.38521
    17    C    1  pz     Ryd( 5p)     0.00017       3.06468
    18    C    1  dxy    Ryd( 3d)     0.00037       1.61154
    19    C    1  dxz    Ryd( 3d)     0.00049       1.67421
    20    C    1  dyz    Ryd( 3d)     0.00065       2.59090
    21    C    1  dx2y2  Ryd( 3d)     0.00054       2.10555
    22    C    1  dz2    Ryd( 3d)     0.00069       2.43857

    23    C    2  S      Cor( 1S)     1.99916     -10.03195
    24    C    2  S      Val( 2S)     0.95154      -0.16254
    25    C    2  S      Ryd( 3S)     0.00155       0.78079
    26    C    2  S      Ryd( 4S)     0.00013       1.29522
    27    C    2  S      Ryd( 5S)     0.00000      22.47234
    28    C    2  px     Val( 2p)     0.99699      -0.10869
    29    C    2  px     Ryd( 4p)     0.00115       0.51385
    30    C    2  px     Ryd( 3p)     0.00025       0.33014
    31    C    2  px     Ryd( 5p)     0.00002       2.67142
    32    C    2  py     Val( 2p)     1.08870      -0.04713
    33    C    2  py     Ryd( 4p)     0.00500       0.83758
    34    C    2  py     Ryd( 3p)     0.00042       0.36890
    35    C    2  py     Ryd( 5p)     0.00014       3.10251
    36    C    2  pz     Val( 2p)     1.14648      -0.05342
    37    C    2  pz     Ryd( 4p)     0.00647       0.98584
    38    C    2  pz     Ryd( 3p)     0.00029       0.31468
    39    C    2  pz     Ryd( 5p)     0.00009       3.15862
    40    C    2  dxy    Ryd( 3d)     0.00047       1.66197
    41    C    2  dxz    Ryd( 3d)     0.00040       1.62881
    42    C    2  dyz    Ryd( 3d)     0.00077       2.51566
    43    C    2  dx2y2  Ryd( 3d)     0.00045       2.20827
    44    C    2  dz2    Ryd( 3d)     0.00063       2.41132

    45    C    3  S      Cor( 1S)     1.99905     -10.02911
    46    C    3  S      Val( 2S)     0.94314      -0.15324
    47    C    3  S      Ryd( 4S)     0.00156       0.80452
    48    C    3  S      Ryd( 3S)     0.00016       0.77383
    49    C    3  S      Ryd( 5S)     0.00001      23.07674
    50    C    3  px     Val( 2p)     0.98617      -0.10764
    51    C    3  px     Ryd( 4p)     0.00150       0.52932
    52    C    3  px     Ryd( 3p)     0.00030       0.32855
    53    C    3  px     Ryd( 5p)     0.00002       2.71644
    54    C    3  py     Val( 2p)     1.09467      -0.04951
    55    C    3  py     Ryd( 4p)     0.00484       0.93721
    56    C    3  py     Ryd( 3p)     0.00044       0.42455
    57    C    3  py     Ryd( 5p)     0.00013       3.17054
    58    C    3  pz     Val( 2p)     1.14433      -0.05191
    59    C    3  pz     Ryd( 4p)     0.00564       0.96077
    60    C    3  pz     Ryd( 3p)     0.00033       0.32891
    61    C    3  pz     Ryd( 5p)     0.00008       3.19483
    62    C    3  dxy    Ryd( 3d)     0.00049       1.66688
    63    C    3  dxz    Ryd( 3d)     0.00043       1.64487
    64    C    3  dyz    Ryd( 3d)     0.00077       2.52164
    65    C    3  dx2y2  Ryd( 3d)     0.00047       2.23062
    66    C    3  dz2    Ryd( 3d)     0.00062       2.40604

    67    C    4  S      Cor( 1S)     1.99900     -10.04014
    68    C    4  S      Val( 2S)     0.89043      -0.13878
    69    C    4  S      Ryd( 3S)     0.00101       0.81147
    70    C    4  S      Ryd( 4S)     0.00030       1.08484
    71    C    4  S      Ryd( 5S)     0.00001      22.95307
    72    C    4  px     Val( 2p)     1.00796      -0.10217
    73    C    4  px     Ryd( 3p)     0.00297       0.60285
    74    C    4  px     Ryd( 4p)     0.00031       0.78267
    75    C    4  px     Ryd( 5p)     0.00001       2.38367
    76    C    4  py     Val( 2p)     1.05195      -0.05870
    77    C    4  py     Ryd( 4p)     0.00659       1.28287
    78    C    4  py     Ryd( 3p)     0.00037       0.86337
    79    C    4  py     Ryd( 5p)     0.00011       3.05217
    80    C    4  pz     Val( 2p)     1.09068      -0.05485
    81    C    4  pz     Ryd( 3p)     0.00324       0.88529
    82    C    4  pz     Ryd( 4p)     0.00042       0.89032
    83    C    4  pz     Ryd( 5p)     0.00018       2.93128
    84    C    4  dxy    Ryd( 3d)     0.00038       1.69475
    85    C    4  dxz    Ryd( 3d)     0.00058       1.67428
    86    C    4  dyz    Ryd( 3d)     0.00084       2.61960
    87    C    4  dx2y2  Ryd( 3d)     0.00059       2.18310
    88    C    4  dz2    Ryd( 3d)     0.00061       2.41645

    89    C    5  S      Cor( 1S)     1.99905     -10.02911
    90    C    5  S      Val( 2S)     0.94314      -0.15324
    91    C    5  S      Ryd( 4S)     0.00156       0.80452
    92    C    5  S      Ryd( 3S)     0.00016       0.77383
    93    C    5  S      Ryd( 5S)     0.00001      23.07674
    94    C    5  px     Val( 2p)     0.98617      -0.10764
    95    C    5  px     Ryd( 4p)     0.00150       0.52932
    96    C    5  px     Ryd( 3p)     0.00030       0.32855
    97    C    5  px     Ryd( 5p)     0.00002       2.71644
    98    C    5  py     Val( 2p)     1.09467      -0.04951
    99    C    5  py     Ryd( 4p)     0.00484       0.93721
   100    C    5  py     Ryd( 3p)     0.00044       0.42455
   101    C    5  py     Ryd( 5p)     0.00013       3.17054
   102    C    5  pz     Val( 2p)     1.14433      -0.05191
   103    C    5  pz     Ryd( 4p)     0.00564       0.96077
   104    C    5  pz     Ryd( 3p)     0.00033       0.32891
   105    C    5  pz     Ryd( 5p)     0.00008       3.19483
   106    C    5  dxy    Ryd( 3d)     0.00049       1.66688
   107    C    5  dxz    Ryd( 3d)     0.00043       1.64487
   108    C    5  dyz    Ryd( 3d)     0.00077       2.52164
   109    C    5  dx2y2  Ryd( 3d)     0.00047       2.23062
   110    C    5  dz2    Ryd( 3d)     0.00062       2.40604

   111    C    6  S      Cor( 1S)     1.99916     -10.03195
   112    C    6  S      Val( 2S)     0.95154      -0.16254
   113    C    6  S      Ryd( 3S)     0.00155       0.78079
   114    C    6  S      Ryd( 4S)     0.00013       1.29521
   115    C    6  S      Ryd( 5S)     0.00000      22.47234
   116    C    6  px     Val( 2p)     0.99699      -0.10869
   117    C    6  px     Ryd( 4p)     0.00115       0.51385
   118    C    6  px     Ryd( 3p)     0.00025       0.33014
   119    C    6  px     Ryd( 5p)     0.00002       2.67142
   120    C    6  py     Val( 2p)     1.08870      -0.04713
   121    C    6  py     Ryd( 4p)     0.00500       0.83758
   122    C    6  py     Ryd( 3p)     0.00042       0.36890
   123    C    6  py     Ryd( 5p)     0.00014       3.10251
   124    C    6  pz     Val( 2p)     1.14648      -0.05342
   125    C    6  pz     Ryd( 4p)     0.00647       0.98584
   126    C    6  pz     Ryd( 3p)     0.00029       0.31468
   127    C    6  pz     Ryd( 5p)     0.00009       3.15862
   128    C    6  dxy    Ryd( 3d)     0.00047       1.66197
   129    C    6  dxz    Ryd( 3d)     0.00040       1.62881
   130    C    6  dyz    Ryd( 3d)     0.00077       2.51566
   131    C    6  dx2y2  Ryd( 3d)     0.00045       2.20827
   132    C    6  dz2    Ryd( 3d)     0.00063       2.41132

   133    H    7  S      Val( 1S)     0.79249       0.04739
   134    H    7  S      Ryd( 2S)     0.00048       0.59895
   135    H    7  S      Ryd( 3S)     0.00016       2.15188
   136    H    7  px     Ryd( 2p)     0.00020       1.59559
   137    H    7  py     Ryd( 2p)     0.00041       2.69983
   138    H    7  pz     Ryd( 2p)     0.00012       1.97166

   139    H    8  S      Val( 1S)     0.79225       0.04657
   140    H    8  S      Ryd( 2S)     0.00066       0.62492
   141    H    8  S      Ryd( 3S)     0.00017       2.12705
   142    H    8  px     Ryd( 2p)     0.00019       1.59812
   143    H    8  py     Ryd( 2p)     0.00019       2.15624
   144    H    8  pz     Ryd( 2p)     0.00034       2.52152

   145    H    9  S      Val( 1S)     0.79246       0.04623
   146    H    9  S      Ryd( 2S)     0.00070       1.00051
   147    H    9  S      Ryd( 3S)     0.00018       1.73439
   148    H    9  px     Ryd( 2p)     0.00019       1.60695
   149    H    9  py     Ryd( 2p)     0.00019       2.18252
   150    H    9  pz     Ryd( 2p)     0.00038       2.55121

   151    H   10  S      Val( 1S)     0.79246       0.04623
   152    H   10  S      Ryd( 2S)     0.00070       1.00051
   153    H   10  S      Ryd( 3S)     0.00018       1.73439
   154    H   10  px     Ryd( 2p)     0.00019       1.60695
   155    H   10  py     Ryd( 2p)     0.00019       2.18252
   156    H   10  pz     Ryd( 2p)     0.00038       2.55121

   157    H   11  S      Val( 1S)     0.79225       0.04657
   158    H   11  S      Ryd( 2S)     0.00066       0.62492
   159    H   11  S      Ryd( 3S)     0.00017       2.12705
   160    H   11  px     Ryd( 2p)     0.00019       1.59812
   161    H   11  py     Ryd( 2p)     0.00019       2.15624
   162    H   11  pz     Ryd( 2p)     0.00034       2.52152

   163    C   12  S      Cor( 1S)     1.99911     -10.10122
   164    C   12  S      Val( 2S)     0.99841      -0.23525
   165    C   12  S      Ryd( 4S)     0.00342       0.98779
   166    C   12  S      Ryd( 3S)     0.00029       0.92148
   167    C   12  S      Ryd( 5S)     0.00001      23.05884
   168    C   12  px     Val( 2p)     0.78500      -0.07299
   169    C   12  px     Ryd( 4p)     0.00228       0.61185
   170    C   12  px     Ryd( 3p)     0.00036       0.50603
   171    C   12  px     Ryd( 5p)     0.00028       2.79864
   172    C   12  py     Val( 2p)     1.04889      -0.09627
   173    C   12  py     Ryd( 4p)     0.00122       0.84808
   174    C   12  py     Ryd( 3p)     0.00067       0.47788
   175    C   12  py     Ryd( 5p)     0.00014       2.72045
   176    C   12  pz     Val( 2p)     1.18499      -0.10641
   177    C   12  pz     Ryd( 4p)     0.00455       0.78491
   178    C   12  pz     Ryd( 3p)     0.00087       0.54823
   179    C   12  pz     Ryd( 5p)     0.00004       2.75496
   180    C   12  dxy    Ryd( 3d)     0.00209       1.93364
   181    C   12  dxz    Ryd( 3d)     0.00171       2.07604
   182    C   12  dyz    Ryd( 3d)     0.00075       2.01635
   183    C   12  dx2y2  Ryd( 3d)     0.00170       2.21433
   184    C   12  dz2    Ryd( 3d)     0.00112       2.11708

   185    H   13  S      Val( 1S)     0.82831       0.00332
   186    H   13  S      Ryd( 2S)     0.00197       0.65625
   187    H   13  S      Ryd( 3S)     0.00017       2.20251
   188    H   13  px     Ryd( 2p)     0.00017       2.00905
   189    H   13  py     Ryd( 2p)     0.00028       1.93189
   190    H   13  pz     Ryd( 2p)     0.00032       2.40037

   191    H   14  S      Val( 1S)     0.82831       0.00332
   192    H   14  S      Ryd( 2S)     0.00197       0.65625
   193    H   14  S      Ryd( 3S)     0.00017       2.20251
   194    H   14  px     Ryd( 2p)     0.00017       2.00905
   195    H   14  py     Ryd( 2p)     0.00028       1.93189
   196    H   14  pz     Ryd( 2p)     0.00032       2.40037

   197    O   15  S      Cor( 1S)     1.99973     -18.93646
   198    O   15  S      Val( 2S)     1.63064      -0.86554
   199    O   15  S      Ryd( 3S)     0.00651       0.75216
   200    O   15  S      Ryd( 4S)     0.00026       1.66461
   201    O   15  S      Ryd( 5S)     0.00000      49.59386
   202    O   15  px     Val( 2p)     1.54403      -0.29842
   203    O   15  px     Ryd( 3p)     0.00289       0.73368
   204    O   15  px     Ryd( 4p)     0.00096       0.96696
   205    O   15  px     Ryd( 5p)     0.00004       5.17702
   206    O   15  py     Val( 2p)     1.47087      -0.29733
   207    O   15  py     Ryd( 3p)     0.00218       0.79707
   208    O   15  py     Ryd( 4p)     0.00054       1.02044
   209    O   15  py     Ryd( 5p)     0.00005       5.24321
   210    O   15  pz     Val( 2p)     1.91516      -0.29787
   211    O   15  pz     Ryd( 3p)     0.00396       0.55839
   212    O   15  pz     Ryd( 4p)     0.00105       0.87444
   213    O   15  pz     Ryd( 5p)     0.00000       4.99774
   214    O   15  dxy    Ryd( 3d)     0.00087       3.14702
   215    O   15  dxz    Ryd( 3d)     0.00052       3.00459
   216    O   15  dyz    Ryd( 3d)     0.00045       3.00864
   217    O   15  dx2y2  Ryd( 3d)     0.00142       3.56864
   218    O   15  dz2    Ryd( 3d)     0.00063       3.25642

   219    C   16  S      Cor( 1S)     1.99924     -10.15979
   220    C   16  S      Val( 2S)     0.98001      -0.24615
   221    C   16  S      Ryd( 3S)     0.00529       0.91575
   222    C   16  S      Ryd( 4S)     0.00030       1.16081
   223    C   16  S      Ryd( 5S)     0.00002      22.79688
   224    C   16  px     Val( 2p)     0.77716      -0.07665
   225    C   16  px     Ryd( 4p)     0.00310       1.08654
   226    C   16  px     Ryd( 3p)     0.00048       1.05680
   227    C   16  px     Ryd( 5p)     0.00042       1.87743
   228    C   16  py     Val( 2p)     0.75357      -0.07315
   229    C   16  py     Ryd( 4p)     0.00272       1.10914
   230    C   16  py     Ryd( 3p)     0.00038       1.06638
   231    C   16  py     Ryd( 5p)     0.00027       1.81871
   232    C   16  pz     Val( 2p)     1.14877      -0.10937
   233    C   16  pz     Ryd( 3p)     0.00072       1.01469
   234    C   16  pz     Ryd( 4p)     0.00060       1.12925
   235    C   16  pz     Ryd( 5p)     0.00012       1.77645
   236    C   16  dxy    Ryd( 3d)     0.00314       1.89322
   237    C   16  dxz    Ryd( 3d)     0.00190       1.97488
   238    C   16  dyz    Ryd( 3d)     0.00240       1.91315
   239    C   16  dx2y2  Ryd( 3d)     0.00306       2.26802
   240    C   16  dz2    Ryd( 3d)     0.00148       2.11144

   241    H   17  S      Val( 1S)     0.87370      -0.02012
   242    H   17  S      Ryd( 2S)     0.00237       0.59558
   243    H   17  S      Ryd( 3S)     0.00018       2.23293
   244    H   17  px     Ryd( 2p)     0.00021       1.96335
   245    H   17  py     Ryd( 2p)     0.00022       1.92535
   246    H   17  pz     Ryd( 2p)     0.00046       2.40758

   247    H   18  S      Val( 1S)     0.87370      -0.02012
   248    H   18  S      Ryd( 2S)     0.00237       0.59558
   249    H   18  S      Ryd( 3S)     0.00018       2.23293
   250    H   18  px     Ryd( 2p)     0.00021       1.96335
   251    H   18  py     Ryd( 2p)     0.00022       1.92535
   252    H   18  pz     Ryd( 2p)     0.00046       2.40758

   253    O   19  S      Cor( 1S)     1.99974     -18.94025
   254    O   19  S      Val( 2S)     1.62209      -0.86438
   255    O   19  S      Ryd( 3S)     0.00734       0.58664
   256    O   19  S      Ryd( 4S)     0.00015       1.79089
   257    O   19  S      Ryd( 5S)     0.00000      49.58778
   258    O   19  px     Val( 2p)     1.51420      -0.30303
   259    O   19  px     Ryd( 3p)     0.00221       0.75927
   260    O   19  px     Ryd( 4p)     0.00037       0.87982
   261    O   19  px     Ryd( 5p)     0.00006       5.19553
   262    O   19  py     Val( 2p)     1.50421      -0.29717
   263    O   19  py     Ryd( 3p)     0.00271       0.90520
   264    O   19  py     Ryd( 4p)     0.00070       1.01778
   265    O   19  py     Ryd( 5p)     0.00002       5.21135
   266    O   19  pz     Val( 2p)     1.91499      -0.29846
   267    O   19  pz     Ryd( 3p)     0.00472       0.59266
   268    O   19  pz     Ryd( 4p)     0.00063       0.90944
   269    O   19  pz     Ryd( 5p)     0.00000       4.97588
   270    O   19  dxy    Ryd( 3d)     0.00087       3.13152
   271    O   19  dxz    Ryd( 3d)     0.00053       3.00060
   272    O   19  dyz    Ryd( 3d)     0.00045       2.96862
   273    O   19  dx2y2  Ryd( 3d)     0.00148       3.57708
   274    O   19  dz2    Ryd( 3d)     0.00064       3.24923

   275    C   20  S      Cor( 1S)     1.99929     -10.09797
   276    C   20  S      Val( 2S)     1.07831      -0.27400
   277    C   20  S      Ryd( 4S)     0.00181       0.85651
   278    C   20  S      Ryd( 3S)     0.00014       0.79454
   279    C   20  S      Ryd( 5S)     0.00001      23.09711
   280    C   20  px     Val( 2p)     1.18364      -0.11244
   281    C   20  px     Ryd( 4p)     0.00181       0.80251
   282    C   20  px     Ryd( 3p)     0.00038       0.53798
   283    C   20  px     Ryd( 5p)     0.00005       2.50946
   284    C   20  py     Val( 2p)     0.75495      -0.07617
   285    C   20  py     Ryd( 4p)     0.00363       0.65997
   286    C   20  py     Ryd( 3p)     0.00014       0.51304
   287    C   20  py     Ryd( 5p)     0.00016       2.60603
   288    C   20  pz     Val( 2p)     1.17559      -0.10765
   289    C   20  pz     Ryd( 4p)     0.00021       0.66130
   290    C   20  pz     Ryd( 3p)     0.00003       0.51035
   291    C   20  pz     Ryd( 5p)     0.00002       2.57713
   292    C   20  dxy    Ryd( 3d)     0.00169       1.88034
   293    C   20  dxz    Ryd( 3d)     0.00060       1.89580
   294    C   20  dyz    Ryd( 3d)     0.00164       2.00933
   295    C   20  dx2y2  Ryd( 3d)     0.00185       2.23363
   296    C   20  dz2    Ryd( 3d)     0.00098       2.10314

   297    H   21  S      Val( 1S)     0.83922      -0.00222
   298    H   21  S      Ryd( 2S)     0.00128       0.60248
   299    H   21  S      Ryd( 3S)     0.00014       2.11537
   300    H   21  px     Ryd( 2p)     0.00026       1.86569
   301    H   21  py     Ryd( 2p)     0.00013       1.88069
   302    H   21  pz     Ryd( 2p)     0.00041       2.36597

   303    H   22  S      Val( 1S)     0.80789       0.01806
   304    H   22  S      Ryd( 2S)     0.00031       0.39929
   305    H   22  S      Ryd( 3S)     0.00013       2.29564
   306    H   22  px     Ryd( 2p)     0.00042       2.67392
   307    H   22  py     Ryd( 2p)     0.00010       1.69497
   308    H   22  pz     Ryd( 2p)     0.00021       1.72820

   309    H   23  S      Val( 1S)     0.83922      -0.00222
   310    H   23  S      Ryd( 2S)     0.00128       0.60248
   311    H   23  S      Ryd( 3S)     0.00014       2.11537
   312    H   23  px     Ryd( 2p)     0.00026       1.86569
   313    H   23  py     Ryd( 2p)     0.00013       1.88069
   314    H   23  pz     Ryd( 2p)     0.00041       2.36597

 WARNING:  Population inversion found on atom  C    1
           Population inversion found on atom  C    2
           Population inversion found on atom  C    3
           Population inversion found on atom  C    4
           Population inversion found on atom  C    5
           Population inversion found on atom  C    6
           Population inversion found on atom  C   12
           Population inversion found on atom  C   16
           Population inversion found on atom  C   20


 Summary of Natural Population Analysis:                  
                                                          
                                       Natural Population 
                Natural  -----------------------------------------------
    Atom  No    Charge         Core      Valence    Rydberg      Total
 -----------------------------------------------------------------------
      C    1   -0.19975      1.99916     4.18265    0.01794     6.19975
      C    2   -0.20111      1.99916     4.18371    0.01824     6.20111
      C    3   -0.18515      1.99905     4.16831    0.01779     6.18515
      C    4   -0.05853      1.99900     4.04102    0.01850     6.05853
      C    5   -0.18515      1.99905     4.16831    0.01779     6.18515
      C    6   -0.20111      1.99916     4.18371    0.01824     6.20111
      H    7    0.20614      0.00000     0.79249    0.00137     0.79386
      H    8    0.20620      0.00000     0.79225    0.00155     0.79380
      H    9    0.20589      0.00000     0.79246    0.00165     0.79411
      H   10    0.20589      0.00000     0.79246    0.00165     0.79411
      H   11    0.20620      0.00000     0.79225    0.00155     0.79380
      C   12   -0.03792      1.99911     4.01730    0.02151     6.03792
      H   13    0.16878      0.00000     0.82831    0.00291     0.83122
      H   14    0.16878      0.00000     0.82831    0.00291     0.83122
      O   15   -0.58276      1.99973     6.56070    0.02233     8.58276
      C   16    0.31486      1.99924     3.65950    0.02640     5.68514
      H   17    0.12286      0.00000     0.87370    0.00344     0.87714
      H   18    0.12286      0.00000     0.87370    0.00344     0.87714
      O   19   -0.57812      1.99974     6.55549    0.02288     8.57812
      C   20   -0.20694      1.99929     4.19249    0.01516     6.20694
      H   21    0.15856      0.00000     0.83922    0.00221     0.84144
      H   22    0.19094      0.00000     0.80789    0.00117     0.80906
      H   23    0.15856      0.00000     0.83922    0.00221     0.84144
 =======================================================================
   * Total *    0.00000     21.99171    59.76547    0.24282    82.00000

                                 Natural Population      
 --------------------------------------------------------
   Core                      21.99171 ( 99.9623% of  22)
   Valence                   59.76547 ( 99.6091% of  60)
   Natural Minimal Basis     81.75718 ( 99.7039% of  82)
   Natural Rydberg Basis      0.24282 (  0.2961% of  82)
 --------------------------------------------------------

    Atom  No          Natural Electron Configuration
 ----------------------------------------------------------------------------
      C    1      [core]2S( 0.95)2p( 3.23)4p( 0.01)
      C    2      [core]2S( 0.95)2p( 3.23)4p( 0.01)
      C    3      [core]2S( 0.94)2p( 3.23)4p( 0.01)
      C    4      [core]2S( 0.89)2p( 3.15)3p( 0.01)4p( 0.01)
      C    5      [core]2S( 0.94)2p( 3.23)4p( 0.01)
      C    6      [core]2S( 0.95)2p( 3.23)4p( 0.01)
      H    7            1S( 0.79)
      H    8            1S( 0.79)
      H    9            1S( 0.79)
      H   10            1S( 0.79)
      H   11            1S( 0.79)
      C   12      [core]2S( 1.00)2p( 3.02)3d( 0.01)4p( 0.01)
      H   13            1S( 0.83)
      H   14            1S( 0.83)
      O   15      [core]2S( 1.63)2p( 4.93)3S( 0.01)3p( 0.01)
      C   16      [core]2S( 0.98)2p( 2.68)3S( 0.01)3d( 0.01)4p( 0.01)
      H   17            1S( 0.87)
      H   18            1S( 0.87)
      O   19      [core]2S( 1.62)2p( 4.93)3S( 0.01)3p( 0.01)
      C   20      [core]2S( 1.08)2p( 3.11)3d( 0.01)4p( 0.01)
      H   21            1S( 0.84)
      H   22            1S( 0.81)
      H   23            1S( 0.84)


 NBO analysis skipped by request.
 1\1\GINC-COREV3-23-050\SP\RB3LYP\6-311+G(d,p)\C9H12O2\ROOT\23-Jul-2021
 \0\\# b3lyp/6-311+g(d,p) geom=connectivity pop=(hirshfeld,chelpg,mbs,n
 pa)\\Table4_7\\0,1\C,0,-3.724977,0.,-0.603241\C,0,-3.080117,-1.206082,
 -0.332821\C,0,-1.796004,-1.203608,0.20734\C,0,-1.141478,0.,0.482275\C,
 0,-1.796004,1.203608,0.20734\C,0,-3.080117,1.206082,-0.332821\H,0,-4.7
 25456,0.,-1.021263\H,0,-3.577075,-2.146916,-0.541467\H,0,-1.294394,-2.
 14344,0.413829\H,0,-1.294394,2.14344,0.413829\H,0,-3.577075,2.146916,-
 0.541467\C,0,0.256951,0.,1.039417\H,0,0.417156,-0.888427,1.667386\H,0,
 0.417156,0.888427,1.667387\O,0,1.188254,0.,-0.042357\C,0,2.515922,0.,0
 .394168\H,0,2.724224,-0.898883,1.00759\H,0,2.724224,0.898882,1.007591\
 O,0,3.304265,0.,-0.757937\C,0,4.68995,0.,-0.468898\H,0,4.985003,-0.893
 455,0.098985\H,0,5.210714,0.,-1.425596\H,0,4.985003,0.893455,0.098985\
 \Version=ES64L-G09RevD.01\State=1-A'\HF=-500.7381167\RMSD=8.060e-09\Di
 pole=0.3100025,0.,0.8883855\Quadrupole=6.3389864,-0.3077279,-6.0312584
 ,0.,4.8455333,0.\PG=CS [SG(C5H2O2),X(C4H10)]\\@


 ALL MY ATTEMPTS TO ADAPT THE THEORETICAL FOUNDATIONS OF PHYSICS
 TO THESE NEW NOTIONS FAILED COMPLETELY. IT WAS AS IF THE GROUND HAD
 BEEN PULLED OUT FROM UNDER ONE WITH NO FIRM FOUNDATION TO BE SEEN ANYWHERE,
 UPON WHICH ONE COULD HAVE BUILT.  -- A.EINSTEIN
 Job cpu time:       0 days  0 hours  6 minutes 46.0 seconds.
 File lengths (MBytes):  RWF=     80 Int=      0 D2E=      0 Chk=      5 Scr=      1
 Normal termination of Gaussian 09 at Fri Jul 23 17:33:49 2021.
