 Entering Gaussian System, Link 0=g09
 Initial command:
 /cm/shared/apps/gaussian/g09revD.01/g09/l1.exe "//home/sweav003/CHB/CHActivation_Mkhalid/OtherCharges/G09-Table3_10.com.o9447101.tmp/Gau-60977.inp" -scrdir="//home/sweav003/CHB/CHActivation_Mkhalid/OtherCharges/G09-Table3_10.com.o9447101.tmp/"
 Entering Link 1 = /cm/shared/apps/gaussian/g09revD.01/g09/l1.exe PID=     60978.
  
 Copyright (c) 1988,1990,1992,1993,1995,1998,2003,2009,2013,
            Gaussian, Inc.  All Rights Reserved.
  
 This is part of the Gaussian(R) 09 program.  It is based on
 the Gaussian(R) 03 system (copyright 2003, Gaussian, Inc.),
 the Gaussian(R) 98 system (copyright 1998, Gaussian, Inc.),
 the Gaussian(R) 94 system (copyright 1995, Gaussian, Inc.),
 the Gaussian 92(TM) system (copyright 1992, Gaussian, Inc.),
 the Gaussian 90(TM) system (copyright 1990, Gaussian, Inc.),
 the Gaussian 88(TM) system (copyright 1988, Gaussian, Inc.),
 the Gaussian 86(TM) system (copyright 1986, Carnegie Mellon
 University), and the Gaussian 82(TM) system (copyright 1983,
 Carnegie Mellon University). Gaussian is a federally registered
 trademark of Gaussian, Inc.
  
 This software contains proprietary and confidential information,
 including trade secrets, belonging to Gaussian, Inc.
  
 This software is provided under written license and may be
 used, copied, transmitted, or stored only in accord with that
 written license.
  
 The following legend is applicable only to US Government
 contracts under FAR:
  
                    RESTRICTED RIGHTS LEGEND
  
 Use, reproduction and disclosure by the US Government is
 subject to restrictions as set forth in subparagraphs (a)
 and (c) of the Commercial Computer Software - Restricted
 Rights clause in FAR 52.227-19.
  
 Gaussian, Inc.
 340 Quinnipiac St., Bldg. 40, Wallingford CT 06492
  
  
 ---------------------------------------------------------------
 Warning -- This program may not be used in any manner that
 competes with the business of Gaussian, Inc. or will provide
 assistance to any competitor of Gaussian, Inc.  The licensee
 of this program is prohibited from giving any competitor of
 Gaussian, Inc. access to this program.  By using this program,
 the user acknowledges that Gaussian, Inc. is engaged in the
 business of creating and licensing software in the field of
 computational chemistry and represents and warrants to the
 licensee that it is not a competitor of Gaussian, Inc. and that
 it will not use this program in any manner prohibited above.
 ---------------------------------------------------------------
  

 Cite this work as:
 Gaussian 09, Revision D.01,
 M. J. Frisch, G. W. Trucks, H. B. Schlegel, G. E. Scuseria, 
 M. A. Robb, J. R. Cheeseman, G. Scalmani, V. Barone, B. Mennucci, 
 G. A. Petersson, H. Nakatsuji, M. Caricato, X. Li, H. P. Hratchian, 
 A. F. Izmaylov, J. Bloino, G. Zheng, J. L. Sonnenberg, M. Hada, 
 M. Ehara, K. Toyota, R. Fukuda, J. Hasegawa, M. Ishida, T. Nakajima, 
 Y. Honda, O. Kitao, H. Nakai, T. Vreven, J. A. Montgomery, Jr., 
 J. E. Peralta, F. Ogliaro, M. Bearpark, J. J. Heyd, E. Brothers, 
 K. N. Kudin, V. N. Staroverov, T. Keith, R. Kobayashi, J. Normand, 
 K. Raghavachari, A. Rendell, J. C. Burant, S. S. Iyengar, J. Tomasi, 
 M. Cossi, N. Rega, J. M. Millam, M. Klene, J. E. Knox, J. B. Cross, 
 V. Bakken, C. Adamo, J. Jaramillo, R. Gomperts, R. E. Stratmann, 
 O. Yazyev, A. J. Austin, R. Cammi, C. Pomelli, J. W. Ochterski, 
 R. L. Martin, K. Morokuma, V. G. Zakrzewski, G. A. Voth, 
 P. Salvador, J. J. Dannenberg, S. Dapprich, A. D. Daniels, 
 O. Farkas, J. B. Foresman, J. V. Ortiz, J. Cioslowski, 
 and D. J. Fox, Gaussian, Inc., Wallingford CT, 2013.
 
 ******************************************
 Gaussian 09:  ES64L-G09RevD.01 24-Apr-2013
                23-Jul-2021 
 ******************************************
 %mem=100MW
 %nprocshared=20
 Will use up to   20 processors via shared memory.
 ---------------------------------------------------------------------
 # b3lyp/6-311+g(d,p) geom=connectivity pop=(hirshfeld,chelpg,mbs,npa)
 ---------------------------------------------------------------------
 1/38=1,57=2/1;
 2/12=2,17=6,18=5,40=1/2;
 3/5=4,6=6,7=111,11=2,16=1,25=1,30=1,74=-5/1,2,3;
 4//1;
 5/5=2,38=5/2;
 6/7=2,8=2,9=2,10=2,15=8,20=3,27=100,28=1,40=-1,79=1/1,2,7;
 99/5=1,9=1/99;
 ---------
 Table3_10
 ---------
 Symbolic Z-matrix:
 Charge =  0 Multiplicity = 1
 6                     0.06162  -0.55365   0.00004 
 6                    -0.11103   0.85139  -0.00006 
 6                    -1.41702   1.37197   0.00003 
 6                    -2.49983   0.50739   0.0002 
 6                    -2.30749  -0.88493   0.00029 
 6                    -1.02928  -1.42642   0.00021 
 6                     2.21563   0.71167  -0.00026 
 6                     1.14881   1.5482   -0.00023 
 1                    -1.56986   2.44577  -0.00004 
 1                    -3.50765   0.90649   0.00026 
 1                    -3.16686  -1.5456    0.00042 
 1                    -0.88397  -2.50041   0.00028 
 1                     3.26295   0.97449  -0.00038 
 1                     1.2371    2.62695  -0.00033 
 16                    1.76624  -0.97884  -0.00009 
 
                          Input orientation:                          
 ---------------------------------------------------------------------
 Center     Atomic      Atomic             Coordinates (Angstroms)
 Number     Number       Type             X           Y           Z
 ---------------------------------------------------------------------
      1          6           0        0.061622   -0.553648    0.000037
      2          6           0       -0.111025    0.851389   -0.000056
      3          6           0       -1.417016    1.371970    0.000026
      4          6           0       -2.499833    0.507387    0.000196
      5          6           0       -2.307487   -0.884927    0.000287
      6          6           0       -1.029276   -1.426420    0.000208
      7          6           0        2.215626    0.711668   -0.000263
      8          6           0        1.148809    1.548197   -0.000232
      9          1           0       -1.569858    2.445765   -0.000044
     10          1           0       -3.507645    0.906486    0.000260
     11          1           0       -3.166861   -1.545601    0.000420
     12          1           0       -0.883968   -2.500411    0.000279
     13          1           0        3.262952    0.974488   -0.000380
     14          1           0        1.237098    2.626950   -0.000326
     15         16           0        1.766235   -0.978835   -0.000089
 ---------------------------------------------------------------------
                    Distance matrix (angstroms):
                    1          2          3          4          5
     1  C    0.000000
     2  C    1.415604   0.000000
     3  C    2.427833   1.405922   0.000000
     4  C    2.772516   2.413450   1.385639   0.000000
     5  C    2.392159   2.799864   2.426216   1.405537   0.000000
     6  C    1.397065   2.455931   2.825125   2.429434   1.388178
     7  C    2.498151   2.330843   3.692166   4.719882   4.796631
     8  C    2.366374   1.439695   2.571870   3.794190   4.226828
     9  H    3.414411   2.161071   1.084618   2.149922   3.411394
    10  H    3.856379   3.397067   2.141823   1.083958   2.156279
    11  H    3.377436   3.883773   3.402084   2.158631   1.083981
    12  H    2.164261   3.439768   3.908897   3.414362   2.153183
    13  H    3.547353   3.376222   4.696817   5.781684   5.872582
    14  H    3.390862   2.229361   2.935864   4.296184   4.989726
    15  S    1.756841   2.621798   3.957192   4.517543   4.074804
                    6          7          8          9         10
     6  C    0.000000
     7  C    3.885976   0.000000
     8  C    3.686787   1.355684   0.000000
     9  H    3.909737   4.163770   2.863002   0.000000
    10  H    3.403640   5.726586   4.700463   2.474752   0.000000
    11  H    2.140905   5.836645   5.310047   4.299002   2.475654
    12  H    1.083776   4.463736   4.530277   4.993506   4.300073
    13  H    4.918087   1.079799   2.190603   5.051803   6.770939
    14  H    4.643949   2.150772   1.082360   2.812798   5.047037
    15  S    2.831115   1.749215   2.601366   4.780942   5.600736
                   11         12         13         14         15
    11  H    0.000000
    12  H    2.474523   0.000000
    13  H    6.906037   5.410348   0.000000
    14  H    6.066716   5.548761   2.614329   0.000000
    15  S    4.965547   3.055940   2.460819   3.644403   0.000000
 Stoichiometry    C8H6S
 Framework group  C1[X(C8H6S)]
 Deg. of freedom    39
 Full point group                 C1      NOp   1
 Largest Abelian subgroup         C1      NOp   1
 Largest concise Abelian subgroup C1      NOp   1
                         Standard orientation:                         
 ---------------------------------------------------------------------
 Center     Atomic      Atomic             Coordinates (Angstroms)
 Number     Number       Type             X           Y           Z
 ---------------------------------------------------------------------
      1          6           0        0.061622   -0.553648    0.000037
      2          6           0       -0.111025    0.851389   -0.000056
      3          6           0       -1.417016    1.371970    0.000026
      4          6           0       -2.499833    0.507387    0.000196
      5          6           0       -2.307487   -0.884927    0.000287
      6          6           0       -1.029276   -1.426420    0.000208
      7          6           0        2.215626    0.711668   -0.000263
      8          6           0        1.148809    1.548197   -0.000232
      9          1           0       -1.569858    2.445765   -0.000044
     10          1           0       -3.507645    0.906486    0.000260
     11          1           0       -3.166861   -1.545601    0.000420
     12          1           0       -0.883968   -2.500411    0.000279
     13          1           0        3.262952    0.974488   -0.000380
     14          1           0        1.237098    2.626950   -0.000326
     15         16           0        1.766235   -0.978835   -0.000089
 ---------------------------------------------------------------------
 Rotational constants (GHZ):      3.1471836      1.3010382      0.9205041
 Standard basis: 6-311+G(d,p) (5D, 7F)
 There are   251 symmetry adapted cartesian basis functions of A   symmetry.
 There are   242 symmetry adapted basis functions of A   symmetry.
   242 basis functions,   386 primitive gaussians,   251 cartesian basis functions
    35 alpha electrons       35 beta electrons
       nuclear repulsion energy       465.8902311505 Hartrees.
 NAtoms=   15 NActive=   15 NUniq=   15 SFac= 1.00D+00 NAtFMM=   60 NAOKFM=F Big=F
 Integral buffers will be    131072 words long.
 Raffenetti 2 integral format.
 Two-electron integral symmetry is turned on.
 One-electron integrals computed using PRISM.
 NBasis=   242 RedAO= T EigKep=  1.13D-06  NBF=   242
 NBsUse=   242 1.00D-06 EigRej= -1.00D+00 NBFU=   242
 ExpMin= 4.05D-02 ExpMax= 9.34D+04 ExpMxC= 3.17D+03 IAcc=2 IRadAn=         4 AccDes= 0.00D+00
 Harris functional with IExCor=  402 and IRadAn=       4 diagonalized for initial guess.
 HarFok:  IExCor=  402 AccDes= 0.00D+00 IRadAn=         4 IDoV= 1 UseB2=F ITyADJ=14
 ICtDFT=  3500011 ScaDFX=  1.000000  1.000000  1.000000  1.000000
 FoFCou: FMM=F IPFlag=           0 FMFlag=      100000 FMFlg1=           0
         NFxFlg=           0 DoJE=T BraDBF=F KetDBF=T FulRan=T
         wScrn=  0.000000 ICntrl=     500 IOpCl=  0 I1Cent=   200000004 NGrid=           0
         NMat0=    1 NMatS0=      1 NMatT0=    0 NMatD0=    1 NMtDS0=    0 NMtDT0=    0
 Petite list used in FoFCou.
 Requested convergence on RMS density matrix=1.00D-08 within 128 cycles.
 Requested convergence on MAX density matrix=1.00D-06.
 Requested convergence on             energy=1.00D-06.
 No special actions if energy rises.
 SCF Done:  E(RB3LYP) =  -706.757665582     A.U. after   16 cycles
            NFock= 16  Conv=0.13D-08     -V/T= 2.0028

 **********************************************************************

            Population analysis using the SCF density.

 **********************************************************************

 Orbital symmetries:
       Occupied  (A) (A) (A) (A) (A) (A) (A) (A) (A) (A) (A) (A)
                 (A) (A) (A) (A) (A) (A) (A) (A) (A) (A) (A) (A)
                 (A) (A) (A) (A) (A) (A) (A) (A) (A) (A) (A)
       Virtual   (A) (A) (A) (A) (A) (A) (A) (A) (A) (A) (A) (A)
                 (A) (A) (A) (A) (A) (A) (A) (A) (A) (A) (A) (A)
                 (A) (A) (A) (A) (A) (A) (A) (A) (A) (A) (A) (A)
                 (A) (A) (A) (A) (A) (A) (A) (A) (A) (A) (A) (A)
                 (A) (A) (A) (A) (A) (A) (A) (A) (A) (A) (A) (A)
                 (A) (A) (A) (A) (A) (A) (A) (A) (A) (A) (A) (A)
                 (A) (A) (A) (A) (A) (A) (A) (A) (A) (A) (A) (A)
                 (A) (A) (A) (A) (A) (A) (A) (A) (A) (A) (A) (A)
                 (A) (A) (A) (A) (A) (A) (A) (A) (A) (A) (A) (A)
                 (A) (A) (A) (A) (A) (A) (A) (A) (A) (A) (A) (A)
                 (A) (A) (A) (A) (A) (A) (A) (A) (A) (A) (A) (A)
                 (A) (A) (A) (A) (A) (A) (A) (A) (A) (A) (A) (A)
                 (A) (A) (A) (A) (A) (A) (A) (A) (A) (A) (A) (A)
                 (A) (A) (A) (A) (A) (A) (A) (A) (A) (A) (A) (A)
                 (A) (A) (A) (A) (A) (A) (A) (A) (A) (A) (A) (A)
                 (A) (A) (A) (A) (A) (A) (A) (A) (A) (A) (A) (A)
                 (A) (A) (A) (A) (A) (A) (A) (A) (A) (A) (A) (A)
                 (A) (A) (A)
 The electronic state is 1-A.
 Alpha  occ. eigenvalues --  -88.87805 -10.21265 -10.20979 -10.19197 -10.18792
 Alpha  occ. eigenvalues --  -10.18504 -10.18390 -10.18207 -10.17995  -7.96421
 Alpha  occ. eigenvalues --   -5.92735  -5.92369  -5.91960  -0.89905  -0.83597
 Alpha  occ. eigenvalues --   -0.77701  -0.73509  -0.71795  -0.62426  -0.59298
 Alpha  occ. eigenvalues --   -0.57785  -0.51239  -0.48818  -0.47022  -0.44029
 Alpha  occ. eigenvalues --   -0.43524  -0.40793  -0.39873  -0.37394  -0.36269
 Alpha  occ. eigenvalues --   -0.34225  -0.33897  -0.29292  -0.24612  -0.22758
 Alpha virt. eigenvalues --   -0.03938  -0.01928  -0.00450   0.00525   0.01725
 Alpha virt. eigenvalues --    0.01931   0.02194   0.03443   0.04375   0.04807
 Alpha virt. eigenvalues --    0.05165   0.05954   0.07000   0.07010   0.07855
 Alpha virt. eigenvalues --    0.08888   0.09990   0.10999   0.11124   0.11490
 Alpha virt. eigenvalues --    0.12012   0.12465   0.13983   0.14776   0.14854
 Alpha virt. eigenvalues --    0.15801   0.15957   0.16459   0.16622   0.17217
 Alpha virt. eigenvalues --    0.17733   0.18271   0.18586   0.18968   0.20384
 Alpha virt. eigenvalues --    0.20995   0.21321   0.21369   0.21629   0.23044
 Alpha virt. eigenvalues --    0.23562   0.24175   0.24948   0.25686   0.26060
 Alpha virt. eigenvalues --    0.27256   0.27873   0.28946   0.29616   0.30718
 Alpha virt. eigenvalues --    0.32854   0.33364   0.33572   0.36228   0.38229
 Alpha virt. eigenvalues --    0.40055   0.43731   0.45542   0.47938   0.50831
 Alpha virt. eigenvalues --    0.52693   0.53633   0.53651   0.53973   0.54452
 Alpha virt. eigenvalues --    0.55750   0.56583   0.58104   0.58424   0.59943
 Alpha virt. eigenvalues --    0.62515   0.63357   0.63659   0.64152   0.67748
 Alpha virt. eigenvalues --    0.68800   0.70211   0.70957   0.73086   0.74305
 Alpha virt. eigenvalues --    0.74982   0.75477   0.77407   0.79379   0.81121
 Alpha virt. eigenvalues --    0.81250   0.82236   0.82715   0.83437   0.84526
 Alpha virt. eigenvalues --    0.85021   0.88510   0.90834   0.91580   0.92175
 Alpha virt. eigenvalues --    0.94773   0.97141   0.99135   1.00801   1.03145
 Alpha virt. eigenvalues --    1.04572   1.05646   1.06268   1.06873   1.09851
 Alpha virt. eigenvalues --    1.10399   1.13642   1.18115   1.28510   1.29915
 Alpha virt. eigenvalues --    1.34488   1.35684   1.43722   1.49859   1.50225
 Alpha virt. eigenvalues --    1.50526   1.55788   1.56217   1.56405   1.58622
 Alpha virt. eigenvalues --    1.61118   1.65035   1.65804   1.66141   1.70620
 Alpha virt. eigenvalues --    1.71052   1.72345   1.74091   1.74998   1.79804
 Alpha virt. eigenvalues --    1.83275   1.85480   1.86565   1.89201   1.90351
 Alpha virt. eigenvalues --    1.90811   1.91817   1.94184   1.96363   1.97474
 Alpha virt. eigenvalues --    1.99754   2.00455   2.01715   2.07962   2.09124
 Alpha virt. eigenvalues --    2.11958   2.12587   2.15645   2.26409   2.28773
 Alpha virt. eigenvalues --    2.34008   2.36720   2.38198   2.39381   2.44342
 Alpha virt. eigenvalues --    2.49261   2.54386   2.61193   2.65142   2.66064
 Alpha virt. eigenvalues --    2.69567   2.69960   2.70960   2.72222   2.74075
 Alpha virt. eigenvalues --    2.74757   2.75643   2.76428   2.79268   2.79682
 Alpha virt. eigenvalues --    2.84737   2.86886   2.89399   2.89612   2.97009
 Alpha virt. eigenvalues --    3.07667   3.10410   3.14777   3.19213   3.26208
 Alpha virt. eigenvalues --    3.31818   3.35173   3.39898   3.49084   3.52772
 Alpha virt. eigenvalues --    3.57474   3.64714   3.81217   4.02258   4.03534
 Alpha virt. eigenvalues --    4.08359   4.16067   4.40956   4.82976   8.00794
 Alpha virt. eigenvalues --   17.28804  17.47958  17.53770  23.51628  23.76409
 Alpha virt. eigenvalues --   23.91349  23.95335  24.02888  24.09406  24.17120
 Alpha virt. eigenvalues --   24.18343 189.17996
          Condensed to atoms (all electrons):
               1          2          3          4          5          6
     1  C   16.928468  -4.769992  -0.744768  -1.109194   0.915808  -4.298994
     2  C   -4.769992  17.138122  -2.987234   0.689242  -1.416010  -0.964713
     3  C   -0.744768  -2.987234  18.451779  -1.675006   2.105044  -6.546243
     4  C   -1.109194   0.689242  -1.675006   6.158919  -0.266056   1.774895
     5  C    0.915808  -1.416010   2.105044  -0.266056   5.935276  -1.427453
     6  C   -4.298994  -0.964713  -6.546243   1.774895  -1.427453  16.153106
     7  C   -0.376164   1.116331   0.352656  -0.098456   0.032831  -0.653531
     8  C    0.532404  -5.065428  -3.772128   0.280707  -0.200506   3.383348
     9  H    0.004125   0.045311   0.264878  -0.014429  -0.015092   0.005888
    10  H   -0.013424   0.048140  -0.064132   0.370673  -0.002279  -0.003537
    11  H   -0.083682   0.051240  -0.084283   0.060815   0.333524   0.066027
    12  H   -0.029503  -0.035922  -0.003858   0.000154   0.019243   0.384441
    13  H    0.021554  -0.057466  -0.000002   0.000313   0.000898   0.010142
    14  H   -0.091374   0.048926   0.095367   0.009683   0.003071  -0.021741
    15  S   -0.715144   1.926879   2.009921  -0.249113   0.298073  -2.930690
               7          8          9         10         11         12
     1  C   -0.376164   0.532404   0.004125  -0.013424  -0.083682  -0.029503
     2  C    1.116331  -5.065428   0.045311   0.048140   0.051240  -0.035922
     3  C    0.352656  -3.772128   0.264878  -0.064132  -0.084283  -0.003858
     4  C   -0.098456   0.280707  -0.014429   0.370673   0.060815   0.000154
     5  C    0.032831  -0.200506  -0.015092  -0.002279   0.333524   0.019243
     6  C   -0.653531   3.383348   0.005888  -0.003537   0.066027   0.384441
     7  C    5.872167  -1.078948   0.008394   0.001102  -0.001069   0.002514
     8  C   -1.078948  13.089372   0.037839   0.013097   0.008191  -0.001294
     9  H    0.008394   0.037839   0.548623  -0.008079  -0.000237   0.000067
    10  H    0.001102   0.013097  -0.008079   0.541526  -0.007830  -0.000264
    11  H   -0.001069   0.008191  -0.000237  -0.007830   0.539890  -0.007998
    12  H    0.002514  -0.001294   0.000067  -0.000264  -0.007998   0.534673
    13  H    0.363009   0.055181  -0.000015   0.000000   0.000000  -0.000012
    14  H    0.018494   0.261330   0.001962  -0.000011  -0.000002   0.000011
    15  S    0.637818  -2.013960  -0.001195  -0.001562  -0.001738   0.009661
              13         14         15
     1  C    0.021554  -0.091374  -0.715144
     2  C   -0.057466   0.048926   1.926879
     3  C   -0.000002   0.095367   2.009921
     4  C    0.000313   0.009683  -0.249113
     5  C    0.000898   0.003071   0.298073
     6  C    0.010142  -0.021741  -2.930690
     7  C    0.363009   0.018494   0.637818
     8  C    0.055181   0.261330  -2.013960
     9  H   -0.000015   0.001962  -0.001195
    10  H    0.000000  -0.000011  -0.001562
    11  H    0.000000  -0.000002  -0.001738
    12  H   -0.000012   0.000011   0.009661
    13  H    0.481365  -0.005408  -0.033362
    14  H   -0.005408   0.536853   0.016996
    15  S   -0.033362   0.016996  17.594499
 Mulliken charges:
               1
     1  C   -0.170120
     2  C    0.232575
     3  C   -1.401990
     4  C    0.066855
     5  C   -0.316373
     6  C    1.069057
     7  C   -0.197148
     8  C    0.470796
     9  H    0.121962
    10  H    0.126582
    11  H    0.127153
    12  H    0.128089
    13  H    0.163803
    14  H    0.125842
    15  S   -0.547084
 Sum of Mulliken charges =   0.00000
 Mulliken charges with hydrogens summed into heavy atoms:
               1
     1  C   -0.170120
     2  C    0.232575
     3  C   -1.280027
     4  C    0.193437
     5  C   -0.189219
     6  C    1.197146
     7  C   -0.033345
     8  C    0.596638
    15  S   -0.547084
 Electronic spatial extent (au):  <R**2>=           1217.1690
 Charge=              0.0000 electrons
 Dipole moment (field-independent basis, Debye):
    X=             -0.1359    Y=              0.6283    Z=              0.0000  Tot=              0.6428
 Quadrupole moment (field-independent basis, Debye-Ang):
   XX=            -53.2463   YY=            -53.9260   ZZ=            -65.1622
   XY=              2.3145   XZ=             -0.0013   YZ=             -0.0011
 Traceless Quadrupole moment (field-independent basis, Debye-Ang):
   XX=              4.1985   YY=              3.5188   ZZ=             -7.7174
   XY=              2.3145   XZ=             -0.0013   YZ=             -0.0011
 Octapole moment (field-independent basis, Debye-Ang**2):
  XXX=              5.0552  YYY=              2.1867  ZZZ=             -0.0004  XYY=             -3.6782
  XXY=              5.1118  XXZ=             -0.0003  XZZ=              2.7134  YZZ=             -1.5035
  YYZ=             -0.0001  XYZ=             -0.0001
 Hexadecapole moment (field-independent basis, Debye-Ang**3):
 XXXX=          -1006.3264 YYYY=           -470.7957 ZZZZ=            -81.9780 XXXY=             16.0946
 XXXZ=              0.0300 YYYX=              7.3100 YYYZ=              0.0101 ZZZX=              0.0564
 ZZZY=              0.0205 XXYY=           -261.5040 XXZZ=           -225.1256 YYZZ=           -111.2048
 XXYZ=              0.0009 YYXZ=              0.0131 ZZXY=             -2.5441
 N-N= 4.658902311505D+02 E-N=-2.594273485843D+03  KE= 7.047961074090D+02
 There are a total of      122638 grid points.
 ElSum from          density=       69.9999477322
 ElSum from atomic densities=       69.9997698571

 Hirshfeld populations at iteration   1 (CX, CA, CB, DipXYZ):
               1          2          3          4          5          6
     1  C    0.000002   3.011296   3.011296   0.029841  -0.019659  -0.000001
     2  C    0.000001   3.008433   3.008433  -0.009447   0.040888  -0.000002
     3  C    0.000000   3.022737   3.022737   0.011296   0.063671  -0.000006
     4  C    0.000000   3.026051   3.026051  -0.059329   0.009326   0.000005
     5  C    0.000000   3.024468   3.024468  -0.052871  -0.026909   0.000007
     6  C    0.000001   3.025774   3.025774   0.008618  -0.065583   0.000004
     7  C    0.000001   3.034389   3.034389   0.085098  -0.026882  -0.000006
     8  C    0.000001   3.033047   3.033047  -0.055188   0.105144  -0.000004
     9  H    0.000002   0.475505   0.475505  -0.025086   0.158354  -0.000010
    10  H    0.000002   0.476483   0.476483  -0.150239   0.058995   0.000010
    11  H    0.000002   0.476042   0.476042  -0.128558  -0.098314   0.000020
    12  H    0.000003   0.473876   0.473876   0.014343  -0.163721   0.000012
    13  H    0.000004   0.469975   0.469975   0.172384   0.050984  -0.000020
    14  H    0.000002   0.472243   0.472243   0.012478   0.165555  -0.000014
    15  S    0.000003   7.969654   7.969654  -0.029372   0.037725  -0.000001
       Tot   0.000025  34.999974  34.999974  -0.176032   0.289574  -0.000007

 Dip from Atomic Chgs              0.122498  -0.042361  -0.000008
         Total Dipole             -0.053534   0.247213  -0.000015

 Hirshfeld charges, spin densities, dipoles, and CM5 charges using IRadAn=      4:
              Q-H        S-H        Dx         Dy         Dz        Q-CM5   
     1  C   -0.022592   0.000000   0.029841  -0.019659  -0.000001  -0.039499
     2  C   -0.016865   0.000000  -0.009447   0.040888  -0.000002  -0.025128
     3  C   -0.045473   0.000000   0.011296   0.063671  -0.000006  -0.098191
     4  C   -0.052101   0.000000  -0.059329   0.009326   0.000005  -0.107648
     5  C   -0.048937   0.000000  -0.052871  -0.026909   0.000007  -0.104487
     6  C   -0.051549   0.000000   0.008618  -0.065583   0.000004  -0.104732
     7  C   -0.068778   0.000000   0.085098  -0.026882  -0.000006  -0.134439
     8  C   -0.066094   0.000000  -0.055188   0.105144  -0.000004  -0.120131
     9  H    0.048990   0.000000  -0.025086   0.158354  -0.000010   0.105209
    10  H    0.047033   0.000000  -0.150239   0.058995   0.000010   0.102857
    11  H    0.047916   0.000000  -0.128558  -0.098314   0.000020   0.103719
    12  H    0.052248   0.000000   0.014343  -0.163721   0.000012   0.106983
    13  H    0.060049   0.000000   0.172384   0.050984  -0.000020   0.108396
    14  H    0.055514   0.000000   0.012478   0.165555  -0.000014   0.110983
    15  S    0.060692   0.000000  -0.029372   0.037725  -0.000001   0.096162
       Tot   0.000052   0.000000  -0.176032   0.289574  -0.000007   0.000052
 Hirshfeld charges with hydrogens summed into heavy atoms:
              Q-H       Q-CM5   
     1  C   -0.022592  -0.039499
     2  C   -0.016865  -0.025128
     3  C    0.003517   0.007018
     4  C   -0.005068  -0.004791
     5  C   -0.001021  -0.000769
     6  C    0.000699   0.002250
     7  C   -0.008729  -0.026043
     8  C   -0.010580  -0.009148
    15  S    0.060692   0.096162
 
 EQQ= 0.000000000000E+00 EQD= 0.000000000000E+00 EDD= 0.906841894483E-02
 EQQ+QD+DD= 0.906841894483E-02
 
          MBS Condensed to atoms (all electrons):
               1          2          3          4          5          6
     1  C    4.871382   0.477085  -0.028421  -0.012248  -0.031560   0.493441
     2  C    0.477085   4.778497   0.487927  -0.031053  -0.011577  -0.026165
     3  C   -0.028421   0.487927   4.826958   0.519839  -0.030765  -0.010074
     4  C   -0.012248  -0.031053   0.519839   4.826967   0.493997  -0.030613
     5  C   -0.031560  -0.011577  -0.030765   0.493997   4.829560   0.514843
     6  C    0.493441  -0.026165  -0.010074  -0.030613   0.514843   4.817707
     7  C   -0.028630  -0.045886   0.000915  -0.000012  -0.000006   0.000559
     8  C   -0.044519   0.455277  -0.022292   0.000782   0.000044   0.001015
     9  H    0.001444  -0.025825   0.388516  -0.024910   0.001488   0.000030
    10  H    0.000067   0.001527  -0.026023   0.390801  -0.025711   0.001479
    11  H    0.001538   0.000060   0.001481  -0.025434   0.390588  -0.026220
    12  H   -0.025805   0.001355   0.000025   0.001446  -0.024284   0.389343
    13  H    0.000843   0.001627  -0.000016   0.000000   0.000000  -0.000007
    14  H    0.001525  -0.021349  -0.001397   0.000002  -0.000001  -0.000018
    15  S    0.347618  -0.037481   0.000774   0.000021   0.000539  -0.018968
               7          8          9         10         11         12
     1  C   -0.028630  -0.044519   0.001444   0.000067   0.001538  -0.025805
     2  C   -0.045886   0.455277  -0.025825   0.001527   0.000060   0.001355
     3  C    0.000915  -0.022292   0.388516  -0.026023   0.001481   0.000025
     4  C   -0.000012   0.000782  -0.024910   0.390801  -0.025434   0.001446
     5  C   -0.000006   0.000044   0.001488  -0.025711   0.390588  -0.024284
     6  C    0.000559   0.001015   0.000030   0.001479  -0.026220   0.389343
     7  C    4.941023   0.554575   0.000006   0.000000   0.000000  -0.000007
     8  C    0.554575   4.853002  -0.002629  -0.000017   0.000001  -0.000023
     9  H    0.000006  -0.002629   0.557213  -0.003955  -0.000039   0.000002
    10  H    0.000000  -0.000017  -0.003955   0.557957  -0.003669  -0.000038
    11  H    0.000000   0.000001  -0.000039  -0.003669   0.556775  -0.003924
    12  H   -0.000007  -0.000023   0.000002  -0.000038  -0.003924   0.550549
    13  H    0.385336  -0.019613  -0.000001   0.000000   0.000000   0.000000
    14  H   -0.021957   0.386683   0.000708   0.000000   0.000000   0.000000
    15  S    0.350880  -0.037103  -0.000016   0.000000  -0.000011  -0.001754
              13         14         15
     1  C    0.000843   0.001525   0.347618
     2  C    0.001627  -0.021349  -0.037481
     3  C   -0.000016  -0.001397   0.000774
     4  C    0.000000   0.000002   0.000021
     5  C    0.000000  -0.000001   0.000539
     6  C   -0.000007  -0.000018  -0.018968
     7  C    0.385336  -0.021957   0.350880
     8  C   -0.019613   0.386683  -0.037103
     9  H   -0.000001   0.000708  -0.000016
    10  H    0.000000   0.000000   0.000000
    11  H    0.000000   0.000000  -0.000011
    12  H    0.000000   0.000000  -0.001754
    13  H    0.516835  -0.002466  -0.019802
    14  H   -0.002466   0.539510   0.001261
    15  S   -0.019802   0.001261  15.386022
 MBS Mulliken charges:
               1
     1  C   -0.023762
     2  C   -0.004018
     3  C   -0.107448
     4  C   -0.109586
     5  C   -0.107155
     6  C   -0.106351
     7  C   -0.136797
     8  C   -0.125183
     9  H    0.107968
    10  H    0.107582
    11  H    0.108855
    12  H    0.113114
    13  H    0.137263
    14  H    0.117497
    15  S    0.028020
 Sum of MBS Mulliken charges =   0.00000
 MBS Mulliken charges with hydrogens summed into heavy atoms:
               1
     1  C   -0.023762
     2  C   -0.004018
     3  C    0.000520
     4  C   -0.002004
     5  C    0.001700
     6  C    0.006763
     7  C    0.000466
     8  C   -0.007685
    15  S    0.028020
 Breneman (CHELPG) radii used.
 Generate Potential Derived Charges using the Breneman model, NDens= 1.
 Grid spacing= 0.300 Box extension= 2.800
 NStep X,Y,Z=   42     37     20   Total possible points=       31080
 Number of Points to Fit=   10888

 **********************************************************************

            Electrostatic Properties Using The SCF Density

 **********************************************************************

       Atomic Center    1 is at   0.061622 -0.553648  0.000037
       Atomic Center    2 is at  -0.111025  0.851389 -0.000056
       Atomic Center    3 is at  -1.417016  1.371970  0.000026
       Atomic Center    4 is at  -2.499833  0.507387  0.000196
       Atomic Center    5 is at  -2.307487 -0.884927  0.000287
       Atomic Center    6 is at  -1.029276 -1.426420  0.000208
       Atomic Center    7 is at   2.215626  0.711668 -0.000263
       Atomic Center    8 is at   1.148809  1.548197 -0.000232
       Atomic Center    9 is at  -1.569858  2.445765 -0.000044
       Atomic Center   10 is at  -3.507645  0.906486  0.000260
       Atomic Center   11 is at  -3.166861 -1.545601  0.000420
       Atomic Center   12 is at  -0.883968 -2.500411  0.000279
       Atomic Center   13 is at   3.262952  0.974488 -0.000380
       Atomic Center   14 is at   1.237098  2.626950 -0.000326
       Atomic Center   15 is at   1.766235 -0.978835 -0.000089
   10888 points will be used for fitting atomic charges
 Fitting point charges to electrostatic potential
 Charges from ESP fit, RMS=   0.00519 RRMS=   0.51475:
 ESP charges:
               1
     1  C   -0.016060
     2  C    0.328356
     3  C   -0.317128
     4  C   -0.010034
     5  C   -0.162799
     6  C   -0.081144
     7  C   -0.121111
     8  C   -0.314300
     9  H    0.141471
    10  H    0.079856
    11  H    0.094117
    12  H    0.122192
    13  H    0.170023
    14  H    0.150258
    15  S   -0.063698
 Sum of ESP charges =   0.00000
 ESP charges with hydrogens summed into heavy atoms:
               1
     1  C   -0.016060
     2  C    0.328356
     3  C   -0.175657
     4  C    0.069822
     5  C   -0.068682
     6  C    0.041048
     7  C    0.048912
     8  C   -0.164041
    15  S   -0.063698
 Charge=   0.00000 Dipole=    -0.0640     0.6025     0.0000 Tot=     0.6059
 -----------------------------------------------------------------

              Electrostatic Properties (Atomic Units)

 -----------------------------------------------------------------
    Center     Electric         -------- Electric Field --------
               Potential          X             Y             Z
 -----------------------------------------------------------------
    1 Atom    -14.739122
    2 Atom    -14.759270
    3 Atom    -14.767065
    4 Atom    -14.770987
    5 Atom    -14.768959
    6 Atom    -14.762768
    7 Atom    -14.742111
    8 Atom    -14.765884
    9 Atom     -1.101184
   10 Atom     -1.106261
   11 Atom     -1.104780
   12 Atom     -1.096396
   13 Atom     -1.075850
   14 Atom     -1.090278
   15 Atom    -59.216330
 -----------------------------------------------------------------
 ******************************Gaussian NBO Version 3.1******************************
             N A T U R A L   A T O M I C   O R B I T A L   A N D
          N A T U R A L   B O N D   O R B I T A L   A N A L Y S I S
 ******************************Gaussian NBO Version 3.1******************************
       /RESON  / : Allow strongly delocalized NBO set

 Analyzing the SCF density

 Job title: Table3_10                                                       

 Storage needed:    176870 in NPA ( 104856355 available)


 NATURAL POPULATIONS:  Natural atomic orbital occupancies 
                                                          
   NAO  Atom  No  lang   Type(AO)    Occupancy      Energy
 ----------------------------------------------------------
     1    C    1  S      Cor( 1S)     1.99881     -10.07628
     2    C    1  S      Val( 2S)     0.94385      -0.20862
     3    C    1  S      Ryd( 4S)     0.00203       0.79964
     4    C    1  S      Ryd( 3S)     0.00041       0.59823
     5    C    1  S      Ryd( 5S)     0.00001      23.34094
     6    C    1  px     Val( 2p)     1.04831      -0.14543
     7    C    1  px     Ryd( 4p)     0.00606       1.13316
     8    C    1  px     Ryd( 3p)     0.00057       0.80897
     9    C    1  px     Ryd( 5p)     0.00026       3.17394
    10    C    1  py     Val( 2p)     1.07947      -0.08353
    11    C    1  py     Ryd( 4p)     0.00418       0.82871
    12    C    1  py     Ryd( 3p)     0.00023       0.41129
    13    C    1  py     Ryd( 5p)     0.00019       3.33006
    14    C    1  pz     Val( 2p)     1.08857      -0.13949
    15    C    1  pz     Ryd( 4p)     0.00151       0.55552
    16    C    1  pz     Ryd( 3p)     0.00053       0.31481
    17    C    1  pz     Ryd( 5p)     0.00001       2.72208
    18    C    1  dxy    Ryd( 3d)     0.00117       2.29339
    19    C    1  dxz    Ryd( 3d)     0.00097       1.51932
    20    C    1  dyz    Ryd( 3d)     0.00063       1.62332
    21    C    1  dx2y2  Ryd( 3d)     0.00150       2.37059
    22    C    1  dz2    Ryd( 3d)     0.00084       1.98512

    23    C    2  S      Cor( 1S)     1.99893     -10.03869
    24    C    2  S      Val( 2S)     0.87181      -0.12221
    25    C    2  S      Ryd( 3S)     0.00113       0.63020
    26    C    2  S      Ryd( 4S)     0.00020       1.27248
    27    C    2  S      Ryd( 5S)     0.00001      22.70011
    28    C    2  px     Val( 2p)     1.10037      -0.06586
    29    C    2  px     Ryd( 4p)     0.00524       1.36259
    30    C    2  px     Ryd( 3p)     0.00028       0.66567
    31    C    2  px     Ryd( 5p)     0.00010       3.22604
    32    C    2  py     Val( 2p)     1.08207      -0.07537
    33    C    2  py     Ryd( 4p)     0.00582       1.12370
    34    C    2  py     Ryd( 3p)     0.00031       0.51979
    35    C    2  py     Ryd( 5p)     0.00009       3.17934
    36    C    2  pz     Val( 2p)     1.02562      -0.10823
    37    C    2  pz     Ryd( 4p)     0.00055       0.58993
    38    C    2  pz     Ryd( 3p)     0.00030       0.49281
    39    C    2  pz     Ryd( 5p)     0.00001       2.57295
    40    C    2  dxy    Ryd( 3d)     0.00066       2.50754
    41    C    2  dxz    Ryd( 3d)     0.00082       1.67886
    42    C    2  dyz    Ryd( 3d)     0.00044       1.62787
    43    C    2  dx2y2  Ryd( 3d)     0.00087       2.65361
    44    C    2  dz2    Ryd( 3d)     0.00038       2.06752

    45    C    3  S      Cor( 1S)     1.99907     -10.03419
    46    C    3  S      Val( 2S)     0.93650      -0.15424
    47    C    3  S      Ryd( 4S)     0.00159       0.84218
    48    C    3  S      Ryd( 3S)     0.00014       0.68443
    49    C    3  S      Ryd( 5S)     0.00001      22.95284
    50    C    3  px     Val( 2p)     1.05475      -0.04393
    51    C    3  px     Ryd( 4p)     0.00375       0.78272
    52    C    3  px     Ryd( 3p)     0.00051       0.38706
    53    C    3  px     Ryd( 5p)     0.00017       3.11153
    54    C    3  py     Val( 2p)     1.17407      -0.06099
    55    C    3  py     Ryd( 4p)     0.00616       1.10020
    56    C    3  py     Ryd( 3p)     0.00025       0.34075
    57    C    3  py     Ryd( 5p)     0.00006       3.14409
    58    C    3  pz     Val( 2p)     0.99867      -0.11168
    59    C    3  pz     Ryd( 4p)     0.00102       0.51643
    60    C    3  pz     Ryd( 3p)     0.00038       0.28382
    61    C    3  pz     Ryd( 5p)     0.00001       2.70701
    62    C    3  dxy    Ryd( 3d)     0.00065       2.58726
    63    C    3  dxz    Ryd( 3d)     0.00057       1.67117
    64    C    3  dyz    Ryd( 3d)     0.00039       1.61495
    65    C    3  dx2y2  Ryd( 3d)     0.00079       2.49996
    66    C    3  dz2    Ryd( 3d)     0.00040       2.07224

    67    C    4  S      Cor( 1S)     1.99917     -10.03408
    68    C    4  S      Val( 2S)     0.95003      -0.16477
    69    C    4  S      Ryd( 3S)     0.00143       0.80783
    70    C    4  S      Ryd( 4S)     0.00021       0.94694
    71    C    4  S      Ryd( 5S)     0.00000      22.82055
    72    C    4  px     Val( 2p)     1.15704      -0.05422
    73    C    4  px     Ryd( 4p)     0.00641       1.00932
    74    C    4  px     Ryd( 3p)     0.00034       0.29846
    75    C    4  px     Ryd( 5p)     0.00007       3.17349
    76    C    4  py     Val( 2p)     1.07381      -0.04905
    77    C    4  py     Ryd( 4p)     0.00498       0.80746
    78    C    4  py     Ryd( 3p)     0.00047       0.37711
    79    C    4  py     Ryd( 5p)     0.00014       3.08906
    80    C    4  pz     Val( 2p)     1.01181      -0.11105
    81    C    4  pz     Ryd( 4p)     0.00131       0.51213
    82    C    4  pz     Ryd( 3p)     0.00024       0.31772
    83    C    4  pz     Ryd( 5p)     0.00002       2.67332
    84    C    4  dxy    Ryd( 3d)     0.00072       2.54440
    85    C    4  dxz    Ryd( 3d)     0.00040       1.61773
    86    C    4  dyz    Ryd( 3d)     0.00047       1.66385
    87    C    4  dx2y2  Ryd( 3d)     0.00073       2.52739
    88    C    4  dz2    Ryd( 3d)     0.00040       2.04551

    89    C    5  S      Cor( 1S)     1.99917     -10.03661
    90    C    5  S      Val( 2S)     0.95024      -0.16633
    91    C    5  S      Ryd( 3S)     0.00149       0.75288
    92    C    5  S      Ryd( 4S)     0.00019       0.80660
    93    C    5  S      Ryd( 5S)     0.00000      23.00724
    94    C    5  px     Val( 2p)     1.12296      -0.05203
    95    C    5  px     Ryd( 4p)     0.00600       0.93417
    96    C    5  px     Ryd( 3p)     0.00043       0.32290
    97    C    5  px     Ryd( 5p)     0.00010       3.14776
    98    C    5  py     Val( 2p)     1.10100      -0.05213
    99    C    5  py     Ryd( 4p)     0.00538       0.86675
   100    C    5  py     Ryd( 3p)     0.00041       0.36402
   101    C    5  py     Ryd( 5p)     0.00013       3.11448
   102    C    5  pz     Val( 2p)     1.01016      -0.11246
   103    C    5  pz     Ryd( 4p)     0.00143       0.51027
   104    C    5  pz     Ryd( 3p)     0.00028       0.32175
   105    C    5  pz     Ryd( 5p)     0.00003       2.66962
   106    C    5  dxy    Ryd( 3d)     0.00080       2.49789
   107    C    5  dxz    Ryd( 3d)     0.00047       1.63158
   108    C    5  dyz    Ryd( 3d)     0.00044       1.64482
   109    C    5  dx2y2  Ryd( 3d)     0.00063       2.56390
   110    C    5  dz2    Ryd( 3d)     0.00040       2.03925

   111    C    6  S      Cor( 1S)     1.99901     -10.03550
   112    C    6  S      Val( 2S)     0.93599      -0.15762
   113    C    6  S      Ryd( 4S)     0.00205       0.86930
   114    C    6  S      Ryd( 3S)     0.00034       0.57046
   115    C    6  S      Ryd( 5S)     0.00001      23.10733
   116    C    6  px     Val( 2p)     1.07316      -0.06094
   117    C    6  px     Ryd( 4p)     0.00517       0.78126
   118    C    6  px     Ryd( 3p)     0.00038       0.37736
   119    C    6  px     Ryd( 5p)     0.00014       3.10156
   120    C    6  py     Val( 2p)     1.17978      -0.06996
   121    C    6  py     Ryd( 4p)     0.00654       1.06273
   122    C    6  py     Ryd( 3p)     0.00025       0.33653
   123    C    6  py     Ryd( 5p)     0.00007       3.13673
   124    C    6  pz     Val( 2p)     1.00602      -0.11491
   125    C    6  pz     Ryd( 4p)     0.00121       0.51673
   126    C    6  pz     Ryd( 3p)     0.00051       0.27385
   127    C    6  pz     Ryd( 5p)     0.00001       2.71147
   128    C    6  dxy    Ryd( 3d)     0.00073       2.58307
   129    C    6  dxz    Ryd( 3d)     0.00055       1.66139
   130    C    6  dyz    Ryd( 3d)     0.00039       1.61177
   131    C    6  dx2y2  Ryd( 3d)     0.00073       2.48427
   132    C    6  dz2    Ryd( 3d)     0.00041       2.04918

   133    C    7  S      Cor( 1S)     1.99908     -10.08205
   134    C    7  S      Val( 2S)     1.04293      -0.27078
   135    C    7  S      Ryd( 4S)     0.00120       0.76115
   136    C    7  S      Ryd( 3S)     0.00076       0.51706
   137    C    7  S      Ryd( 5S)     0.00001      23.31839
   138    C    7  px     Val( 2p)     1.18831      -0.08670
   139    C    7  px     Ryd( 4p)     0.00454       0.79454
   140    C    7  px     Ryd( 3p)     0.00037       0.62590
   141    C    7  px     Ryd( 5p)     0.00014       2.94734
   142    C    7  py     Val( 2p)     1.00055      -0.13914
   143    C    7  py     Ryd( 4p)     0.00555       0.62293
   144    C    7  py     Ryd( 3p)     0.00050       0.52475
   145    C    7  py     Ryd( 5p)     0.00022       2.82293
   146    C    7  pz     Val( 2p)     1.10287      -0.15235
   147    C    7  pz     Ryd( 4p)     0.00207       0.46687
   148    C    7  pz     Ryd( 3p)     0.00032       0.39628
   149    C    7  pz     Ryd( 5p)     0.00001       2.57829
   150    C    7  dxy    Ryd( 3d)     0.00087       2.31402
   151    C    7  dxz    Ryd( 3d)     0.00072       1.60675
   152    C    7  dyz    Ryd( 3d)     0.00089       1.48169
   153    C    7  dx2y2  Ryd( 3d)     0.00169       2.19132
   154    C    7  dz2    Ryd( 3d)     0.00099       1.89863

   155    C    8  S      Cor( 1S)     1.99900     -10.03406
   156    C    8  S      Val( 2S)     0.94527      -0.16532
   157    C    8  S      Ryd( 3S)     0.00231       0.70580
   158    C    8  S      Ryd( 4S)     0.00018       0.71360
   159    C    8  S      Ryd( 5S)     0.00002      23.05953
   160    C    8  px     Val( 2p)     1.04976      -0.06341
   161    C    8  px     Ryd( 4p)     0.00500       0.71933
   162    C    8  px     Ryd( 3p)     0.00065       0.34363
   163    C    8  px     Ryd( 5p)     0.00015       3.11980
   164    C    8  py     Val( 2p)     1.18930      -0.07474
   165    C    8  py     Ryd( 4p)     0.00495       1.03310
   166    C    8  py     Ryd( 3p)     0.00030       0.33088
   167    C    8  py     Ryd( 5p)     0.00008       3.13600
   168    C    8  pz     Val( 2p)     1.03767      -0.11725
   169    C    8  pz     Ryd( 4p)     0.00143       0.52551
   170    C    8  pz     Ryd( 3p)     0.00041       0.25169
   171    C    8  pz     Ryd( 5p)     0.00003       2.70232
   172    C    8  dxy    Ryd( 3d)     0.00073       2.60529
   173    C    8  dxz    Ryd( 3d)     0.00061       1.64122
   174    C    8  dyz    Ryd( 3d)     0.00054       1.63612
   175    C    8  dx2y2  Ryd( 3d)     0.00069       2.42808
   176    C    8  dz2    Ryd( 3d)     0.00041       2.05233

   177    H    9  S      Val( 1S)     0.78956       0.04108
   178    H    9  S      Ryd( 2S)     0.00080       0.73130
   179    H    9  S      Ryd( 3S)     0.00017       1.97496
   180    H    9  px     Ryd( 2p)     0.00013       2.01201
   181    H    9  py     Ryd( 2p)     0.00043       2.70260
   182    H    9  pz     Ryd( 2p)     0.00020       1.59962

   183    H   10  S      Val( 1S)     0.79108       0.04640
   184    H   10  S      Ryd( 2S)     0.00055       0.62812
   185    H   10  S      Ryd( 3S)     0.00017       2.12874
   186    H   10  px     Ryd( 2p)     0.00037       2.60181
   187    H   10  py     Ryd( 2p)     0.00016       2.07167
   188    H   10  pz     Ryd( 2p)     0.00020       1.59441

   189    H   11  S      Val( 1S)     0.79062       0.04526
   190    H   11  S      Ryd( 2S)     0.00056       0.58329
   191    H   11  S      Ryd( 3S)     0.00017       2.16486
   192    H   11  px     Ryd( 2p)     0.00030       2.43086
   193    H   11  py     Ryd( 2p)     0.00023       2.24102
   194    H   11  pz     Ryd( 2p)     0.00021       1.59283

   195    H   12  S      Val( 1S)     0.78403       0.03893
   196    H   12  S      Ryd( 2S)     0.00078       0.79468
   197    H   12  S      Ryd( 3S)     0.00019       1.92783
   198    H   12  px     Ryd( 2p)     0.00017       1.99876
   199    H   12  py     Ryd( 2p)     0.00044       2.69167
   200    H   12  pz     Ryd( 2p)     0.00021       1.59396

   201    H   13  S      Val( 1S)     0.77092       0.03870
   202    H   13  S      Ryd( 3S)     0.00040       1.88335
   203    H   13  S      Ryd( 2S)     0.00037       0.79403
   204    H   13  px     Ryd( 2p)     0.00048       2.62800
   205    H   13  py     Ryd( 2p)     0.00006       1.88893
   206    H   13  pz     Ryd( 2p)     0.00015       1.55947

   207    H   14  S      Val( 1S)     0.77677       0.04035
   208    H   14  S      Ryd( 2S)     0.00063       0.73271
   209    H   14  S      Ryd( 3S)     0.00022       1.91583
   210    H   14  px     Ryd( 2p)     0.00016       1.93804
   211    H   14  py     Ryd( 2p)     0.00046       2.71632
   212    H   14  pz     Ryd( 2p)     0.00024       1.58919

   213    S   15  S      Cor( 1S)     2.00000     -87.70986
   214    S   15  S      Cor( 2S)     1.99924      -8.84668
   215    S   15  S      Val( 3S)     1.63069      -0.73352
   216    S   15  S      Ryd( 5S)     0.00695       0.92733
   217    S   15  S      Ryd( 4S)     0.00040       0.36003
   218    S   15  S      Ryd( 6S)     0.00001      14.00411
   219    S   15  S      Ryd( 7S)     0.00000     182.55174
   220    S   15  px     Cor( 2p)     1.99986      -5.91811
   221    S   15  px     Val( 3p)     1.01566      -0.18047
   222    S   15  px     Ryd( 5p)     0.00530       0.44397
   223    S   15  px     Ryd( 4p)     0.00030       0.29530
   224    S   15  px     Ryd( 6p)     0.00012       2.38710
   225    S   15  px     Ryd( 7p)     0.00000      16.48010
   226    S   15  py     Cor( 2p)     1.99987      -5.91676
   227    S   15  py     Val( 3p)     1.24155      -0.20272
   228    S   15  py     Ryd( 5p)     0.00292       0.42486
   229    S   15  py     Ryd( 4p)     0.00022       0.27374
   230    S   15  py     Ryd( 6p)     0.00020       2.32547
   231    S   15  py     Ryd( 7p)     0.00000      16.51949
   232    S   15  pz     Cor( 2p)     1.99996      -5.91407
   233    S   15  pz     Val( 3p)     1.68092      -0.24819
   234    S   15  pz     Ryd( 5p)     0.00639       0.34906
   235    S   15  pz     Ryd( 4p)     0.00013       0.28293
   236    S   15  pz     Ryd( 6p)     0.00007       2.10624
   237    S   15  pz     Ryd( 7p)     0.00000      16.63897
   238    S   15  dxy    Ryd( 3d)     0.00351       1.16003
   239    S   15  dxz    Ryd( 3d)     0.00362       0.86111
   240    S   15  dyz    Ryd( 3d)     0.00338       0.84858
   241    S   15  dx2y2  Ryd( 3d)     0.00756       1.30664
   242    S   15  dz2    Ryd( 3d)     0.00272       1.17886

 WARNING:  1 low occupancy (<1.9990e) core orbital  found on  C    1
           1 low occupancy (<1.9990e) core orbital  found on  C    2

 WARNING:  Population inversion found on atom  C    1
           Population inversion found on atom  C    2
           Population inversion found on atom  C    3
           Population inversion found on atom  C    4
           Population inversion found on atom  C    5
           Population inversion found on atom  C    6
           Population inversion found on atom  C    7
           Population inversion found on atom  C    8
           Population inversion found on atom  H   13
           Population inversion found on atom  S   15


 Summary of Natural Population Analysis:                  
                                                          
                                       Natural Population 
                Natural  -----------------------------------------------
    Atom  No    Charge         Core      Valence    Rydberg      Total
 -----------------------------------------------------------------------
      C    1   -0.18010      1.99881     4.16020    0.02108     6.18010
      C    2   -0.09601      1.99893     4.07986    0.01722     6.09601
      C    3   -0.17991      1.99907     4.16398    0.01686     6.17991
      C    4   -0.21023      1.99917     4.19270    0.01836     6.21023
      C    5   -0.20213      1.99917     4.18436    0.01860     6.20213
      C    6   -0.21345      1.99901     4.19495    0.01948     6.21345
      C    7   -0.35458      1.99908     4.33466    0.02084     6.35458
      C    8   -0.23949      1.99900     4.22199    0.01849     6.23949
      H    9    0.20871      0.00000     0.78956    0.00173     0.79129
      H   10    0.20747      0.00000     0.79108    0.00145     0.79253
      H   11    0.20792      0.00000     0.79062    0.00147     0.79208
      H   12    0.21418      0.00000     0.78403    0.00178     0.78582
      H   13    0.22762      0.00000     0.77092    0.00146     0.77238
      H   14    0.22152      0.00000     0.77677    0.00170     0.77848
      S   15    0.38846      9.99893     5.56882    0.04379    15.61154
 =======================================================================
   * Total *    0.00000     25.99117    43.80452    0.20431    70.00000

                                 Natural Population      
 --------------------------------------------------------
   Core                      25.99117 ( 99.9660% of  26)
   Valence                   43.80452 ( 99.5557% of  44)
   Natural Minimal Basis     69.79569 ( 99.7081% of  70)
   Natural Rydberg Basis      0.20431 (  0.2919% of  70)
 --------------------------------------------------------

    Atom  No          Natural Electron Configuration
 ----------------------------------------------------------------------------
      C    1      [core]2S( 0.94)2p( 3.22)3d( 0.01)4p( 0.01)
      C    2      [core]2S( 0.87)2p( 3.21)4p( 0.01)
      C    3      [core]2S( 0.94)2p( 3.23)4p( 0.01)
      C    4      [core]2S( 0.95)2p( 3.24)4p( 0.01)
      C    5      [core]2S( 0.95)2p( 3.23)4p( 0.01)
      C    6      [core]2S( 0.94)2p( 3.26)4p( 0.01)
      C    7      [core]2S( 1.04)2p( 3.29)3d( 0.01)4p( 0.01)
      C    8      [core]2S( 0.95)2p( 3.28)4p( 0.01)
      H    9            1S( 0.79)
      H   10            1S( 0.79)
      H   11            1S( 0.79)
      H   12            1S( 0.78)
      H   13            1S( 0.77)
      H   14            1S( 0.78)
      S   15      [core]3S( 1.63)3p( 3.94)3d( 0.02)5S( 0.01)5p( 0.01)


 NBO analysis skipped by request.
 1\1\GINC-COREV3-23-050\SP\RB3LYP\6-311+G(d,p)\C8H6S1\ROOT\23-Jul-2021\
 0\\# b3lyp/6-311+g(d,p) geom=connectivity pop=(hirshfeld,chelpg,mbs,np
 a)\\Table3_10\\0,1\C,0,0.061622,-0.553648,0.000037\C,0,-0.111025,0.851
 389,-0.000056\C,0,-1.417016,1.37197,0.000026\C,0,-2.499833,0.507387,0.
 000196\C,0,-2.307487,-0.884927,0.000287\C,0,-1.029276,-1.42642,0.00020
 8\C,0,2.215626,0.711668,-0.000263\C,0,1.148809,1.548197,-0.000232\H,0,
 -1.569858,2.445765,-0.000044\H,0,-3.507645,0.906486,0.00026\H,0,-3.166
 861,-1.545601,0.00042\H,0,-0.883968,-2.500411,0.000279\H,0,3.262952,0.
 974488,-0.00038\H,0,1.237098,2.62695,-0.000326\S,0,1.766235,-0.978835,
 -0.000089\\Version=ES64L-G09RevD.01\State=1-A\HF=-706.7576656\RMSD=1.2
 68e-09\Dipole=-0.0534698,0.2471872,-0.0000141\Quadrupole=3.1215111,2.6
 161645,-5.7376757,1.7207713,-0.0009665,-0.0008191\PG=C01 [X(C8H6S1)]\\
 @


 HOW IS IT THAT THE SKY FEEDS THE STARS?

                           -- LUCRETIUS
 Job cpu time:       0 days  0 hours  8 minutes 13.7 seconds.
 File lengths (MBytes):  RWF=     70 Int=      0 D2E=      0 Chk=      3 Scr=      1
 Normal termination of Gaussian 09 at Fri Jul 23 17:30:37 2021.
