 Entering Gaussian System, Link 0=g09
 Initial command:
 /cm/shared/apps/gaussian/g09revD.01/g09/l1.exe "//home/sweav003/CHB/CHActivation_Mkhalid/OtherCharges/G09-Table9_12.com.o9447151.tmp/Gau-63355.inp" -scrdir="//home/sweav003/CHB/CHActivation_Mkhalid/OtherCharges/G09-Table9_12.com.o9447151.tmp/"
 Entering Link 1 = /cm/shared/apps/gaussian/g09revD.01/g09/l1.exe PID=     63356.
  
 Copyright (c) 1988,1990,1992,1993,1995,1998,2003,2009,2013,
            Gaussian, Inc.  All Rights Reserved.
  
 This is part of the Gaussian(R) 09 program.  It is based on
 the Gaussian(R) 03 system (copyright 2003, Gaussian, Inc.),
 the Gaussian(R) 98 system (copyright 1998, Gaussian, Inc.),
 the Gaussian(R) 94 system (copyright 1995, Gaussian, Inc.),
 the Gaussian 92(TM) system (copyright 1992, Gaussian, Inc.),
 the Gaussian 90(TM) system (copyright 1990, Gaussian, Inc.),
 the Gaussian 88(TM) system (copyright 1988, Gaussian, Inc.),
 the Gaussian 86(TM) system (copyright 1986, Carnegie Mellon
 University), and the Gaussian 82(TM) system (copyright 1983,
 Carnegie Mellon University). Gaussian is a federally registered
 trademark of Gaussian, Inc.
  
 This software contains proprietary and confidential information,
 including trade secrets, belonging to Gaussian, Inc.
  
 This software is provided under written license and may be
 used, copied, transmitted, or stored only in accord with that
 written license.
  
 The following legend is applicable only to US Government
 contracts under FAR:
  
                    RESTRICTED RIGHTS LEGEND
  
 Use, reproduction and disclosure by the US Government is
 subject to restrictions as set forth in subparagraphs (a)
 and (c) of the Commercial Computer Software - Restricted
 Rights clause in FAR 52.227-19.
  
 Gaussian, Inc.
 340 Quinnipiac St., Bldg. 40, Wallingford CT 06492
  
  
 ---------------------------------------------------------------
 Warning -- This program may not be used in any manner that
 competes with the business of Gaussian, Inc. or will provide
 assistance to any competitor of Gaussian, Inc.  The licensee
 of this program is prohibited from giving any competitor of
 Gaussian, Inc. access to this program.  By using this program,
 the user acknowledges that Gaussian, Inc. is engaged in the
 business of creating and licensing software in the field of
 computational chemistry and represents and warrants to the
 licensee that it is not a competitor of Gaussian, Inc. and that
 it will not use this program in any manner prohibited above.
 ---------------------------------------------------------------
  

 Cite this work as:
 Gaussian 09, Revision D.01,
 M. J. Frisch, G. W. Trucks, H. B. Schlegel, G. E. Scuseria, 
 M. A. Robb, J. R. Cheeseman, G. Scalmani, V. Barone, B. Mennucci, 
 G. A. Petersson, H. Nakatsuji, M. Caricato, X. Li, H. P. Hratchian, 
 A. F. Izmaylov, J. Bloino, G. Zheng, J. L. Sonnenberg, M. Hada, 
 M. Ehara, K. Toyota, R. Fukuda, J. Hasegawa, M. Ishida, T. Nakajima, 
 Y. Honda, O. Kitao, H. Nakai, T. Vreven, J. A. Montgomery, Jr., 
 J. E. Peralta, F. Ogliaro, M. Bearpark, J. J. Heyd, E. Brothers, 
 K. N. Kudin, V. N. Staroverov, T. Keith, R. Kobayashi, J. Normand, 
 K. Raghavachari, A. Rendell, J. C. Burant, S. S. Iyengar, J. Tomasi, 
 M. Cossi, N. Rega, J. M. Millam, M. Klene, J. E. Knox, J. B. Cross, 
 V. Bakken, C. Adamo, J. Jaramillo, R. Gomperts, R. E. Stratmann, 
 O. Yazyev, A. J. Austin, R. Cammi, C. Pomelli, J. W. Ochterski, 
 R. L. Martin, K. Morokuma, V. G. Zakrzewski, G. A. Voth, 
 P. Salvador, J. J. Dannenberg, S. Dapprich, A. D. Daniels, 
 O. Farkas, J. B. Foresman, J. V. Ortiz, J. Cioslowski, 
 and D. J. Fox, Gaussian, Inc., Wallingford CT, 2013.
 
 ******************************************
 Gaussian 09:  ES64L-G09RevD.01 24-Apr-2013
                23-Jul-2021 
 ******************************************
 %mem=100MW
 %nprocshared=20
 Will use up to   20 processors via shared memory.
 ---------------------------------------------------------------------
 # b3lyp/6-311+g(d,p) geom=connectivity pop=(hirshfeld,chelpg,mbs,npa)
 ---------------------------------------------------------------------
 1/38=1,57=2/1;
 2/12=2,17=6,18=5,40=1/2;
 3/5=4,6=6,7=111,11=2,16=1,25=1,30=1,74=-5/1,2,3;
 4//1;
 5/5=2,38=5/2;
 6/7=2,8=2,9=2,10=2,15=8,20=3,27=100,28=1,40=-1,79=1/1,2,7;
 99/5=1,9=1/99;
 ---------
 Table9_12
 ---------
 Symbolic Z-matrix:
 Charge =  0 Multiplicity = 1
 6                    -0.95279  -0.84959  -0.0013 
 6                    -0.56271   0.52545   0.00885 
 6                    -1.56431   1.50879   0.00883 
 6                    -2.89744   1.12022  -0.00729 
 6                    -3.25782  -0.23939  -0.02414 
 6                    -2.29135  -1.23936  -0.02239 
 6                     1.28584  -0.7701    0.00954 
 6                     0.87266   0.52823   0.01237 
 1                    -1.29938   2.56048   0.02005 
 1                    -3.67625   1.87452  -0.0075 
 1                    -4.3066   -0.51336  -0.03767 
 1                    -2.5737   -2.28684  -0.03362 
 6                     2.04246   1.46889   0.09454 
 6                     3.25227   0.5146   -0.1804 
 1                     2.11735   1.93334   1.08602 
 1                     2.00716   2.28542  -0.63306 
 1                     4.12802   0.7711    0.41903 
 1                     3.54131   0.60081  -1.23059 
 6                     2.76779  -0.9481    0.08885 
 1                     3.07581  -1.30284   1.08114 
 1                     3.17423  -1.65413  -0.64254 
 7                     0.20209  -1.62271   0.01207 
 1                     0.22982  -2.62742  -0.03049 
 
                          Input orientation:                          
 ---------------------------------------------------------------------
 Center     Atomic      Atomic             Coordinates (Angstroms)
 Number     Number       Type             X           Y           Z
 ---------------------------------------------------------------------
      1          6           0       -0.952787   -0.849585   -0.001301
      2          6           0       -0.562711    0.525446    0.008851
      3          6           0       -1.564305    1.508792    0.008834
      4          6           0       -2.897443    1.120216   -0.007291
      5          6           0       -3.257818   -0.239386   -0.024135
      6          6           0       -2.291354   -1.239362   -0.022393
      7          6           0        1.285839   -0.770097    0.009542
      8          6           0        0.872655    0.528228    0.012367
      9          1           0       -1.299376    2.560475    0.020052
     10          1           0       -3.676245    1.874516   -0.007499
     11          1           0       -4.306604   -0.513357   -0.037673
     12          1           0       -2.573704   -2.286839   -0.033619
     13          6           0        2.042465    1.468886    0.094539
     14          6           0        3.252268    0.514604   -0.180400
     15          1           0        2.117349    1.933339    1.086018
     16          1           0        2.007164    2.285423   -0.633063
     17          1           0        4.128019    0.771101    0.419031
     18          1           0        3.541305    0.600814   -1.230587
     19          6           0        2.767790   -0.948098    0.088847
     20          1           0        3.075810   -1.302837    1.081140
     21          1           0        3.174227   -1.654130   -0.642542
     22          7           0        0.202093   -1.622707    0.012067
     23          1           0        0.229816   -2.627417   -0.030489
 ---------------------------------------------------------------------
                    Distance matrix (angstroms):
                    1          2          3          4          5
     1  C    0.000000
     2  C    1.429326   0.000000
     3  C    2.436391   1.403624   0.000000
     4  C    2.768003   2.409354   1.388707   0.000000
     5  C    2.384540   2.801724   2.434173   1.406653   0.000000
     6  C    1.394322   2.470573   2.842873   2.436223   1.390686
     7  C    2.240063   2.257337   3.649199   4.590579   4.574670
     8  C    2.287093   1.435373   2.626841   3.816343   4.201353
     9  H    3.427694   2.164288   1.084597   2.151491   3.417114
    10  H    3.852011   3.393280   2.143434   1.084205   2.154980
    11  H    3.370825   3.885616   3.407558   2.157596   1.084064
    12  H    2.166591   3.457578   3.927786   3.422503   2.158742
    13  C    3.788935   2.772068   3.608009   4.953245   5.570034
    14  C    4.424429   3.819686   4.921747   6.181883   6.555466
    15  H    4.284001   3.213281   3.859422   5.196598   5.903016
    16  H    4.357604   3.180225   3.710873   5.079810   5.870732
    17  H    5.349569   4.715034   5.754564   7.047038   7.467802
    18  H    4.879720   4.287754   5.331777   6.574474   6.956259
    19  C    3.722973   3.642797   4.980939   6.031752   6.068195
    20  H    4.196035   4.210850   5.530440   6.537249   6.516702
    21  H    4.253320   4.374879   5.734287   6.705648   6.614766
    22  N    1.389836   2.280241   3.595338   4.138976   3.726375
    23  H    2.135436   3.251183   4.508729   4.881090   4.226857
                    6          7          8          9         10
     6  C    0.000000
     7  C    3.607983   0.000000
     8  C    3.624436   1.362489   0.000000
     9  H    3.927414   4.216178   2.974526   0.000000
    10  H    3.407988   5.622859   4.743983   2.474026   0.000000
    11  H    2.142090   5.598532   5.283193   4.300604   2.469858
    12  H    1.084922   4.147100   4.450181   5.012309   4.305015
    13  C    5.111777   2.364900   1.503345   3.516392   5.733986
    14  C    5.816623   2.356561   2.387447   4.994320   7.062829
    15  H    5.543579   3.026347   2.162482   3.633675   5.896183
    16  H    5.592342   3.204599   2.188932   3.381630   5.732479
    17  H    6.741303   3.258981   3.289644   5.728670   7.893414
    18  H    6.234251   2.916238   2.944808   5.369968   7.430430
    19  C    5.068742   1.494708   2.403523   5.371839   7.035767
    20  H    5.479805   2.153168   3.057608   5.932397   7.541283
    21  H    5.516266   2.184659   3.238646   6.181832   7.731985
    22  N    2.522978   1.378933   2.253037   4.444489   5.222304
    23  H    2.878031   2.136919   3.220741   5.408808   5.960306
                   11         12         13         14         15
    11  H    0.000000
    12  H    2.479556   0.000000
    13  C    6.652627   5.952387   0.000000
    14  C    7.629785   6.466187   1.565206   0.000000
    15  H    6.965355   6.408546   1.097431   2.214648   0.000000
    16  H    6.931906   6.499943   1.094250   2.211558   1.758222
    17  H    8.544078   7.380310   2.223001   1.091810   2.416291
    18  H    8.015865   6.867649   2.180832   1.092642   3.028190
    19  C    7.088869   5.508065   2.523478   1.564196   3.117708
    20  H    7.508333   5.841914   3.118274   2.219395   3.375131
    21  H    7.591447   5.814621   3.402558   2.218800   4.120054
    22  N    4.643434   2.854507   3.598850   3.729438   4.179359
    23  H    5.004838   2.824133   4.481186   4.362337   5.060619
                   16         17         18         19         20
    16  H    0.000000
    17  H    2.810356   0.000000
    18  H    2.355532   1.759111   0.000000
    19  C    3.399318   2.216955   2.176777   0.000000
    20  H    4.117779   2.418006   3.030619   1.097890   0.000000
    21  H    4.108796   2.813965   2.359092   1.094807   1.761866
    22  N    4.352925   4.616149   4.199830   2.654015   3.082772
    23  H    5.259093   5.191144   4.777831   3.045598   3.330152
                   21         22         23
    21  H    0.000000
    22  N    3.043531   0.000000
    23  H    3.160926   1.005993   0.000000
 Stoichiometry    C11H11N
 Framework group  C1[X(C11H11N)]
 Deg. of freedom    63
 Full point group                 C1      NOp   1
 Largest Abelian subgroup         C1      NOp   1
 Largest concise Abelian subgroup C1      NOp   1
                         Standard orientation:                         
 ---------------------------------------------------------------------
 Center     Atomic      Atomic             Coordinates (Angstroms)
 Number     Number       Type             X           Y           Z
 ---------------------------------------------------------------------
      1          6           0       -0.952787   -0.849585   -0.001301
      2          6           0       -0.562711    0.525446    0.008851
      3          6           0       -1.564305    1.508792    0.008834
      4          6           0       -2.897443    1.120216   -0.007291
      5          6           0       -3.257818   -0.239386   -0.024135
      6          6           0       -2.291354   -1.239362   -0.022393
      7          6           0        1.285839   -0.770097    0.009542
      8          6           0        0.872655    0.528228    0.012367
      9          1           0       -1.299376    2.560475    0.020052
     10          1           0       -3.676245    1.874516   -0.007499
     11          1           0       -4.306604   -0.513357   -0.037673
     12          1           0       -2.573704   -2.286839   -0.033619
     13          6           0        2.042465    1.468886    0.094539
     14          6           0        3.252268    0.514604   -0.180400
     15          1           0        2.117349    1.933339    1.086018
     16          1           0        2.007164    2.285423   -0.633063
     17          1           0        4.128019    0.771101    0.419031
     18          1           0        3.541305    0.600814   -1.230587
     19          6           0        2.767790   -0.948098    0.088847
     20          1           0        3.075810   -1.302837    1.081140
     21          1           0        3.174227   -1.654130   -0.642542
     22          7           0        0.202093   -1.622707    0.012067
     23          1           0        0.229816   -2.627417   -0.030489
 ---------------------------------------------------------------------
 Rotational constants (GHZ):      2.4864843      0.6850644      0.5434492
 Standard basis: 6-311+G(d,p) (5D, 7F)
 There are   342 symmetry adapted cartesian basis functions of A   symmetry.
 There are   330 symmetry adapted basis functions of A   symmetry.
   330 basis functions,   520 primitive gaussians,   342 cartesian basis functions
    42 alpha electrons       42 beta electrons
       nuclear repulsion energy       651.8302737446 Hartrees.
 NAtoms=   23 NActive=   23 NUniq=   23 SFac= 1.00D+00 NAtFMM=   60 NAOKFM=F Big=F
 Integral buffers will be    131072 words long.
 Raffenetti 2 integral format.
 Two-electron integral symmetry is turned on.
 One-electron integrals computed using PRISM.
 NBasis=   330 RedAO= T EigKep=  1.00D-06  NBF=   330
 NBsUse=   329 1.00D-06 EigRej=  8.34D-08 NBFU=   329
 ExpMin= 4.38D-02 ExpMax= 6.29D+03 ExpMxC= 9.49D+02 IAcc=2 IRadAn=         4 AccDes= 0.00D+00
 Harris functional with IExCor=  402 and IRadAn=       4 diagonalized for initial guess.
 HarFok:  IExCor=  402 AccDes= 0.00D+00 IRadAn=         4 IDoV= 1 UseB2=F ITyADJ=14
 ICtDFT=  3500011 ScaDFX=  1.000000  1.000000  1.000000  1.000000
 FoFCou: FMM=F IPFlag=           0 FMFlag=      100000 FMFlg1=           0
         NFxFlg=           0 DoJE=T BraDBF=F KetDBF=T FulRan=T
         wScrn=  0.000000 ICntrl=     500 IOpCl=  0 I1Cent=   200000004 NGrid=           0
         NMat0=    1 NMatS0=      1 NMatT0=    0 NMatD0=    1 NMtDS0=    0 NMtDT0=    0
 Petite list used in FoFCou.
 Requested convergence on RMS density matrix=1.00D-08 within 128 cycles.
 Requested convergence on MAX density matrix=1.00D-06.
 Requested convergence on             energy=1.00D-06.
 No special actions if energy rises.
 SCF Done:  E(RB3LYP) =  -480.670203252     A.U. after   15 cycles
            NFock= 15  Conv=0.36D-08     -V/T= 2.0046

 **********************************************************************

            Population analysis using the SCF density.

 **********************************************************************

 Orbital symmetries:
       Occupied  (A) (A) (A) (A) (A) (A) (A) (A) (A) (A) (A) (A)
                 (A) (A) (A) (A) (A) (A) (A) (A) (A) (A) (A) (A)
                 (A) (A) (A) (A) (A) (A) (A) (A) (A) (A) (A) (A)
                 (A) (A) (A) (A) (A) (A)
       Virtual   (A) (A) (A) (A) (A) (A) (A) (A) (A) (A) (A) (A)
                 (A) (A) (A) (A) (A) (A) (A) (A) (A) (A) (A) (A)
                 (A) (A) (A) (A) (A) (A) (A) (A) (A) (A) (A) (A)
                 (A) (A) (A) (A) (A) (A) (A) (A) (A) (A) (A) (A)
                 (A) (A) (A) (A) (A) (A) (A) (A) (A) (A) (A) (A)
                 (A) (A) (A) (A) (A) (A) (A) (A) (A) (A) (A) (A)
                 (A) (A) (A) (A) (A) (A) (A) (A) (A) (A) (A) (A)
                 (A) (A) (A) (A) (A) (A) (A) (A) (A) (A) (A) (A)
                 (A) (A) (A) (A) (A) (A) (A) (A) (A) (A) (A) (A)
                 (A) (A) (A) (A) (A) (A) (A) (A) (A) (A) (A) (A)
                 (A) (A) (A) (A) (A) (A) (A) (A) (A) (A) (A) (A)
                 (A) (A) (A) (A) (A) (A) (A) (A) (A) (A) (A) (A)
                 (A) (A) (A) (A) (A) (A) (A) (A) (A) (A) (A) (A)
                 (A) (A) (A) (A) (A) (A) (A) (A) (A) (A) (A) (A)
                 (A) (A) (A) (A) (A) (A) (A) (A) (A) (A) (A) (A)
                 (A) (A) (A) (A) (A) (A) (A) (A) (A) (A) (A) (A)
                 (A) (A) (A) (A) (A) (A) (A) (A) (A) (A) (A) (A)
                 (A) (A) (A) (A) (A) (A) (A) (A) (A) (A) (A) (A)
                 (A) (A) (A) (A) (A) (A) (A) (A) (A) (A) (A) (A)
                 (A) (A) (A) (A) (A) (A) (A) (A) (A) (A) (A) (A)
                 (A) (A) (A) (A) (A) (A) (A) (A) (A) (A) (A) (A)
                 (A) (A) (A) (A) (A) (A) (A) (A) (A) (A) (A) (A)
                 (A) (A) (A) (A) (A) (A) (A) (A) (A) (A) (A) (A)
                 (A) (A) (A) (A) (A) (A) (A) (A) (A) (A) (A)
 The electronic state is 1-A.
 Alpha  occ. eigenvalues --  -14.35609 -10.20434 -10.19836 -10.18528 -10.17607
 Alpha  occ. eigenvalues --  -10.17355 -10.17116 -10.16973 -10.16587 -10.16509
 Alpha  occ. eigenvalues --  -10.16096 -10.15495  -0.98038  -0.84060  -0.83693
 Alpha  occ. eigenvalues --   -0.76608  -0.73806  -0.70621  -0.69805  -0.62689
 Alpha  occ. eigenvalues --   -0.59572  -0.57648  -0.55578  -0.53310  -0.49679
 Alpha  occ. eigenvalues --   -0.47856  -0.45738  -0.43706  -0.43010  -0.41806
 Alpha  occ. eigenvalues --   -0.40865  -0.39496  -0.38340  -0.36202  -0.35408
 Alpha  occ. eigenvalues --   -0.35026  -0.34653  -0.33055  -0.32891  -0.27235
 Alpha  occ. eigenvalues --   -0.22341  -0.19944
 Alpha virt. eigenvalues --   -0.01554  -0.00396   0.00986   0.01226   0.01362
 Alpha virt. eigenvalues --    0.02853   0.03193   0.03404   0.04441   0.05046
 Alpha virt. eigenvalues --    0.05159   0.05420   0.06405   0.07240   0.07474
 Alpha virt. eigenvalues --    0.08495   0.08751   0.09029   0.09493   0.10735
 Alpha virt. eigenvalues --    0.11554   0.12154   0.12301   0.12706   0.13158
 Alpha virt. eigenvalues --    0.14095   0.14203   0.15197   0.15414   0.15613
 Alpha virt. eigenvalues --    0.16683   0.16896   0.17100   0.17757   0.17961
 Alpha virt. eigenvalues --    0.18296   0.18931   0.19355   0.19879   0.19997
 Alpha virt. eigenvalues --    0.20370   0.20559   0.21552   0.21954   0.22661
 Alpha virt. eigenvalues --    0.22917   0.23354   0.23936   0.24154   0.24286
 Alpha virt. eigenvalues --    0.24401   0.24877   0.25248   0.26714   0.27260
 Alpha virt. eigenvalues --    0.27814   0.28199   0.28627   0.29541   0.29890
 Alpha virt. eigenvalues --    0.30543   0.30768   0.31207   0.31689   0.32903
 Alpha virt. eigenvalues --    0.33190   0.34086   0.34352   0.36075   0.37892
 Alpha virt. eigenvalues --    0.39242   0.42029   0.43228   0.45920   0.46870
 Alpha virt. eigenvalues --    0.47907   0.50000   0.51415   0.52296   0.53201
 Alpha virt. eigenvalues --    0.54070   0.54782   0.55734   0.56209   0.56735
 Alpha virt. eigenvalues --    0.56994   0.58800   0.59934   0.60254   0.61622
 Alpha virt. eigenvalues --    0.62253   0.63429   0.64161   0.66127   0.66752
 Alpha virt. eigenvalues --    0.67135   0.67796   0.68172   0.68939   0.70360
 Alpha virt. eigenvalues --    0.71034   0.71564   0.71745   0.72189   0.73359
 Alpha virt. eigenvalues --    0.73686   0.74118   0.74542   0.75478   0.77873
 Alpha virt. eigenvalues --    0.78827   0.82506   0.83599   0.83621   0.85190
 Alpha virt. eigenvalues --    0.86397   0.88056   0.88505   0.89081   0.90329
 Alpha virt. eigenvalues --    0.91654   0.93747   0.94702   0.97196   0.99436
 Alpha virt. eigenvalues --    0.99888   1.01303   1.02963   1.03929   1.04796
 Alpha virt. eigenvalues --    1.05346   1.07476   1.09476   1.09843   1.12505
 Alpha virt. eigenvalues --    1.14035   1.15712   1.17480   1.20358   1.23121
 Alpha virt. eigenvalues --    1.26833   1.29020   1.30375   1.33500   1.35880
 Alpha virt. eigenvalues --    1.39333   1.40904   1.46279   1.48162   1.49092
 Alpha virt. eigenvalues --    1.49965   1.52461   1.53171   1.54282   1.55518
 Alpha virt. eigenvalues --    1.56541   1.57418   1.57725   1.58797   1.60296
 Alpha virt. eigenvalues --    1.60492   1.64255   1.65282   1.67003   1.67349
 Alpha virt. eigenvalues --    1.69003   1.69541   1.72339   1.73401   1.75500
 Alpha virt. eigenvalues --    1.75732   1.77994   1.79153   1.82627   1.83405
 Alpha virt. eigenvalues --    1.84363   1.85473   1.87389   1.88930   1.89106
 Alpha virt. eigenvalues --    1.89750   1.90973   1.92277   1.92508   1.94632
 Alpha virt. eigenvalues --    1.96283   1.99172   1.99950   2.00667   2.05986
 Alpha virt. eigenvalues --    2.06746   2.08947   2.10132   2.10722   2.11505
 Alpha virt. eigenvalues --    2.16358   2.17736   2.21902   2.23789   2.24788
 Alpha virt. eigenvalues --    2.25679   2.28063   2.31577   2.33811   2.36903
 Alpha virt. eigenvalues --    2.40108   2.42196   2.44166   2.45113   2.47111
 Alpha virt. eigenvalues --    2.48372   2.52117   2.53757   2.54959   2.58253
 Alpha virt. eigenvalues --    2.59635   2.61760   2.63212   2.66537   2.68323
 Alpha virt. eigenvalues --    2.68476   2.70452   2.71604   2.72471   2.73357
 Alpha virt. eigenvalues --    2.75387   2.76183   2.77600   2.78450   2.78607
 Alpha virt. eigenvalues --    2.81238   2.81390   2.82260   2.83688   2.85404
 Alpha virt. eigenvalues --    2.89003   2.90053   2.92405   2.92666   2.94983
 Alpha virt. eigenvalues --    2.96252   2.96540   3.02907   3.06969   3.09312
 Alpha virt. eigenvalues --    3.10684   3.14181   3.19543   3.24839   3.28177
 Alpha virt. eigenvalues --    3.32590   3.38568   3.43663   3.46529   3.53088
 Alpha virt. eigenvalues --    3.55218   3.58037   3.58090   3.63945   3.75548
 Alpha virt. eigenvalues --    3.79239   3.85586   3.90937   3.97307   4.01339
 Alpha virt. eigenvalues --    4.04666   4.10762   4.14381   4.21155   4.28368
 Alpha virt. eigenvalues --    4.44136   4.48805   4.83878   4.93661   5.17963
 Alpha virt. eigenvalues --   23.61257  23.80230  23.85333  23.90516  23.92941
 Alpha virt. eigenvalues --   23.94651  24.01087  24.06046  24.11341  24.17505
 Alpha virt. eigenvalues --   24.20066  35.67801
          Condensed to atoms (all electrons):
               1          2          3          4          5          6
     1  C   18.803064   1.365754  -5.252426  -0.131181   0.501681  -5.307741
     2  C    1.365754  17.333335 -10.764394   1.876887  -1.865433   1.336330
     3  C   -5.252426 -10.764394  21.371701  -2.687752   1.712083  -1.427051
     4  C   -0.131181   1.876887  -2.687752   6.677619  -0.067114   1.018346
     5  C    0.501681  -1.865433   1.712083  -0.067114   5.870309  -0.383897
     6  C   -5.307741   1.336330  -1.427051   1.018346  -0.383897  13.996600
     7  C   -1.309476  -2.224046   0.976908  -0.467519   0.009527  -0.513018
     8  C   -2.318003  -2.400830   3.474541  -0.489335   0.053441  -1.283004
     9  H   -0.051750  -0.072967   0.382139  -0.007706  -0.017411   0.030138
    10  H    0.022969  -0.013297  -0.015305   0.349630   0.026937  -0.045587
    11  H    0.028846   0.065965  -0.075952   0.033501   0.337827  -0.056112
    12  H   -0.044178   0.012056   0.004861  -0.012073   0.036099   0.331853
    13  C    0.256553   0.083884  -0.455485   0.058628   0.010796  -0.280756
    14  C   -0.118101  -0.342270   0.042120  -0.042327   0.003788  -0.056486
    15  H   -0.002266  -0.032501   0.027150  -0.001011  -0.000552   0.005844
    16  H    0.017050   0.102140  -0.037273   0.001778   0.000756  -0.008180
    17  H    0.008498   0.011435   0.003037   0.000182   0.000034   0.000604
    18  H    0.014661   0.017216  -0.007101   0.000724  -0.000158   0.002400
    19  C   -0.238393  -0.199615  -0.442615   0.039993  -0.003459   0.033767
    20  H    0.018155   0.006441   0.003591  -0.000176  -0.000497   0.001382
    21  H    0.027216  -0.015272  -0.012527   0.000169   0.000307  -0.000545
    22  N    0.193477   0.016912   0.222097  -0.030502   0.032364  -0.662193
    23  H    0.013979   0.041842  -0.001034  -0.000246  -0.002399  -0.093945
               7          8          9         10         11         12
     1  C   -1.309476  -2.318003  -0.051750   0.022969   0.028846  -0.044178
     2  C   -2.224046  -2.400830  -0.072967  -0.013297   0.065965   0.012056
     3  C    0.976908   3.474541   0.382139  -0.015305  -0.075952   0.004861
     4  C   -0.467519  -0.489335  -0.007706   0.349630   0.033501  -0.012073
     5  C    0.009527   0.053441  -0.017411   0.026937   0.337827   0.036099
     6  C   -0.513018  -1.283004   0.030138  -0.045587  -0.056112   0.331853
     7  C   11.798320  -0.665028   0.028977   0.005046   0.008860   0.024451
     8  C   -0.665028  10.750724   0.069038   0.015133   0.003302  -0.003433
     9  H    0.028977   0.069038   0.555901  -0.007954  -0.000241   0.000065
    10  H    0.005046   0.015133  -0.007954   0.552579  -0.007867  -0.000266
    11  H    0.008860   0.003302  -0.000241  -0.007867   0.551767  -0.008045
    12  H    0.024451  -0.003433   0.000065  -0.000266  -0.008045   0.560105
    13  C   -0.524294  -2.181325  -0.019675  -0.000873  -0.000184  -0.000983
    14  C    1.030030  -0.565892   0.000818   0.000015   0.000009   0.000330
    15  H    0.016520   0.101716  -0.000193   0.000000   0.000000   0.000000
    16  H   -0.091173  -0.149147  -0.000203   0.000001   0.000000   0.000000
    17  H    0.057305   0.088509   0.000000   0.000000   0.000000   0.000000
    18  H   -0.055220   0.065577  -0.000002   0.000000   0.000000   0.000000
    19  C   -1.788696   0.111511  -0.002322   0.000186   0.000429  -0.000190
    20  H    0.164843  -0.046763   0.000000   0.000000   0.000000   0.000001
    21  H   -0.250311   0.085789   0.000001   0.000000   0.000000   0.000000
    22  N    0.259690   0.091239  -0.001652   0.000729  -0.000845  -0.006684
    23  H   -0.053809   0.053666   0.000012  -0.000001   0.000017   0.002405
              13         14         15         16         17         18
     1  C    0.256553  -0.118101  -0.002266   0.017050   0.008498   0.014661
     2  C    0.083884  -0.342270  -0.032501   0.102140   0.011435   0.017216
     3  C   -0.455485   0.042120   0.027150  -0.037273   0.003037  -0.007101
     4  C    0.058628  -0.042327  -0.001011   0.001778   0.000182   0.000724
     5  C    0.010796   0.003788  -0.000552   0.000756   0.000034  -0.000158
     6  C   -0.280756  -0.056486   0.005844  -0.008180   0.000604   0.002400
     7  C   -0.524294   1.030030   0.016520  -0.091173   0.057305  -0.055220
     8  C   -2.181325  -0.565892   0.101716  -0.149147   0.088509   0.065577
     9  H   -0.019675   0.000818  -0.000193  -0.000203   0.000000  -0.000002
    10  H   -0.000873   0.000015   0.000000   0.000001   0.000000   0.000000
    11  H   -0.000184   0.000009   0.000000   0.000000   0.000000   0.000000
    12  H   -0.000983   0.000330   0.000000   0.000000   0.000000   0.000000
    13  C    8.619220   0.023783   0.285037   0.499982  -0.126869  -0.092947
    14  C    0.023783   6.036848  -0.069138  -0.044713   0.422000   0.446593
    15  H    0.285037  -0.069138   0.559935  -0.041987  -0.005016   0.007205
    16  H    0.499982  -0.044713  -0.041987   0.564083   0.000690  -0.011777
    17  H   -0.126869   0.422000  -0.005016   0.000690   0.546997  -0.028420
    18  H   -0.092947   0.446593   0.007205  -0.011777  -0.028420   0.529840
    19  C    0.376656  -0.395534  -0.013408   0.041691  -0.123736  -0.047256
    20  H   -0.029275  -0.025170   0.003430  -0.000971  -0.005791   0.006804
    21  H    0.011455  -0.058634  -0.000976   0.000482   0.000822  -0.011966
    22  N    0.092595   0.016088   0.001738   0.000277  -0.000015   0.000841
    23  H    0.003125  -0.002912   0.000013   0.000010   0.000018   0.000041
              19         20         21         22         23
     1  C   -0.238393   0.018155   0.027216   0.193477   0.013979
     2  C   -0.199615   0.006441  -0.015272   0.016912   0.041842
     3  C   -0.442615   0.003591  -0.012527   0.222097  -0.001034
     4  C    0.039993  -0.000176   0.000169  -0.030502  -0.000246
     5  C   -0.003459  -0.000497   0.000307   0.032364  -0.002399
     6  C    0.033767   0.001382  -0.000545  -0.662193  -0.093945
     7  C   -1.788696   0.164843  -0.250311   0.259690  -0.053809
     8  C    0.111511  -0.046763   0.085789   0.091239   0.053666
     9  H   -0.002322   0.000000   0.000001  -0.001652   0.000012
    10  H    0.000186   0.000000   0.000000   0.000729  -0.000001
    11  H    0.000429   0.000000   0.000000  -0.000845   0.000017
    12  H   -0.000190   0.000001   0.000000  -0.006684   0.002405
    13  C    0.376656  -0.029275   0.011455   0.092595   0.003125
    14  C   -0.395534  -0.025170  -0.058634   0.016088  -0.002912
    15  H   -0.013408   0.003430  -0.000976   0.001738   0.000013
    16  H    0.041691  -0.000971   0.000482   0.000277   0.000010
    17  H   -0.123736  -0.005791   0.000822  -0.000015   0.000018
    18  H   -0.047256   0.006804  -0.011966   0.000841   0.000041
    19  C    8.686141   0.227141   0.552802  -0.328395  -0.019194
    20  H    0.227141   0.550262  -0.040900   0.005120   0.000468
    21  H    0.552802  -0.040900   0.555965   0.000485   0.000918
    22  N   -0.328395   0.005120   0.000485   6.829048   0.376494
    23  H   -0.019194   0.000468   0.000918   0.376494   0.400443
 Mulliken charges:
               1
     1  C   -0.498387
     2  C    1.660429
     3  C   -1.041312
     4  C   -0.120515
     5  C   -0.255029
     6  C   -0.638748
     7  C   -0.437888
     8  C    1.138575
     9  H    0.114986
    10  H    0.117924
    11  H    0.118722
    12  H    0.103627
    13  C   -0.609048
    14  C   -0.301246
    15  H    0.158461
    16  H    0.156483
    17  H    0.149716
    18  H    0.162945
    19  C   -0.467503
    20  H    0.161907
    21  H    0.154719
    22  N   -0.108908
    23  H    0.280090
 Sum of Mulliken charges =   0.00000
 Mulliken charges with hydrogens summed into heavy atoms:
               1
     1  C   -0.498387
     2  C    1.660429
     3  C   -0.926326
     4  C   -0.002592
     5  C   -0.136306
     6  C   -0.535121
     7  C   -0.437888
     8  C    1.138575
    13  C   -0.294104
    14  C    0.011415
    19  C   -0.150877
    22  N    0.171182
 Electronic spatial extent (au):  <R**2>=           2070.9799
 Charge=              0.0000 electrons
 Dipole moment (field-independent basis, Debye):
    X=              1.7066    Y=             -1.7179    Z=              0.0085  Tot=              2.4215
 Quadrupole moment (field-independent basis, Debye-Ang):
   XX=            -67.4943   YY=            -62.1436   ZZ=            -75.7255
   XY=             -0.1523   XZ=              0.1882   YZ=              0.2274
 Traceless Quadrupole moment (field-independent basis, Debye-Ang):
   XX=              0.9602   YY=              6.3109   ZZ=             -7.2711
   XY=             -0.1523   XZ=              0.1882   YZ=              0.2274
 Octapole moment (field-independent basis, Debye-Ang**2):
  XXX=              2.3399  YYY=            -21.3218  ZZZ=              0.3406  XYY=             -1.2905
  XXY=             -3.2764  XXZ=              0.2850  XZZ=             12.6267  YZZ=             -1.1136
  YYZ=             -1.1041  XYZ=              0.1010
 Hexadecapole moment (field-independent basis, Debye-Ang**3):
 XXXX=          -2094.8531 YYYY=           -566.0686 ZZZZ=           -111.9789 XXXY=             -2.8920
 XXXZ=              5.2360 YYYX=             -5.6427 YYYZ=              1.1077 ZZZX=             -0.5599
 ZZZY=             -0.2620 XXYY=           -451.4858 XXZZ=           -401.6201 YYZZ=           -133.3962
 XXYZ=              1.9412 YYXZ=             -1.3865 ZZXY=              2.1079
 N-N= 6.518302737446D+02 E-N=-2.419421395814D+03  KE= 4.784791607971D+02
 There are a total of      189320 grid points.
 ElSum from          density=       84.0002534821
 ElSum from atomic densities=       84.0008128949

 Hirshfeld populations at iteration   1 (CX, CA, CB, DipXYZ):
               1          2          3          4          5          6
     1  C    0.000001   2.981891   2.981891   0.043584  -0.063368  -0.000862
     2  C    0.000000   3.013570   3.013570   0.007967   0.030932   0.001881
     3  C    0.000000   3.027981   3.027981   0.035120   0.053737   0.000624
     4  C    0.000000   3.033268   3.033268  -0.044632   0.027957  -0.000138
     5  C    0.000001   3.031228   3.031228  -0.052974  -0.002873  -0.000435
     6  C    0.000001   3.034564   3.034564   0.001264  -0.063284  -0.000561
     7  C    0.000000   2.985213   2.985213   0.035320  -0.152403   0.006851
     8  C    0.000000   3.024578   3.024578  -0.003212   0.132020   0.010788
     9  H    0.000002   0.477976   0.477976   0.037066   0.153075   0.001579
    10  H    0.000003   0.479783   0.479783  -0.113843   0.109925  -0.000086
    11  H    0.000003   0.479281   0.479281  -0.154051  -0.038913  -0.001968
    12  H    0.000003   0.478734   0.478734  -0.045282  -0.151039  -0.001679
    13  C    0.000000   3.028653   3.028653   0.010695   0.001758  -0.002883
    14  C    0.000000   3.024669   3.024669  -0.013990  -0.003498   0.017578
    15  H    0.000001   0.483525   0.483525   0.012519   0.060519   0.128239
    16  H    0.000001   0.482098   0.482098  -0.001637   0.108880  -0.097302
    17  H    0.000001   0.482628   0.482628   0.116106   0.035380   0.082394
    18  H    0.000001   0.482453   0.482453   0.039683   0.013187  -0.141973
    19  C    0.000000   3.028774   3.028774   0.010954   0.006291  -0.001679
    20  H    0.000001   0.481738   0.481738   0.045339  -0.042327   0.130462
    21  H    0.000001   0.481508   0.481508   0.059726  -0.090962  -0.098443
    22  N    0.000000   3.548870   3.548870  -0.003150  -0.064090  -0.006981
    23  H    0.000001   0.427143   0.427143   0.007330  -0.213915  -0.008910
       Tot   0.000019  42.000127  42.000127   0.029901  -0.153011   0.016494

 Dip from Atomic Chgs              0.643069  -0.522845  -0.013264
         Total Dipole              0.672971  -0.675856   0.003230

 Hirshfeld charges, spin densities, dipoles, and CM5 charges using IRadAn=      4:
              Q-H        S-H        Dx         Dy         Dz        Q-CM5   
     1  C    0.036218   0.000000   0.043584  -0.063368  -0.000862   0.094984
     2  C   -0.027140   0.000000   0.007967   0.030932   0.001881  -0.024333
     3  C   -0.055962   0.000000   0.035120   0.053737   0.000624  -0.107960
     4  C   -0.066536   0.000000  -0.044632   0.027957  -0.000138  -0.121949
     5  C   -0.062456   0.000000  -0.052974  -0.002873  -0.000435  -0.117731
     6  C   -0.069128   0.000000   0.001264  -0.063284  -0.000561  -0.117812
     7  C    0.029575   0.000000   0.035320  -0.152403   0.006851   0.085867
     8  C   -0.049156   0.000000  -0.003212   0.132020   0.010788  -0.049865
     9  H    0.044049   0.000000   0.037066   0.153075   0.001579   0.100247
    10  H    0.040434   0.000000  -0.113843   0.109925  -0.000086   0.096233
    11  H    0.041438   0.000000  -0.154051  -0.038913  -0.001968   0.097261
    12  H    0.042532   0.000000  -0.045282  -0.151039  -0.001679   0.099918
    13  C   -0.057306   0.000000   0.010695   0.001758  -0.002883  -0.157923
    14  C   -0.049338   0.000000  -0.013990  -0.003498   0.017578  -0.155967
    15  H    0.032949   0.000000   0.012519   0.060519   0.128239   0.087284
    16  H    0.035804   0.000000  -0.001637   0.108880  -0.097302   0.090034
    17  H    0.034743   0.000000   0.116106   0.035380   0.082394   0.088605
    18  H    0.035095   0.000000   0.039683   0.013187  -0.141973   0.090121
    19  C   -0.057549   0.000000   0.010954   0.006291  -0.001679  -0.155757
    20  H    0.036523   0.000000   0.045339  -0.042327   0.130462   0.091558
    21  H    0.036985   0.000000   0.059726  -0.090962  -0.098443   0.091933
    22  N   -0.097741   0.000000  -0.003150  -0.064090  -0.006981  -0.444772
    23  H    0.145714   0.000000   0.007330  -0.213915  -0.008910   0.339769
       Tot  -0.000253   0.000000   0.029901  -0.153011   0.016494  -0.000253
 Hirshfeld charges with hydrogens summed into heavy atoms:
              Q-H       Q-CM5   
     1  C    0.036218   0.094984
     2  C   -0.027140  -0.024333
     3  C   -0.011913  -0.007713
     4  C   -0.026102  -0.025716
     5  C   -0.021019  -0.020470
     6  C   -0.026596  -0.017893
     7  C    0.029575   0.085867
     8  C   -0.049156  -0.049865
    13  C    0.011447   0.019395
    14  C    0.020499   0.022759
    19  C    0.015959   0.027734
    22  N    0.047973  -0.105002
 
 EQQ= 0.000000000000E+00 EQD= 0.000000000000E+00 EDD= 0.782285085695E-02
 EQQ+QD+DD= 0.782285085695E-02
 
          MBS Condensed to atoms (all electrons):
               1          2          3          4          5          6
     1  C    4.747422   0.479136  -0.028131  -0.012436  -0.032679   0.499216
     2  C    0.479136   4.801760   0.489896  -0.031659  -0.011292  -0.025591
     3  C   -0.028131   0.489896   4.829646   0.518296  -0.030698  -0.009136
     4  C   -0.012436  -0.031659   0.518296   4.841023   0.495434  -0.030603
     5  C   -0.032679  -0.011292  -0.030698   0.495434   4.837986   0.514985
     6  C    0.499216  -0.025591  -0.009136  -0.030603   0.514985   4.839255
     7  C   -0.065221  -0.053104   0.001080  -0.000014  -0.000011   0.001259
     8  C   -0.052343   0.460058  -0.018985   0.000736   0.000055   0.001064
     9  H    0.001475  -0.025824   0.388498  -0.025014   0.001472   0.000016
    10  H    0.000071   0.001531  -0.026185   0.390668  -0.025981   0.001474
    11  H    0.001542   0.000057   0.001474  -0.025496   0.390777  -0.026437
    12  H   -0.025309   0.001299   0.000020   0.001429  -0.023667   0.387921
    13  C    0.000908  -0.012941  -0.000487   0.000000   0.000000  -0.000005
    14  C   -0.000033   0.000922  -0.000002   0.000000   0.000000   0.000000
    15  H   -0.000001  -0.000479   0.000073   0.000000   0.000000   0.000000
    16  H   -0.000004  -0.000717   0.000103   0.000000   0.000000   0.000000
    17  H    0.000001  -0.000017   0.000000   0.000000   0.000000   0.000000
    18  H    0.000001  -0.000026   0.000000   0.000000   0.000000   0.000000
    19  C    0.001103   0.001241  -0.000007   0.000000   0.000000  -0.000006
    20  H    0.000009  -0.000031   0.000000   0.000000   0.000000   0.000000
    21  H    0.000000  -0.000024   0.000000   0.000000   0.000000   0.000000
    22  N    0.404965  -0.046972   0.000738   0.000033   0.000541  -0.020804
    23  H   -0.024966   0.002110  -0.000028   0.000000  -0.000013  -0.001087
               7          8          9         10         11         12
     1  C   -0.065221  -0.052343   0.001475   0.000071   0.001542  -0.025309
     2  C   -0.053104   0.460058  -0.025824   0.001531   0.000057   0.001299
     3  C    0.001080  -0.018985   0.388498  -0.026185   0.001474   0.000020
     4  C   -0.000014   0.000736  -0.025014   0.390668  -0.025496   0.001429
     5  C   -0.000011   0.000055   0.001472  -0.025981   0.390777  -0.023667
     6  C    0.001259   0.001064   0.000016   0.001474  -0.026437   0.387921
     7  C    4.829710   0.550679  -0.000004   0.000000   0.000000  -0.000004
     8  C    0.550679   4.914251  -0.002024  -0.000016   0.000000  -0.000029
     9  H   -0.000004  -0.002024   0.562373  -0.003944  -0.000040   0.000002
    10  H    0.000000  -0.000016  -0.003944   0.565925  -0.003750  -0.000038
    11  H    0.000000   0.000000  -0.000040  -0.003750   0.564092  -0.003968
    12  H   -0.000004  -0.000029   0.000002  -0.000038  -0.003968   0.563976
    13  C   -0.043890   0.389184   0.000245   0.000000   0.000000   0.000000
    14  C   -0.038192  -0.036183  -0.000002   0.000000   0.000000   0.000000
    15  H   -0.000234  -0.024255   0.000000   0.000000   0.000000   0.000000
    16  H    0.001163  -0.022527   0.000035   0.000000   0.000000   0.000000
    17  H    0.001498   0.001453   0.000000   0.000000   0.000000   0.000000
    18  H    0.000401   0.000438   0.000000   0.000000   0.000000   0.000000
    19  C    0.390456  -0.041087   0.000000   0.000000   0.000000   0.000000
    20  H   -0.023990  -0.000234   0.000000   0.000000   0.000000   0.000000
    21  H   -0.022427   0.001048   0.000000   0.000000   0.000000   0.000000
    22  N    0.406766  -0.050081  -0.000015   0.000000  -0.000010  -0.001739
    23  H   -0.024807   0.002213   0.000001   0.000000   0.000000   0.000837
              13         14         15         16         17         18
     1  C    0.000908  -0.000033  -0.000001  -0.000004   0.000001   0.000001
     2  C   -0.012941   0.000922  -0.000479  -0.000717  -0.000017  -0.000026
     3  C   -0.000487  -0.000002   0.000073   0.000103   0.000000   0.000000
     4  C    0.000000   0.000000   0.000000   0.000000   0.000000   0.000000
     5  C    0.000000   0.000000   0.000000   0.000000   0.000000   0.000000
     6  C   -0.000005   0.000000   0.000000   0.000000   0.000000   0.000000
     7  C   -0.043890  -0.038192  -0.000234   0.001163   0.001498   0.000401
     8  C    0.389184  -0.036183  -0.024255  -0.022527   0.001453   0.000438
     9  H    0.000245  -0.000002   0.000000   0.000035   0.000000   0.000000
    10  H    0.000000   0.000000   0.000000   0.000000   0.000000   0.000000
    11  H    0.000000   0.000000   0.000000   0.000000   0.000000   0.000000
    12  H    0.000000   0.000000   0.000000   0.000000   0.000000   0.000000
    13  C    4.778110   0.359706   0.370825   0.375367  -0.019684  -0.022187
    14  C    0.359706   4.829405  -0.020739  -0.019217   0.376522   0.376970
    15  H    0.370825  -0.020739   0.617873  -0.027684  -0.004020   0.001900
    16  H    0.375367  -0.019217  -0.027684   0.608093   0.000726  -0.005460
    17  H   -0.019684   0.376522  -0.004020   0.000726   0.605630  -0.024724
    18  H   -0.022187   0.376970   0.001900  -0.005460  -0.024724   0.609911
    19  C   -0.027309   0.358736   0.000421   0.001300  -0.020261  -0.022631
    20  H    0.000490  -0.019834   0.000400  -0.000067  -0.004081   0.001901
    21  H    0.001286  -0.018489  -0.000067  -0.000008   0.000742  -0.005449
    22  N    0.000857   0.000655  -0.000007  -0.000010  -0.000010  -0.000017
    23  H   -0.000030  -0.000019   0.000001   0.000001   0.000000   0.000001
              19         20         21         22         23
     1  C    0.001103   0.000009   0.000000   0.404965  -0.024966
     2  C    0.001241  -0.000031  -0.000024  -0.046972   0.002110
     3  C   -0.000007   0.000000   0.000000   0.000738  -0.000028
     4  C    0.000000   0.000000   0.000000   0.000033   0.000000
     5  C    0.000000   0.000000   0.000000   0.000541  -0.000013
     6  C   -0.000006   0.000000   0.000000  -0.020804  -0.001087
     7  C    0.390456  -0.023990  -0.022427   0.406766  -0.024807
     8  C   -0.041087  -0.000234   0.001048  -0.050081   0.002213
     9  H    0.000000   0.000000   0.000000  -0.000015   0.000001
    10  H    0.000000   0.000000   0.000000   0.000000   0.000000
    11  H    0.000000   0.000000   0.000000  -0.000010   0.000000
    12  H    0.000000   0.000000   0.000000  -0.001739   0.000837
    13  C   -0.027309   0.000490   0.001286   0.000857  -0.000030
    14  C    0.358736  -0.019834  -0.018489   0.000655  -0.000019
    15  H    0.000421   0.000400  -0.000067  -0.000007   0.000001
    16  H    0.001300  -0.000067  -0.000008  -0.000010   0.000001
    17  H   -0.020261  -0.004081   0.000742  -0.000010   0.000000
    18  H   -0.022631   0.001901  -0.005449  -0.000017   0.000001
    19  C    4.785925   0.369402   0.374248  -0.014125  -0.000867
    20  H    0.369402   0.611575  -0.026963  -0.000275   0.000093
    21  H    0.374248  -0.026963   0.605715  -0.000517   0.000258
    22  N   -0.014125  -0.000275  -0.000517   6.345872   0.345079
    23  H   -0.000867   0.000093   0.000258   0.345079   0.413902
 MBS Mulliken charges:
               1
     1  C    0.105274
     2  C   -0.029335
     3  C   -0.116164
     4  C   -0.122397
     5  C   -0.116910
     6  C   -0.131522
     7  C    0.088888
     8  C   -0.073414
     9  H    0.102748
    10  H    0.100244
    11  H    0.101757
    12  H    0.099267
    13  C   -0.150443
    14  C   -0.150204
    15  H    0.085993
    16  H    0.088908
    17  H    0.086224
    18  H    0.088971
    19  C   -0.156536
    20  H    0.091605
    21  H    0.090648
    22  N   -0.370927
    23  H    0.287323
 Sum of MBS Mulliken charges =   0.00000
 MBS Mulliken charges with hydrogens summed into heavy atoms:
               1
     1  C    0.105274
     2  C   -0.029335
     3  C   -0.013416
     4  C   -0.022152
     5  C   -0.015152
     6  C   -0.032255
     7  C    0.088888
     8  C   -0.073414
    13  C    0.024457
    14  C    0.024991
    19  C    0.025717
    22  N   -0.083603
 Breneman (CHELPG) radii used.
 Generate Potential Derived Charges using the Breneman model, NDens= 1.
 Grid spacing= 0.300 Box extension= 2.800
 NStep X,Y,Z=   47     37     28   Total possible points=       48692
 Number of Points to Fit=   14885

 **********************************************************************

            Electrostatic Properties Using The SCF Density

 **********************************************************************

       Atomic Center    1 is at  -0.952787 -0.849585 -0.001301
       Atomic Center    2 is at  -0.562711  0.525446  0.008851
       Atomic Center    3 is at  -1.564305  1.508792  0.008834
       Atomic Center    4 is at  -2.897443  1.120216 -0.007291
       Atomic Center    5 is at  -3.257818 -0.239386 -0.024135
       Atomic Center    6 is at  -2.291354 -1.239362 -0.022393
       Atomic Center    7 is at   1.285839 -0.770097  0.009542
       Atomic Center    8 is at   0.872655  0.528228  0.012367
       Atomic Center    9 is at  -1.299376  2.560475  0.020052
       Atomic Center   10 is at  -3.676245  1.874516 -0.007499
       Atomic Center   11 is at  -4.306604 -0.513357 -0.037673
       Atomic Center   12 is at  -2.573704 -2.286839 -0.033619
       Atomic Center   13 is at   2.042465  1.468886  0.094539
       Atomic Center   14 is at   3.252268  0.514604 -0.180400
       Atomic Center   15 is at   2.117349  1.933339  1.086018
       Atomic Center   16 is at   2.007164  2.285423 -0.633063
       Atomic Center   17 is at   4.128019  0.771101  0.419031
       Atomic Center   18 is at   3.541305  0.600814 -1.230587
       Atomic Center   19 is at   2.767790 -0.948098  0.088847
       Atomic Center   20 is at   3.075810 -1.302837  1.081140
       Atomic Center   21 is at   3.174227 -1.654130 -0.642542
       Atomic Center   22 is at   0.202093 -1.622707  0.012067
       Atomic Center   23 is at   0.229816 -2.627417 -0.030489
   14885 points will be used for fitting atomic charges
 Fitting point charges to electrostatic potential
 Charges from ESP fit, RMS=   0.00421 RRMS=   0.32277:
 ESP charges:
               1
     1  C    0.268854
     2  C    0.112628
     3  C   -0.206596
     4  C   -0.117157
     5  C   -0.088797
     6  C   -0.255788
     7  C    0.075521
     8  C   -0.272532
     9  H    0.116580
    10  H    0.087559
    11  H    0.086516
    12  H    0.126937
    13  C    0.383675
    14  C   -0.303033
    15  H   -0.074247
    16  H   -0.065990
    17  H    0.058147
    18  H    0.049686
    19  C    0.307039
    20  H   -0.053194
    21  H   -0.051840
    22  N   -0.546142
    23  H    0.362173
 Sum of ESP charges =   0.00000
 ESP charges with hydrogens summed into heavy atoms:
               1
     1  C    0.268854
     2  C    0.112628
     3  C   -0.090016
     4  C   -0.029597
     5  C   -0.002281
     6  C   -0.128851
     7  C    0.075521
     8  C   -0.272532
    13  C    0.243437
    14  C   -0.195200
    19  C    0.202005
    22  N   -0.183970
 Charge=   0.00000 Dipole=     1.5564    -1.7365    -0.0010 Tot=     2.3320
 -----------------------------------------------------------------

              Electrostatic Properties (Atomic Units)

 -----------------------------------------------------------------
    Center     Electric         -------- Electric Field --------
               Potential          X             Y             Z
 -----------------------------------------------------------------
    1 Atom    -14.745756
    2 Atom    -14.780589
    3 Atom    -14.784663
    4 Atom    -14.789538
    5 Atom    -14.785423
    6 Atom    -14.778942
    7 Atom    -14.752781
    8 Atom    -14.795503
    9 Atom     -1.118667
   10 Atom     -1.123563
   11 Atom     -1.120326
   12 Atom     -1.106166
   13 Atom    -14.771218
   14 Atom    -14.769621
   15 Atom     -1.130767
   16 Atom     -1.129281
   17 Atom     -1.125695
   18 Atom     -1.128338
   19 Atom    -14.759724
   20 Atom     -1.115589
   21 Atom     -1.114109
   22 Atom    -18.351955
   23 Atom     -1.002084
 -----------------------------------------------------------------
 ******************************Gaussian NBO Version 3.1******************************
             N A T U R A L   A T O M I C   O R B I T A L   A N D
          N A T U R A L   B O N D   O R B I T A L   A N A L Y S I S
 ******************************Gaussian NBO Version 3.1******************************
       /RESON  / : Allow strongly delocalized NBO set

 Analyzing the SCF density

 Job title: Table9_12                                                       

 Storage needed:    328640 in NPA ( 104854725 available)
 Remove ICRem=  157 ICRemI=  158 L=0 PNAO number  157 atom    8 type  51 NPNAO=  330
   due to symmetric orthogonalization 2, value= 0.00D+00.


 NATURAL POPULATIONS:  Natural atomic orbital occupancies 
                                                          
   NAO  Atom  No  lang   Type(AO)    Occupancy      Energy
 ----------------------------------------------------------
     1    C    1  S      Cor( 1S)     1.99898     -10.06178
     2    C    1  S      Val( 2S)     0.82645      -0.10499
     3    C    1  S      Ryd( 4S)     0.00173       0.85315
     4    C    1  S      Ryd( 3S)     0.00011       0.51814
     5    C    1  S      Ryd( 5S)     0.00002      23.03256
     6    C    1  px     Val( 2p)     0.97589      -0.02771
     7    C    1  px     Ryd( 4p)     0.00447       1.34635
     8    C    1  px     Ryd( 3p)     0.00040       0.62118
     9    C    1  px     Ryd( 5p)     0.00015       3.14161
    10    C    1  py     Val( 2p)     0.98437      -0.04037
    11    C    1  py     Ryd( 4p)     0.00710       1.13323
    12    C    1  py     Ryd( 3p)     0.00019       0.46777
    13    C    1  py     Ryd( 5p)     0.00011       3.02543
    14    C    1  pz     Val( 2p)     1.02822      -0.10401
    15    C    1  pz     Ryd( 4p)     0.00098       0.62963
    16    C    1  pz     Ryd( 3p)     0.00061       0.32401
    17    C    1  pz     Ryd( 5p)     0.00002       2.70286
    18    C    1  dxy    Ryd( 3d)     0.00125       2.54789
    19    C    1  dxz    Ryd( 3d)     0.00118       1.68448
    20    C    1  dyz    Ryd( 3d)     0.00082       1.62623
    21    C    1  dx2y2  Ryd( 3d)     0.00080       2.65550
    22    C    1  dz2    Ryd( 3d)     0.00049       2.09321

    23    C    2  S      Cor( 1S)     1.99897     -10.01653
    24    C    2  S      Val( 2S)     0.85928      -0.09496
    25    C    2  S      Ryd( 3S)     0.00132       0.72474
    26    C    2  S      Ryd( 4S)     0.00020       0.86883
    27    C    2  S      Ryd( 5S)     0.00002      22.94963
    28    C    2  px     Val( 2p)     1.09280      -0.04415
    29    C    2  px     Ryd( 4p)     0.00412       1.26850
    30    C    2  px     Ryd( 3p)     0.00035       0.55856
    31    C    2  px     Ryd( 5p)     0.00021       3.40240
    32    C    2  py     Val( 2p)     1.07519      -0.04590
    33    C    2  py     Ryd( 4p)     0.00573       1.22992
    34    C    2  py     Ryd( 3p)     0.00028       0.55218
    35    C    2  py     Ryd( 5p)     0.00013       3.32143
    36    C    2  pz     Val( 2p)     1.04914      -0.08715
    37    C    2  pz     Ryd( 4p)     0.00056       0.61605
    38    C    2  pz     Ryd( 3p)     0.00052       0.35341
    39    C    2  pz     Ryd( 5p)     0.00001       2.79554
    40    C    2  dxy    Ryd( 3d)     0.00074       2.59184
    41    C    2  dxz    Ryd( 3d)     0.00092       1.71710
    42    C    2  dyz    Ryd( 3d)     0.00049       1.66971
    43    C    2  dx2y2  Ryd( 3d)     0.00079       2.66164
    44    C    2  dz2    Ryd( 3d)     0.00041       2.20508

    45    C    3  S      Cor( 1S)     1.99909     -10.01640
    46    C    3  S      Val( 2S)     0.93527      -0.13706
    47    C    3  S      Ryd( 4S)     0.00170       0.81566
    48    C    3  S      Ryd( 3S)     0.00011       0.60916
    49    C    3  S      Ryd( 5S)     0.00002      23.09149
    50    C    3  px     Val( 2p)     1.06831      -0.02983
    51    C    3  px     Ryd( 4p)     0.00366       0.85278
    52    C    3  px     Ryd( 3p)     0.00054       0.46436
    53    C    3  px     Ryd( 5p)     0.00014       3.14723
    54    C    3  py     Val( 2p)     1.16089      -0.03820
    55    C    3  py     Ryd( 4p)     0.00577       1.04292
    56    C    3  py     Ryd( 3p)     0.00031       0.36785
    57    C    3  py     Ryd( 5p)     0.00008       3.14017
    58    C    3  pz     Val( 2p)     1.00952      -0.09382
    59    C    3  pz     Ryd( 4p)     0.00136       0.51645
    60    C    3  pz     Ryd( 3p)     0.00043       0.30664
    61    C    3  pz     Ryd( 5p)     0.00002       2.74045
    62    C    3  dxy    Ryd( 3d)     0.00070       2.59545
    63    C    3  dxz    Ryd( 3d)     0.00059       1.68738
    64    C    3  dyz    Ryd( 3d)     0.00039       1.64964
    65    C    3  dx2y2  Ryd( 3d)     0.00073       2.53731
    66    C    3  dz2    Ryd( 3d)     0.00040       2.10411

    67    C    4  S      Cor( 1S)     1.99918     -10.01564
    68    C    4  S      Val( 2S)     0.94811      -0.14697
    69    C    4  S      Ryd( 3S)     0.00139       0.85823
    70    C    4  S      Ryd( 4S)     0.00013       1.22425
    71    C    4  S      Ryd( 5S)     0.00000      22.58310
    72    C    4  px     Val( 2p)     1.11585      -0.03329
    73    C    4  px     Ryd( 4p)     0.00562       0.91668
    74    C    4  px     Ryd( 3p)     0.00041       0.35434
    75    C    4  px     Ryd( 5p)     0.00011       3.16718
    76    C    4  py     Val( 2p)     1.11105      -0.03481
    77    C    4  py     Ryd( 4p)     0.00578       0.90115
    78    C    4  py     Ryd( 3p)     0.00037       0.38191
    79    C    4  py     Ryd( 5p)     0.00010       3.15118
    80    C    4  pz     Val( 2p)     1.03519      -0.09425
    81    C    4  pz     Ryd( 4p)     0.00156       0.51490
    82    C    4  pz     Ryd( 3p)     0.00026       0.32142
    83    C    4  pz     Ryd( 5p)     0.00002       2.71327
    84    C    4  dxy    Ryd( 3d)     0.00081       2.51056
    85    C    4  dxz    Ryd( 3d)     0.00046       1.66141
    86    C    4  dyz    Ryd( 3d)     0.00040       1.65708
    87    C    4  dx2y2  Ryd( 3d)     0.00061       2.59122
    88    C    4  dz2    Ryd( 3d)     0.00040       2.06589

    89    C    5  S      Cor( 1S)     1.99919     -10.02014
    90    C    5  S      Val( 2S)     0.94805      -0.15056
    91    C    5  S      Ryd( 3S)     0.00148       0.80223
    92    C    5  S      Ryd( 4S)     0.00010       1.12801
    93    C    5  S      Ryd( 5S)     0.00000      22.72424
    94    C    5  px     Val( 2p)     1.15609      -0.03874
    95    C    5  px     Ryd( 4p)     0.00642       1.02919
    96    C    5  px     Ryd( 3p)     0.00035       0.35007
    97    C    5  px     Ryd( 5p)     0.00007       3.17951
    98    C    5  py     Val( 2p)     1.06450      -0.03296
    99    C    5  py     Ryd( 4p)     0.00497       0.76605
   100    C    5  py     Ryd( 3p)     0.00045       0.40766
   101    C    5  py     Ryd( 5p)     0.00015       3.13561
   102    C    5  pz     Val( 2p)     1.02825      -0.09690
   103    C    5  pz     Ryd( 4p)     0.00194       0.50998
   104    C    5  pz     Ryd( 3p)     0.00031       0.31680
   105    C    5  pz     Ryd( 5p)     0.00003       2.71262
   106    C    5  dxy    Ryd( 3d)     0.00066       2.57276
   107    C    5  dxz    Ryd( 3d)     0.00038       1.62485
   108    C    5  dyz    Ryd( 3d)     0.00053       1.68584
   109    C    5  dx2y2  Ryd( 3d)     0.00074       2.52033
   110    C    5  dz2    Ryd( 3d)     0.00041       2.06222

   111    C    6  S      Cor( 1S)     1.99906     -10.02156
   112    C    6  S      Val( 2S)     0.93694      -0.14419
   113    C    6  S      Ryd( 3S)     0.00167       0.89527
   114    C    6  S      Ryd( 4S)     0.00011       1.15968
   115    C    6  S      Ryd( 5S)     0.00001      22.46396
   116    C    6  px     Val( 2p)     1.06439      -0.04065
   117    C    6  px     Ryd( 4p)     0.00394       0.83218
   118    C    6  px     Ryd( 3p)     0.00048       0.36223
   119    C    6  px     Ryd( 5p)     0.00015       3.08093
   120    C    6  py     Val( 2p)     1.17503      -0.05381
   121    C    6  py     Ryd( 4p)     0.00545       1.12597
   122    C    6  py     Ryd( 3p)     0.00022       0.39056
   123    C    6  py     Ryd( 5p)     0.00008       3.05012
   124    C    6  pz     Val( 2p)     1.04712      -0.10332
   125    C    6  pz     Ryd( 4p)     0.00125       0.53006
   126    C    6  pz     Ryd( 3p)     0.00045       0.28215
   127    C    6  pz     Ryd( 5p)     0.00002       2.71437
   128    C    6  dxy    Ryd( 3d)     0.00058       2.59340
   129    C    6  dxz    Ryd( 3d)     0.00064       1.68284
   130    C    6  dyz    Ryd( 3d)     0.00040       1.63558
   131    C    6  dx2y2  Ryd( 3d)     0.00078       2.55115
   132    C    6  dz2    Ryd( 3d)     0.00042       2.11104

   133    C    7  S      Cor( 1S)     1.99883     -10.05449
   134    C    7  S      Val( 2S)     0.83406      -0.11078
   135    C    7  S      Ryd( 4S)     0.00207       0.78761
   136    C    7  S      Ryd( 3S)     0.00025       0.57636
   137    C    7  S      Ryd( 5S)     0.00002      23.17035
   138    C    7  px     Val( 2p)     0.96971      -0.02876
   139    C    7  px     Ryd( 4p)     0.00411       1.15513
   140    C    7  px     Ryd( 3p)     0.00054       0.59296
   141    C    7  px     Ryd( 5p)     0.00019       3.18520
   142    C    7  py     Val( 2p)     0.97744      -0.04705
   143    C    7  py     Ryd( 4p)     0.00574       0.79465
   144    C    7  py     Ryd( 3p)     0.00039       0.42021
   145    C    7  py     Ryd( 5p)     0.00019       3.21760
   146    C    7  pz     Val( 2p)     1.02346      -0.10365
   147    C    7  pz     Ryd( 4p)     0.00223       0.61729
   148    C    7  pz     Ryd( 3p)     0.00079       0.30931
   149    C    7  pz     Ryd( 5p)     0.00002       2.72325
   150    C    7  dxy    Ryd( 3d)     0.00140       2.52034
   151    C    7  dxz    Ryd( 3d)     0.00091       1.75152
   152    C    7  dyz    Ryd( 3d)     0.00136       1.68198
   153    C    7  dx2y2  Ryd( 3d)     0.00076       2.58053
   154    C    7  dz2    Ryd( 3d)     0.00049       2.08076

   155    C    8  S      Cor( 1S)     1.99860     -10.00457
   156    C    8  S      Val( 2S)     0.85064      -0.10988
   157    C    8  S      Ryd( 3S)     0.00095       0.68086
   158    C    8  S      Ryd( 4S)     0.00002      23.22284
   159    C    8  px     Val( 2p)     1.07083      -0.02782
   160    C    8  px     Ryd( 4p)     0.00317       1.36156
   161    C    8  px     Ryd( 3p)     0.00047       0.66636
   162    C    8  px     Ryd( 5p)     0.00016       3.32597
   163    C    8  py     Val( 2p)     1.06528      -0.05013
   164    C    8  py     Ryd( 4p)     0.00557       1.02301
   165    C    8  py     Ryd( 3p)     0.00041       0.54491
   166    C    8  py     Ryd( 5p)     0.00014       3.23828
   167    C    8  pz     Val( 2p)     1.09180      -0.08443
   168    C    8  pz     Ryd( 4p)     0.00193       0.62239
   169    C    8  pz     Ryd( 3p)     0.00061       0.40491
   170    C    8  pz     Ryd( 5p)     0.00002       2.73588
   171    C    8  dxy    Ryd( 3d)     0.00063       2.48954
   172    C    8  dxz    Ryd( 3d)     0.00052       1.76690
   173    C    8  dyz    Ryd( 3d)     0.00109       1.73059
   174    C    8  dx2y2  Ryd( 3d)     0.00100       2.65502
   175    C    8  dz2    Ryd( 3d)     0.00061       2.13417

   176    H    9  S      Val( 1S)     0.79274       0.05678
   177    H    9  S      Ryd( 2S)     0.00071       0.72075
   178    H    9  S      Ryd( 3S)     0.00018       1.99272
   179    H    9  px     Ryd( 2p)     0.00014       2.06827
   180    H    9  py     Ryd( 2p)     0.00043       2.70198
   181    H    9  pz     Ryd( 2p)     0.00021       1.62313

   182    H   10  S      Val( 1S)     0.79558       0.06048
   183    H   10  S      Ryd( 2S)     0.00057       0.61837
   184    H   10  S      Ryd( 3S)     0.00016       2.17195
   185    H   10  px     Ryd( 2p)     0.00027       2.37330
   186    H   10  py     Ryd( 2p)     0.00026       2.34007
   187    H   10  pz     Ryd( 2p)     0.00023       1.61041

   188    H   11  S      Val( 1S)     0.79550       0.05781
   189    H   11  S      Ryd( 2S)     0.00055       0.60181
   190    H   11  S      Ryd( 3S)     0.00016       2.17547
   191    H   11  px     Ryd( 2p)     0.00040       2.66683
   192    H   11  py     Ryd( 2p)     0.00014       2.03684
   193    H   11  pz     Ryd( 2p)     0.00023       1.60741

   194    H   12  S      Val( 1S)     0.79297       0.04314
   195    H   12  S      Ryd( 2S)     0.00083       0.72362
   196    H   12  S      Ryd( 3S)     0.00019       1.96861
   197    H   12  px     Ryd( 2p)     0.00013       2.06266
   198    H   12  py     Ryd( 2p)     0.00039       2.67972
   199    H   12  pz     Ryd( 2p)     0.00022       1.60736

   200    C   13  S      Cor( 1S)     1.99927     -10.03016
   201    C   13  S      Val( 2S)     1.01997      -0.21238
   202    C   13  S      Ryd( 4S)     0.00169       0.89864
   203    C   13  S      Ryd( 3S)     0.00020       0.76910
   204    C   13  S      Ryd( 5S)     0.00001      23.38075
   205    C   13  px     Val( 2p)     1.02231      -0.07094
   206    C   13  px     Ryd( 4p)     0.00162       0.54095
   207    C   13  px     Ryd( 3p)     0.00063       0.37645
   208    C   13  px     Ryd( 5p)     0.00016       3.10571
   209    C   13  py     Val( 2p)     1.13190      -0.07917
   210    C   13  py     Ryd( 4p)     0.00290       0.49171
   211    C   13  py     Ryd( 3p)     0.00030       0.29252
   212    C   13  py     Ryd( 5p)     0.00008       3.14279
   213    C   13  pz     Val( 2p)     1.19883      -0.07759
   214    C   13  pz     Ryd( 4p)     0.00234       0.63975
   215    C   13  pz     Ryd( 3p)     0.00031       0.29432
   216    C   13  pz     Ryd( 5p)     0.00007       3.07988
   217    C   13  dxy    Ryd( 3d)     0.00078       2.28351
   218    C   13  dxz    Ryd( 3d)     0.00041       1.81422
   219    C   13  dyz    Ryd( 3d)     0.00100       2.22042
   220    C   13  dx2y2  Ryd( 3d)     0.00062       2.01632
   221    C   13  dz2    Ryd( 3d)     0.00077       2.19710

   222    C   14  S      Cor( 1S)     1.99934     -10.04083
   223    C   14  S      Val( 2S)     1.04143      -0.24126
   224    C   14  S      Ryd( 3S)     0.00109       0.67340
   225    C   14  S      Ryd( 4S)     0.00039       1.19693
   226    C   14  S      Ryd( 5S)     0.00000      23.16834
   227    C   14  px     Val( 2p)     1.11649      -0.08386
   228    C   14  px     Ryd( 4p)     0.00362       0.53721
   229    C   14  px     Ryd( 3p)     0.00040       0.23874
   230    C   14  px     Ryd( 5p)     0.00006       3.13795
   231    C   14  py     Val( 2p)     1.00110      -0.07718
   232    C   14  py     Ryd( 4p)     0.00170       0.50807
   233    C   14  py     Ryd( 3p)     0.00044       0.30898
   234    C   14  py     Ryd( 5p)     0.00012       3.12923
   235    C   14  pz     Val( 2p)     1.19270      -0.08249
   236    C   14  pz     Ryd( 4p)     0.00231       0.58915
   237    C   14  pz     Ryd( 3p)     0.00021       0.25444
   238    C   14  pz     Ryd( 5p)     0.00003       3.13004
   239    C   14  dxy    Ryd( 3d)     0.00067       2.15457
   240    C   14  dxz    Ryd( 3d)     0.00066       2.08313
   241    C   14  dyz    Ryd( 3d)     0.00035       1.86979
   242    C   14  dx2y2  Ryd( 3d)     0.00082       2.08033
   243    C   14  dz2    Ryd( 3d)     0.00098       2.20721

   244    H   15  S      Val( 1S)     0.79954       0.04178
   245    H   15  S      Ryd( 2S)     0.00139       0.68121
   246    H   15  S      Ryd( 3S)     0.00012       2.21541
   247    H   15  px     Ryd( 2p)     0.00020       1.76666
   248    H   15  py     Ryd( 2p)     0.00016       2.05976
   249    H   15  pz     Ryd( 2p)     0.00027       2.53618

   250    H   16  S      Val( 1S)     0.79425       0.04497
   251    H   16  S      Ryd( 2S)     0.00122       0.57178
   252    H   16  S      Ryd( 3S)     0.00014       2.31520
   253    H   16  px     Ryd( 2p)     0.00021       1.76084
   254    H   16  py     Ryd( 2p)     0.00021       2.39857
   255    H   16  pz     Ryd( 2p)     0.00021       2.21242

   256    H   17  S      Val( 1S)     0.79910       0.03926
   257    H   17  S      Ryd( 2S)     0.00112       0.65215
   258    H   17  S      Ryd( 3S)     0.00014       2.19116
   259    H   17  px     Ryd( 2p)     0.00026       2.40940
   260    H   17  py     Ryd( 2p)     0.00020       1.81600
   261    H   17  pz     Ryd( 2p)     0.00018       2.06423

   262    H   18  S      Val( 1S)     0.80141       0.03847
   263    H   18  S      Ryd( 2S)     0.00104       0.75243
   264    H   18  S      Ryd( 3S)     0.00012       2.12460
   265    H   18  px     Ryd( 2p)     0.00016       1.96239
   266    H   18  py     Ryd( 2p)     0.00019       1.78282
   267    H   18  pz     Ryd( 2p)     0.00029       2.62743

   268    C   19  S      Cor( 1S)     1.99923     -10.04121
   269    C   19  S      Val( 2S)     1.02368      -0.22509
   270    C   19  S      Ryd( 4S)     0.00142       0.91126
   271    C   19  S      Ryd( 3S)     0.00022       0.84955
   272    C   19  S      Ryd( 5S)     0.00000      23.30175
   273    C   19  px     Val( 2p)     1.05722      -0.08504
   274    C   19  px     Ryd( 4p)     0.00172       0.51170
   275    C   19  px     Ryd( 3p)     0.00049       0.26153
   276    C   19  px     Ryd( 5p)     0.00012       3.11570
   277    C   19  py     Val( 2p)     1.11261      -0.09587
   278    C   19  py     Ryd( 4p)     0.00285       0.52193
   279    C   19  py     Ryd( 3p)     0.00033       0.27598
   280    C   19  py     Ryd( 5p)     0.00010       3.08379
   281    C   19  pz     Val( 2p)     1.20137      -0.09160
   282    C   19  pz     Ryd( 4p)     0.00212       0.63827
   283    C   19  pz     Ryd( 3p)     0.00030       0.26095
   284    C   19  pz     Ryd( 5p)     0.00008       3.07994
   285    C   19  dxy    Ryd( 3d)     0.00053       2.03236
   286    C   19  dxz    Ryd( 3d)     0.00058       1.91095
   287    C   19  dyz    Ryd( 3d)     0.00081       2.09563
   288    C   19  dx2y2  Ryd( 3d)     0.00092       2.24848
   289    C   19  dz2    Ryd( 3d)     0.00079       2.19363

   290    H   20  S      Val( 1S)     0.79299       0.03000
   291    H   20  S      Ryd( 2S)     0.00145       0.70124
   292    H   20  S      Ryd( 3S)     0.00011       2.14980
   293    H   20  px     Ryd( 2p)     0.00019       1.85237
   294    H   20  py     Ryd( 2p)     0.00016       1.94177
   295    H   20  pz     Ryd( 2p)     0.00026       2.52167

   296    H   21  S      Val( 1S)     0.79155       0.03118
   297    H   21  S      Ryd( 2S)     0.00126       0.58032
   298    H   21  S      Ryd( 3S)     0.00013       2.26737
   299    H   21  px     Ryd( 2p)     0.00020       1.91115
   300    H   21  py     Ryd( 2p)     0.00020       2.20796
   301    H   21  pz     Ryd( 2p)     0.00021       2.20123

   302    N   22  S      Cor( 1S)     1.99924     -14.17385
   303    N   22  S      Val( 2S)     1.21387      -0.51489
   304    N   22  S      Ryd( 4S)     0.00033       1.45839
   305    N   22  S      Ryd( 3S)     0.00006       0.95531
   306    N   22  S      Ryd( 5S)     0.00000      35.35573
   307    N   22  px     Val( 2p)     1.28894      -0.23470
   308    N   22  px     Ryd( 3p)     0.00223       0.80723
   309    N   22  px     Ryd( 4p)     0.00019       0.85766
   310    N   22  px     Ryd( 5p)     0.00003       4.40262
   311    N   22  py     Val( 2p)     1.38675      -0.25523
   312    N   22  py     Ryd( 4p)     0.00227       1.23796
   313    N   22  py     Ryd( 3p)     0.00094       0.94024
   314    N   22  py     Ryd( 5p)     0.00002       4.37515
   315    N   22  pz     Val( 2p)     1.64789      -0.25710
   316    N   22  pz     Ryd( 3p)     0.00473       0.44526
   317    N   22  pz     Ryd( 4p)     0.00074       0.66189
   318    N   22  pz     Ryd( 5p)     0.00001       3.83209
   319    N   22  dxy    Ryd( 3d)     0.00079       2.97991
   320    N   22  dxz    Ryd( 3d)     0.00059       2.18530
   321    N   22  dyz    Ryd( 3d)     0.00032       2.23937
   322    N   22  dx2y2  Ryd( 3d)     0.00090       2.88238
   323    N   22  dz2    Ryd( 3d)     0.00059       2.65629

   324    H   23  S      Val( 1S)     0.59451       0.07056
   325    H   23  S      Ryd( 2S)     0.00157       0.36849
   326    H   23  S      Ryd( 3S)     0.00052       2.18548
   327    H   23  px     Ryd( 2p)     0.00016       2.00501
   328    H   23  py     Ryd( 2p)     0.00048       2.72447
   329    H   23  pz     Ryd( 2p)     0.00071       1.59068

 WARNING:  1 low occupancy (<1.9990e) core orbital  found on  C    1
           1 low occupancy (<1.9990e) core orbital  found on  C    2
           1 low occupancy (<1.9990e) core orbital  found on  C    7
           1 low occupancy (<1.9990e) core orbital  found on  C    8

 WARNING:  Population inversion found on atom  C    1
           Population inversion found on atom  C    2
           Population inversion found on atom  C    3
           Population inversion found on atom  C    4
           Population inversion found on atom  C    5
           Population inversion found on atom  C    6
           Population inversion found on atom  C    7
           Population inversion found on atom  C    8
           Population inversion found on atom  C   13
           Population inversion found on atom  C   14
           Population inversion found on atom  C   19
           Population inversion found on atom  N   22


 Summary of Natural Population Analysis:                  
                                                          
                                       Natural Population 
                Natural  -----------------------------------------------
    Atom  No    Charge         Core      Valence    Rydberg      Total
 -----------------------------------------------------------------------
      C    1    0.16566      1.99898     3.81494    0.02043     5.83434
      C    2   -0.09218      1.99897     4.07641    0.01680     6.09218
      C    3   -0.19000      1.99909     4.17398    0.01693     6.19000
      C    4   -0.22783      1.99918     4.21020    0.01845     6.22783
      C    5   -0.21506      1.99919     4.19688    0.01899     6.21506
      C    6   -0.23921      1.99906     4.22348    0.01666     6.23921
      C    7    0.17504      1.99883     3.80467    0.02146     5.82496
      C    8   -0.09446      1.99860     4.07855    0.01730     6.09446
      H    9    0.20560      0.00000     0.79274    0.00167     0.79440
      H   10    0.20294      0.00000     0.79558    0.00148     0.79706
      H   11    0.20301      0.00000     0.79550    0.00149     0.79699
      H   12    0.20527      0.00000     0.79297    0.00177     0.79473
      C   13   -0.38616      1.99927     4.37300    0.01389     6.38616
      C   14   -0.36491      1.99934     4.35172    0.01385     6.36491
      H   15    0.19831      0.00000     0.79954    0.00214     0.80169
      H   16    0.20375      0.00000     0.79425    0.00200     0.79625
      H   17    0.19900      0.00000     0.79910    0.00189     0.80100
      H   18    0.19680      0.00000     0.80141    0.00179     0.80320
      C   19   -0.40749      1.99923     4.39488    0.01338     6.40749
      H   20    0.20483      0.00000     0.79299    0.00218     0.79517
      H   21    0.20643      0.00000     0.79155    0.00202     0.79357
      N   22   -0.55142      1.99924     5.53745    0.01473     7.55142
      H   23    0.40206      0.00000     0.59451    0.00343     0.59794
 =======================================================================
   * Total *    0.00000     23.98897    59.78630    0.22473    84.00000

                                 Natural Population      
 --------------------------------------------------------
   Core                      23.98897 ( 99.9540% of  24)
   Valence                   59.78630 ( 99.6438% of  60)
   Natural Minimal Basis     83.77527 ( 99.7325% of  84)
   Natural Rydberg Basis      0.22473 (  0.2675% of  84)
 --------------------------------------------------------

    Atom  No          Natural Electron Configuration
 ----------------------------------------------------------------------------
      C    1      [core]2S( 0.83)2p( 2.99)4p( 0.01)
      C    2      [core]2S( 0.86)2p( 3.22)4p( 0.01)
      C    3      [core]2S( 0.94)2p( 3.24)4p( 0.01)
      C    4      [core]2S( 0.95)2p( 3.26)4p( 0.01)
      C    5      [core]2S( 0.95)2p( 3.25)4p( 0.01)
      C    6      [core]2S( 0.94)2p( 3.29)4p( 0.01)
      C    7      [core]2S( 0.83)2p( 2.97)4p( 0.01)
      C    8      [core]2S( 0.85)2p( 3.23)4p( 0.01)
      H    9            1S( 0.79)
      H   10            1S( 0.80)
      H   11            1S( 0.80)
      H   12            1S( 0.79)
      C   13      [core]2S( 1.02)2p( 3.35)4p( 0.01)
      C   14      [core]2S( 1.04)2p( 3.31)4p( 0.01)
      H   15            1S( 0.80)
      H   16            1S( 0.79)
      H   17            1S( 0.80)
      H   18            1S( 0.80)
      C   19      [core]2S( 1.02)2p( 3.37)4p( 0.01)
      H   20            1S( 0.79)
      H   21            1S( 0.79)
      N   22      [core]2S( 1.21)2p( 4.32)3p( 0.01)
      H   23            1S( 0.59)


 NBO analysis skipped by request.
 1\1\GINC-COREV3-23-050\SP\RB3LYP\6-311+G(d,p)\C11H11N1\ROOT\23-Jul-202
 1\0\\# b3lyp/6-311+g(d,p) geom=connectivity pop=(hirshfeld,chelpg,mbs,
 npa)\\Table9_12\\0,1\C,0,-0.952787,-0.849585,-0.001301\C,0,-0.562711,0
 .525446,0.008851\C,0,-1.564305,1.508792,0.008834\C,0,-2.897443,1.12021
 6,-0.007291\C,0,-3.257818,-0.239386,-0.024135\C,0,-2.291354,-1.239362,
 -0.022393\C,0,1.285839,-0.770097,0.009542\C,0,0.872655,0.528228,0.0123
 67\H,0,-1.299376,2.560475,0.020052\H,0,-3.676245,1.874516,-0.007499\H,
 0,-4.306604,-0.513357,-0.037673\H,0,-2.573704,-2.286839,-0.033619\C,0,
 2.042465,1.468886,0.094539\C,0,3.252268,0.514604,-0.1804\H,0,2.117349,
 1.933339,1.086018\H,0,2.007164,2.285423,-0.633063\H,0,4.128019,0.77110
 1,0.419031\H,0,3.541305,0.600814,-1.230587\C,0,2.76779,-0.948098,0.088
 847\H,0,3.07581,-1.302837,1.08114\H,0,3.174227,-1.65413,-0.642542\N,0,
 0.202093,-1.622707,0.012067\H,0,0.229816,-2.627417,-0.030489\\Version=
 ES64L-G09RevD.01\State=1-A\HF=-480.6702033\RMSD=3.595e-09\Dipole=0.671
 4224,-0.6758806,0.0033571\Quadrupole=0.7138631,4.6919985,-5.4058616,-0
 .1132663,0.139898,0.1690574\PG=C01 [X(C11H11N1)]\\@


 THE PROMISED LAND ALWAYS LIES ON THE OTHER SIDE OF A WILDERNESS.

                         -- HAVELOCK ELLIS
 Job cpu time:       0 days  0 hours 17 minutes 55.6 seconds.
 File lengths (MBytes):  RWF=    112 Int=      0 D2E=      0 Chk=      5 Scr=      1
 Normal termination of Gaussian 09 at Fri Jul 23 17:39:56 2021.
