 Entering Gaussian System, Link 0=g09
 Initial command:
 /cm/shared/apps/gaussian/g09revD.01/g09/l1.exe "//home/sweav003/CHB/CHActivation_Mkhalid/OtherCharges/G09-Table9_14.com.o9447153.tmp/Gau-53656.inp" -scrdir="//home/sweav003/CHB/CHActivation_Mkhalid/OtherCharges/G09-Table9_14.com.o9447153.tmp/"
 Entering Link 1 = /cm/shared/apps/gaussian/g09revD.01/g09/l1.exe PID=     53657.
  
 Copyright (c) 1988,1990,1992,1993,1995,1998,2003,2009,2013,
            Gaussian, Inc.  All Rights Reserved.
  
 This is part of the Gaussian(R) 09 program.  It is based on
 the Gaussian(R) 03 system (copyright 2003, Gaussian, Inc.),
 the Gaussian(R) 98 system (copyright 1998, Gaussian, Inc.),
 the Gaussian(R) 94 system (copyright 1995, Gaussian, Inc.),
 the Gaussian 92(TM) system (copyright 1992, Gaussian, Inc.),
 the Gaussian 90(TM) system (copyright 1990, Gaussian, Inc.),
 the Gaussian 88(TM) system (copyright 1988, Gaussian, Inc.),
 the Gaussian 86(TM) system (copyright 1986, Carnegie Mellon
 University), and the Gaussian 82(TM) system (copyright 1983,
 Carnegie Mellon University). Gaussian is a federally registered
 trademark of Gaussian, Inc.
  
 This software contains proprietary and confidential information,
 including trade secrets, belonging to Gaussian, Inc.
  
 This software is provided under written license and may be
 used, copied, transmitted, or stored only in accord with that
 written license.
  
 The following legend is applicable only to US Government
 contracts under FAR:
  
                    RESTRICTED RIGHTS LEGEND
  
 Use, reproduction and disclosure by the US Government is
 subject to restrictions as set forth in subparagraphs (a)
 and (c) of the Commercial Computer Software - Restricted
 Rights clause in FAR 52.227-19.
  
 Gaussian, Inc.
 340 Quinnipiac St., Bldg. 40, Wallingford CT 06492
  
  
 ---------------------------------------------------------------
 Warning -- This program may not be used in any manner that
 competes with the business of Gaussian, Inc. or will provide
 assistance to any competitor of Gaussian, Inc.  The licensee
 of this program is prohibited from giving any competitor of
 Gaussian, Inc. access to this program.  By using this program,
 the user acknowledges that Gaussian, Inc. is engaged in the
 business of creating and licensing software in the field of
 computational chemistry and represents and warrants to the
 licensee that it is not a competitor of Gaussian, Inc. and that
 it will not use this program in any manner prohibited above.
 ---------------------------------------------------------------
  

 Cite this work as:
 Gaussian 09, Revision D.01,
 M. J. Frisch, G. W. Trucks, H. B. Schlegel, G. E. Scuseria, 
 M. A. Robb, J. R. Cheeseman, G. Scalmani, V. Barone, B. Mennucci, 
 G. A. Petersson, H. Nakatsuji, M. Caricato, X. Li, H. P. Hratchian, 
 A. F. Izmaylov, J. Bloino, G. Zheng, J. L. Sonnenberg, M. Hada, 
 M. Ehara, K. Toyota, R. Fukuda, J. Hasegawa, M. Ishida, T. Nakajima, 
 Y. Honda, O. Kitao, H. Nakai, T. Vreven, J. A. Montgomery, Jr., 
 J. E. Peralta, F. Ogliaro, M. Bearpark, J. J. Heyd, E. Brothers, 
 K. N. Kudin, V. N. Staroverov, T. Keith, R. Kobayashi, J. Normand, 
 K. Raghavachari, A. Rendell, J. C. Burant, S. S. Iyengar, J. Tomasi, 
 M. Cossi, N. Rega, J. M. Millam, M. Klene, J. E. Knox, J. B. Cross, 
 V. Bakken, C. Adamo, J. Jaramillo, R. Gomperts, R. E. Stratmann, 
 O. Yazyev, A. J. Austin, R. Cammi, C. Pomelli, J. W. Ochterski, 
 R. L. Martin, K. Morokuma, V. G. Zakrzewski, G. A. Voth, 
 P. Salvador, J. J. Dannenberg, S. Dapprich, A. D. Daniels, 
 O. Farkas, J. B. Foresman, J. V. Ortiz, J. Cioslowski, 
 and D. J. Fox, Gaussian, Inc., Wallingford CT, 2013.
 
 ******************************************
 Gaussian 09:  ES64L-G09RevD.01 24-Apr-2013
                23-Jul-2021 
 ******************************************
 %mem=100MW
 %nprocshared=20
 Will use up to   20 processors via shared memory.
 ---------------------------------------------------------------------
 # b3lyp/6-311+g(d,p) geom=connectivity pop=(hirshfeld,chelpg,mbs,npa)
 ---------------------------------------------------------------------
 1/38=1,57=2/1;
 2/12=2,17=6,18=5,40=1/2;
 3/5=4,6=6,7=111,11=2,16=1,25=1,30=1,74=-5/1,2,3;
 4//1;
 5/5=2,38=5/2;
 6/7=2,8=2,9=2,10=2,15=8,20=3,27=100,28=1,40=-1,79=1/1,2,7;
 99/5=1,9=1/99;
 ---------
 Table9_14
 ---------
 Symbolic Z-matrix:
 Charge =  0 Multiplicity = 1
 6                     1.83676  -0.63914  -0.11737 
 6                     1.89259   0.75657   0.14382 
 6                     3.14907   1.37356   0.26621 
 6                     4.29352   0.60582   0.11194 
 6                     4.21359  -0.7742   -0.16068 
 6                     2.9868   -1.41461  -0.27761 
 6                    -0.28841   0.13488   0.0198 
 6                     0.53916   1.21761   0.22303 
 1                     3.22153   2.43547   0.47435 
 1                     5.26851   1.07138   0.20074 
 1                     5.12629  -1.34702  -0.27864 
 1                     2.92841  -2.47808  -0.48255 
 1                     0.15669  -1.88351  -0.4797 
 1                     0.21317   2.22122   0.44705 
 6                    -1.75037   0.05321   0.00924 
 6                    -2.52237   1.17509  -0.3355 
 6                    -2.41967  -1.13533   0.34439 
 6                    -3.91104   1.11054  -0.33821 
 1                    -2.02508   2.09484  -0.62011 
 6                    -3.81035  -1.20035   0.3308 
 1                    -1.85336  -2.0078    0.65158 
 6                    -4.56334  -0.0783   -0.00911 
 1                    -4.48732   1.98796  -0.60989 
 1                    -4.3061   -2.12691   0.59808 
 1                    -5.64605  -0.12836  -0.01738 
 7                     0.50396  -0.99305  -0.164 
 
                          Input orientation:                          
 ---------------------------------------------------------------------
 Center     Atomic      Atomic             Coordinates (Angstroms)
 Number     Number       Type             X           Y           Z
 ---------------------------------------------------------------------
      1          6           0        1.836758   -0.639135   -0.117373
      2          6           0        1.892586    0.756569    0.143819
      3          6           0        3.149070    1.373563    0.266209
      4          6           0        4.293517    0.605824    0.111935
      5          6           0        4.213591   -0.774200   -0.160683
      6          6           0        2.986796   -1.414613   -0.277612
      7          6           0       -0.288408    0.134877    0.019803
      8          6           0        0.539155    1.217611    0.223027
      9          1           0        3.221527    2.435472    0.474353
     10          1           0        5.268510    1.071384    0.200737
     11          1           0        5.126289   -1.347024   -0.278639
     12          1           0        2.928414   -2.478079   -0.482552
     13          1           0        0.156692   -1.883509   -0.479695
     14          1           0        0.213165    2.221221    0.447046
     15          6           0       -1.750365    0.053206    0.009242
     16          6           0       -2.522369    1.175090   -0.335501
     17          6           0       -2.419668   -1.135331    0.344392
     18          6           0       -3.911038    1.110535   -0.338212
     19          1           0       -2.025080    2.094843   -0.620108
     20          6           0       -3.810353   -1.200348    0.330804
     21          1           0       -1.853359   -2.007797    0.651575
     22          6           0       -4.563337   -0.078295   -0.009108
     23          1           0       -4.487319    1.987955   -0.609886
     24          1           0       -4.306104   -2.126915    0.598083
     25          1           0       -5.646051   -0.128359   -0.017375
     26          7           0        0.503958   -0.993046   -0.164000
 ---------------------------------------------------------------------
                    Distance matrix (angstroms):
                    1          2          3          4          5
     1  C    0.000000
     2  C    1.421031   0.000000
     3  C    2.433157   1.405138   0.000000
     4  C    2.763724   2.405870   1.386716   0.000000
     5  C    2.381061   2.796970   2.434816   1.408962   0.000000
     6  C    1.396292   2.467576   2.845347   2.437505   1.388822
     7  C    2.265887   2.271259   3.662146   4.606986   4.596411
     8  C    2.290666   1.431995   2.614927   3.805504   4.197145
     9  H    3.423585   2.166576   1.084539   2.151307   3.418985
    10  H    3.847595   3.391049   2.141874   1.084086   2.156307
    11  H    3.368698   3.880774   3.407029   2.158627   1.084001
    12  H    2.169512   3.453727   3.929946   3.424526   2.158352
    13  H    2.121878   3.220576   4.485445   4.864168   4.217910
    14  H    3.337103   2.248912   3.061170   4.401259   5.034411
    15  C    3.655519   3.712671   5.080732   6.069962   6.023475
    16  C    4.726625   4.460576   5.706721   6.854237   7.014517
    17  C    4.310058   4.713284   6.108314   6.939201   6.662255
    18  C    6.012260   5.834355   7.090813   8.232380   8.342262
    19  H    4.758274   4.209830   5.298833   6.532820   6.882114
    20  C    5.692599   6.032247   7.420428   8.305593   8.050269
    21  H    4.010172   4.683123   6.050322   6.701217   6.244150
    22  C    6.425533   6.511477   7.852701   8.884061   8.805778
    23  H    6.865721   6.541221   7.710996   8.918206   9.139864
    24  H    6.360827   6.851612   8.242761   9.036464   8.659721
    25  H    7.500888   7.592110   8.926945   9.967485   9.881811
    26  N    1.379776   2.254815   3.575267   4.122291   3.716084
                    6          7          8          9         10
     6  C    0.000000
     7  C    3.635428   0.000000
     8  C    3.629076   1.377851   0.000000
     9  H    3.929848   4.221255   2.956598   0.000000
    10  H    3.408111   5.638184   4.731668   2.475023   0.000000
    11  H    2.140561   5.621747   5.279282   4.301441   2.469560
    12  H    1.084605   4.174667   4.456964   5.014436   4.305998
    13  H    2.875794   2.126381   3.202662   5.381173   5.943489
    14  H    4.630059   2.187908   1.078743   3.016105   5.190309
    15  C    4.967643   1.464275   2.577488   5.532742   7.094925
    16  C    6.087759   2.489752   3.112345   5.936057   7.810000
    17  C    5.449288   2.502210   3.782288   6.677620   7.999894
    18  C    7.345758   3.768757   4.486722   7.299945   9.195439
    19  H    6.128008   2.695734   2.838259   5.370359   7.410648
    20  C    6.827687   3.779371   4.977586   7.917520   9.359671
    21  H    4.964107   2.727501   4.038692   6.747482   7.772106
    22  C    7.672180   4.280338   5.269600   8.194929   9.901061
    23  H    8.218897   4.632630   5.152923   7.797573   9.832264
    24  H    7.379743   4.646718   5.899411   8.803176  10.102487
    25  H    8.732023   5.364235   6.334525   9.243861  10.982468
    26  N    2.520935   1.390625   2.244556   4.421245   5.205368
                   11         12         13         14         15
    11  H    0.000000
    12  H    2.480226   0.000000
    13  H    5.002513   2.834778   0.000000
    14  H    6.115372   5.506374   4.208426   0.000000
    15  C    7.023666   5.342306   2.761664   2.957602   0.000000
    16  C    8.053959   6.563406   4.068561   3.031487   1.404799
    17  C    7.574592   5.575732   2.806514   4.267176   1.404604
    18  C    9.365705   7.725095   5.052796   4.342730   2.430468
    19  H    7.943874   6.742970   4.539508   2.482847   2.154027
    20  C    8.958599   6.906890   4.106223   5.282929   2.432766
    21  H    7.072298   4.936878   2.309875   4.711364   2.161234
    22  C    9.776051   7.880955   5.075325   5.320791   2.816104
    23  H   10.181025   8.657642   6.047481   4.823491   3.408444
    24  H    9.505099   7.323206   4.597543   6.273188   3.410493
    25  H   10.844202   8.902754   6.079977   6.329820   3.900006
    26  N    4.637282   2.860906   1.006569   3.284730   2.491311
                   16         17         18         19         20
    16  C    0.000000
    17  C    2.410570   0.000000
    18  C    1.390171   2.781015   0.000000
    19  H    1.083625   3.394110   2.145965   0.000000
    20  C    2.783087   1.392270   2.407883   3.866486   0.000000
    21  H    3.398921   1.084557   3.864934   4.298642   2.141190
    22  C    2.417242   2.416113   1.395392   3.396851   1.393387
    23  H    2.144077   3.865326   1.084330   2.464579   3.392412
    24  H    3.867367   2.146215   3.393200   4.950788   1.084312
    25  H    3.399643   3.399179   2.155937   4.291543   2.154107
    26  N    3.726779   2.970908   4.893628   4.017353   4.347538
                   21         22         23         24         25
    21  H    0.000000
    22  C    3.391675   0.000000
    23  H    4.949249   2.153161   0.000000
    24  H    2.456218   2.152137   4.292340   0.000000
    25  H    4.285358   1.083902   2.484454   2.483641   0.000000
    26  N    2.692921   5.151528   5.830783   5.000313   6.212229
                   26
    26  N    0.000000
 Stoichiometry    C14H11N
 Framework group  C1[X(C14H11N)]
 Deg. of freedom    72
 Full point group                 C1      NOp   1
 Largest Abelian subgroup         C1      NOp   1
 Largest concise Abelian subgroup C1      NOp   1
                         Standard orientation:                         
 ---------------------------------------------------------------------
 Center     Atomic      Atomic             Coordinates (Angstroms)
 Number     Number       Type             X           Y           Z
 ---------------------------------------------------------------------
      1          6           0        1.836758   -0.639135   -0.117373
      2          6           0        1.892586    0.756569    0.143819
      3          6           0        3.149070    1.373563    0.266209
      4          6           0        4.293517    0.605824    0.111935
      5          6           0        4.213591   -0.774200   -0.160683
      6          6           0        2.986796   -1.414613   -0.277612
      7          6           0       -0.288408    0.134877    0.019803
      8          6           0        0.539155    1.217611    0.223027
      9          1           0        3.221527    2.435472    0.474353
     10          1           0        5.268510    1.071384    0.200737
     11          1           0        5.126289   -1.347024   -0.278639
     12          1           0        2.928414   -2.478079   -0.482552
     13          1           0        0.156692   -1.883509   -0.479695
     14          1           0        0.213165    2.221221    0.447046
     15          6           0       -1.750365    0.053206    0.009242
     16          6           0       -2.522369    1.175090   -0.335501
     17          6           0       -2.419668   -1.135331    0.344392
     18          6           0       -3.911038    1.110535   -0.338212
     19          1           0       -2.025080    2.094843   -0.620108
     20          6           0       -3.810353   -1.200348    0.330804
     21          1           0       -1.853359   -2.007797    0.651575
     22          6           0       -4.563337   -0.078295   -0.009108
     23          1           0       -4.487319    1.987955   -0.609886
     24          1           0       -4.306104   -2.126915    0.598083
     25          1           0       -5.646051   -0.128359   -0.017375
     26          7           0        0.503958   -0.993046   -0.164000
 ---------------------------------------------------------------------
 Rotational constants (GHZ):      2.3132428      0.2960901      0.2657082
 Standard basis: 6-311+G(d,p) (5D, 7F)
 There are   411 symmetry adapted cartesian basis functions of A   symmetry.
 There are   396 symmetry adapted basis functions of A   symmetry.
   396 basis functions,   628 primitive gaussians,   411 cartesian basis functions
    51 alpha electrons       51 beta electrons
       nuclear repulsion energy       854.3791991396 Hartrees.
 NAtoms=   26 NActive=   26 NUniq=   26 SFac= 1.00D+00 NAtFMM=   60 NAOKFM=F Big=F
 Integral buffers will be    131072 words long.
 Raffenetti 2 integral format.
 Two-electron integral symmetry is turned on.
 One-electron integrals computed using PRISM.
 NBasis=   396 RedAO= T EigKep=  1.15D-06  NBF=   396
 NBsUse=   394 1.00D-06 EigRej=  5.85D-07 NBFU=   394
 ExpMin= 4.38D-02 ExpMax= 6.29D+03 ExpMxC= 9.49D+02 IAcc=2 IRadAn=         4 AccDes= 0.00D+00
 Harris functional with IExCor=  402 and IRadAn=       4 diagonalized for initial guess.
 HarFok:  IExCor=  402 AccDes= 0.00D+00 IRadAn=         4 IDoV= 1 UseB2=F ITyADJ=14
 ICtDFT=  3500011 ScaDFX=  1.000000  1.000000  1.000000  1.000000
 FoFCou: FMM=F IPFlag=           0 FMFlag=      100000 FMFlg1=           0
         NFxFlg=           0 DoJE=T BraDBF=F KetDBF=T FulRan=T
         wScrn=  0.000000 ICntrl=     500 IOpCl=  0 I1Cent=   200000004 NGrid=           0
         NMat0=    1 NMatS0=      1 NMatT0=    0 NMatD0=    1 NMtDS0=    0 NMtDT0=    0
 Petite list used in FoFCou.
 Requested convergence on RMS density matrix=1.00D-08 within 128 cycles.
 Requested convergence on MAX density matrix=1.00D-06.
 Requested convergence on             energy=1.00D-06.
 No special actions if energy rises.
 SCF Done:  E(RB3LYP) =  -595.029487454     A.U. after   15 cycles
            NFock= 15  Conv=0.93D-08     -V/T= 2.0045

 **********************************************************************

            Population analysis using the SCF density.

 **********************************************************************

 Orbital symmetries:
       Occupied  (A) (A) (A) (A) (A) (A) (A) (A) (A) (A) (A) (A)
                 (A) (A) (A) (A) (A) (A) (A) (A) (A) (A) (A) (A)
                 (A) (A) (A) (A) (A) (A) (A) (A) (A) (A) (A) (A)
                 (A) (A) (A) (A) (A) (A) (A) (A) (A) (A) (A) (A)
                 (A) (A) (A)
       Virtual   (A) (A) (A) (A) (A) (A) (A) (A) (A) (A) (A) (A)
                 (A) (A) (A) (A) (A) (A) (A) (A) (A) (A) (A) (A)
                 (A) (A) (A) (A) (A) (A) (A) (A) (A) (A) (A) (A)
                 (A) (A) (A) (A) (A) (A) (A) (A) (A) (A) (A) (A)
                 (A) (A) (A) (A) (A) (A) (A) (A) (A) (A) (A) (A)
                 (A) (A) (A) (A) (A) (A) (A) (A) (A) (A) (A) (A)
                 (A) (A) (A) (A) (A) (A) (A) (A) (A) (A) (A) (A)
                 (A) (A) (A) (A) (A) (A) (A) (A) (A) (A) (A) (A)
                 (A) (A) (A) (A) (A) (A) (A) (A) (A) (A) (A) (A)
                 (A) (A) (A) (A) (A) (A) (A) (A) (A) (A) (A) (A)
                 (A) (A) (A) (A) (A) (A) (A) (A) (A) (A) (A) (A)
                 (A) (A) (A) (A) (A) (A) (A) (A) (A) (A) (A) (A)
                 (A) (A) (A) (A) (A) (A) (A) (A) (A) (A) (A) (A)
                 (A) (A) (A) (A) (A) (A) (A) (A) (A) (A) (A) (A)
                 (A) (A) (A) (A) (A) (A) (A) (A) (A) (A) (A) (A)
                 (A) (A) (A) (A) (A) (A) (A) (A) (A) (A) (A) (A)
                 (A) (A) (A) (A) (A) (A) (A) (A) (A) (A) (A) (A)
                 (A) (A) (A) (A) (A) (A) (A) (A) (A) (A) (A) (A)
                 (A) (A) (A) (A) (A) (A) (A) (A) (A) (A) (A) (A)
                 (A) (A) (A) (A) (A) (A) (A) (A) (A) (A) (A) (A)
                 (A) (A) (A) (A) (A) (A) (A) (A) (A) (A) (A) (A)
                 (A) (A) (A) (A) (A) (A) (A) (A) (A) (A) (A) (A)
                 (A) (A) (A) (A) (A) (A) (A) (A) (A) (A) (A) (A)
                 (A) (A) (A) (A) (A) (A) (A) (A) (A) (A) (A) (A)
                 (A) (A) (A) (A) (A) (A) (A) (A) (A) (A) (A) (A)
                 (A) (A) (A) (A) (A) (A) (A) (A) (A) (A) (A) (A)
                 (A) (A) (A) (A) (A) (A) (A) (A) (A) (A) (A) (A)
                 (A) (A) (A) (A) (A) (A) (A) (A) (A) (A) (A) (A)
                 (A) (A) (A) (A) (A) (A) (A)
 The electronic state is 1-A.
 Alpha  occ. eigenvalues --  -14.36033 -10.21768 -10.20925 -10.20076 -10.18745
 Alpha  occ. eigenvalues --  -10.18604 -10.18519 -10.18457 -10.18356 -10.17644
 Alpha  occ. eigenvalues --  -10.17450 -10.17171 -10.17129 -10.16650 -10.16548
 Alpha  occ. eigenvalues --   -0.98829  -0.87186  -0.84513  -0.79546  -0.77463
 Alpha  occ. eigenvalues --   -0.75962  -0.73849  -0.71483  -0.64255  -0.62211
 Alpha  occ. eigenvalues --   -0.61486  -0.58654  -0.58343  -0.54905  -0.52198
 Alpha  occ. eigenvalues --   -0.49081  -0.48068  -0.46570  -0.45224  -0.44096
 Alpha  occ. eigenvalues --   -0.43701  -0.43536  -0.42714  -0.42034  -0.40452
 Alpha  occ. eigenvalues --   -0.38296  -0.36684  -0.36130  -0.35493  -0.34356
 Alpha  occ. eigenvalues --   -0.34100  -0.29186  -0.27302  -0.26782  -0.22655
 Alpha  occ. eigenvalues --   -0.20709
 Alpha virt. eigenvalues --   -0.04949  -0.02548  -0.00732  -0.00492   0.00706
 Alpha virt. eigenvalues --    0.01279   0.01329   0.02025   0.02573   0.03720
 Alpha virt. eigenvalues --    0.04125   0.04243   0.04488   0.05211   0.05846
 Alpha virt. eigenvalues --    0.06089   0.06469   0.06937   0.07472   0.08441
 Alpha virt. eigenvalues --    0.08901   0.09393   0.09536   0.10409   0.11173
 Alpha virt. eigenvalues --    0.12040   0.12322   0.12672   0.12833   0.13072
 Alpha virt. eigenvalues --    0.13814   0.14698   0.14790   0.15064   0.15278
 Alpha virt. eigenvalues --    0.15692   0.15864   0.16258   0.17004   0.17255
 Alpha virt. eigenvalues --    0.17798   0.18143   0.18379   0.18900   0.19222
 Alpha virt. eigenvalues --    0.19506   0.19606   0.19969   0.20097   0.20360
 Alpha virt. eigenvalues --    0.20834   0.21301   0.21512   0.21757   0.22025
 Alpha virt. eigenvalues --    0.22809   0.23342   0.23584   0.23825   0.23948
 Alpha virt. eigenvalues --    0.24428   0.24947   0.25133   0.25721   0.25825
 Alpha virt. eigenvalues --    0.26508   0.26864   0.27151   0.27502   0.27914
 Alpha virt. eigenvalues --    0.28548   0.29294   0.29513   0.30193   0.30774
 Alpha virt. eigenvalues --    0.31925   0.32522   0.33139   0.33289   0.34237
 Alpha virt. eigenvalues --    0.34482   0.35146   0.35881   0.37696   0.37722
 Alpha virt. eigenvalues --    0.40488   0.42262   0.43113   0.45425   0.46403
 Alpha virt. eigenvalues --    0.50283   0.50365   0.51856   0.52360   0.52748
 Alpha virt. eigenvalues --    0.53523   0.53777   0.54344   0.54726   0.55506
 Alpha virt. eigenvalues --    0.55788   0.56690   0.57189   0.57851   0.58411
 Alpha virt. eigenvalues --    0.58706   0.60129   0.60791   0.61869   0.62656
 Alpha virt. eigenvalues --    0.63365   0.63668   0.64414   0.65471   0.66067
 Alpha virt. eigenvalues --    0.66895   0.67596   0.68658   0.69336   0.69798
 Alpha virt. eigenvalues --    0.70493   0.70821   0.71287   0.71589   0.72831
 Alpha virt. eigenvalues --    0.72898   0.75170   0.75652   0.76865   0.77413
 Alpha virt. eigenvalues --    0.78151   0.80063   0.81543   0.82245   0.82584
 Alpha virt. eigenvalues --    0.83141   0.83765   0.84029   0.84275   0.84976
 Alpha virt. eigenvalues --    0.85670   0.86799   0.87405   0.89062   0.89223
 Alpha virt. eigenvalues --    0.89779   0.91237   0.93231   0.93407   0.94257
 Alpha virt. eigenvalues --    0.94810   0.96372   0.97049   1.00193   1.01228
 Alpha virt. eigenvalues --    1.01331   1.01792   1.03223   1.03905   1.05115
 Alpha virt. eigenvalues --    1.06242   1.06823   1.08058   1.08456   1.09533
 Alpha virt. eigenvalues --    1.10471   1.12119   1.13074   1.14595   1.15331
 Alpha virt. eigenvalues --    1.18711   1.20759   1.23439   1.27848   1.31528
 Alpha virt. eigenvalues --    1.33279   1.35039   1.44175   1.45275   1.47906
 Alpha virt. eigenvalues --    1.48320   1.49430   1.50966   1.51629   1.52588
 Alpha virt. eigenvalues --    1.52840   1.55355   1.55415   1.56354   1.57128
 Alpha virt. eigenvalues --    1.58122   1.59066   1.60760   1.61893   1.63704
 Alpha virt. eigenvalues --    1.64274   1.65099   1.65765   1.67561   1.67782
 Alpha virt. eigenvalues --    1.69805   1.72697   1.73796   1.74775   1.75125
 Alpha virt. eigenvalues --    1.75558   1.76890   1.77471   1.78672   1.80476
 Alpha virt. eigenvalues --    1.84465   1.84949   1.86437   1.87199   1.88340
 Alpha virt. eigenvalues --    1.89544   1.90749   1.92068   1.92479   1.93591
 Alpha virt. eigenvalues --    1.93771   1.94582   1.94770   1.95634   1.96404
 Alpha virt. eigenvalues --    1.97301   1.99154   2.00684   2.02119   2.04253
 Alpha virt. eigenvalues --    2.05160   2.06870   2.07778   2.09858   2.11802
 Alpha virt. eigenvalues --    2.12455   2.14197   2.18287   2.23699   2.26120
 Alpha virt. eigenvalues --    2.27977   2.28615   2.33143   2.35118   2.36868
 Alpha virt. eigenvalues --    2.39152   2.39542   2.39874   2.40211   2.41750
 Alpha virt. eigenvalues --    2.43305   2.45318   2.48558   2.52084   2.55167
 Alpha virt. eigenvalues --    2.57367   2.62715   2.63173   2.65468   2.66175
 Alpha virt. eigenvalues --    2.67977   2.68783   2.69457   2.69832   2.70490
 Alpha virt. eigenvalues --    2.72510   2.73389   2.73915   2.74922   2.75435
 Alpha virt. eigenvalues --    2.76493   2.76892   2.77853   2.79670   2.79956
 Alpha virt. eigenvalues --    2.80990   2.81553   2.82235   2.83842   2.84844
 Alpha virt. eigenvalues --    2.85407   2.87268   2.90651   2.91012   2.92496
 Alpha virt. eigenvalues --    2.92960   2.93668   2.95488   2.98674   3.04345
 Alpha virt. eigenvalues --    3.07333   3.09229   3.10449   3.11492   3.17330
 Alpha virt. eigenvalues --    3.19732   3.23188   3.29313   3.34818   3.36349
 Alpha virt. eigenvalues --    3.37356   3.41249   3.43410   3.46153   3.48691
 Alpha virt. eigenvalues --    3.51658   3.52938   3.54719   3.62841   3.64175
 Alpha virt. eigenvalues --    3.68958   3.69156   3.88026   3.91411   3.95400
 Alpha virt. eigenvalues --    3.98838   4.03515   4.03895   4.07672   4.14545
 Alpha virt. eigenvalues --    4.15798   4.19497   4.33746   4.56405   4.83221
 Alpha virt. eigenvalues --    4.83547   4.94238   5.16849  23.57601  23.69145
 Alpha virt. eigenvalues --   23.84573  23.93915  23.94608  23.95803  24.00210
 Alpha virt. eigenvalues --   24.04782  24.05801  24.09348  24.10880  24.15110
 Alpha virt. eigenvalues --   24.18542  24.19524  35.66922
          Condensed to atoms (all electrons):
               1          2          3          4          5          6
     1  C   12.542886  -0.702875  -2.393087  -0.733617   0.381260  -0.508041
     2  C   -0.702875  15.733744  -8.918947   1.513574  -2.188537   1.314302
     3  C   -2.393087  -8.918947  18.925037  -1.519218   1.954422  -2.184585
     4  C   -0.733617   1.513574  -1.519218   6.262238  -0.172703   0.901080
     5  C    0.381260  -2.188537   1.954422  -0.172703   5.974523  -0.353821
     6  C   -0.508041   1.314302  -2.184585   0.901080  -0.353821   9.669285
     7  C    1.290366  -0.556794  -3.349128  -0.044011  -0.235629   0.385857
     8  C   -3.099848  -1.747360   3.307758  -0.503556   0.405522  -2.437892
     9  H   -0.010535   0.009108   0.332078  -0.011642  -0.010888  -0.003344
    10  H    0.021928   0.004321  -0.041366   0.358217   0.020481  -0.039845
    11  H    0.028206   0.065063  -0.082371   0.046741   0.334369  -0.050322
    12  H   -0.037757  -0.008668  -0.014820   0.000590   0.036391   0.362390
    13  H   -0.035099   0.077212  -0.009367   0.004035  -0.007068  -0.013778
    14  H    0.005434   0.104190  -0.053063   0.013122  -0.003676   0.021048
    15  C    0.387298  -0.081283   0.291243  -0.030520   0.035093  -0.029795
    16  C    0.047464  -0.208417   0.132914  -0.023072   0.025436  -0.214337
    17  C   -0.345435   0.092816  -0.072773   0.015680  -0.025606   0.214001
    18  C    0.060409  -0.019673  -0.012511  -0.003640   0.000690   0.015605
    19  H   -0.005864  -0.005184  -0.003372   0.000074  -0.000103   0.000705
    20  C   -0.126917   0.050769   0.022918  -0.001502  -0.001317   0.006456
    21  H   -0.002434  -0.012772  -0.001280   0.000085  -0.000378   0.000380
    22  C   -0.021923  -0.001999   0.000079   0.000099  -0.000080  -0.008186
    23  H   -0.000221  -0.001484  -0.000125   0.000000  -0.000001  -0.000016
    24  H   -0.000591  -0.000984  -0.000062  -0.000001   0.000000   0.000056
    25  H    0.000066  -0.000203  -0.000015   0.000000   0.000000   0.000005
    26  N   -0.171226   0.083318   0.356815  -0.024950   0.050589  -0.437029
               7          8          9         10         11         12
     1  C    1.290366  -3.099848  -0.010535   0.021928   0.028206  -0.037757
     2  C   -0.556794  -1.747360   0.009108   0.004321   0.065063  -0.008668
     3  C   -3.349128   3.307758   0.332078  -0.041366  -0.082371  -0.014820
     4  C   -0.044011  -0.503556  -0.011642   0.358217   0.046741   0.000590
     5  C   -0.235629   0.405522  -0.010888   0.020481   0.334369   0.036391
     6  C    0.385857  -2.437892  -0.003344  -0.039845  -0.050322   0.362390
     7  C   10.940072  -1.207583   0.016593   0.001066   0.005634   0.014614
     8  C   -1.207583  10.571261   0.018860   0.021045   0.000076   0.000801
     9  H    0.016593   0.018860   0.551828  -0.008207  -0.000230   0.000067
    10  H    0.001066   0.021045  -0.008207   0.549054  -0.007926  -0.000256
    11  H    0.005634   0.000076  -0.000230  -0.007926   0.548179  -0.007916
    12  H    0.014614   0.000801   0.000067  -0.000256  -0.007916   0.554648
    13  H   -0.076436   0.024611   0.000011   0.000000   0.000014   0.002368
    14  H   -0.015786   0.275044   0.001892  -0.000012  -0.000001   0.000011
    15  C   -1.224417  -0.203293  -0.000736  -0.000091  -0.000555   0.000896
    16  C   -0.200214   0.456325   0.001064   0.000078  -0.000090  -0.000062
    17  C   -0.158772   0.354715  -0.000542  -0.000018   0.000180  -0.000798
    18  C    0.616185  -0.345588   0.000100  -0.000002  -0.000004  -0.000016
    19  H    0.018612   0.023046   0.000004   0.000000   0.000000   0.000000
    20  C    0.381781  -0.187021   0.000000   0.000000   0.000005  -0.000157
    21  H    0.050652   0.003409   0.000000   0.000000   0.000000   0.000005
    22  C   -0.143481   0.097049  -0.000008   0.000000   0.000000  -0.000013
    23  H   -0.005248  -0.000229   0.000000   0.000000   0.000000   0.000000
    24  H   -0.004787   0.000513   0.000000   0.000000   0.000000   0.000000
    25  H    0.002158  -0.000563   0.000000   0.000000   0.000000   0.000000
    26  N   -0.143562   0.110225  -0.001720   0.000895  -0.000690  -0.007766
              13         14         15         16         17         18
     1  C   -0.035099   0.005434   0.387298   0.047464  -0.345435   0.060409
     2  C    0.077212   0.104190  -0.081283  -0.208417   0.092816  -0.019673
     3  C   -0.009367  -0.053063   0.291243   0.132914  -0.072773  -0.012511
     4  C    0.004035   0.013122  -0.030520  -0.023072   0.015680  -0.003640
     5  C   -0.007068  -0.003676   0.035093   0.025436  -0.025606   0.000690
     6  C   -0.013778   0.021048  -0.029795  -0.214337   0.214001   0.015605
     7  C   -0.076436  -0.015786  -1.224417  -0.200214  -0.158772   0.616185
     8  C    0.024611   0.275044  -0.203293   0.456325   0.354715  -0.345588
     9  H    0.000011   0.001892  -0.000736   0.001064  -0.000542   0.000100
    10  H    0.000000  -0.000012  -0.000091   0.000078  -0.000018  -0.000002
    11  H    0.000014  -0.000001  -0.000555  -0.000090   0.000180  -0.000004
    12  H    0.002368   0.000011   0.000896  -0.000062  -0.000798  -0.000016
    13  H    0.415910  -0.000038  -0.019981  -0.005436   0.040339  -0.003329
    14  H   -0.000038   0.540351  -0.032731   0.017266  -0.014277   0.012740
    15  C   -0.019981  -0.032731  10.697709  -1.088760  -2.126809  -0.377023
    16  C   -0.005436   0.017266  -1.088760  14.560747  -6.199876  -1.067853
    17  C    0.040339  -0.014277  -2.126809  -6.199876  16.880703  -1.257992
    18  C   -0.003329   0.012740  -0.377023  -1.067853  -1.257992   7.520258
    19  H   -0.000020   0.000538  -0.036424   0.403268  -0.039205  -0.006426
    20  C   -0.006882   0.000645  -0.308411  -0.634716  -1.837080   0.879299
    21  H    0.002415  -0.000012  -0.015530  -0.032783   0.374033  -0.003367
    22  C    0.001926  -0.000627  -0.874437   0.422228   0.755425  -0.056190
    23  H    0.000001   0.000005   0.018448  -0.032089  -0.002536   0.369943
    24  H    0.000004   0.000000   0.021447   0.002031  -0.005721  -0.021658
    25  H   -0.000001   0.000000   0.032954  -0.046378  -0.050827   0.020480
    26  N    0.348289   0.016009  -0.108600   0.078458  -0.123129   0.000189
              19         20         21         22         23         24
     1  C   -0.005864  -0.126917  -0.002434  -0.021923  -0.000221  -0.000591
     2  C   -0.005184   0.050769  -0.012772  -0.001999  -0.001484  -0.000984
     3  C   -0.003372   0.022918  -0.001280   0.000079  -0.000125  -0.000062
     4  C    0.000074  -0.001502   0.000085   0.000099   0.000000  -0.000001
     5  C   -0.000103  -0.001317  -0.000378  -0.000080  -0.000001   0.000000
     6  C    0.000705   0.006456   0.000380  -0.008186  -0.000016   0.000056
     7  C    0.018612   0.381781   0.050652  -0.143481  -0.005248  -0.004787
     8  C    0.023046  -0.187021   0.003409   0.097049  -0.000229   0.000513
     9  H    0.000004   0.000000   0.000000  -0.000008   0.000000   0.000000
    10  H    0.000000   0.000000   0.000000   0.000000   0.000000   0.000000
    11  H    0.000000   0.000005   0.000000   0.000000   0.000000   0.000000
    12  H    0.000000  -0.000157   0.000005  -0.000013   0.000000   0.000000
    13  H   -0.000020  -0.006882   0.002415   0.001926   0.000001   0.000004
    14  H    0.000538   0.000645  -0.000012  -0.000627   0.000005   0.000000
    15  C   -0.036424  -0.308411  -0.015530  -0.874437   0.018448   0.021447
    16  C    0.403268  -0.634716  -0.032783   0.422228  -0.032089   0.002031
    17  C   -0.039205  -1.837080   0.374033   0.755425  -0.002536  -0.005721
    18  C   -0.006426   0.879299  -0.003367  -0.056190   0.369943  -0.021658
    19  H    0.540909  -0.005291  -0.000161   0.002344  -0.007969   0.000083
    20  C   -0.005291   7.623100  -0.015648  -0.013899  -0.014461   0.344290
    21  H   -0.000161  -0.015648   0.553129  -0.008818   0.000083  -0.007877
    22  C    0.002344  -0.013899  -0.008818   5.610430   0.014984   0.012619
    23  H   -0.007969  -0.014461   0.000083   0.014984   0.541065  -0.000267
    24  H    0.000083   0.344290  -0.007877   0.012619  -0.000267   0.542817
    25  H   -0.000263   0.020462  -0.000285   0.372266  -0.007764  -0.007767
    26  N   -0.003988   0.051671   0.002781  -0.006742   0.000182  -0.000171
              25         26
     1  C    0.000066  -0.171226
     2  C   -0.000203   0.083318
     3  C   -0.000015   0.356815
     4  C    0.000000  -0.024950
     5  C    0.000000   0.050589
     6  C    0.000005  -0.437029
     7  C    0.002158  -0.143562
     8  C   -0.000563   0.110225
     9  H    0.000000  -0.001720
    10  H    0.000000   0.000895
    11  H    0.000000  -0.000690
    12  H    0.000000  -0.007766
    13  H   -0.000001   0.348289
    14  H    0.000000   0.016009
    15  C    0.032954  -0.108600
    16  C   -0.046378   0.078458
    17  C   -0.050827  -0.123129
    18  C    0.020480   0.000189
    19  H   -0.000263  -0.003988
    20  C    0.020462   0.051671
    21  H   -0.000285   0.002781
    22  C    0.372266  -0.006742
    23  H   -0.007764   0.000182
    24  H   -0.007767  -0.000171
    25  H    0.538135   0.000040
    26  N    0.000040   6.897857
 Mulliken charges:
               1
     1  C   -0.569847
     2  C    1.406762
     3  C   -0.667173
     4  C   -0.047103
     5  C   -0.218966
     6  C   -0.610183
     7  C   -0.357742
     8  C    0.062673
     9  H    0.116246
    10  H    0.120638
    11  H    0.121636
    12  H    0.105447
    13  H    0.260299
    14  H    0.111926
    15  C    1.074308
    16  C   -0.393196
    17  C   -0.466495
    18  C   -0.320626
    19  H    0.124687
    20  C   -0.228097
    21  H    0.114373
    22  C   -0.153046
    23  H    0.127700
    24  H    0.126026
    25  H    0.127498
    26  N    0.032253
 Sum of Mulliken charges =   0.00000
 Mulliken charges with hydrogens summed into heavy atoms:
               1
     1  C   -0.569847
     2  C    1.406762
     3  C   -0.550927
     4  C    0.073535
     5  C   -0.097330
     6  C   -0.504736
     7  C   -0.357742
     8  C    0.174599
    15  C    1.074308
    16  C   -0.268509
    17  C   -0.352122
    18  C   -0.192925
    20  C   -0.102071
    22  C   -0.025548
    26  N    0.292553
 Electronic spatial extent (au):  <R**2>=           3949.1189
 Charge=              0.0000 electrons
 Dipole moment (field-independent basis, Debye):
    X=             -1.5328    Y=             -1.1126    Z=             -0.3880  Tot=              1.9333
 Quadrupole moment (field-independent basis, Debye-Ang):
   XX=            -81.6919   YY=            -76.7100   ZZ=            -94.8676
   XY=             -0.5196   XZ=              0.0267   YZ=              0.6445
 Traceless Quadrupole moment (field-independent basis, Debye-Ang):
   XX=              2.7313   YY=              7.7132   ZZ=            -10.4444
   XY=             -0.5196   XZ=              0.0267   YZ=              0.6445
 Octapole moment (field-independent basis, Debye-Ang**2):
  XXX=            -26.4418  YYY=             -7.1067  ZZZ=             -0.9669  XYY=             -2.0883
  XXY=             -0.6178  XXZ=             -0.9891  XZZ=             -2.6115  YZZ=             -1.9960
  YYZ=             -1.4586  XYZ=             12.0487
 Hexadecapole moment (field-independent basis, Debye-Ang**3):
 XXXX=          -4388.3407 YYYY=           -631.6509 ZZZZ=           -153.2099 XXXY=             -4.4496
 XXXZ=              3.5487 YYYX=             -3.3390 YYYZ=              5.5989 ZZZX=             -0.0484
 ZZZY=             -0.3886 XXYY=           -843.9764 XXZZ=           -916.8473 YYZZ=           -147.6729
 XXYZ=            -10.9590 YYXZ=             -0.5831 ZZXY=             -0.8878
 N-N= 8.543791991396D+02 E-N=-3.089619022315D+03  KE= 5.923551190560D+02
 There are a total of      215502 grid points.
 ElSum from          density=      102.0001722912
 ElSum from atomic densities=      102.0002369700

 Hirshfeld populations at iteration   1 (CX, CA, CB, DipXYZ):
               1          2          3          4          5          6
     1  C    0.000001   2.980805   2.980805  -0.055569  -0.051997  -0.008465
     2  C    0.000000   3.012748   3.012748   0.008681   0.029211   0.008652
     3  C    0.000000   3.025928   3.025928  -0.019010   0.062886   0.013309
     4  C    0.000000   3.031739   3.031739   0.053201   0.010297   0.002132
     5  C    0.000000   3.028794   3.028794   0.052477  -0.017016  -0.003538
     6  C    0.000001   3.033267   3.033267  -0.025304  -0.059297  -0.011050
     7  C    0.000000   2.981704   2.981704  -0.058682  -0.082668  -0.013922
     8  C    0.000000   3.043553   3.043553   0.012352   0.084806   0.018020
     9  H    0.000002   0.476974   0.476974   0.011640   0.155587   0.030684
    10  H    0.000002   0.478899   0.478899   0.143398   0.068172   0.013044
    11  H    0.000002   0.478278   0.478278   0.135358  -0.083357  -0.017083
    12  H    0.000003   0.477906   0.477906  -0.004530  -0.155922  -0.029887
    13  H    0.000002   0.428811   0.428811  -0.055376  -0.185782  -0.066603
    14  H    0.000002   0.475678   0.475678  -0.041121   0.156490   0.034793
    15  C    0.000000   3.002086   3.002086   0.055519   0.004835   0.005067
    16  C    0.000000   3.021198   3.021198   0.030704   0.046913  -0.006208
    17  C    0.000000   3.026174   3.026174   0.030764  -0.036145   0.018607
    18  C    0.000000   3.021705   3.021705  -0.036632   0.051253  -0.014635
    19  H    0.000002   0.475900   0.475900   0.059879   0.138375  -0.041952
    20  C    0.000000   3.022705   3.022705  -0.031629  -0.052309   0.018981
    21  H    0.000002   0.478805   0.478805   0.070544  -0.129489   0.046337
    22  C    0.000000   3.023642   3.023642  -0.063446  -0.000718  -0.000046
    23  H    0.000002   0.475287   0.475287  -0.085456   0.130781  -0.040441
    24  H    0.000002   0.475657   0.475657  -0.074222  -0.137188   0.040614
    25  H    0.000002   0.475830   0.475830  -0.161385  -0.007122  -0.001079
    26  N    0.000001   3.546015   3.546015  -0.017638  -0.054132  -0.029767
       Tot   0.000028  51.000086  51.000086  -0.065482  -0.113537  -0.034436

 Dip from Atomic Chgs             -0.537474  -0.324185  -0.118141
         Total Dipole             -0.602956  -0.437722  -0.152577

 Hirshfeld charges, spin densities, dipoles, and CM5 charges using IRadAn=      4:
              Q-H        S-H        Dx         Dy         Dz        Q-CM5   
     1  C    0.038390   0.000000  -0.055569  -0.051997  -0.008465   0.098575
     2  C   -0.025496   0.000000   0.008681   0.029211   0.008652  -0.024381
     3  C   -0.051857   0.000000  -0.019010   0.062886   0.013309  -0.104101
     4  C   -0.063477   0.000000   0.053201   0.010297   0.002132  -0.118902
     5  C   -0.057587   0.000000   0.052477  -0.017016  -0.003538  -0.112858
     6  C   -0.066534   0.000000  -0.025304  -0.059297  -0.011050  -0.115260
     7  C    0.036592   0.000000  -0.058682  -0.082668  -0.013922   0.093973
     8  C   -0.087105   0.000000   0.012352   0.084806   0.018020  -0.129663
     9  H    0.046052   0.000000   0.011640   0.155587   0.030684   0.102142
    10  H    0.042203   0.000000   0.143398   0.068172   0.013044   0.098019
    11  H    0.043445   0.000000   0.135358  -0.083357  -0.017083   0.099283
    12  H    0.044187   0.000000  -0.004530  -0.155922  -0.029887   0.101560
    13  H    0.142377   0.000000  -0.055376  -0.185782  -0.066603   0.337526
    14  H    0.048645   0.000000  -0.041121   0.156490   0.034793   0.105777
    15  C   -0.004172   0.000000   0.055519   0.004835   0.005067  -0.008238
    16  C   -0.042397   0.000000   0.030704   0.046913  -0.006208  -0.095037
    17  C   -0.052347   0.000000   0.030764  -0.036145   0.018607  -0.104021
    18  C   -0.043409   0.000000  -0.036632   0.051253  -0.014635  -0.099001
    19  H    0.048201   0.000000   0.059879   0.138375  -0.041952   0.105713
    20  C   -0.045410   0.000000  -0.031629  -0.052309   0.018981  -0.101040
    21  H    0.042391   0.000000   0.070544  -0.129489   0.046337   0.101868
    22  C   -0.047283   0.000000  -0.063446  -0.000718  -0.000046  -0.102998
    23  H    0.049425   0.000000  -0.085456   0.130781  -0.040441   0.105216
    24  H    0.048685   0.000000  -0.074222  -0.137188   0.040614   0.104473
    25  H    0.048340   0.000000  -0.161385  -0.007122  -0.001079   0.104060
    26  N   -0.092030   0.000000  -0.017638  -0.054132  -0.029767  -0.442859
       Tot  -0.000172   0.000000  -0.065482  -0.113537  -0.034436  -0.000172
 Hirshfeld charges with hydrogens summed into heavy atoms:
              Q-H       Q-CM5   
     1  C    0.038390   0.098575
     2  C   -0.025496  -0.024381
     3  C   -0.005805  -0.001959
     4  C   -0.021275  -0.020883
     5  C   -0.014142  -0.013575
     6  C   -0.022347  -0.013700
     7  C    0.036592   0.093973
     8  C   -0.038460  -0.023886
    15  C   -0.004172  -0.008238
    16  C    0.005804   0.010676
    17  C   -0.009956  -0.002153
    18  C    0.006016   0.006215
    20  C    0.003275   0.003433
    22  C    0.001057   0.001062
    26  N    0.050347  -0.105333
 
 EQQ= 0.000000000000E+00 EQD= 0.000000000000E+00 EDD= 0.163162514215E-01
 EQQ+QD+DD= 0.163162514215E-01
 
          MBS Condensed to atoms (all electrons):
               1          2          3          4          5          6
     1  C    4.736910   0.479512  -0.028441  -0.012566  -0.032944   0.496560
     2  C    0.479512   4.794433   0.488730  -0.031906  -0.011468  -0.025691
     3  C   -0.028441   0.488730   4.824314   0.520860  -0.030451  -0.009135
     4  C   -0.012566  -0.031906   0.520860   4.839581   0.492618  -0.030454
     5  C   -0.032944  -0.011468  -0.030451   0.492618   4.833540   0.517355
     6  C    0.496560  -0.025691  -0.009135  -0.030454   0.517355   4.838816
     7  C   -0.061001  -0.050346   0.000959  -0.000012  -0.000012   0.001226
     8  C   -0.051161   0.467184  -0.019034   0.000746   0.000059   0.001070
     9  H    0.001488  -0.025741   0.388543  -0.024856   0.001467   0.000016
    10  H    0.000072   0.001543  -0.026150   0.390776  -0.025919   0.001463
    11  H    0.001558   0.000060   0.001465  -0.025462   0.390744  -0.026413
    12  H   -0.025248   0.001307   0.000019   0.001423  -0.023589   0.388279
    13  H   -0.025102   0.002331  -0.000033   0.000000  -0.000012  -0.001198
    14  H    0.001675  -0.019069  -0.001098  -0.000002  -0.000001  -0.000018
    15  C    0.001216   0.000994  -0.000005   0.000000   0.000000  -0.000007
    16  C   -0.000010   0.000018   0.000000   0.000000   0.000000   0.000000
    17  C    0.000036  -0.000012   0.000000   0.000000   0.000000   0.000000
    18  C    0.000000   0.000000   0.000000   0.000000   0.000000   0.000000
    19  H   -0.000002  -0.000010   0.000000   0.000000   0.000000   0.000000
    20  C    0.000000   0.000000   0.000000   0.000000   0.000000   0.000000
    21  H   -0.000007  -0.000004   0.000000   0.000000   0.000000   0.000001
    22  C    0.000000   0.000000   0.000000   0.000000   0.000000   0.000000
    23  H    0.000000   0.000000   0.000000   0.000000   0.000000   0.000000
    24  H    0.000000   0.000000   0.000000   0.000000   0.000000   0.000000
    25  H    0.000000   0.000000   0.000000   0.000000   0.000000   0.000000
    26  N    0.409664  -0.051030   0.000806   0.000034   0.000552  -0.020618
               7          8          9         10         11         12
     1  C   -0.061001  -0.051161   0.001488   0.000072   0.001558  -0.025248
     2  C   -0.050346   0.467184  -0.025741   0.001543   0.000060   0.001307
     3  C    0.000959  -0.019034   0.388543  -0.026150   0.001465   0.000019
     4  C   -0.000012   0.000746  -0.024856   0.390776  -0.025462   0.001423
     5  C   -0.000012   0.000059   0.001467  -0.025919   0.390744  -0.023589
     6  C    0.001226   0.001070   0.000016   0.001463  -0.026413   0.388279
     7  C    4.742907   0.541412  -0.000005   0.000000   0.000000  -0.000007
     8  C    0.541412   4.913813  -0.002113  -0.000016   0.000000  -0.000031
     9  H   -0.000005  -0.002113   0.559954  -0.003953  -0.000039   0.000002
    10  H    0.000000  -0.000016  -0.003953   0.563480  -0.003731  -0.000037
    11  H    0.000000   0.000000  -0.000039  -0.003731   0.561624  -0.003957
    12  H   -0.000007  -0.000031   0.000002  -0.000037  -0.003957   0.560952
    13  H   -0.025767   0.002151   0.000001   0.000000   0.000000   0.000809
    14  H   -0.021388   0.390475   0.000537   0.000000   0.000000   0.000001
    15  C    0.427239  -0.021129   0.000000   0.000000   0.000000   0.000000
    16  C   -0.028611  -0.003105   0.000000   0.000000   0.000000   0.000000
    17  C   -0.028306   0.000489   0.000000   0.000000   0.000000   0.000000
    18  C    0.000878   0.000014   0.000000   0.000000   0.000000   0.000000
    19  H   -0.003380   0.000526   0.000000   0.000000   0.000000   0.000000
    20  C    0.000880  -0.000006   0.000000   0.000000   0.000000   0.000000
    21  H   -0.003416   0.000017   0.000000   0.000000   0.000000   0.000000
    22  C    0.000024   0.000000   0.000000   0.000000   0.000000   0.000000
    23  H   -0.000018   0.000000   0.000000   0.000000   0.000000   0.000000
    24  H   -0.000019   0.000000   0.000000   0.000000   0.000000   0.000000
    25  H    0.000001   0.000000   0.000000   0.000000   0.000000   0.000000
    26  N    0.403907  -0.052383  -0.000015   0.000000  -0.000010  -0.001679
              13         14         15         16         17         18
     1  C   -0.025102   0.001675   0.001216  -0.000010   0.000036   0.000000
     2  C    0.002331  -0.019069   0.000994   0.000018  -0.000012   0.000000
     3  C   -0.000033  -0.001098  -0.000005   0.000000   0.000000   0.000000
     4  C    0.000000  -0.000002   0.000000   0.000000   0.000000   0.000000
     5  C   -0.000012  -0.000001   0.000000   0.000000   0.000000   0.000000
     6  C   -0.001198  -0.000018  -0.000007   0.000000   0.000000   0.000000
     7  C   -0.025767  -0.021388   0.427239  -0.028611  -0.028306   0.000878
     8  C    0.002151   0.390475  -0.021129  -0.003105   0.000489   0.000014
     9  H    0.000001   0.000537   0.000000   0.000000   0.000000   0.000000
    10  H    0.000000   0.000000   0.000000   0.000000   0.000000   0.000000
    11  H    0.000000   0.000000   0.000000   0.000000   0.000000   0.000000
    12  H    0.000809   0.000001   0.000000   0.000000   0.000000   0.000000
    13  H    0.416752  -0.000047  -0.001433   0.000011   0.000835  -0.000001
    14  H   -0.000047   0.536202  -0.001406  -0.000077   0.000010  -0.000003
    15  C   -0.001433  -0.001406   4.748023   0.494892   0.495526  -0.029019
    16  C    0.000011  -0.000077   0.494892   4.835536  -0.031067   0.511679
    17  C    0.000835   0.000010   0.495526  -0.031067   4.850910  -0.012084
    18  C   -0.000001  -0.000003  -0.029019   0.511679  -0.012084   4.817361
    19  H    0.000000   0.000365  -0.026311   0.388753   0.001494  -0.025333
    20  C   -0.000019   0.000000  -0.028780  -0.012107   0.509417  -0.031796
    21  H    0.000567   0.000001  -0.026315   0.001491   0.387870   0.000054
    22  C    0.000000   0.000000  -0.011251  -0.030856  -0.031196   0.502922
    23  H    0.000000   0.000001   0.001475  -0.026095   0.000046   0.390535
    24  H    0.000001   0.000000   0.001450   0.000046  -0.026062   0.001539
    25  H    0.000000   0.000000   0.000042   0.001504   0.001513  -0.025514
    26  N    0.343069   0.001214  -0.023381   0.000423  -0.003090  -0.000003
              19         20         21         22         23         24
     1  C   -0.000002   0.000000  -0.000007   0.000000   0.000000   0.000000
     2  C   -0.000010   0.000000  -0.000004   0.000000   0.000000   0.000000
     3  C    0.000000   0.000000   0.000000   0.000000   0.000000   0.000000
     4  C    0.000000   0.000000   0.000000   0.000000   0.000000   0.000000
     5  C    0.000000   0.000000   0.000000   0.000000   0.000000   0.000000
     6  C    0.000000   0.000000   0.000001   0.000000   0.000000   0.000000
     7  C   -0.003380   0.000880  -0.003416   0.000024  -0.000018  -0.000019
     8  C    0.000526  -0.000006   0.000017   0.000000   0.000000   0.000000
     9  H    0.000000   0.000000   0.000000   0.000000   0.000000   0.000000
    10  H    0.000000   0.000000   0.000000   0.000000   0.000000   0.000000
    11  H    0.000000   0.000000   0.000000   0.000000   0.000000   0.000000
    12  H    0.000000   0.000000   0.000000   0.000000   0.000000   0.000000
    13  H    0.000000  -0.000019   0.000567   0.000000   0.000000   0.000001
    14  H    0.000365   0.000000   0.000001   0.000000   0.000001   0.000000
    15  C   -0.026311  -0.028780  -0.026315  -0.011251   0.001475   0.001450
    16  C    0.388753  -0.012107   0.001491  -0.030856  -0.026095   0.000046
    17  C    0.001494   0.509417   0.387870  -0.031196   0.000046  -0.026062
    18  C   -0.025333  -0.031796   0.000054   0.502922   0.390535   0.001539
    19  H    0.555239   0.000053  -0.000044   0.001510  -0.004022   0.000002
    20  C    0.000053   4.817632  -0.026078   0.505584   0.001536   0.390584
    21  H   -0.000044  -0.026078   0.569183   0.001533   0.000002  -0.004068
    22  C    0.001510   0.505584   0.001533   4.829141  -0.025710  -0.025662
    23  H   -0.004022   0.001536   0.000002  -0.025710   0.556929  -0.000042
    24  H    0.000002   0.390584  -0.004068  -0.025662  -0.000042   0.557735
    25  H   -0.000040  -0.025592  -0.000041   0.390706  -0.003688  -0.003711
    26  N    0.000016   0.000013   0.000127   0.000000   0.000000   0.000000
              25         26
     1  C    0.000000   0.409664
     2  C    0.000000  -0.051030
     3  C    0.000000   0.000806
     4  C    0.000000   0.000034
     5  C    0.000000   0.000552
     6  C    0.000000  -0.020618
     7  C    0.000001   0.403907
     8  C    0.000000  -0.052383
     9  H    0.000000  -0.000015
    10  H    0.000000   0.000000
    11  H    0.000000  -0.000010
    12  H    0.000000  -0.001679
    13  H    0.000000   0.343069
    14  H    0.000000   0.001214
    15  C    0.000042  -0.023381
    16  C    0.001504   0.000423
    17  C    0.001513  -0.003090
    18  C   -0.025514  -0.000003
    19  H   -0.000040   0.000016
    20  C   -0.025592   0.000013
    21  H   -0.000041   0.000127
    22  C    0.390706   0.000000
    23  H   -0.003688   0.000000
    24  H   -0.003711   0.000000
    25  H    0.556271   0.000000
    26  N    0.000000   6.356953
 MBS Mulliken charges:
               1
     1  C    0.107789
     2  C   -0.020838
     3  C   -0.111349
     4  C   -0.120782
     5  C   -0.111941
     6  C   -0.131250
     7  C    0.102855
     8  C   -0.168977
     9  H    0.104713
    10  H    0.102472
    11  H    0.104160
    12  H    0.101756
    13  H    0.287085
    14  H    0.112630
    15  C   -0.001819
    16  C   -0.102427
    17  C   -0.116329
    18  C   -0.101229
    19  H    0.111185
    20  C   -0.101320
    21  H    0.099126
    22  C   -0.106746
    23  H    0.109051
    24  H    0.108205
    25  H    0.108550
    26  N   -0.364570
 Sum of MBS Mulliken charges =   0.00000
 MBS Mulliken charges with hydrogens summed into heavy atoms:
               1
     1  C    0.107789
     2  C   -0.020838
     3  C   -0.006637
     4  C   -0.018309
     5  C   -0.007781
     6  C   -0.029495
     7  C    0.102855
     8  C   -0.056348
    15  C   -0.001819
    16  C    0.008757
    17  C   -0.017202
    18  C    0.007822
    20  C    0.006885
    22  C    0.001804
    26  N   -0.077485
 Breneman (CHELPG) radii used.
 Generate Potential Derived Charges using the Breneman model, NDens= 1.
 Grid spacing= 0.300 Box extension= 2.800
 NStep X,Y,Z=   57     37     23   Total possible points=       48507
 Number of Points to Fit=   16767

 **********************************************************************

            Electrostatic Properties Using The SCF Density

 **********************************************************************

       Atomic Center    1 is at   1.836758 -0.639135 -0.117373
       Atomic Center    2 is at   1.892586  0.756569  0.143819
       Atomic Center    3 is at   3.149070  1.373563  0.266209
       Atomic Center    4 is at   4.293517  0.605824  0.111935
       Atomic Center    5 is at   4.213591 -0.774200 -0.160683
       Atomic Center    6 is at   2.986796 -1.414613 -0.277612
       Atomic Center    7 is at  -0.288408  0.134877  0.019803
       Atomic Center    8 is at   0.539155  1.217611  0.223027
       Atomic Center    9 is at   3.221527  2.435472  0.474353
       Atomic Center   10 is at   5.268510  1.071384  0.200737
       Atomic Center   11 is at   5.126289 -1.347024 -0.278639
       Atomic Center   12 is at   2.928414 -2.478079 -0.482552
       Atomic Center   13 is at   0.156692 -1.883509 -0.479695
       Atomic Center   14 is at   0.213165  2.221221  0.447046
       Atomic Center   15 is at  -1.750365  0.053206  0.009242
       Atomic Center   16 is at  -2.522369  1.175090 -0.335501
       Atomic Center   17 is at  -2.419668 -1.135331  0.344392
       Atomic Center   18 is at  -3.911038  1.110535 -0.338212
       Atomic Center   19 is at  -2.025080  2.094843 -0.620108
       Atomic Center   20 is at  -3.810353 -1.200348  0.330804
       Atomic Center   21 is at  -1.853359 -2.007797  0.651575
       Atomic Center   22 is at  -4.563337 -0.078295 -0.009108
       Atomic Center   23 is at  -4.487319  1.987955 -0.609886
       Atomic Center   24 is at  -4.306104 -2.126915  0.598083
       Atomic Center   25 is at  -5.646051 -0.128359 -0.017375
       Atomic Center   26 is at   0.503958 -0.993046 -0.164000
   16767 points will be used for fitting atomic charges
 Fitting point charges to electrostatic potential
 Charges from ESP fit, RMS=   0.00523 RRMS=   0.41860:
 ESP charges:
               1
     1  C    0.296867
     2  C    0.176965
     3  C   -0.232403
     4  C   -0.107641
     5  C   -0.070953
     6  C   -0.289101
     7  C    0.114498
     8  C   -0.370227
     9  H    0.125894
    10  H    0.085252
    11  H    0.082513
    12  H    0.138496
    13  H    0.336002
    14  H    0.163502
    15  C    0.182407
    16  C   -0.181426
    17  C   -0.189849
    18  C   -0.032503
    19  H    0.095852
    20  C   -0.043541
    21  H    0.105576
    22  C   -0.121340
    23  H    0.077832
    24  H    0.076688
    25  H    0.086523
    26  N   -0.505882
 Sum of ESP charges =   0.00000
 ESP charges with hydrogens summed into heavy atoms:
               1
     1  C    0.296867
     2  C    0.176965
     3  C   -0.106509
     4  C   -0.022389
     5  C    0.011559
     6  C   -0.150605
     7  C    0.114498
     8  C   -0.206725
    15  C    0.182407
    16  C   -0.085574
    17  C   -0.084273
    18  C    0.045329
    20  C    0.033147
    22  C   -0.034817
    26  N   -0.169880
 Charge=   0.00000 Dipole=    -1.4716    -1.0971    -0.4273 Tot=     1.8846
 -----------------------------------------------------------------

              Electrostatic Properties (Atomic Units)

 -----------------------------------------------------------------
    Center     Electric         -------- Electric Field --------
               Potential          X             Y             Z
 -----------------------------------------------------------------
    1 Atom    -14.740957
    2 Atom    -14.776416
    3 Atom    -14.778899
    4 Atom    -14.784037
    5 Atom    -14.779367
    6 Atom    -14.773606
    7 Atom    -14.731840
    8 Atom    -14.784128
    9 Atom     -1.113166
   10 Atom     -1.118545
   11 Atom     -1.115092
   12 Atom     -1.101483
   13 Atom     -0.998189
   14 Atom     -1.101901
   15 Atom    -14.749230
   16 Atom    -14.766638
   17 Atom    -14.763689
   18 Atom    -14.766491
   19 Atom     -1.101957
   20 Atom    -14.765360
   21 Atom     -1.095787
   22 Atom    -14.767654
   23 Atom     -1.101959
   24 Atom     -1.100513
   25 Atom     -1.101939
   26 Atom    -18.348593
 -----------------------------------------------------------------
 ******************************Gaussian NBO Version 3.1******************************
             N A T U R A L   A T O M I C   O R B I T A L   A N D
          N A T U R A L   B O N D   O R B I T A L   A N A L Y S I S
 ******************************Gaussian NBO Version 3.1******************************
       /RESON  / : Allow strongly delocalized NBO set

 Analyzing the SCF density

 Job title: Table9_14                                                       

 Storage needed:    472898 in NPA ( 104854012 available)
 Remove ICRem=  237 ICRemI=  216 L=0 PNAO number  237 atom   16 type  51 NPNAO=  396
   due to symmetric orthogonalization 2, value= 0.00D+00.
 Remove ICRem=  258 ICRemI=  216 L=0 PNAO number  258 atom   17 type  51 NPNAO=  395
   due to symmetric orthogonalization 2, value= 0.00D+00.
 Remove ICRem=  215 ICRemI=  216 L=0 PNAO number  215 atom   15 type  51 NPNAO=  394
   due to symmetric orthogonalization 2, value= 0.00D+00.

 Computed number of electrons  101.99993115 does not match expected value of   102.


 NATURAL POPULATIONS:  Natural atomic orbital occupancies 
                                                          
   NAO  Atom  No  lang   Type(AO)    Occupancy      Energy
 ----------------------------------------------------------
     1    C    1  S      Cor( 1S)     1.99897     -10.06500
     2    C    1  S      Val( 2S)     0.82189      -0.10483
     3    C    1  S      Ryd( 3S)     0.00147       0.85848
     4    C    1  S      Ryd( 4S)     0.00012       1.05780
     5    C    1  S      Ryd( 5S)     0.00002      22.50658
     6    C    1  px     Val( 2p)     0.91487      -0.02171
     7    C    1  px     Ryd( 4p)     0.00436       1.35809
     8    C    1  px     Ryd( 3p)     0.00019       0.56217
     9    C    1  px     Ryd( 5p)     0.00011       3.11185
    10    C    1  py     Val( 2p)     1.05927      -0.05940
    11    C    1  py     Ryd( 4p)     0.00637       1.21257
    12    C    1  py     Ryd( 3p)     0.00018       0.55600
    13    C    1  py     Ryd( 5p)     0.00013       2.96800
    14    C    1  pz     Val( 2p)     1.02306      -0.10710
    15    C    1  pz     Ryd( 4p)     0.00152       0.64675
    16    C    1  pz     Ryd( 3p)     0.00041       0.38697
    17    C    1  pz     Ryd( 5p)     0.00003       2.74628
    18    C    1  dxy    Ryd( 3d)     0.00101       2.46341
    19    C    1  dxz    Ryd( 3d)     0.00142       1.70346
    20    C    1  dyz    Ryd( 3d)     0.00068       1.71549
    21    C    1  dx2y2  Ryd( 3d)     0.00110       2.68769
    22    C    1  dz2    Ryd( 3d)     0.00051       2.06679

    23    C    2  S      Cor( 1S)     1.99901     -10.02437
    24    C    2  S      Val( 2S)     0.86811      -0.10802
    25    C    2  S      Ryd( 3S)     0.00108       0.80235
    26    C    2  S      Ryd( 4S)     0.00009       2.01608
    27    C    2  S      Ryd( 5S)     0.00001      21.80818
    28    C    2  px     Val( 2p)     1.10171      -0.04723
    29    C    2  px     Ryd( 4p)     0.00420       1.62526
    30    C    2  px     Ryd( 3p)     0.00022       0.70760
    31    C    2  px     Ryd( 5p)     0.00010       3.20955
    32    C    2  py     Val( 2p)     1.06055      -0.04985
    33    C    2  py     Ryd( 4p)     0.00578       1.17471
    34    C    2  py     Ryd( 3p)     0.00036       0.52355
    35    C    2  py     Ryd( 5p)     0.00009       3.16170
    36    C    2  pz     Val( 2p)     1.04664      -0.09336
    37    C    2  pz     Ryd( 4p)     0.00073       0.64689
    38    C    2  pz     Ryd( 3p)     0.00055       0.45351
    39    C    2  pz     Ryd( 5p)     0.00003       2.67241
    40    C    2  dxy    Ryd( 3d)     0.00060       2.45683
    41    C    2  dxz    Ryd( 3d)     0.00091       1.74044
    42    C    2  dyz    Ryd( 3d)     0.00047       1.72453
    43    C    2  dx2y2  Ryd( 3d)     0.00089       2.73168
    44    C    2  dz2    Ryd( 3d)     0.00042       2.13035

    45    C    3  S      Cor( 1S)     1.99908     -10.02212
    46    C    3  S      Val( 2S)     0.93668      -0.14196
    47    C    3  S      Ryd( 4S)     0.00150       0.96297
    48    C    3  S      Ryd( 3S)     0.00008       0.86531
    49    C    3  S      Ryd( 5S)     0.00002      22.71476
    50    C    3  px     Val( 2p)     1.05556      -0.03136
    51    C    3  px     Ryd( 4p)     0.00385       0.78686
    52    C    3  px     Ryd( 3p)     0.00052       0.40316
    53    C    3  px     Ryd( 5p)     0.00015       3.14494
    54    C    3  py     Val( 2p)     1.16744      -0.04852
    55    C    3  py     Ryd( 4p)     0.00596       1.11793
    56    C    3  py     Ryd( 3p)     0.00024       0.34573
    57    C    3  py     Ryd( 5p)     0.00006       3.13208
    58    C    3  pz     Val( 2p)     1.01023      -0.09727
    59    C    3  pz     Ryd( 4p)     0.00134       0.54805
    60    C    3  pz     Ryd( 3p)     0.00039       0.28945
    61    C    3  pz     Ryd( 5p)     0.00002       2.74369
    62    C    3  dxy    Ryd( 3d)     0.00066       2.57785
    63    C    3  dxz    Ryd( 3d)     0.00058       1.72103
    64    C    3  dyz    Ryd( 3d)     0.00041       1.70481
    65    C    3  dx2y2  Ryd( 3d)     0.00079       2.47961
    66    C    3  dz2    Ryd( 3d)     0.00040       2.06203

    67    C    4  S      Cor( 1S)     1.99918     -10.02131
    68    C    4  S      Val( 2S)     0.94868      -0.15263
    69    C    4  S      Ryd( 3S)     0.00141       0.81685
    70    C    4  S      Ryd( 4S)     0.00011       1.28086
    71    C    4  S      Ryd( 5S)     0.00000      22.53869
    72    C    4  px     Val( 2p)     1.14884      -0.04141
    73    C    4  px     Ryd( 4p)     0.00621       0.99578
    74    C    4  px     Ryd( 3p)     0.00037       0.32463
    75    C    4  px     Ryd( 5p)     0.00008       3.18660
    76    C    4  py     Val( 2p)     1.07694      -0.03999
    77    C    4  py     Ryd( 4p)     0.00499       0.80707
    78    C    4  py     Ryd( 3p)     0.00044       0.39064
    79    C    4  py     Ryd( 5p)     0.00013       3.10862
    80    C    4  pz     Val( 2p)     1.03462      -0.09725
    81    C    4  pz     Ryd( 4p)     0.00171       0.52375
    82    C    4  pz     Ryd( 3p)     0.00028       0.32777
    83    C    4  pz     Ryd( 5p)     0.00003       2.71378
    84    C    4  dxy    Ryd( 3d)     0.00072       2.50645
    85    C    4  dxz    Ryd( 3d)     0.00043       1.66843
    86    C    4  dyz    Ryd( 3d)     0.00046       1.74986
    87    C    4  dx2y2  Ryd( 3d)     0.00069       2.51446
    88    C    4  dz2    Ryd( 3d)     0.00041       2.01410

    89    C    5  S      Cor( 1S)     1.99919     -10.02634
    90    C    5  S      Val( 2S)     0.94933      -0.15683
    91    C    5  S      Ryd( 3S)     0.00136       0.84820
    92    C    5  S      Ryd( 4S)     0.00010       1.22412
    93    C    5  S      Ryd( 5S)     0.00000      22.57926
    94    C    5  px     Val( 2p)     1.12952      -0.04190
    95    C    5  px     Ryd( 4p)     0.00582       0.97328
    96    C    5  px     Ryd( 3p)     0.00039       0.35287
    97    C    5  px     Ryd( 5p)     0.00010       3.16456
    98    C    5  py     Val( 2p)     1.08864      -0.04271
    99    C    5  py     Ryd( 4p)     0.00533       0.82550
   100    C    5  py     Ryd( 3p)     0.00038       0.38520
   101    C    5  py     Ryd( 5p)     0.00011       3.11885
   102    C    5  pz     Val( 2p)     1.02201      -0.09987
   103    C    5  pz     Ryd( 4p)     0.00188       0.52583
   104    C    5  pz     Ryd( 3p)     0.00029       0.31137
   105    C    5  pz     Ryd( 5p)     0.00003       2.72137
   106    C    5  dxy    Ryd( 3d)     0.00077       2.48763
   107    C    5  dxz    Ryd( 3d)     0.00047       1.66967
   108    C    5  dyz    Ryd( 3d)     0.00046       1.73966
   109    C    5  dx2y2  Ryd( 3d)     0.00062       2.52668
   110    C    5  dz2    Ryd( 3d)     0.00041       2.01162

   111    C    6  S      Cor( 1S)     1.99907     -10.02727
   112    C    6  S      Val( 2S)     0.93753      -0.14965
   113    C    6  S      Ryd( 4S)     0.00152       0.97176
   114    C    6  S      Ryd( 3S)     0.00011       0.55456
   115    C    6  S      Ryd( 5S)     0.00001      23.00086
   116    C    6  px     Val( 2p)     1.06369      -0.04707
   117    C    6  px     Ryd( 4p)     0.00393       0.86201
   118    C    6  px     Ryd( 3p)     0.00043       0.38981
   119    C    6  px     Ryd( 5p)     0.00015       3.04863
   120    C    6  py     Val( 2p)     1.16871      -0.05804
   121    C    6  py     Ryd( 4p)     0.00518       1.11628
   122    C    6  py     Ryd( 3p)     0.00023       0.38975
   123    C    6  py     Ryd( 5p)     0.00008       3.01934
   124    C    6  pz     Val( 2p)     1.05258      -0.10669
   125    C    6  pz     Ryd( 4p)     0.00144       0.55681
   126    C    6  pz     Ryd( 3p)     0.00041       0.29194
   127    C    6  pz     Ryd( 5p)     0.00002       2.71766
   128    C    6  dxy    Ryd( 3d)     0.00070       2.60725
   129    C    6  dxz    Ryd( 3d)     0.00062       1.71133
   130    C    6  dyz    Ryd( 3d)     0.00043       1.70976
   131    C    6  dx2y2  Ryd( 3d)     0.00066       2.48498
   132    C    6  dz2    Ryd( 3d)     0.00042       2.06983

   133    C    7  S      Cor( 1S)     1.99905     -10.07574
   134    C    7  S      Val( 2S)     0.83505      -0.12390
   135    C    7  S      Ryd( 4S)     0.00175       0.80951
   136    C    7  S      Ryd( 3S)     0.00028       0.74268
   137    C    7  S      Ryd( 5S)     0.00002      23.01821
   138    C    7  px     Val( 2p)     1.02482      -0.05324
   139    C    7  px     Ryd( 4p)     0.00563       1.19581
   140    C    7  px     Ryd( 3p)     0.00050       0.70744
   141    C    7  px     Ryd( 5p)     0.00017       3.20496
   142    C    7  py     Val( 2p)     0.92709      -0.04865
   143    C    7  py     Ryd( 4p)     0.00701       0.94514
   144    C    7  py     Ryd( 3p)     0.00009       0.57360
   145    C    7  py     Ryd( 5p)     0.00022       3.03292
   146    C    7  pz     Val( 2p)     1.03341      -0.11291
   147    C    7  pz     Ryd( 4p)     0.00242       0.59075
   148    C    7  pz     Ryd( 3p)     0.00062       0.48228
   149    C    7  pz     Ryd( 5p)     0.00005       2.68381
   150    C    7  dxy    Ryd( 3d)     0.00110       2.67942
   151    C    7  dxz    Ryd( 3d)     0.00106       1.73716
   152    C    7  dyz    Ryd( 3d)     0.00118       1.70112
   153    C    7  dx2y2  Ryd( 3d)     0.00090       2.42094
   154    C    7  dz2    Ryd( 3d)     0.00060       2.00854

   155    C    8  S      Cor( 1S)     1.99897     -10.01683
   156    C    8  S      Val( 2S)     0.93305      -0.14061
   157    C    8  S      Ryd( 3S)     0.00096       0.92558
   158    C    8  S      Ryd( 4S)     0.00011       0.97935
   159    C    8  S      Ryd( 5S)     0.00002      22.73230
   160    C    8  px     Val( 2p)     1.04108      -0.04057
   161    C    8  px     Ryd( 4p)     0.00339       0.80320
   162    C    8  px     Ryd( 3p)     0.00040       0.57195
   163    C    8  px     Ryd( 5p)     0.00014       3.15583
   164    C    8  py     Val( 2p)     1.16866      -0.05890
   165    C    8  py     Ryd( 4p)     0.00384       1.07716
   166    C    8  py     Ryd( 3p)     0.00040       0.44883
   167    C    8  py     Ryd( 5p)     0.00009       3.07984
   168    C    8  pz     Val( 2p)     1.10205      -0.10339
   169    C    8  pz     Ryd( 4p)     0.00191       0.54857
   170    C    8  pz     Ryd( 3p)     0.00060       0.33978
   171    C    8  pz     Ryd( 5p)     0.00002       2.75566
   172    C    8  dxy    Ryd( 3d)     0.00078       2.61515
   173    C    8  dxz    Ryd( 3d)     0.00055       1.69438
   174    C    8  dyz    Ryd( 3d)     0.00069       1.78620
   175    C    8  dx2y2  Ryd( 3d)     0.00059       2.47741
   176    C    8  dz2    Ryd( 3d)     0.00045       2.11024

   177    H    9  S      Val( 1S)     0.79208       0.05172
   178    H    9  S      Ryd( 2S)     0.00077       0.76342
   179    H    9  S      Ryd( 3S)     0.00017       1.96169
   180    H    9  px     Ryd( 2p)     0.00012       2.01993
   181    H    9  py     Ryd( 2p)     0.00042       2.69077
   182    H    9  pz     Ryd( 2p)     0.00022       1.65427

   183    H   10  S      Val( 1S)     0.79408       0.05648
   184    H   10  S      Ryd( 2S)     0.00055       0.60855
   185    H   10  S      Ryd( 3S)     0.00016       2.16756
   186    H   10  px     Ryd( 2p)     0.00035       2.57381
   187    H   10  py     Ryd( 2p)     0.00018       2.10639
   188    H   10  pz     Ryd( 2p)     0.00022       1.62511

   189    H   11  S      Val( 1S)     0.79422       0.05371
   190    H   11  S      Ryd( 2S)     0.00053       0.61295
   191    H   11  S      Ryd( 3S)     0.00016       2.16350
   192    H   11  px     Ryd( 2p)     0.00033       2.50398
   193    H   11  py     Ryd( 2p)     0.00021       2.16871
   194    H   11  pz     Ryd( 2p)     0.00022       1.62526

   195    H   12  S      Val( 1S)     0.79134       0.04023
   196    H   12  S      Ryd( 2S)     0.00076       0.81686
   197    H   12  S      Ryd( 3S)     0.00019       1.86600
   198    H   12  px     Ryd( 2p)     0.00010       2.02023
   199    H   12  py     Ryd( 2p)     0.00042       2.68824
   200    H   12  pz     Ryd( 2p)     0.00023       1.64489

   201    H   13  S      Val( 1S)     0.59349       0.07035
   202    H   13  S      Ryd( 2S)     0.00176       0.51525
   203    H   13  S      Ryd( 3S)     0.00057       2.22258
   204    H   13  px     Ryd( 2p)     0.00019       2.07123
   205    H   13  py     Ryd( 2p)     0.00045       2.48295
   206    H   13  pz     Ryd( 2p)     0.00071       1.72443

   207    H   14  S      Val( 1S)     0.77937       0.05210
   208    H   14  S      Ryd( 2S)     0.00063       0.89849
   209    H   14  S      Ryd( 3S)     0.00023       1.75613
   210    H   14  px     Ryd( 2p)     0.00014       2.08191
   211    H   14  py     Ryd( 2p)     0.00042       2.65730
   212    H   14  pz     Ryd( 2p)     0.00026       1.67818

   213    C   15  S      Cor( 1S)     1.99877     -10.05236
   214    C   15  S      Val( 2S)     0.85923      -0.13723
   215    C   15  S      Ryd( 3S)     0.00084       1.07704
   216    C   15  S      Ryd( 4S)     0.00001      22.91839
   217    C   15  px     Val( 2p)     1.07409      -0.06769
   218    C   15  px     Ryd( 4p)     0.00800       1.06572
   219    C   15  px     Ryd( 3p)     0.00022       0.79282
   220    C   15  px     Ryd( 5p)     0.00011       3.26069
   221    C   15  py     Val( 2p)     1.10330      -0.08648
   222    C   15  py     Ryd( 4p)     0.00426       0.92080
   223    C   15  py     Ryd( 3p)     0.00029       0.68622
   224    C   15  py     Ryd( 5p)     0.00014       3.18656
   225    C   15  pz     Val( 2p)     1.01792      -0.10844
   226    C   15  pz     Ryd( 4p)     0.00094       0.57635
   227    C   15  pz     Ryd( 3p)     0.00035       0.43894
   228    C   15  pz     Ryd( 5p)     0.00006       2.74601
   229    C   15  dxy    Ryd( 3d)     0.00060       2.55933
   230    C   15  dxz    Ryd( 3d)     0.00073       1.76886
   231    C   15  dyz    Ryd( 3d)     0.00056       1.82353
   232    C   15  dx2y2  Ryd( 3d)     0.00082       2.49216
   233    C   15  dz2    Ryd( 3d)     0.00059       2.01121

   234    C   16  S      Cor( 1S)     1.99892     -10.03870
   235    C   16  S      Val( 2S)     0.92907      -0.16786
   236    C   16  S      Ryd( 3S)     0.00032       0.83054
   237    C   16  S      Ryd( 4S)     0.00002      23.23231
   238    C   16  px     Val( 2p)     1.08872      -0.05739
   239    C   16  px     Ryd( 4p)     0.00365       0.88388
   240    C   16  px     Ryd( 3p)     0.00038       0.52568
   241    C   16  px     Ryd( 5p)     0.00018       3.24329
   242    C   16  py     Val( 2p)     1.12855      -0.06330
   243    C   16  py     Ryd( 4p)     0.00602       0.82868
   244    C   16  py     Ryd( 3p)     0.00033       0.44677
   245    C   16  py     Ryd( 5p)     0.00009       3.16282
   246    C   16  pz     Val( 2p)     1.00634      -0.10950
   247    C   16  pz     Ryd( 4p)     0.00140       0.53486
   248    C   16  pz     Ryd( 3p)     0.00045       0.33582
   249    C   16  pz     Ryd( 5p)     0.00002       2.77633
   250    C   16  dxy    Ryd( 3d)     0.00073       2.45542
   251    C   16  dxz    Ryd( 3d)     0.00052       1.73966
   252    C   16  dyz    Ryd( 3d)     0.00046       1.78551
   253    C   16  dx2y2  Ryd( 3d)     0.00066       2.50099
   254    C   16  dz2    Ryd( 3d)     0.00055       1.94727

   255    C   17  S      Cor( 1S)     1.99891     -10.04177
   256    C   17  S      Val( 2S)     0.92713      -0.17142
   257    C   17  S      Ryd( 3S)     0.00036       0.78007
   258    C   17  S      Ryd( 4S)     0.00002      23.26630
   259    C   17  px     Val( 2p)     1.09932      -0.06444
   260    C   17  px     Ryd( 4p)     0.00394       0.90123
   261    C   17  px     Ryd( 3p)     0.00037       0.50427
   262    C   17  px     Ryd( 5p)     0.00015       3.23370
   263    C   17  py     Val( 2p)     1.12059      -0.06602
   264    C   17  py     Ryd( 4p)     0.00571       0.80840
   265    C   17  py     Ryd( 3p)     0.00032       0.42290
   266    C   17  py     Ryd( 5p)     0.00011       3.17118
   267    C   17  pz     Val( 2p)     1.02481      -0.11385
   268    C   17  pz     Ryd( 4p)     0.00160       0.55179
   269    C   17  pz     Ryd( 3p)     0.00035       0.33348
   270    C   17  pz     Ryd( 5p)     0.00002       2.78487
   271    C   17  dxy    Ryd( 3d)     0.00077       2.43013
   272    C   17  dxz    Ryd( 3d)     0.00051       1.73084
   273    C   17  dyz    Ryd( 3d)     0.00047       1.79245
   274    C   17  dx2y2  Ryd( 3d)     0.00062       2.51445
   275    C   17  dz2    Ryd( 3d)     0.00055       1.94197

   276    C   18  S      Cor( 1S)     1.99919     -10.03775
   277    C   18  S      Val( 2S)     0.95283      -0.17018
   278    C   18  S      Ryd( 3S)     0.00247       0.63270
   279    C   18  S      Ryd( 4S)     0.00013       0.72598
   280    C   18  S      Ryd( 5S)     0.00001      23.35885
   281    C   18  px     Val( 2p)     1.09785      -0.05743
   282    C   18  px     Ryd( 4p)     0.00532       0.78449
   283    C   18  px     Ryd( 3p)     0.00050       0.42709
   284    C   18  px     Ryd( 5p)     0.00017       3.13753
   285    C   18  py     Val( 2p)     1.13085      -0.06311
   286    C   18  py     Ryd( 4p)     0.00575       0.91433
   287    C   18  py     Ryd( 3p)     0.00030       0.39035
   288    C   18  py     Ryd( 5p)     0.00008       3.08492
   289    C   18  pz     Val( 2p)     1.00311      -0.10948
   290    C   18  pz     Ryd( 4p)     0.00169       0.52795
   291    C   18  pz     Ryd( 3p)     0.00028       0.31355
   292    C   18  pz     Ryd( 5p)     0.00002       2.73710
   293    C   18  dxy    Ryd( 3d)     0.00077       2.43574
   294    C   18  dxz    Ryd( 3d)     0.00053       1.72101
   295    C   18  dyz    Ryd( 3d)     0.00043       1.77564
   296    C   18  dx2y2  Ryd( 3d)     0.00062       2.50854
   297    C   18  dz2    Ryd( 3d)     0.00039       1.96278

   298    H   19  S      Val( 1S)     0.78834       0.04658
   299    H   19  S      Ryd( 2S)     0.00110       0.78345
   300    H   19  S      Ryd( 3S)     0.00015       2.01016
   301    H   19  px     Ryd( 2p)     0.00017       2.14918
   302    H   19  py     Ryd( 2p)     0.00039       2.47183
   303    H   19  pz     Ryd( 2p)     0.00022       1.69511

   304    C   20  S      Cor( 1S)     1.99919     -10.03868
   305    C   20  S      Val( 2S)     0.95184      -0.17107
   306    C   20  S      Ryd( 3S)     0.00251       0.62882
   307    C   20  S      Ryd( 4S)     0.00013       0.72276
   308    C   20  S      Ryd( 5S)     0.00001      23.34022
   309    C   20  px     Val( 2p)     1.08831      -0.05800
   310    C   20  px     Ryd( 4p)     0.00497       0.76937
   311    C   20  px     Ryd( 3p)     0.00047       0.43031
   312    C   20  px     Ryd( 5p)     0.00018       3.12411
   313    C   20  py     Val( 2p)     1.14019      -0.06524
   314    C   20  py     Ryd( 4p)     0.00613       0.92967
   315    C   20  py     Ryd( 3p)     0.00028       0.40329
   316    C   20  py     Ryd( 5p)     0.00007       3.05882
   317    C   20  pz     Val( 2p)     1.00413      -0.11042
   318    C   20  pz     Ryd( 4p)     0.00171       0.52725
   319    C   20  pz     Ryd( 3p)     0.00026       0.31411
   320    C   20  pz     Ryd( 5p)     0.00002       2.73380
   321    C   20  dxy    Ryd( 3d)     0.00073       2.44703
   322    C   20  dxz    Ryd( 3d)     0.00053       1.72790
   323    C   20  dyz    Ryd( 3d)     0.00043       1.77180
   324    C   20  dx2y2  Ryd( 3d)     0.00065       2.49134
   325    C   20  dz2    Ryd( 3d)     0.00039       1.96083

   326    H   21  S      Val( 1S)     0.79791       0.03452
   327    H   21  S      Ryd( 2S)     0.00104       0.99218
   328    H   21  S      Ryd( 3S)     0.00016       1.76522
   329    H   21  px     Ryd( 2p)     0.00017       2.19057
   330    H   21  py     Ryd( 2p)     0.00037       2.41201
   331    H   21  pz     Ryd( 2p)     0.00026       1.69893

   332    C   22  S      Cor( 1S)     1.99916     -10.03729
   333    C   22  S      Val( 2S)     0.95321      -0.16876
   334    C   22  S      Ryd( 4S)     0.00126       0.88241
   335    C   22  S      Ryd( 3S)     0.00024       0.78327
   336    C   22  S      Ryd( 5S)     0.00000      23.07047
   337    C   22  px     Val( 2p)     1.17241      -0.06020
   338    C   22  px     Ryd( 4p)     0.00619       1.01926
   339    C   22  px     Ryd( 3p)     0.00034       0.36405
   340    C   22  px     Ryd( 5p)     0.00006       3.13602
   341    C   22  py     Val( 2p)     1.05749      -0.05727
   342    C   22  py     Ryd( 4p)     0.00416       0.73207
   343    C   22  py     Ryd( 3p)     0.00060       0.36533
   344    C   22  py     Ryd( 5p)     0.00015       3.05397
   345    C   22  pz     Val( 2p)     1.00594      -0.10992
   346    C   22  pz     Ryd( 4p)     0.00171       0.52559
   347    C   22  pz     Ryd( 3p)     0.00028       0.30399
   348    C   22  pz     Ryd( 5p)     0.00003       2.71843
   349    C   22  dxy    Ryd( 3d)     0.00064       2.51528
   350    C   22  dxz    Ryd( 3d)     0.00040       1.68391
   351    C   22  dyz    Ryd( 3d)     0.00046       1.82071
   352    C   22  dx2y2  Ryd( 3d)     0.00081       2.41408
   353    C   22  dz2    Ryd( 3d)     0.00042       1.95623

   354    H   23  S      Val( 1S)     0.79075       0.04246
   355    H   23  S      Ryd( 2S)     0.00059       0.50204
   356    H   23  S      Ryd( 3S)     0.00017       2.20144
   357    H   23  px     Ryd( 2p)     0.00021       2.17712
   358    H   23  py     Ryd( 2p)     0.00034       2.41281
   359    H   23  pz     Ryd( 2p)     0.00021       1.66817

   360    H   24  S      Val( 1S)     0.79127       0.04067
   361    H   24  S      Ryd( 2S)     0.00061       0.50529
   362    H   24  S      Ryd( 3S)     0.00017       2.19732
   363    H   24  px     Ryd( 2p)     0.00019       2.12128
   364    H   24  py     Ryd( 2p)     0.00036       2.46595
   365    H   24  pz     Ryd( 2p)     0.00021       1.66661

   366    H   25  S      Val( 1S)     0.79121       0.04313
   367    H   25  S      Ryd( 2S)     0.00054       0.60361
   368    H   25  S      Ryd( 3S)     0.00017       2.13347
   369    H   25  px     Ryd( 2p)     0.00041       2.69411
   370    H   25  py     Ryd( 2p)     0.00012       1.94191
   371    H   25  pz     Ryd( 2p)     0.00020       1.61980

   372    N   26  S      Cor( 1S)     1.99926     -14.17975
   373    N   26  S      Val( 2S)     1.22135      -0.52524
   374    N   26  S      Ryd( 4S)     0.00049       1.46472
   375    N   26  S      Ryd( 3S)     0.00006       0.98812
   376    N   26  S      Ryd( 5S)     0.00000      35.24990
   377    N   26  px     Val( 2p)     1.29842      -0.24244
   378    N   26  px     Ryd( 4p)     0.00285       0.78775
   379    N   26  px     Ryd( 3p)     0.00129       0.72967
   380    N   26  px     Ryd( 5p)     0.00003       4.39309
   381    N   26  py     Val( 2p)     1.39237      -0.25854
   382    N   26  py     Ryd( 3p)     0.00335       0.73997
   383    N   26  py     Ryd( 4p)     0.00110       0.79154
   384    N   26  py     Ryd( 5p)     0.00002       4.34655
   385    N   26  pz     Val( 2p)     1.62023      -0.26070
   386    N   26  pz     Ryd( 3p)     0.00258       0.40599
   387    N   26  pz     Ryd( 4p)     0.00103       0.62258
   388    N   26  pz     Ryd( 5p)     0.00001       3.87343
   389    N   26  dxy    Ryd( 3d)     0.00077       2.89688
   390    N   26  dxz    Ryd( 3d)     0.00058       2.23331
   391    N   26  dyz    Ryd( 3d)     0.00057       2.36458
   392    N   26  dx2y2  Ryd( 3d)     0.00078       2.88210
   393    N   26  dz2    Ryd( 3d)     0.00049       2.59024

 WARNING:  1 low occupancy (<1.9990e) core orbital  found on  C    1
           1 low occupancy (<1.9990e) core orbital  found on  C    8
           1 low occupancy (<1.9990e) core orbital  found on  C   15
           1 low occupancy (<1.9990e) core orbital  found on  C   16
           1 low occupancy (<1.9990e) core orbital  found on  C   17

 WARNING:  Population inversion found on atom  C    1
           Population inversion found on atom  C    2
           Population inversion found on atom  C    3
           Population inversion found on atom  C    4
           Population inversion found on atom  C    5
           Population inversion found on atom  C    6
           Population inversion found on atom  C    7
           Population inversion found on atom  C    8
           Population inversion found on atom  C   15
           Population inversion found on atom  C   16
           Population inversion found on atom  C   17
           Population inversion found on atom  C   18
           Population inversion found on atom  C   20
           Population inversion found on atom  C   22
           Population inversion found on atom  N   26


 Summary of Natural Population Analysis:                  
                                                          
                                       Natural Population 
                Natural  -----------------------------------------------
    Atom  No    Charge         Core      Valence    Rydberg      Total
 -----------------------------------------------------------------------
      C    1    0.16230      1.99897     3.81909    0.01964     5.83770
      C    2   -0.09253      1.99901     4.07701    0.01652     6.09253
      C    3   -0.18595      1.99908     4.16992    0.01695     6.18595
      C    4   -0.22673      1.99918     4.20908    0.01848     6.22673
      C    5   -0.20721      1.99919     4.18951    0.01851     6.20721
      C    6   -0.23791      1.99907     4.22251    0.01633     6.23791
      C    7    0.15696      1.99905     3.82037    0.02362     5.84304
      C    8   -0.25874      1.99897     4.24484    0.01493     6.25874
      H    9    0.20621      0.00000     0.79208    0.00170     0.79379
      H   10    0.20446      0.00000     0.79408    0.00146     0.79554
      H   11    0.20433      0.00000     0.79422    0.00145     0.79567
      H   12    0.20696      0.00000     0.79134    0.00170     0.79304
      H   13    0.40283      0.00000     0.59349    0.00368     0.59717
      H   14    0.21895      0.00000     0.77937    0.00168     0.78105
      C   15   -0.07180      1.99877     4.05453    0.01850     6.07180
      C   16   -0.16741      1.99892     4.15269    0.01581     6.16741
      C   17   -0.18662      1.99891     4.17185    0.01586     6.18662
      C   18   -0.20330      1.99919     4.18465    0.01947     6.20330
      H   19    0.20964      0.00000     0.78834    0.00202     0.79036
      C   20   -0.20313      1.99919     4.18447    0.01947     6.20313
      H   21    0.20008      0.00000     0.79791    0.00201     0.79992
      C   22   -0.20596      1.99916     4.18905    0.01775     6.20596
      H   23    0.20773      0.00000     0.79075    0.00152     0.79227
      H   24    0.20719      0.00000     0.79127    0.00154     0.79281
      H   25    0.20735      0.00000     0.79121    0.00144     0.79265
      N   26   -0.54764      1.99926     5.53237    0.01600     7.54764
 =======================================================================
   * Total *    0.00007     29.98591    71.72599    0.28803   101.99993

                                 Natural Population      
 --------------------------------------------------------
   Core                      29.98591 ( 99.9530% of  30)
   Valence                   71.72599 ( 99.6194% of  72)
   Natural Minimal Basis    101.71190 ( 99.7175% of 102)
   Natural Rydberg Basis      0.28803 (  0.2824% of 102)
 --------------------------------------------------------

    Atom  No          Natural Electron Configuration
 ----------------------------------------------------------------------------
      C    1      [core]2S( 0.82)2p( 3.00)4p( 0.01)
      C    2      [core]2S( 0.87)2p( 3.21)4p( 0.01)
      C    3      [core]2S( 0.94)2p( 3.23)4p( 0.01)
      C    4      [core]2S( 0.95)2p( 3.26)4p( 0.01)
      C    5      [core]2S( 0.95)2p( 3.24)4p( 0.01)
      C    6      [core]2S( 0.94)2p( 3.28)4p( 0.01)
      C    7      [core]2S( 0.84)2p( 2.99)4p( 0.02)
      C    8      [core]2S( 0.93)2p( 3.31)4p( 0.01)
      H    9            1S( 0.79)
      H   10            1S( 0.79)
      H   11            1S( 0.79)
      H   12            1S( 0.79)
      H   13            1S( 0.59)
      H   14            1S( 0.78)
      C   15      [core]2S( 0.86)2p( 3.20)4p( 0.01)
      C   16      [core]2S( 0.93)2p( 3.22)4p( 0.01)
      C   17      [core]2S( 0.93)2p( 3.24)4p( 0.01)
      C   18      [core]2S( 0.95)2p( 3.23)4p( 0.01)
      H   19            1S( 0.79)
      C   20      [core]2S( 0.95)2p( 3.23)4p( 0.01)
      H   21            1S( 0.80)
      C   22      [core]2S( 0.95)2p( 3.24)4p( 0.01)
      H   23            1S( 0.79)
      H   24            1S( 0.79)
      H   25            1S( 0.79)
      N   26      [core]2S( 1.22)2p( 4.31)3p( 0.01)


 NBO analysis skipped by request.
 1\1\GINC-COREV4-21-006\SP\RB3LYP\6-311+G(d,p)\C14H11N1\ROOT\23-Jul-202
 1\0\\# b3lyp/6-311+g(d,p) geom=connectivity pop=(hirshfeld,chelpg,mbs,
 npa)\\Table9_14\\0,1\C,0,1.836758,-0.639135,-0.117373\C,0,1.892586,0.7
 56569,0.143819\C,0,3.14907,1.373563,0.266209\C,0,4.293517,0.605824,0.1
 11935\C,0,4.213591,-0.7742,-0.160683\C,0,2.986796,-1.414613,-0.277612\
 C,0,-0.288408,0.134877,0.019803\C,0,0.539155,1.217611,0.223027\H,0,3.2
 21527,2.435472,0.474353\H,0,5.26851,1.071384,0.200737\H,0,5.126289,-1.
 347024,-0.278639\H,0,2.928414,-2.478079,-0.482552\H,0,0.156692,-1.8835
 09,-0.479695\H,0,0.213165,2.221221,0.447046\C,0,-1.750365,0.053206,0.0
 09242\C,0,-2.522369,1.17509,-0.335501\C,0,-2.419668,-1.135331,0.344392
 \C,0,-3.911038,1.110535,-0.338212\H,0,-2.02508,2.094843,-0.620108\C,0,
 -3.810353,-1.200348,0.330804\H,0,-1.853359,-2.007797,0.651575\C,0,-4.5
 63337,-0.078295,-0.009108\H,0,-4.487319,1.987955,-0.609886\H,0,-4.3061
 04,-2.126915,0.598083\H,0,-5.646051,-0.128359,-0.017375\N,0,0.503958,-
 0.993046,-0.164\\Version=ES64L-G09RevD.01\State=1-A\HF=-595.0294875\RM
 SD=9.297e-09\Dipole=-0.6030438,-0.4377125,-0.1526391\Quadrupole=2.0306
 234,5.7345506,-7.765174,-0.3863132,0.019833,0.4791394\PG=C01 [X(C14H11
 N1)]\\@


 NOTHING MAKES A PERSON MORE PRODUCTIVE THAN THE LAST MINUTE.
 Job cpu time:       0 days  0 hours 17 minutes 13.6 seconds.
 File lengths (MBytes):  RWF=    126 Int=      0 D2E=      0 Chk=      7 Scr=      1
 Normal termination of Gaussian 09 at Fri Jul 23 17:40:07 2021.
