 Entering Gaussian System, Link 0=g09
 Initial command:
 /cm/shared/apps/gaussian/g09revD.01/g09/l1.exe "//home/sweav003/HartwigDocs/IrCatCycEth/G09-Table2_1.com.o9624916.tmp/Gau-67808.inp" -scrdir="//home/sweav003/HartwigDocs/IrCatCycEth/G09-Table2_1.com.o9624916.tmp/"
 Entering Link 1 = /cm/shared/apps/gaussian/g09revD.01/g09/l1.exe PID=     67809.
  
 Copyright (c) 1988,1990,1992,1993,1995,1998,2003,2009,2013,
            Gaussian, Inc.  All Rights Reserved.
  
 This is part of the Gaussian(R) 09 program.  It is based on
 the Gaussian(R) 03 system (copyright 2003, Gaussian, Inc.),
 the Gaussian(R) 98 system (copyright 1998, Gaussian, Inc.),
 the Gaussian(R) 94 system (copyright 1995, Gaussian, Inc.),
 the Gaussian 92(TM) system (copyright 1992, Gaussian, Inc.),
 the Gaussian 90(TM) system (copyright 1990, Gaussian, Inc.),
 the Gaussian 88(TM) system (copyright 1988, Gaussian, Inc.),
 the Gaussian 86(TM) system (copyright 1986, Carnegie Mellon
 University), and the Gaussian 82(TM) system (copyright 1983,
 Carnegie Mellon University). Gaussian is a federally registered
 trademark of Gaussian, Inc.
  
 This software contains proprietary and confidential information,
 including trade secrets, belonging to Gaussian, Inc.
  
 This software is provided under written license and may be
 used, copied, transmitted, or stored only in accord with that
 written license.
  
 The following legend is applicable only to US Government
 contracts under FAR:
  
                    RESTRICTED RIGHTS LEGEND
  
 Use, reproduction and disclosure by the US Government is
 subject to restrictions as set forth in subparagraphs (a)
 and (c) of the Commercial Computer Software - Restricted
 Rights clause in FAR 52.227-19.
  
 Gaussian, Inc.
 340 Quinnipiac St., Bldg. 40, Wallingford CT 06492
  
  
 ---------------------------------------------------------------
 Warning -- This program may not be used in any manner that
 competes with the business of Gaussian, Inc. or will provide
 assistance to any competitor of Gaussian, Inc.  The licensee
 of this program is prohibited from giving any competitor of
 Gaussian, Inc. access to this program.  By using this program,
 the user acknowledges that Gaussian, Inc. is engaged in the
 business of creating and licensing software in the field of
 computational chemistry and represents and warrants to the
 licensee that it is not a competitor of Gaussian, Inc. and that
 it will not use this program in any manner prohibited above.
 ---------------------------------------------------------------
  

 Cite this work as:
 Gaussian 09, Revision D.01,
 M. J. Frisch, G. W. Trucks, H. B. Schlegel, G. E. Scuseria, 
 M. A. Robb, J. R. Cheeseman, G. Scalmani, V. Barone, B. Mennucci, 
 G. A. Petersson, H. Nakatsuji, M. Caricato, X. Li, H. P. Hratchian, 
 A. F. Izmaylov, J. Bloino, G. Zheng, J. L. Sonnenberg, M. Hada, 
 M. Ehara, K. Toyota, R. Fukuda, J. Hasegawa, M. Ishida, T. Nakajima, 
 Y. Honda, O. Kitao, H. Nakai, T. Vreven, J. A. Montgomery, Jr., 
 J. E. Peralta, F. Ogliaro, M. Bearpark, J. J. Heyd, E. Brothers, 
 K. N. Kudin, V. N. Staroverov, T. Keith, R. Kobayashi, J. Normand, 
 K. Raghavachari, A. Rendell, J. C. Burant, S. S. Iyengar, J. Tomasi, 
 M. Cossi, N. Rega, J. M. Millam, M. Klene, J. E. Knox, J. B. Cross, 
 V. Bakken, C. Adamo, J. Jaramillo, R. Gomperts, R. E. Stratmann, 
 O. Yazyev, A. J. Austin, R. Cammi, C. Pomelli, J. W. Ochterski, 
 R. L. Martin, K. Morokuma, V. G. Zakrzewski, G. A. Voth, 
 P. Salvador, J. J. Dannenberg, S. Dapprich, A. D. Daniels, 
 O. Farkas, J. B. Foresman, J. V. Ortiz, J. Cioslowski, 
 and D. J. Fox, Gaussian, Inc., Wallingford CT, 2013.
 
 ******************************************
 Gaussian 09:  ES64L-G09RevD.01 24-Apr-2013
                 2-Nov-2021 
 ******************************************
 %mem=100MW
 %nprocshared=20
 Will use up to   20 processors via shared memory.
 %chk=Table2_1.chk
 ----------------------------------------------------------------------
 # opt freq b3lyp/6-311+g(d,p) geom=connectivity pop=(hirshfeld,chelpg,
 mbs,npa)
 ----------------------------------------------------------------------
 1/14=-1,18=20,19=15,26=3,38=1,57=2/1,3;
 2/9=110,12=2,17=6,18=5,40=1/2;
 3/5=4,6=6,7=111,11=2,16=1,25=1,30=1,71=1,74=-5/1,2,3;
 4//1;
 5/5=2,38=5/2;
 6/7=2,8=2,9=2,10=2,15=8,20=3,27=100,28=1,40=-1,79=1/1,2,7;
 7//1,2,3,16;
 1/14=-1,18=20,19=15,26=3/3(2);
 2/9=110/2;
 99//99;
 2/9=110/2;
 3/5=4,6=6,7=111,11=2,16=1,25=1,30=1,71=1,74=-5/1,2,3;
 4/5=5,16=3,69=1/1;
 5/5=2,38=5/2;
 7//1,2,3,16;
 1/14=-1,18=20,19=15,26=3/3(-5);
 2/9=110/2;
 6/7=2,8=2,9=2,10=2,15=8,19=2,20=3,27=100,28=1,40=-1,79=1/1,2,7;
 99/9=1/99;
 -------------------
 Title Card Required
 -------------------
 Symbolic Z-matrix:
 Charge =  0 Multiplicity = 1
 C                    -0.07705  -0.88634  -0.02196 
 C                     1.4771   -0.74376  -0.03163 
 C                     2.06139   0.68612   0.0924 
 C                    -0.6122   -0.46421   1.34388 
 C                    -0.769     1.05786   1.51519 
 C                     0.37512   1.90688   0.94907 
 H                    -0.54795  -0.32393  -0.80097 
 H                     1.84601  -1.3178    0.79256 
 H                     1.76298   1.25351  -0.76429 
 H                     0.07734  -0.85499   2.06271 
 H                    -0.86561   1.22742   2.56724 
 H                    -0.28367  -1.92728  -0.1585 
 H                     1.83335  -1.14399  -0.95781 
 H                     3.12606   0.58232   0.11692 
 H                    -1.58696  -0.87504   1.505 
 H                    -1.64865   1.38663   1.00231 
 H                     0.24464   2.8925    1.34459 
 H                     0.31706   1.92722  -0.11916 
 O                     1.65945   1.42927   1.26225 
 

 GradGradGradGradGradGradGradGradGradGradGradGradGradGradGradGradGradGrad
 Berny optimization.
 Initialization pass.
                           ----------------------------
                           !    Initial Parameters    !
                           ! (Angstroms and Degrees)  !
 --------------------------                            --------------------------
 ! Name  Definition              Value          Derivative Info.                !
 --------------------------------------------------------------------------------
 ! R1    R(1,2)                  1.5607         estimate D2E/DX2                !
 ! R2    R(1,4)                  1.5265         estimate D2E/DX2                !
 ! R3    R(1,7)                  1.07           estimate D2E/DX2                !
 ! R4    R(1,12)                 1.07           estimate D2E/DX2                !
 ! R5    R(2,3)                  1.5496         estimate D2E/DX2                !
 ! R6    R(2,8)                  1.07           estimate D2E/DX2                !
 ! R7    R(2,13)                 1.07           estimate D2E/DX2                !
 ! R8    R(3,9)                  1.07           estimate D2E/DX2                !
 ! R9    R(3,14)                 1.07           estimate D2E/DX2                !
 ! R10   R(3,19)                 1.443          estimate D2E/DX2                !
 ! R11   R(4,5)                  1.5397         estimate D2E/DX2                !
 ! R12   R(4,10)                 1.07           estimate D2E/DX2                !
 ! R13   R(4,15)                 1.07           estimate D2E/DX2                !
 ! R14   R(5,6)                  1.5331         estimate D2E/DX2                !
 ! R15   R(5,11)                 1.07           estimate D2E/DX2                !
 ! R16   R(5,16)                 1.07           estimate D2E/DX2                !
 ! R17   R(6,17)                 1.07           estimate D2E/DX2                !
 ! R18   R(6,18)                 1.07           estimate D2E/DX2                !
 ! R19   R(6,19)                 1.4056         estimate D2E/DX2                !
 ! A1    A(2,1,4)              109.2317         estimate D2E/DX2                !
 ! A2    A(2,1,7)              112.6889         estimate D2E/DX2                !
 ! A3    A(2,1,12)             106.2826         estimate D2E/DX2                !
 ! A4    A(4,1,7)              110.5964         estimate D2E/DX2                !
 ! A5    A(4,1,12)             108.3918         estimate D2E/DX2                !
 ! A6    A(7,1,12)             109.4784         estimate D2E/DX2                !
 ! A7    A(1,2,3)              117.3397         estimate D2E/DX2                !
 ! A8    A(1,2,8)              106.8306         estimate D2E/DX2                !
 ! A9    A(1,2,13)             107.6217         estimate D2E/DX2                !
 ! A10   A(3,2,8)              107.6609         estimate D2E/DX2                !
 ! A11   A(3,2,13)             106.7913         estimate D2E/DX2                !
 ! A12   A(8,2,13)             110.5657         estimate D2E/DX2                !
 ! A13   A(2,3,9)              108.6665         estimate D2E/DX2                !
 ! A14   A(2,3,14)             106.7077         estimate D2E/DX2                !
 ! A15   A(2,3,19)             115.7888         estimate D2E/DX2                !
 ! A16   A(9,3,14)             110.3217         estimate D2E/DX2                !
 ! A17   A(9,3,19)             107.3561         estimate D2E/DX2                !
 ! A18   A(14,3,19)            107.9707         estimate D2E/DX2                !
 ! A19   A(1,4,5)              114.1193         estimate D2E/DX2                !
 ! A20   A(1,4,10)             105.9139         estimate D2E/DX2                !
 ! A21   A(1,4,15)             110.3611         estimate D2E/DX2                !
 ! A22   A(5,4,10)             110.6047         estimate D2E/DX2                !
 ! A23   A(5,4,15)             105.6664         estimate D2E/DX2                !
 ! A24   A(10,4,15)            110.223          estimate D2E/DX2                !
 ! A25   A(4,5,6)              115.4913         estimate D2E/DX2                !
 ! A26   A(4,5,11)             105.9767         estimate D2E/DX2                !
 ! A27   A(4,5,16)             109.5202         estimate D2E/DX2                !
 ! A28   A(6,5,11)             110.041          estimate D2E/DX2                !
 ! A29   A(6,5,16)             105.4477         estimate D2E/DX2                !
 ! A30   A(11,5,16)            110.3878         estimate D2E/DX2                !
 ! A31   A(5,6,17)             106.4166         estimate D2E/DX2                !
 ! A32   A(5,6,18)             109.797          estimate D2E/DX2                !
 ! A33   A(5,6,19)             114.2958         estimate D2E/DX2                !
 ! A34   A(17,6,18)            110.1768         estimate D2E/DX2                !
 ! A35   A(17,6,19)            110.0024         estimate D2E/DX2                !
 ! A36   A(18,6,19)            106.1693         estimate D2E/DX2                !
 ! A37   A(3,19,6)             104.4105         estimate D2E/DX2                !
 ! D1    D(4,1,2,3)            -65.6453         estimate D2E/DX2                !
 ! D2    D(4,1,2,8)             55.2329         estimate D2E/DX2                !
 ! D3    D(4,1,2,13)           173.9937         estimate D2E/DX2                !
 ! D4    D(7,1,2,3)             57.6996         estimate D2E/DX2                !
 ! D5    D(7,1,2,8)            178.5777         estimate D2E/DX2                !
 ! D6    D(7,1,2,13)           -62.6614         estimate D2E/DX2                !
 ! D7    D(12,1,2,3)           177.6096         estimate D2E/DX2                !
 ! D8    D(12,1,2,8)           -61.5122         estimate D2E/DX2                !
 ! D9    D(12,1,2,13)           57.2487         estimate D2E/DX2                !
 ! D10   D(2,1,4,5)             81.8071         estimate D2E/DX2                !
 ! D11   D(2,1,4,10)           -40.104          estimate D2E/DX2                !
 ! D12   D(2,1,4,15)          -159.3934         estimate D2E/DX2                !
 ! D13   D(7,1,4,5)            -42.7706         estimate D2E/DX2                !
 ! D14   D(7,1,4,10)          -164.6817         estimate D2E/DX2                !
 ! D15   D(7,1,4,15)            76.0289         estimate D2E/DX2                !
 ! D16   D(12,1,4,5)          -162.7936         estimate D2E/DX2                !
 ! D17   D(12,1,4,10)           75.2953         estimate D2E/DX2                !
 ! D18   D(12,1,4,15)          -43.9941         estimate D2E/DX2                !
 ! D19   D(1,2,3,9)            -63.8193         estimate D2E/DX2                !
 ! D20   D(1,2,3,14)           177.225          estimate D2E/DX2                !
 ! D21   D(1,2,3,19)            57.0401         estimate D2E/DX2                !
 ! D22   D(8,2,3,9)            175.7373         estimate D2E/DX2                !
 ! D23   D(8,2,3,14)            56.7816         estimate D2E/DX2                !
 ! D24   D(8,2,3,19)           -63.4032         estimate D2E/DX2                !
 ! D25   D(13,2,3,9)            56.9769         estimate D2E/DX2                !
 ! D26   D(13,2,3,14)          -61.9788         estimate D2E/DX2                !
 ! D27   D(13,2,3,19)          177.8363         estimate D2E/DX2                !
 ! D28   D(2,3,19,6)           -79.6228         estimate D2E/DX2                !
 ! D29   D(9,3,19,6)            41.9399         estimate D2E/DX2                !
 ! D30   D(14,3,19,6)          160.8798         estimate D2E/DX2                !
 ! D31   D(1,4,5,6)            -41.7365         estimate D2E/DX2                !
 ! D32   D(1,4,5,11)          -163.8375         estimate D2E/DX2                !
 ! D33   D(1,4,5,16)            77.0867         estimate D2E/DX2                !
 ! D34   D(10,4,5,6)            77.5569         estimate D2E/DX2                !
 ! D35   D(10,4,5,11)          -44.5441         estimate D2E/DX2                !
 ! D36   D(10,4,5,16)         -163.6199         estimate D2E/DX2                !
 ! D37   D(15,4,5,6)          -163.1689         estimate D2E/DX2                !
 ! D38   D(15,4,5,11)           74.7302         estimate D2E/DX2                !
 ! D39   D(15,4,5,16)          -44.3456         estimate D2E/DX2                !
 ! D40   D(4,5,6,17)          -166.6664         estimate D2E/DX2                !
 ! D41   D(4,5,6,18)            74.11           estimate D2E/DX2                !
 ! D42   D(4,5,6,19)           -45.0484         estimate D2E/DX2                !
 ! D43   D(11,5,6,17)          -46.7649         estimate D2E/DX2                !
 ! D44   D(11,5,6,18)         -165.9886         estimate D2E/DX2                !
 ! D45   D(11,5,6,19)           74.853          estimate D2E/DX2                !
 ! D46   D(16,5,6,17)           72.2822         estimate D2E/DX2                !
 ! D47   D(16,5,6,18)          -46.9414         estimate D2E/DX2                !
 ! D48   D(16,5,6,19)         -166.0998         estimate D2E/DX2                !
 ! D49   D(5,6,19,3)            97.7889         estimate D2E/DX2                !
 ! D50   D(17,6,19,3)         -142.5864         estimate D2E/DX2                !
 ! D51   D(18,6,19,3)          -23.3955         estimate D2E/DX2                !
 --------------------------------------------------------------------------------
 Trust Radius=3.00D-01 FncErr=1.00D-07 GrdErr=1.00D-06
 Number of steps in this run=    114 maximum allowed number of steps=    114.
 GradGradGradGradGradGradGradGradGradGradGradGradGradGradGradGradGradGrad

                          Input orientation:                          
 ---------------------------------------------------------------------
 Center     Atomic      Atomic             Coordinates (Angstroms)
 Number     Number       Type             X           Y           Z
 ---------------------------------------------------------------------
      1          6           0       -0.077045   -0.886337   -0.021963
      2          6           0        1.477101   -0.743761   -0.031630
      3          6           0        2.061388    0.686124    0.092400
      4          6           0       -0.612200   -0.464206    1.343876
      5          6           0       -0.769004    1.057862    1.515187
      6          6           0        0.375119    1.906884    0.949067
      7          1           0       -0.547954   -0.323932   -0.800966
      8          1           0        1.846007   -1.317801    0.792559
      9          1           0        1.762981    1.253513   -0.764293
     10          1           0        0.077339   -0.854987    2.062712
     11          1           0       -0.865607    1.227423    2.567241
     12          1           0       -0.283665   -1.927282   -0.158504
     13          1           0        1.833345   -1.143987   -0.957810
     14          1           0        3.126059    0.582319    0.116924
     15          1           0       -1.586957   -0.875044    1.505001
     16          1           0       -1.648646    1.386633    1.002311
     17          1           0        0.244640    2.892498    1.344591
     18          1           0        0.317062    1.927215   -0.119163
     19          8           0        1.659448    1.429268    1.262248
 ---------------------------------------------------------------------
                    Distance matrix (angstroms):
                    1          2          3          4          5
     1  C    0.000000
     2  C    1.560703   0.000000
     3  C    2.656805   1.549628   0.000000
     4  C    1.526467   2.517011   3.168205   0.000000
     5  C    2.573238   3.268559   3.189614   1.539685   0.000000
     6  C    2.991561   3.033488   2.251141   2.598604   1.533085
     7  H    1.070000   2.206578   2.937173   2.150384   2.706064
     8  H    2.132543   1.070000   2.133618   2.659954   3.606141
     9  H    2.918169   2.146538   1.070000   3.610598   3.412515
    10  H    2.090619   2.521502   3.192742   1.070000   2.162192
    11  H    3.434209   4.015965   3.871065   2.102961   1.070000
    12  H    1.070000   2.125351   3.520244   2.122656   3.456570
    13  H    2.142845   1.070000   2.122322   3.426448   4.211422
    14  H    3.526488   2.121230   1.070000   4.071266   4.165669
    15  H    2.147459   3.430294   4.212257   1.070000   2.098875
    16  H    2.947110   3.921467   3.883684   2.148602   1.070000
    17  H    4.031197   4.078643   3.120359   3.464339   2.102967
    18  H    2.842683   2.913326   2.151219   2.953457   2.146256
    19  O    3.166487   2.535632   1.443040   2.958428   2.469677
                    6          7          8          9         10
     6  C    0.000000
     7  H    2.981815   0.000000
     8  H    3.547760   3.042721   0.000000
     9  H    2.299708   2.798231   3.007048   0.000000
    10  H    2.992793   2.978870   2.226134   3.908851   0.000000
    11  H    2.149315   3.721884   4.120742   4.243733   2.340968
    12  H    4.044939   1.747380   2.410704   3.830561   2.492777
    13  H    3.882063   2.523426   1.759023   2.406326   3.505800
    14  H    3.164586   3.893865   2.388613   1.756424   3.891868
    15  H    3.449337   2.588577   3.533957   4.571928   1.755371
    16  H    2.090244   2.718338   4.423862   3.844191   3.021313
    17  H    1.070000   3.946777   4.538252   3.072299   3.819337
    18  H    1.070000   2.506147   3.701222   1.720683   3.543825
    19  O    1.405596   3.493306   2.793170   2.036781   2.891649
                   11         12         13         14         15
    11  H    0.000000
    12  H    4.209572   0.000000
    13  H    5.033280   2.394614   0.000000
    14  H    4.727961   4.242661   2.409625   0.000000
    15  H    2.463547   2.360724   4.223296   5.124762   0.000000
    16  H    1.757129   3.767319   4.729733   4.922259   2.317689
    17  H    2.345208   5.076286   4.911033   3.891872   4.192237
    18  H    3.017480   3.901226   3.526291   3.123291   3.757107
    19  O    2.849500   4.130454   3.403019   2.044514   3.988474
                   16         17         18         19
    16  H    0.000000
    17  H    2.443219   0.000000
    18  H    2.326788   1.754877   0.000000
    19  O    3.318564   2.037033   1.989535   0.000000
 Stoichiometry    C6H12O
 Framework group  C1[X(C6H12O)]
 Deg. of freedom    51
 Full point group                 C1      NOp   1
 Largest Abelian subgroup         C1      NOp   1
 Largest concise Abelian subgroup C1      NOp   1
                         Standard orientation:                         
 ---------------------------------------------------------------------
 Center     Atomic      Atomic             Coordinates (Angstroms)
 Number     Number       Type             X           Y           Z
 ---------------------------------------------------------------------
      1          6           0       -0.234275    1.566260    0.406596
      2          6           0        1.179754    1.147358   -0.104125
      3          6           0        1.593166   -0.334570    0.081148
      4          6           0       -1.299738    0.854668   -0.423178
      5          6           0       -1.585708   -0.590131    0.025603
      6          6           0       -0.352396   -1.422941    0.393999
      7          1           0       -0.372780    1.366099    1.448542
      8          1           0        1.207384    1.363548   -1.151693
      9          1           0        1.643391   -0.547726    1.128498
     10          1           0       -0.945601    0.872274   -1.432721
     11          1           0       -2.111178   -1.051540   -0.784263
     12          1           0       -0.316941    2.618572    0.231361
     13          1           0        1.901664    1.737584    0.420642
     14          1           0        2.558819   -0.442856   -0.366835
     15          1           0       -2.234442    1.370304   -0.350048
     16          1           0       -2.194220   -0.577344    0.905632
     17          1           0       -0.680077   -2.439972    0.450325
     18          1           0        0.029548   -1.105234    1.341671
     19          8           0        0.713703   -1.310947   -0.515172
 ---------------------------------------------------------------------
 Rotational constants (GHZ):      3.2433299      3.1286003      1.8368734
 Standard basis: 6-311+G(d,p) (5D, 7F)
 There are   233 symmetry adapted cartesian basis functions of A   symmetry.
 There are   226 symmetry adapted basis functions of A   symmetry.
   226 basis functions,   348 primitive gaussians,   233 cartesian basis functions
    28 alpha electrons       28 beta electrons
       nuclear repulsion energy       337.0345332892 Hartrees.
 NAtoms=   19 NActive=   19 NUniq=   19 SFac= 1.00D+00 NAtFMM=   60 NAOKFM=F Big=F
 Integral buffers will be    131072 words long.
 Raffenetti 2 integral format.
 Two-electron integral symmetry is turned on.
 One-electron integrals computed using PRISM.
 NBasis=   226 RedAO= T EigKep=  1.99D-05  NBF=   226
 NBsUse=   226 1.00D-06 EigRej= -1.00D+00 NBFU=   226
 ExpMin= 4.38D-02 ExpMax= 8.59D+03 ExpMxC= 1.30D+03 IAcc=2 IRadAn=         4 AccDes= 0.00D+00
 Harris functional with IExCor=  402 and IRadAn=       4 diagonalized for initial guess.
 HarFok:  IExCor=  402 AccDes= 0.00D+00 IRadAn=         4 IDoV= 1 UseB2=F ITyADJ=14
 ICtDFT=  3500011 ScaDFX=  1.000000  1.000000  1.000000  1.000000
 FoFCou: FMM=F IPFlag=           0 FMFlag=      100000 FMFlg1=           0
         NFxFlg=           0 DoJE=T BraDBF=F KetDBF=T FulRan=T
         wScrn=  0.000000 ICntrl=     500 IOpCl=  0 I1Cent=   200000004 NGrid=           0
         NMat0=    1 NMatS0=      1 NMatT0=    0 NMatD0=    1 NMtDS0=    0 NMtDT0=    0
 Petite list used in FoFCou.
 Requested convergence on RMS density matrix=1.00D-08 within 128 cycles.
 Requested convergence on MAX density matrix=1.00D-06.
 Requested convergence on             energy=1.00D-06.
 No special actions if energy rises.
 SCF Done:  E(RB3LYP) =  -311.149388019     A.U. after   12 cycles
            NFock= 12  Conv=0.32D-08     -V/T= 2.0030

 **********************************************************************

            Population analysis using the SCF density.

 **********************************************************************

 Orbital symmetries:
       Occupied  (A) (A) (A) (A) (A) (A) (A) (A) (A) (A) (A) (A)
                 (A) (A) (A) (A) (A) (A) (A) (A) (A) (A) (A) (A)
                 (A) (A) (A) (A)
       Virtual   (A) (A) (A) (A) (A) (A) (A) (A) (A) (A) (A) (A)
                 (A) (A) (A) (A) (A) (A) (A) (A) (A) (A) (A) (A)
                 (A) (A) (A) (A) (A) (A) (A) (A) (A) (A) (A) (A)
                 (A) (A) (A) (A) (A) (A) (A) (A) (A) (A) (A) (A)
                 (A) (A) (A) (A) (A) (A) (A) (A) (A) (A) (A) (A)
                 (A) (A) (A) (A) (A) (A) (A) (A) (A) (A) (A) (A)
                 (A) (A) (A) (A) (A) (A) (A) (A) (A) (A) (A) (A)
                 (A) (A) (A) (A) (A) (A) (A) (A) (A) (A) (A) (A)
                 (A) (A) (A) (A) (A) (A) (A) (A) (A) (A) (A) (A)
                 (A) (A) (A) (A) (A) (A) (A) (A) (A) (A) (A) (A)
                 (A) (A) (A) (A) (A) (A) (A) (A) (A) (A) (A) (A)
                 (A) (A) (A) (A) (A) (A) (A) (A) (A) (A) (A) (A)
                 (A) (A) (A) (A) (A) (A) (A) (A) (A) (A) (A) (A)
                 (A) (A) (A) (A) (A) (A) (A) (A) (A) (A) (A) (A)
                 (A) (A) (A) (A) (A) (A) (A) (A) (A) (A) (A) (A)
                 (A) (A) (A) (A) (A) (A) (A) (A) (A) (A) (A) (A)
                 (A) (A) (A) (A) (A) (A)
 The electronic state is 1-A.
 Alpha  occ. eigenvalues --  -19.12226 -10.20993 -10.20226 -10.16426 -10.16195
 Alpha  occ. eigenvalues --  -10.15690 -10.15595  -1.03743  -0.80840  -0.77530
 Alpha  occ. eigenvalues --   -0.69214  -0.66829  -0.59695  -0.56523  -0.50180
 Alpha  occ. eigenvalues --   -0.48844  -0.46949  -0.45451  -0.41449  -0.40549
 Alpha  occ. eigenvalues --   -0.40313  -0.38804  -0.34945  -0.33528  -0.32866
 Alpha  occ. eigenvalues --   -0.32217  -0.31458  -0.25451
 Alpha virt. eigenvalues --    0.00357   0.01869   0.01948   0.02701   0.04400
 Alpha virt. eigenvalues --    0.04514   0.05468   0.05871   0.05914   0.08032
 Alpha virt. eigenvalues --    0.08842   0.09279   0.09469   0.09695   0.10319
 Alpha virt. eigenvalues --    0.10720   0.13597   0.13878   0.14197   0.15408
 Alpha virt. eigenvalues --    0.15828   0.16434   0.17119   0.18486   0.18777
 Alpha virt. eigenvalues --    0.19548   0.20174   0.21177   0.21192   0.21703
 Alpha virt. eigenvalues --    0.21891   0.22476   0.24206   0.24622   0.25822
 Alpha virt. eigenvalues --    0.26293   0.27027   0.29199   0.29715   0.29805
 Alpha virt. eigenvalues --    0.30412   0.30730   0.32046   0.33738   0.34606
 Alpha virt. eigenvalues --    0.36429   0.37807   0.41938   0.43374   0.43983
 Alpha virt. eigenvalues --    0.46558   0.47852   0.48311   0.49452   0.52592
 Alpha virt. eigenvalues --    0.54011   0.56057   0.58807   0.59549   0.61220
 Alpha virt. eigenvalues --    0.63152   0.63518   0.64447   0.66612   0.67459
 Alpha virt. eigenvalues --    0.67800   0.69976   0.70524   0.71518   0.72886
 Alpha virt. eigenvalues --    0.73236   0.74536   0.74816   0.75499   0.76307
 Alpha virt. eigenvalues --    0.78396   0.79763   0.85798   0.89829   0.92100
 Alpha virt. eigenvalues --    1.00182   1.03101   1.05246   1.08746   1.09996
 Alpha virt. eigenvalues --    1.14993   1.17730   1.21734   1.22858   1.25074
 Alpha virt. eigenvalues --    1.26886   1.32438   1.37392   1.40175   1.42618
 Alpha virt. eigenvalues --    1.45223   1.49866   1.52182   1.53697   1.54435
 Alpha virt. eigenvalues --    1.55976   1.56459   1.57417   1.59014   1.59689
 Alpha virt. eigenvalues --    1.61242   1.62315   1.63324   1.64845   1.66545
 Alpha virt. eigenvalues --    1.67415   1.69821   1.71940   1.73375   1.75549
 Alpha virt. eigenvalues --    1.77039   1.77396   1.79001   1.80005   1.82858
 Alpha virt. eigenvalues --    1.83532   1.86378   1.91835   1.95579   1.98930
 Alpha virt. eigenvalues --    2.02976   2.04010   2.07002   2.08776   2.14632
 Alpha virt. eigenvalues --    2.16753   2.21071   2.21995   2.24000   2.27024
 Alpha virt. eigenvalues --    2.29747   2.32588   2.35355   2.36788   2.37823
 Alpha virt. eigenvalues --    2.42210   2.49042   2.50837   2.52938   2.54680
 Alpha virt. eigenvalues --    2.54884   2.58126   2.59347   2.61184   2.63266
 Alpha virt. eigenvalues --    2.66593   2.67820   2.68903   2.71891   2.74008
 Alpha virt. eigenvalues --    2.75702   2.76466   2.80362   2.82209   2.84099
 Alpha virt. eigenvalues --    2.86332   2.87261   2.89398   2.93158   2.93964
 Alpha virt. eigenvalues --    2.96942   2.98578   3.04559   3.08347   3.17993
 Alpha virt. eigenvalues --    3.24147   3.29122   3.30220   3.35306   3.42512
 Alpha virt. eigenvalues --    3.78615   3.85839   3.89959   3.92696   3.96019
 Alpha virt. eigenvalues --    3.98920   4.00114   4.06980   4.10257   4.12946
 Alpha virt. eigenvalues --    4.19691   4.33535   4.41651   5.13146   5.44192
 Alpha virt. eigenvalues --    5.65366  23.86037  23.88684  23.95673  23.96878
 Alpha virt. eigenvalues --   23.98860  24.00800  49.94297
          Condensed to atoms (all electrons):
               1          2          3          4          5          6
     1  C    5.752777   0.305937  -0.264080  -0.101569  -0.155913  -0.034514
     2  C    0.305937   5.499685   0.004156  -0.182497   0.001342   0.141123
     3  C   -0.264080   0.004156   5.619596   0.103390   0.142056  -0.396016
     4  C   -0.101569  -0.182497   0.103390   5.559116   0.227825  -0.040672
     5  C   -0.155913   0.001342   0.142056   0.227825   5.574131   0.007045
     6  C   -0.034514   0.141123  -0.396016  -0.040672   0.007045   5.547277
     7  H    0.473397  -0.055089  -0.009469  -0.050908  -0.015871  -0.001776
     8  H   -0.024381   0.482578  -0.085791  -0.038056   0.003557  -0.001636
     9  H   -0.010796  -0.071191   0.429687  -0.002632  -0.002368  -0.022006
    10  H   -0.027508  -0.031919  -0.002213   0.477023  -0.070046  -0.009176
    11  H    0.027365   0.001711  -0.008730  -0.045503   0.415937  -0.040831
    12  H    0.393989  -0.038390   0.021125  -0.041597   0.027212  -0.003046
    13  H   -0.055107   0.324266   0.022102   0.043255  -0.002632  -0.005600
    14  H    0.008053  -0.053148   0.420767   0.010061  -0.007802   0.021598
    15  H   -0.034840   0.036392  -0.005963   0.379477  -0.042667   0.022805
    16  H   -0.010822  -0.010141   0.004084  -0.028664   0.425436  -0.056685
    17  H   -0.012094  -0.017756   0.029883   0.024563  -0.036935   0.404856
    18  H    0.016847   0.003754  -0.015767  -0.013724  -0.095789   0.443785
    19  O   -0.060809  -0.108649   0.282182   0.056023  -0.164052   0.287249
               7          8          9         10         11         12
     1  C    0.473397  -0.024381  -0.010796  -0.027508   0.027365   0.393989
     2  C   -0.055089   0.482578  -0.071191  -0.031919   0.001711  -0.038390
     3  C   -0.009469  -0.085791   0.429687  -0.002213  -0.008730   0.021125
     4  C   -0.050908  -0.038056  -0.002632   0.477023  -0.045503  -0.041597
     5  C   -0.015871   0.003557  -0.002368  -0.070046   0.415937   0.027212
     6  C   -0.001776  -0.001636  -0.022006  -0.009176  -0.040831  -0.003046
     7  H    0.540313   0.006635   0.002579   0.007395  -0.000077  -0.028766
     8  H    0.006635   0.532950   0.008668   0.004897  -0.000089  -0.007427
     9  H    0.002579   0.008668   0.598887   0.000104  -0.000167  -0.000420
    10  H    0.007395   0.004897   0.000104   0.537521  -0.010248  -0.004252
    11  H   -0.000077  -0.000089  -0.000167  -0.010248   0.548726  -0.000505
    12  H   -0.028766  -0.007427  -0.000420  -0.004252  -0.000505   0.555260
    13  H   -0.003588  -0.023978  -0.004059   0.000650   0.000007  -0.007244
    14  H   -0.000087  -0.008202  -0.026871  -0.000198   0.000043  -0.000381
    15  H   -0.002631   0.000065  -0.000029  -0.028198  -0.002942  -0.009247
    16  H    0.003000   0.000004   0.000303   0.007484  -0.028926  -0.000455
    17  H   -0.000090  -0.000021   0.002732  -0.000158  -0.013280   0.000050
    18  H   -0.002384  -0.000054   0.012841  -0.000836   0.009063  -0.000186
    19  O    0.000031  -0.000543  -0.040006  -0.001604  -0.004228  -0.000756
              13         14         15         16         17         18
     1  C   -0.055107   0.008053  -0.034840  -0.010822  -0.012094   0.016847
     2  C    0.324266  -0.053148   0.036392  -0.010141  -0.017756   0.003754
     3  C    0.022102   0.420767  -0.005963   0.004084   0.029883  -0.015767
     4  C    0.043255   0.010061   0.379477  -0.028664   0.024563  -0.013724
     5  C   -0.002632  -0.007802  -0.042667   0.425436  -0.036935  -0.095789
     6  C   -0.005600   0.021598   0.022805  -0.056685   0.404856   0.443785
     7  H   -0.003588  -0.000087  -0.002631   0.003000  -0.000090  -0.002384
     8  H   -0.023978  -0.008202   0.000065   0.000004  -0.000021  -0.000054
     9  H   -0.004059  -0.026871  -0.000029   0.000303   0.002732   0.012841
    10  H    0.000650  -0.000198  -0.028198   0.007484  -0.000158  -0.000836
    11  H    0.000007   0.000043  -0.002942  -0.028926  -0.013280   0.009063
    12  H   -0.007244  -0.000381  -0.009247  -0.000455   0.000050  -0.000186
    13  H    0.566099  -0.002003  -0.000564   0.000084   0.000171  -0.000345
    14  H   -0.002003   0.541541   0.000028   0.000066  -0.000174   0.002225
    15  H   -0.000564   0.000028   0.562020  -0.011756  -0.000448  -0.000219
    16  H    0.000084   0.000066  -0.011756   0.560255   0.000890  -0.007545
    17  H    0.000171  -0.000174  -0.000448   0.000890   0.560991  -0.033266
    18  H   -0.000345   0.002225  -0.000219  -0.007545  -0.033266   0.625161
    19  O    0.010424  -0.058081   0.000044   0.011905  -0.060525  -0.046476
              19
     1  C   -0.060809
     2  C   -0.108649
     3  C    0.282182
     4  C    0.056023
     5  C   -0.164052
     6  C    0.287249
     7  H    0.000031
     8  H   -0.000543
     9  H   -0.040006
    10  H   -0.001604
    11  H   -0.004228
    12  H   -0.000756
    13  H    0.010424
    14  H   -0.058081
    15  H    0.000044
    16  H    0.011905
    17  H   -0.060525
    18  H   -0.046476
    19  O    8.045871
 Mulliken charges:
               1
     1  C   -0.185932
     2  C   -0.232164
     3  C   -0.290998
     4  C   -0.334912
     5  C   -0.230462
     6  C   -0.263781
     7  H    0.137387
     8  H    0.150822
     9  H    0.124744
    10  H    0.151284
    11  H    0.152672
    12  H    0.145036
    13  H    0.138064
    14  H    0.152563
    15  H    0.138673
    16  H    0.141482
    17  H    0.150611
    18  H    0.102914
    19  O   -0.148002
 Sum of Mulliken charges =   0.00000
 Mulliken charges with hydrogens summed into heavy atoms:
               1
     1  C    0.096491
     2  C    0.056722
     3  C   -0.013691
     4  C   -0.044955
     5  C    0.063691
     6  C   -0.010255
    19  O   -0.148002
 Electronic spatial extent (au):  <R**2>=            748.2490
 Charge=              0.0000 electrons
 Dipole moment (field-independent basis, Debye):
    X=             -0.2596    Y=              1.1161    Z=              1.2505  Tot=              1.6961
 Quadrupole moment (field-independent basis, Debye-Ang):
   XX=            -44.0516   YY=            -47.0223   ZZ=            -45.7215
   XY=              1.9946   XZ=              0.6568   YZ=             -2.0301
 Traceless Quadrupole moment (field-independent basis, Debye-Ang):
   XX=              1.5468   YY=             -1.4238   ZZ=             -0.1230
   XY=              1.9946   XZ=              0.6568   YZ=             -2.0301
 Octapole moment (field-independent basis, Debye-Ang**2):
  XXX=              7.0444  YYY=             -2.6446  ZZZ=             -0.8815  XYY=             -3.3048
  XXY=             -0.9546  XXZ=             -0.3130  XZZ=              0.6210  YZZ=             -0.4258
  YYZ=              1.6597  XYZ=             -1.5725
 Hexadecapole moment (field-independent basis, Debye-Ang**3):
 XXXX=           -455.3818 YYYY=           -437.2945 ZZZZ=           -123.1554 XXXY=             -6.1375
 XXXZ=             -4.4247 YYYX=              5.2415 YYYZ=             -2.4106 ZZZX=             -1.3114
 ZZZY=              0.2099 XXYY=           -153.2672 XXZZ=            -96.5976 YYZZ=            -97.9249
 XXYZ=              2.7112 YYXZ=              3.0646 ZZXY=              1.3337
 N-N= 3.370345332892D+02 E-N=-1.398410187733D+03  KE= 3.102130726578D+02
 There are a total of      155944 grid points.
 ElSum from          density=       56.0000263631
 ElSum from atomic densities=       56.0000109631

 Hirshfeld populations at iteration   1 (CX, CA, CB, DipXYZ):
               1          2          3          4          5          6
     1  C    0.000000   3.030606   3.030606   0.002637  -0.004409  -0.002970
     2  C    0.000000   3.031019   3.031019  -0.010085  -0.005974   0.012499
     3  C    0.000000   2.992012   2.992012  -0.044820  -0.029069  -0.039807
     4  C    0.000000   3.030934   3.030934  -0.000372  -0.006438   0.012964
     5  C    0.000000   3.032712   3.032712   0.005771   0.007072  -0.000847
     6  C    0.000000   2.994064   2.994064   0.036192   0.004528  -0.057123
     7  H    0.000000   0.484631   0.484631  -0.022679  -0.023689   0.138730
     8  H    0.000000   0.482486   0.482486   0.004480   0.030633  -0.143842
     9  H    0.000000   0.484785   0.484785   0.019556  -0.022579   0.137425
    10  H    0.000000   0.483577   0.483577   0.043526   0.007431  -0.136067
    11  H    0.000000   0.482623   0.482623  -0.068827  -0.059652  -0.117380
    12  H    0.000000   0.482724   0.482724  -0.011735   0.144055  -0.031783
    13  H    0.000000   0.482271   0.482271   0.095610   0.080833   0.078025
    14  H    0.000001   0.479708   0.479708   0.139530  -0.006934  -0.063523
    15  H    0.000000   0.484147   0.484147  -0.127948   0.067610   0.017517
    16  H    0.000000   0.483080   0.483080  -0.078836   0.003399   0.121764
    17  H    0.000001   0.481400   0.481400  -0.054713  -0.138385   0.006234
    18  H    0.000000   0.486353   0.486353   0.036423   0.032765   0.124125
    19  O    0.000001   4.090879   4.090879  -0.035519   0.098927   0.150849
       Tot   0.000006  28.000013  28.000013  -0.071808   0.180126   0.206792

 Dip from Atomic Chgs             -0.030240   0.258874   0.285037
         Total Dipole             -0.102049   0.439001   0.491829

 Hirshfeld charges, spin densities, dipoles, and CM5 charges using IRadAn=      4:
              Q-H        S-H        Dx         Dy         Dz        Q-CM5   
     1  C   -0.061212   0.000000   0.002637  -0.004409  -0.002970  -0.177909
     2  C   -0.062038   0.000000  -0.010085  -0.005974   0.012499  -0.177155
     3  C    0.015976   0.000000  -0.044820  -0.029069  -0.039807  -0.075998
     4  C   -0.061868   0.000000  -0.000372  -0.006438   0.012964  -0.178208
     5  C   -0.065425   0.000000   0.005771   0.007072  -0.000847  -0.180216
     6  C    0.011873   0.000000   0.036192   0.004528  -0.057123  -0.077392
     7  H    0.030737   0.000000  -0.022679  -0.023689   0.138730   0.089552
     8  H    0.035027   0.000000   0.004480   0.030633  -0.143842   0.095442
     9  H    0.030429   0.000000   0.019556  -0.022579   0.137425   0.098932
    10  H    0.032846   0.000000   0.043526   0.007431  -0.136067   0.093914
    11  H    0.034755   0.000000  -0.068827  -0.059652  -0.117380   0.094115
    12  H    0.034551   0.000000  -0.011735   0.144055  -0.031783   0.092503
    13  H    0.035457   0.000000   0.095610   0.080833   0.078025   0.093517
    14  H    0.040584   0.000000   0.139530  -0.006934  -0.063523   0.106382
    15  H    0.031707   0.000000  -0.127948   0.067610   0.017517   0.089736
    16  H    0.033839   0.000000  -0.078836   0.003399   0.121764   0.092606
    17  H    0.037201   0.000000  -0.054713  -0.138385   0.006234   0.103445
    18  H    0.027293   0.000000   0.036423   0.032765   0.124125   0.099166
    19  O   -0.181758   0.000000  -0.035519   0.098927   0.150849  -0.282461
       Tot  -0.000026   0.000000  -0.071808   0.180126   0.206792  -0.000026
 Hirshfeld charges with hydrogens summed into heavy atoms:
              Q-H       Q-CM5   
     1  C    0.004076   0.004147
     2  C    0.008446   0.011804
     3  C    0.086989   0.129317
     4  C    0.002684   0.005442
     5  C    0.003169   0.006505
     6  C    0.076367   0.125219
    19  O   -0.181758  -0.282461
 
 EQQ= 0.000000000000E+00 EQD= 0.000000000000E+00 EDD=-0.346676748104E-02
 EQQ+QD+DD=-0.346676748104E-02
 
          MBS Condensed to atoms (all electrons):
               1          2          3          4          5          6
     1  C    4.822608   0.359771  -0.018371   0.366687  -0.022907  -0.002230
     2  C    0.359771   4.853852   0.354764  -0.026592  -0.000216  -0.000324
     3  C   -0.018371   0.354764   4.742274  -0.000716   0.000829  -0.050457
     4  C    0.366687  -0.026592  -0.000716   4.818287   0.361032  -0.021048
     5  C   -0.022907  -0.000216   0.000829   0.361032   4.842246   0.357423
     6  C   -0.002230  -0.000324  -0.050457  -0.021048   0.357423   4.725398
     7  H    0.378925  -0.021594  -0.001601  -0.024876  -0.003549  -0.000602
     8  H   -0.026061   0.379515  -0.025494  -0.004325   0.000022  -0.000088
     9  H   -0.001745  -0.029537   0.374279   0.000058  -0.000231  -0.017106
    10  H   -0.029019  -0.006529  -0.000208   0.382706  -0.022963  -0.000996
    11  H    0.001584  -0.000015  -0.000065  -0.026201   0.381475  -0.023463
    12  H    0.381773  -0.023255   0.001298  -0.023160   0.001550   0.000034
    13  H   -0.022713   0.373424  -0.021241   0.001622  -0.000026  -0.000026
    14  H    0.001281  -0.026805   0.377643  -0.000015  -0.000071   0.003077
    15  H   -0.022262   0.001615   0.000001   0.381123  -0.025408   0.001531
    16  H   -0.000970  -0.000040  -0.000048  -0.022511   0.374998  -0.024381
    17  H    0.000021  -0.000048   0.002824   0.001469  -0.029641   0.376703
    18  H    0.000366  -0.000930  -0.021556  -0.001289  -0.028030   0.378473
    19  O   -0.000267  -0.016407   0.270385  -0.000402  -0.020404   0.275551
               7          8          9         10         11         12
     1  C    0.378925  -0.026061  -0.001745  -0.029019   0.001584   0.381773
     2  C   -0.021594   0.379515  -0.029537  -0.006529  -0.000015  -0.023255
     3  C   -0.001601  -0.025494   0.374279  -0.000208  -0.000065   0.001298
     4  C   -0.024876  -0.004325   0.000058   0.382706  -0.026201  -0.023160
     5  C   -0.003549   0.000022  -0.000231  -0.022963   0.381475   0.001550
     6  C   -0.000602  -0.000088  -0.017106  -0.000996  -0.023463   0.000034
     7  H    0.613614   0.002222   0.000839   0.002627   0.000030  -0.024195
     8  H    0.002222   0.605556   0.002476   0.002395  -0.000006  -0.002538
     9  H    0.000839   0.002476   0.623481   0.000036   0.000002  -0.000009
    10  H    0.002627   0.002395   0.000036   0.607634  -0.004584  -0.000975
    11  H    0.000030  -0.000006   0.000002  -0.004584   0.606394  -0.000056
    12  H   -0.024195  -0.002538  -0.000009  -0.000975  -0.000056   0.608675
    13  H   -0.001425  -0.021352  -0.001726   0.000123   0.000001  -0.003139
    14  H    0.000000  -0.003456  -0.023290  -0.000015   0.000003  -0.000049
    15  H   -0.000459   0.000063  -0.000002  -0.023090  -0.000867  -0.004581
    16  H    0.000977   0.000003   0.000028   0.002281  -0.022337  -0.000031
    17  H   -0.000007  -0.000002   0.000568  -0.000004  -0.004716  -0.000001
    18  H    0.000378   0.000057   0.006150   0.000004   0.002406  -0.000013
    19  O    0.000037  -0.000150  -0.019555   0.000654   0.000038  -0.000010
              13         14         15         16         17         18
     1  C   -0.022713   0.001281  -0.022262  -0.000970   0.000021   0.000366
     2  C    0.373424  -0.026805   0.001615  -0.000040  -0.000048  -0.000930
     3  C   -0.021241   0.377643   0.000001  -0.000048   0.002824  -0.021556
     4  C    0.001622  -0.000015   0.381123  -0.022511   0.001469  -0.001289
     5  C   -0.000026  -0.000071  -0.025408   0.374998  -0.029641  -0.028030
     6  C   -0.000026   0.003077   0.001531  -0.024381   0.376703   0.378473
     7  H   -0.001425   0.000000  -0.000459   0.000977  -0.000007   0.000378
     8  H   -0.021352  -0.003456   0.000063   0.000003  -0.000002   0.000057
     9  H   -0.001726  -0.023290  -0.000002   0.000028   0.000568   0.006150
    10  H    0.000123  -0.000015  -0.023090   0.002281  -0.000004   0.000004
    11  H    0.000001   0.000003  -0.000867  -0.022337  -0.004716   0.002406
    12  H   -0.003139  -0.000049  -0.004581  -0.000031  -0.000001  -0.000013
    13  H    0.610822  -0.001475  -0.000062   0.000002   0.000003   0.000006
    14  H   -0.001475   0.587097   0.000001   0.000002  -0.000123   0.000565
    15  H   -0.000062   0.000001   0.613496  -0.005101  -0.000048   0.000006
    16  H    0.000002   0.000002  -0.005101   0.618210  -0.000020  -0.003533
    17  H    0.000003  -0.000123  -0.000048  -0.000020   0.598358  -0.023597
    18  H    0.000006   0.000565   0.000006  -0.003533  -0.023597   0.633042
    19  O    0.000685  -0.019357   0.000008   0.000864  -0.020492  -0.021511
              19
     1  C   -0.000267
     2  C   -0.016407
     3  C    0.270385
     4  C   -0.000402
     5  C   -0.020404
     6  C    0.275551
     7  H    0.000037
     8  H   -0.000150
     9  H   -0.019555
    10  H    0.000654
    11  H    0.000038
    12  H   -0.000010
    13  H    0.000685
    14  H   -0.019357
    15  H    0.000008
    16  H    0.000864
    17  H   -0.020492
    18  H   -0.021511
    19  O    8.002214
 MBS Mulliken charges:
               1
     1  C   -0.166467
     2  C   -0.170649
     3  C    0.015462
     4  C   -0.161849
     5  C   -0.166129
     6  C    0.022531
     7  H    0.078661
     8  H    0.091165
     9  H    0.085285
    10  H    0.089926
    11  H    0.090375
    12  H    0.088681
    13  H    0.086498
    14  H    0.104988
    15  H    0.084037
    16  H    0.081609
    17  H    0.098753
    18  H    0.079004
    19  O   -0.431880
 Sum of MBS Mulliken charges =   0.00000
 MBS Mulliken charges with hydrogens summed into heavy atoms:
               1
     1  C    0.000874
     2  C    0.007014
     3  C    0.205735
     4  C    0.012114
     5  C    0.005854
     6  C    0.200288
    19  O   -0.431880
 Breneman (CHELPG) radii used.
 Generate Potential Derived Charges using the Breneman model, NDens= 1.
 Grid spacing= 0.300 Box extension= 2.800
 NStep X,Y,Z=   36     36     30   Total possible points=       38880
 Number of Points to Fit=   11186

 **********************************************************************

            Electrostatic Properties Using The SCF Density

 **********************************************************************

       Atomic Center    1 is at  -0.234275  1.566260  0.406596
       Atomic Center    2 is at   1.179754  1.147358 -0.104125
       Atomic Center    3 is at   1.593166 -0.334570  0.081148
       Atomic Center    4 is at  -1.299738  0.854668 -0.423178
       Atomic Center    5 is at  -1.585708 -0.590131  0.025603
       Atomic Center    6 is at  -0.352396 -1.422941  0.393999
       Atomic Center    7 is at  -0.372780  1.366099  1.448542
       Atomic Center    8 is at   1.207384  1.363548 -1.151693
       Atomic Center    9 is at   1.643391 -0.547726  1.128498
       Atomic Center   10 is at  -0.945601  0.872274 -1.432721
       Atomic Center   11 is at  -2.111178 -1.051540 -0.784263
       Atomic Center   12 is at  -0.316941  2.618572  0.231361
       Atomic Center   13 is at   1.901664  1.737584  0.420642
       Atomic Center   14 is at   2.558819 -0.442856 -0.366835
       Atomic Center   15 is at  -2.234442  1.370304 -0.350048
       Atomic Center   16 is at  -2.194220 -0.577344  0.905632
       Atomic Center   17 is at  -0.680077 -2.439972  0.450325
       Atomic Center   18 is at   0.029548 -1.105234  1.341671
       Atomic Center   19 is at   0.713703 -1.310947 -0.515172
   11186 points will be used for fitting atomic charges
 Fitting point charges to electrostatic potential
 Charges from ESP fit, RMS=   0.00250 RRMS=   0.25096:
 ESP charges:
               1
     1  C    0.080884
     2  C    0.000331
     3  C    0.246288
     4  C    0.073958
     5  C    0.011590
     6  C    0.345285
     7  H   -0.022210
     8  H    0.020521
     9  H   -0.014036
    10  H   -0.021985
    11  H   -0.002691
    12  H   -0.033685
    13  H   -0.032115
    14  H    0.002991
    15  H   -0.033475
    16  H   -0.037561
    17  H   -0.033803
    18  H   -0.044942
    19  O   -0.505342
 Sum of ESP charges =   0.00000
 ESP charges with hydrogens summed into heavy atoms:
               1
     1  C    0.024989
     2  C   -0.011264
     3  C    0.235243
     4  C    0.018497
     5  C   -0.028662
     6  C    0.266540
    19  O   -0.505342
 Charge=   0.00000 Dipole=    -0.2422     1.0750     1.2487 Tot=     1.6654
 -----------------------------------------------------------------

              Electrostatic Properties (Atomic Units)

 -----------------------------------------------------------------
    Center     Electric         -------- Electric Field --------
               Potential          X             Y             Z
 -----------------------------------------------------------------
    1 Atom    -14.784226
    2 Atom    -14.782699
    3 Atom    -14.737011
    4 Atom    -14.790464
    5 Atom    -14.790418
    6 Atom    -14.744821
    7 Atom     -1.129639
    8 Atom     -1.131406
    9 Atom     -1.124600
   10 Atom     -1.139290
   11 Atom     -1.137148
   12 Atom     -1.133375
   13 Atom     -1.125818
   14 Atom     -1.127691
   15 Atom     -1.138130
   16 Atom     -1.129865
   17 Atom     -1.132109
   18 Atom     -1.127036
   19 Atom    -22.373402
 -----------------------------------------------------------------
 ******************************Gaussian NBO Version 3.1******************************
             N A T U R A L   A T O M I C   O R B I T A L   A N D
          N A T U R A L   B O N D   O R B I T A L   A N A L Y S I S
 ******************************Gaussian NBO Version 3.1******************************
       /RESON  / : Allow strongly delocalized NBO set

 Analyzing the SCF density

 Job title: Title Card Required                                             

 Storage needed:    154556 in NPA ( 104855605 available)


 NATURAL POPULATIONS:  Natural atomic orbital occupancies 
                                                          
   NAO  Atom  No  lang   Type(AO)    Occupancy      Energy
 ----------------------------------------------------------
     1    C    1  S      Cor( 1S)     1.99927     -10.01802
     2    C    1  S      Val( 2S)     1.01821      -0.21046
     3    C    1  S      Ryd( 3S)     0.00118       0.64690
     4    C    1  S      Ryd( 4S)     0.00051       1.15589
     5    C    1  S      Ryd( 5S)     0.00000      23.30215
     6    C    1  px     Val( 2p)     1.02899      -0.07038
     7    C    1  px     Ryd( 4p)     0.00133       0.53441
     8    C    1  px     Ryd( 3p)     0.00077       0.32259
     9    C    1  px     Ryd( 5p)     0.00013       3.12047
    10    C    1  py     Val( 2p)     1.16871      -0.07855
    11    C    1  py     Ryd( 4p)     0.00457       0.68682
    12    C    1  py     Ryd( 3p)     0.00042       0.24446
    13    C    1  py     Ryd( 5p)     0.00005       3.22424
    14    C    1  pz     Val( 2p)     1.15325      -0.07241
    15    C    1  pz     Ryd( 4p)     0.00153       0.58176
    16    C    1  pz     Ryd( 3p)     0.00026       0.26372
    17    C    1  pz     Ryd( 5p)     0.00007       3.15880
    18    C    1  dxy    Ryd( 3d)     0.00045       1.97994
    19    C    1  dxz    Ryd( 3d)     0.00050       2.07814
    20    C    1  dyz    Ryd( 3d)     0.00028       1.97786
    21    C    1  dx2y2  Ryd( 3d)     0.00102       2.26066
    22    C    1  dz2    Ryd( 3d)     0.00107       2.27658

    23    C    2  S      Cor( 1S)     1.99926     -10.02389
    24    C    2  S      Val( 2S)     1.03670      -0.22673
    25    C    2  S      Ryd( 4S)     0.00145       0.93166
    26    C    2  S      Ryd( 3S)     0.00064       0.90667
    27    C    2  S      Ryd( 5S)     0.00000      23.24308
    28    C    2  px     Val( 2p)     1.09099      -0.07670
    29    C    2  px     Ryd( 4p)     0.00257       0.62243
    30    C    2  px     Ryd( 3p)     0.00080       0.29998
    31    C    2  px     Ryd( 5p)     0.00009       3.13277
    32    C    2  py     Val( 2p)     1.07605      -0.08157
    33    C    2  py     Ryd( 4p)     0.00178       0.58104
    34    C    2  py     Ryd( 3p)     0.00057       0.31146
    35    C    2  py     Ryd( 5p)     0.00011       3.11058
    36    C    2  pz     Val( 2p)     1.18334      -0.07572
    37    C    2  pz     Ryd( 4p)     0.00165       0.62071
    38    C    2  pz     Ryd( 3p)     0.00021       0.25187
    39    C    2  pz     Ryd( 5p)     0.00004       3.16304
    40    C    2  dxy    Ryd( 3d)     0.00072       2.14717
    41    C    2  dxz    Ryd( 3d)     0.00057       2.02952
    42    C    2  dyz    Ryd( 3d)     0.00045       1.97997
    43    C    2  dx2y2  Ryd( 3d)     0.00057       2.15000
    44    C    2  dz2    Ryd( 3d)     0.00097       2.26198

    45    C    3  S      Cor( 1S)     1.99912     -10.08161
    46    C    3  S      Val( 2S)     1.00518      -0.22686
    47    C    3  S      Ryd( 4S)     0.00201       1.02170
    48    C    3  S      Ryd( 3S)     0.00044       0.87077
    49    C    3  S      Ryd( 5S)     0.00001      23.22559
    50    C    3  px     Val( 2p)     1.00703      -0.07996
    51    C    3  px     Ryd( 4p)     0.00349       0.78987
    52    C    3  px     Ryd( 3p)     0.00048       0.32156
    53    C    3  px     Ryd( 5p)     0.00013       2.94987
    54    C    3  py     Val( 2p)     0.90153      -0.06577
    55    C    3  py     Ryd( 4p)     0.00376       0.64545
    56    C    3  py     Ryd( 3p)     0.00050       0.38732
    57    C    3  py     Ryd( 5p)     0.00017       2.93918
    58    C    3  pz     Val( 2p)     1.08418      -0.08039
    59    C    3  pz     Ryd( 4p)     0.00339       0.67788
    60    C    3  pz     Ryd( 3p)     0.00026       0.36158
    61    C    3  pz     Ryd( 5p)     0.00014       2.98454
    62    C    3  dxy    Ryd( 3d)     0.00171       2.02456
    63    C    3  dxz    Ryd( 3d)     0.00118       2.00230
    64    C    3  dyz    Ryd( 3d)     0.00117       1.93068
    65    C    3  dx2y2  Ryd( 3d)     0.00193       2.17435
    66    C    3  dz2    Ryd( 3d)     0.00142       2.25646

    67    C    4  S      Cor( 1S)     1.99927     -10.01098
    68    C    4  S      Val( 2S)     1.01283      -0.20243
    69    C    4  S      Ryd( 3S)     0.00134       0.85514
    70    C    4  S      Ryd( 4S)     0.00067       0.94880
    71    C    4  S      Ryd( 5S)     0.00000      23.26422
    72    C    4  px     Val( 2p)     1.14299      -0.06763
    73    C    4  px     Ryd( 4p)     0.00507       0.73096
    74    C    4  px     Ryd( 3p)     0.00056       0.27858
    75    C    4  px     Ryd( 5p)     0.00007       3.23799
    76    C    4  py     Val( 2p)     1.05957      -0.06676
    77    C    4  py     Ryd( 4p)     0.00249       0.58260
    78    C    4  py     Ryd( 3p)     0.00076       0.34431
    79    C    4  py     Ryd( 5p)     0.00011       3.10348
    80    C    4  pz     Val( 2p)     1.15033      -0.07218
    81    C    4  pz     Ryd( 4p)     0.00150       0.54678
    82    C    4  pz     Ryd( 3p)     0.00029       0.29999
    83    C    4  pz     Ryd( 5p)     0.00007       3.09247
    84    C    4  dxy    Ryd( 3d)     0.00078       2.21707
    85    C    4  dxz    Ryd( 3d)     0.00053       2.08744
    86    C    4  dyz    Ryd( 3d)     0.00038       1.97733
    87    C    4  dx2y2  Ryd( 3d)     0.00068       2.13124
    88    C    4  dz2    Ryd( 3d)     0.00097       2.25229

    89    C    5  S      Cor( 1S)     1.99927     -10.01379
    90    C    5  S      Val( 2S)     1.02659      -0.21275
    91    C    5  S      Ryd( 4S)     0.00135       0.93867
    92    C    5  S      Ryd( 3S)     0.00068       0.83387
    93    C    5  S      Ryd( 5S)     0.00000      23.29666
    94    C    5  px     Val( 2p)     1.11139      -0.08032
    95    C    5  px     Ryd( 4p)     0.00233       0.54098
    96    C    5  px     Ryd( 3p)     0.00038       0.28406
    97    C    5  px     Ryd( 5p)     0.00008       3.06835
    98    C    5  py     Val( 2p)     1.05685      -0.06918
    99    C    5  py     Ryd( 4p)     0.00176       0.59014
   100    C    5  py     Ryd( 3p)     0.00074       0.33234
   101    C    5  py     Ryd( 5p)     0.00014       3.08472
   102    C    5  pz     Val( 2p)     1.18634      -0.06714
   103    C    5  pz     Ryd( 4p)     0.00321       0.67753
   104    C    5  pz     Ryd( 3p)     0.00033       0.24388
   105    C    5  pz     Ryd( 5p)     0.00006       3.20076
   106    C    5  dxy    Ryd( 3d)     0.00067       2.15030
   107    C    5  dxz    Ryd( 3d)     0.00105       2.26968
   108    C    5  dyz    Ryd( 3d)     0.00054       2.06508
   109    C    5  dx2y2  Ryd( 3d)     0.00049       2.11031
   110    C    5  dz2    Ryd( 3d)     0.00057       2.08116

   111    C    6  S      Cor( 1S)     1.99917     -10.07041
   112    C    6  S      Val( 2S)     0.98782      -0.20829
   113    C    6  S      Ryd( 4S)     0.00254       1.00644
   114    C    6  S      Ryd( 3S)     0.00046       0.95803
   115    C    6  S      Ryd( 5S)     0.00001      23.13287
   116    C    6  px     Val( 2p)     0.89057      -0.05770
   117    C    6  px     Ryd( 4p)     0.00318       0.75937
   118    C    6  px     Ryd( 3p)     0.00057       0.35366
   119    C    6  px     Ryd( 5p)     0.00016       2.93988
   120    C    6  py     Val( 2p)     1.15881      -0.08521
   121    C    6  py     Ryd( 4p)     0.00457       0.90284
   122    C    6  py     Ryd( 3p)     0.00045       0.31861
   123    C    6  py     Ryd( 5p)     0.00013       2.97149
   124    C    6  pz     Val( 2p)     0.96278      -0.07111
   125    C    6  pz     Ryd( 4p)     0.00281       0.64130
   126    C    6  pz     Ryd( 3p)     0.00037       0.33081
   127    C    6  pz     Ryd( 5p)     0.00023       2.95983
   128    C    6  dxy    Ryd( 3d)     0.00148       2.15085
   129    C    6  dxz    Ryd( 3d)     0.00203       2.20332
   130    C    6  dyz    Ryd( 3d)     0.00086       1.89346
   131    C    6  dx2y2  Ryd( 3d)     0.00172       2.15621
   132    C    6  dz2    Ryd( 3d)     0.00146       2.16766

   133    H    7  S      Val( 1S)     0.81168       0.04789
   134    H    7  S      Ryd( 2S)     0.00142       0.87963
   135    H    7  S      Ryd( 3S)     0.00011       1.95608
   136    H    7  px     Ryd( 2p)     0.00015       1.77758
   137    H    7  py     Ryd( 2p)     0.00012       1.90268
   138    H    7  pz     Ryd( 2p)     0.00033       2.74949

   139    H    8  S      Val( 1S)     0.80631       0.04902
   140    H    8  S      Ryd( 2S)     0.00171       1.04127
   141    H    8  S      Ryd( 3S)     0.00013       1.81108
   142    H    8  px     Ryd( 2p)     0.00013       1.82760
   143    H    8  py     Ryd( 2p)     0.00014       1.89083
   144    H    8  pz     Ryd( 2p)     0.00033       2.71411

   145    H    9  S      Val( 1S)     0.84697       0.02110
   146    H    9  S      Ryd( 2S)     0.00174       0.90856
   147    H    9  S      Ryd( 3S)     0.00010       1.92347
   148    H    9  px     Ryd( 2p)     0.00022       1.90093
   149    H    9  py     Ryd( 2p)     0.00024       1.83272
   150    H    9  pz     Ryd( 2p)     0.00043       2.72606

   151    H   10  S      Val( 1S)     0.80536       0.05811
   152    H   10  S      Ryd( 2S)     0.00158       1.18332
   153    H   10  S      Ryd( 3S)     0.00017       1.67355
   154    H   10  px     Ryd( 2p)     0.00014       1.93675
   155    H   10  py     Ryd( 2p)     0.00015       1.81644
   156    H   10  pz     Ryd( 2p)     0.00032       2.68971

   157    H   11  S      Val( 1S)     0.80271       0.05547
   158    H   11  S      Ryd( 2S)     0.00115       0.84980
   159    H   11  S      Ryd( 3S)     0.00015       1.98848
   160    H   11  px     Ryd( 2p)     0.00016       2.11486
   161    H   11  py     Ryd( 2p)     0.00020       1.97844
   162    H   11  pz     Ryd( 2p)     0.00024       2.34863

   163    H   12  S      Val( 1S)     0.80101       0.05341
   164    H   12  S      Ryd( 2S)     0.00094       0.74616
   165    H   12  S      Ryd( 3S)     0.00011       2.10692
   166    H   12  px     Ryd( 2p)     0.00017       1.78808
   167    H   12  py     Ryd( 2p)     0.00031       2.73214
   168    H   12  pz     Ryd( 2p)     0.00012       1.86612

   169    H   13  S      Val( 1S)     0.80100       0.04562
   170    H   13  S      Ryd( 2S)     0.00117       0.75891
   171    H   13  S      Ryd( 3S)     0.00011       2.07012
   172    H   13  px     Ryd( 2p)     0.00025       2.24446
   173    H   13  py     Ryd( 2p)     0.00023       2.11222
   174    H   13  pz     Ryd( 2p)     0.00016       2.04807

   175    H   14  S      Val( 1S)     0.81774       0.04187
   176    H   14  S      Ryd( 2S)     0.00076       0.68351
   177    H   14  S      Ryd( 3S)     0.00017       2.07409
   178    H   14  px     Ryd( 2p)     0.00037       2.60182
   179    H   14  py     Ryd( 2p)     0.00019       1.79857
   180    H   14  pz     Ryd( 2p)     0.00016       1.97854

   181    H   15  S      Val( 1S)     0.80396       0.05560
   182    H   15  S      Ryd( 2S)     0.00090       0.74581
   183    H   15  S      Ryd( 3S)     0.00012       2.10718
   184    H   15  px     Ryd( 2p)     0.00029       2.55512
   185    H   15  py     Ryd( 2p)     0.00024       2.03367
   186    H   15  pz     Ryd( 2p)     0.00010       1.84666

   187    H   16  S      Val( 1S)     0.80809       0.04391
   188    H   16  S      Ryd( 2S)     0.00136       0.83871
   189    H   16  S      Ryd( 3S)     0.00011       2.02371
   190    H   16  px     Ryd( 2p)     0.00021       2.18406
   191    H   16  py     Ryd( 2p)     0.00020       1.81971
   192    H   16  pz     Ryd( 2p)     0.00024       2.43881

   193    H   17  S      Val( 1S)     0.82174       0.04095
   194    H   17  S      Ryd( 2S)     0.00097       0.68442
   195    H   17  S      Ryd( 3S)     0.00017       2.09509
   196    H   17  px     Ryd( 2p)     0.00019       1.88591
   197    H   17  py     Ryd( 2p)     0.00046       2.69737
   198    H   17  pz     Ryd( 2p)     0.00010       1.83235

   199    H   18  S      Val( 1S)     0.84769       0.02046
   200    H   18  S      Ryd( 2S)     0.00197       0.95537
   201    H   18  S      Ryd( 3S)     0.00013       1.88670
   202    H   18  px     Ryd( 2p)     0.00031       1.95380
   203    H   18  py     Ryd( 2p)     0.00026       1.90577
   204    H   18  pz     Ryd( 2p)     0.00046       2.61490

   205    O   19  S      Cor( 1S)     1.99978     -18.91830
   206    O   19  S      Val( 2S)     1.63323      -0.85925
   207    O   19  S      Ryd( 3S)     0.00546       0.81467
   208    O   19  S      Ryd( 4S)     0.00015       1.59270
   209    O   19  S      Ryd( 5S)     0.00000      49.63160
   210    O   19  px     Val( 2p)     1.49556      -0.27120
   211    O   19  px     Ryd( 3p)     0.00391       0.73514
   212    O   19  px     Ryd( 4p)     0.00098       0.91525
   213    O   19  px     Ryd( 5p)     0.00001       5.18285
   214    O   19  py     Val( 2p)     1.72436      -0.28542
   215    O   19  py     Ryd( 3p)     0.00472       0.64659
   216    O   19  py     Ryd( 4p)     0.00106       0.90170
   217    O   19  py     Ryd( 5p)     0.00002       5.10260
   218    O   19  pz     Val( 2p)     1.72495      -0.29863
   219    O   19  pz     Ryd( 3p)     0.00180       0.56920
   220    O   19  pz     Ryd( 4p)     0.00070       0.87387
   221    O   19  pz     Ryd( 5p)     0.00005       5.10879
   222    O   19  dxy    Ryd( 3d)     0.00049       3.26799
   223    O   19  dxz    Ryd( 3d)     0.00104       3.40089
   224    O   19  dyz    Ryd( 3d)     0.00091       3.14418
   225    O   19  dx2y2  Ryd( 3d)     0.00042       3.12189
   226    O   19  dz2    Ryd( 3d)     0.00090       3.05906

 WARNING:  Population inversion found on atom  C    1
           Population inversion found on atom  C    2
           Population inversion found on atom  C    3
           Population inversion found on atom  C    4
           Population inversion found on atom  C    5
           Population inversion found on atom  C    6


 Summary of Natural Population Analysis:                  
                                                          
                                       Natural Population 
                Natural  -----------------------------------------------
    Atom  No    Charge         Core      Valence    Rydberg      Total
 -----------------------------------------------------------------------
      C    1   -0.38256      1.99927     4.36916    0.01412     6.38256
      C    2   -0.39952      1.99926     4.38708    0.01318     6.39952
      C    3   -0.01924      1.99912     3.99792    0.02220     6.01924
      C    4   -0.38128      1.99927     4.36573    0.01628     6.38128
      C    5   -0.39482      1.99927     4.38117    0.01438     6.39482
      C    6   -0.02219      1.99917     3.99998    0.02304     6.02219
      H    7    0.18617      0.00000     0.81168    0.00214     0.81383
      H    8    0.19125      0.00000     0.80631    0.00243     0.80875
      H    9    0.15030      0.00000     0.84697    0.00273     0.84970
      H   10    0.19228      0.00000     0.80536    0.00236     0.80772
      H   11    0.19538      0.00000     0.80271    0.00191     0.80462
      H   12    0.19734      0.00000     0.80101    0.00165     0.80266
      H   13    0.19708      0.00000     0.80100    0.00192     0.80292
      H   14    0.18061      0.00000     0.81774    0.00165     0.81939
      H   15    0.19438      0.00000     0.80396    0.00166     0.80562
      H   16    0.18979      0.00000     0.80809    0.00212     0.81021
      H   17    0.17636      0.00000     0.82174    0.00189     0.82364
      H   18    0.14918      0.00000     0.84769    0.00313     0.85082
      O   19   -0.60052      1.99978     6.57809    0.02264     8.60052
 =======================================================================
   * Total *    0.00000     13.99515    41.85341    0.15144    56.00000

                                 Natural Population      
 --------------------------------------------------------
   Core                      13.99515 ( 99.9654% of  14)
   Valence                   41.85341 ( 99.6510% of  42)
   Natural Minimal Basis     55.84856 ( 99.7296% of  56)
   Natural Rydberg Basis      0.15144 (  0.2704% of  56)
 --------------------------------------------------------

    Atom  No          Natural Electron Configuration
 ----------------------------------------------------------------------------
      C    1      [core]2S( 1.02)2p( 3.35)4p( 0.01)
      C    2      [core]2S( 1.04)2p( 3.35)4p( 0.01)
      C    3      [core]2S( 1.01)2p( 2.99)3d( 0.01)4p( 0.01)
      C    4      [core]2S( 1.01)2p( 3.35)4p( 0.01)
      C    5      [core]2S( 1.03)2p( 3.35)4p( 0.01)
      C    6      [core]2S( 0.99)2p( 3.01)3d( 0.01)4p( 0.01)
      H    7            1S( 0.81)
      H    8            1S( 0.81)
      H    9            1S( 0.85)
      H   10            1S( 0.81)
      H   11            1S( 0.80)
      H   12            1S( 0.80)
      H   13            1S( 0.80)
      H   14            1S( 0.82)
      H   15            1S( 0.80)
      H   16            1S( 0.81)
      H   17            1S( 0.82)
      H   18            1S( 0.85)
      O   19      [core]2S( 1.63)2p( 4.94)3S( 0.01)3p( 0.01)


 NBO analysis skipped by request.
 Calling FoFJK, ICntrl=      2127 FMM=F ISym2X=0 I1Cent= 0 IOpClX= 0 NMat=1 NMatS=1 NMatT=0.
 ***** Axes restored to original set *****
 -------------------------------------------------------------------
 Center     Atomic                   Forces (Hartrees/Bohr)
 Number     Number              X              Y              Z
 -------------------------------------------------------------------
      1        6           0.023696986    0.007450750    0.020430171
      2        6          -0.021905233    0.023511302   -0.000070282
      3        6          -0.000471282   -0.022222717    0.017037044
      4        6          -0.001623154    0.016356624   -0.017844916
      5        6           0.021295792   -0.013491812   -0.006275386
      6        6          -0.017377297   -0.007450483    0.021827687
      7        1          -0.005911889    0.006585877   -0.015158942
      8        1           0.008290216   -0.011927225    0.009145613
      9        1           0.003540357    0.008243999   -0.016125412
     10        1           0.004579928   -0.004900240    0.016042014
     11        1          -0.004967618    0.008762422    0.014807158
     12        1          -0.005487972   -0.015056665   -0.006403688
     13        1           0.011007365   -0.008162670   -0.012534526
     14        1           0.015933592    0.002748308    0.001564063
     15        1          -0.012676487   -0.011475814    0.005586774
     16        1          -0.017556121    0.005167109   -0.003748822
     17        1           0.003197700    0.017745839    0.003853631
     18        1          -0.011164162    0.009280805   -0.013772018
     19        8           0.007599279   -0.011165409   -0.018360164
 -------------------------------------------------------------------
 Cartesian Forces:  Max     0.023696986 RMS     0.012810573

 GradGradGradGradGradGradGradGradGradGradGradGradGradGradGradGradGradGrad
 Berny optimization.
 FormGI is forming the generalized inverse of G from B-inverse, IUseBI=4.
 Internal  Forces:  Max     0.027674847 RMS     0.007842938
 Search for a local minimum.
 Step number   1 out of a maximum of  114
 All quantities printed in internal units (Hartrees-Bohrs-Radians)
 Mixed Optimization -- RFO/linear search
 Second derivative matrix not updated -- first step.
 ITU=  0
     Eigenvalues ---    0.00294   0.00506   0.00771   0.01641   0.02451
     Eigenvalues ---    0.03317   0.03372   0.04296   0.04527   0.04566
     Eigenvalues ---    0.04826   0.05064   0.05425   0.05788   0.06091
     Eigenvalues ---    0.06586   0.07246   0.07740   0.07963   0.08409
     Eigenvalues ---    0.08602   0.08879   0.10202   0.11809   0.11828
     Eigenvalues ---    0.12072   0.12734   0.13761   0.15070   0.16722
     Eigenvalues ---    0.20733   0.22556   0.26382   0.27186   0.28200
     Eigenvalues ---    0.28598   0.29223   0.37230   0.37230   0.37230
     Eigenvalues ---    0.37230   0.37230   0.37230   0.37230   0.37230
     Eigenvalues ---    0.37230   0.37230   0.37230   0.37230   0.38165
     Eigenvalues ---    0.42840
 RFO step:  Lambda=-3.04709060D-02 EMin= 2.93811435D-03
 Linear search not attempted -- first point.
 Iteration  1 RMS(Cart)=  0.08706833 RMS(Int)=  0.00381406
 Iteration  2 RMS(Cart)=  0.00427973 RMS(Int)=  0.00064925
 Iteration  3 RMS(Cart)=  0.00001437 RMS(Int)=  0.00064915
 Iteration  4 RMS(Cart)=  0.00000001 RMS(Int)=  0.00064915
 Variable       Old X    -DE/DX   Delta X   Delta X   Delta X     New X
                                 (Linear)    (Quad)   (Total)
    R1        2.94930   0.00308   0.00000  -0.00478  -0.00554   2.94376
    R2        2.88460   0.01313   0.00000   0.04287   0.04314   2.92775
    R3        2.02201   0.01710   0.00000   0.04246   0.04246   2.06447
    R4        2.02201   0.01652   0.00000   0.04102   0.04102   2.06303
    R5        2.92837  -0.00464   0.00000  -0.02090  -0.02072   2.90765
    R6        2.02201   0.01630   0.00000   0.04047   0.04047   2.06248
    R7        2.02201   0.01757   0.00000   0.04362   0.04362   2.06563
    R8        2.02201   0.01629   0.00000   0.04045   0.04045   2.06246
    R9        2.02201   0.01562   0.00000   0.03879   0.03879   2.06080
   R10        2.72695   0.00168   0.00000   0.00169   0.00163   2.72858
   R11        2.90958   0.00581   0.00000   0.01735   0.01683   2.92641
   R12        2.02201   0.01552   0.00000   0.03852   0.03852   2.06053
   R13        2.02201   0.01680   0.00000   0.04170   0.04170   2.06371
   R14        2.89711  -0.00051   0.00000   0.00537   0.00529   2.90240
   R15        2.02201   0.01640   0.00000   0.04071   0.04071   2.06272
   R16        2.02201   0.01782   0.00000   0.04424   0.04424   2.06624
   R17        2.02201   0.01738   0.00000   0.04315   0.04315   2.06516
   R18        2.02201   0.01453   0.00000   0.03607   0.03607   2.05808
   R19        2.65619   0.02094   0.00000   0.05406   0.05512   2.71131
    A1        1.90645  -0.00136   0.00000   0.03254   0.03156   1.93802
    A2        1.96679   0.00094   0.00000  -0.01293  -0.01433   1.95246
    A3        1.85498  -0.00123   0.00000  -0.00906  -0.00809   1.84689
    A4        1.93027   0.00368   0.00000   0.02184   0.02253   1.95280
    A5        1.89179  -0.00012   0.00000  -0.00798  -0.00810   1.88369
    A6        1.91076  -0.00215   0.00000  -0.02578  -0.02606   1.88470
    A7        2.04796   0.00239   0.00000  -0.00601  -0.00845   2.03951
    A8        1.86455  -0.00334   0.00000  -0.00715  -0.00680   1.85775
    A9        1.87835   0.00534   0.00000   0.04284   0.04400   1.92236
   A10        1.87904   0.00178   0.00000   0.01418   0.01530   1.89434
   A11        1.86386  -0.00403   0.00000  -0.01409  -0.01391   1.84995
   A12        1.92973  -0.00239   0.00000  -0.03292  -0.03315   1.89658
   A13        1.89659   0.00105   0.00000   0.01273   0.01296   1.90954
   A14        1.86240   0.00744   0.00000   0.03522   0.03521   1.89761
   A15        2.02090  -0.00722   0.00000  -0.03333  -0.03354   1.98735
   A16        1.92548  -0.00452   0.00000  -0.03164  -0.03185   1.89363
   A17        1.87372   0.00270   0.00000   0.02166   0.02155   1.89527
   A18        1.88444   0.00029   0.00000  -0.00701  -0.00614   1.87831
   A19        1.99176   0.01384   0.00000   0.04821   0.04698   2.03874
   A20        1.84855  -0.00632   0.00000  -0.00184  -0.00047   1.84807
   A21        1.92616   0.00154   0.00000   0.01034   0.00872   1.93489
   A22        1.93042  -0.00449   0.00000  -0.03432  -0.03492   1.89550
   A23        1.84423  -0.00373   0.00000   0.01361   0.01331   1.85754
   A24        1.92375  -0.00094   0.00000  -0.03924  -0.03941   1.88434
   A25        2.01570  -0.00489   0.00000  -0.00523  -0.00729   2.00841
   A26        1.84964  -0.00114   0.00000   0.01627   0.01719   1.86684
   A27        1.91149   0.00670   0.00000   0.01420   0.01446   1.92595
   A28        1.92058   0.00571   0.00000   0.00548   0.00545   1.92603
   A29        1.84041  -0.00302   0.00000   0.00043   0.00163   1.84204
   A30        1.92663  -0.00337   0.00000  -0.03376  -0.03409   1.89254
   A31        1.85732   0.00836   0.00000   0.04197   0.04255   1.89987
   A32        1.91632  -0.00580   0.00000  -0.03508  -0.03494   1.88138
   A33        1.99484  -0.00381   0.00000  -0.00680  -0.00771   1.98713
   A34        1.92295  -0.00454   0.00000  -0.04217  -0.04184   1.88111
   A35        1.91990   0.00122   0.00000  -0.01399  -0.01407   1.90584
   A36        1.85300   0.00413   0.00000   0.05198   0.05266   1.90566
   A37        1.82231   0.02767   0.00000   0.18169   0.18200   2.00430
    D1       -1.14573  -0.00331   0.00000  -0.04217  -0.04268  -1.18841
    D2        0.96400  -0.00202   0.00000  -0.03324  -0.03361   0.93039
    D3        3.03676  -0.00382   0.00000  -0.05331  -0.05344   2.98332
    D4        1.00705   0.00108   0.00000   0.00072  -0.00007   1.00697
    D5        3.11677   0.00237   0.00000   0.00965   0.00900   3.12577
    D6       -1.09365   0.00057   0.00000  -0.01042  -0.01083  -1.10448
    D7        3.09987  -0.00182   0.00000  -0.04431  -0.04465   3.05523
    D8       -1.07359  -0.00054   0.00000  -0.03538  -0.03557  -1.10916
    D9        0.99918  -0.00233   0.00000  -0.05545  -0.05540   0.94377
   D10        1.42780   0.00150   0.00000   0.00458   0.00318   1.43099
   D11       -0.69995   0.00309   0.00000   0.01936   0.01856  -0.68138
   D12       -2.78194   0.00709   0.00000   0.06173   0.06116  -2.72078
   D13       -0.74649  -0.00126   0.00000  -0.01661  -0.01772  -0.76421
   D14       -2.87424   0.00033   0.00000  -0.00184  -0.00234  -2.87658
   D15        1.32695   0.00433   0.00000   0.04054   0.04026   1.36721
   D16       -2.84128  -0.00075   0.00000   0.00686   0.00596  -2.83533
   D17        1.31415   0.00083   0.00000   0.02164   0.02134   1.33549
   D18       -0.76784   0.00483   0.00000   0.06401   0.06394  -0.70391
   D19       -1.11386  -0.00472   0.00000  -0.07400  -0.07417  -1.18803
   D20        3.09316  -0.00405   0.00000  -0.06281  -0.06330   3.02986
   D21        0.99554  -0.00533   0.00000  -0.05877  -0.05946   0.93608
   D22        3.06719  -0.00335   0.00000  -0.07172  -0.07153   2.99567
   D23        0.99103  -0.00267   0.00000  -0.06054  -0.06066   0.93037
   D24       -1.10660  -0.00395   0.00000  -0.05649  -0.05681  -1.16340
   D25        0.99443   0.00067   0.00000  -0.03309  -0.03328   0.96115
   D26       -1.08173   0.00134   0.00000  -0.02190  -0.02241  -1.10414
   D27        3.10383   0.00006   0.00000  -0.01786  -0.01856   3.08527
   D28       -1.38968   0.00576   0.00000   0.05982   0.05982  -1.32986
   D29        0.73199   0.00437   0.00000   0.07061   0.07016   0.80215
   D30        2.80788   0.00066   0.00000   0.04128   0.04082   2.84870
   D31       -0.72844   0.01072   0.00000   0.08904   0.08855  -0.63989
   D32       -2.85950   0.00740   0.00000   0.07329   0.07343  -2.78607
   D33        1.34542   0.00851   0.00000   0.09660   0.09645   1.44186
   D34        1.35362   0.00876   0.00000   0.09470   0.09367   1.44729
   D35       -0.77744   0.00543   0.00000   0.07895   0.07855  -0.69889
   D36       -2.85571   0.00655   0.00000   0.10226   0.10156  -2.75414
   D37       -2.84783   0.00305   0.00000   0.03759   0.03672  -2.81111
   D38        1.30429  -0.00027   0.00000   0.02184   0.02160   1.32589
   D39       -0.77398   0.00084   0.00000   0.04516   0.04462  -0.72936
   D40       -2.90888   0.00381   0.00000   0.04823   0.04806  -2.86082
   D41        1.29346   0.00752   0.00000   0.09315   0.09303   1.38649
   D42       -0.78624   0.00893   0.00000   0.05618   0.05588  -0.73036
   D43       -0.81620   0.00325   0.00000   0.07003   0.06964  -0.74656
   D44       -2.89705   0.00696   0.00000   0.11496   0.11461  -2.78244
   D45        1.30643   0.00837   0.00000   0.07799   0.07747   1.38390
   D46        1.26156   0.00050   0.00000   0.03315   0.03307   1.29463
   D47       -0.81928   0.00421   0.00000   0.07808   0.07804  -0.74124
   D48       -2.89899   0.00561   0.00000   0.04110   0.04090  -2.85809
   D49        1.70674  -0.00621   0.00000  -0.06359  -0.06415   1.64259
   D50       -2.48860   0.00287   0.00000  -0.02428  -0.02483  -2.51343
   D51       -0.40833   0.00051   0.00000  -0.05191  -0.05236  -0.46069
         Item               Value     Threshold  Converged?
 Maximum Force            0.027675     0.000450     NO 
 RMS     Force            0.007843     0.000300     NO 
 Maximum Displacement     0.404365     0.001800     NO 
 RMS     Displacement     0.086187     0.001200     NO 
 Predicted change in Energy=-1.897539D-02
 GradGradGradGradGradGradGradGradGradGradGradGradGradGradGradGradGradGrad

                          Input orientation:                          
 ---------------------------------------------------------------------
 Center     Atomic      Atomic             Coordinates (Angstroms)
 Number     Number       Type             X           Y           Z
 ---------------------------------------------------------------------
      1          6           0       -0.043932   -0.877054   -0.039898
      2          6           0        1.510576   -0.776328   -0.037214
      3          6           0        2.115439    0.636583    0.035644
      4          6           0       -0.631665   -0.445365    1.327047
[...]
 631,-0.05732270,0.49828704,-0.09264453,0.01201570,0.03155467,-0.017346
 23,0.01047966,0.03105436,0.00046375,0.00088437,0.00083263,0.57036944,0
 .00811942,-0.08735647,-0.01994319,0.00014388,0.00103669,0.00359203,-0.
 00094781,0.00174870,0.00177195,0.01540412,0.46975196,0.03469217,-0.022
 79989,-0.15360291,0.00653094,0.00098943,-0.00220070,-0.00043314,0.0011
 0351,0.00085828,0.03454718,-0.03426396,0.49548067,-0.00045959,0.011687
 58,-0.00078987,0.00054134,0.00098635,-0.00008192,-0.00176970,-0.003087
 20,-0.00118014,-0.07897764,0.01405422,0.00451194,0.51031810,0.00052928
 ,-0.00776059,-0.00631678,0.00031733,0.00072928,0.00094253,0.00160183,0
 .00287775,0.00067988,0.00965077,-0.16973005,-0.00901322,-0.03226502,0.
 45533778,0.00009243,-0.03057871,-0.00431788,-0.00039825,-0.00002787,0.
 00019249,0.00061090,-0.00097217,-0.00118702,0.00523970,-0.01288742,-0.
 08056265,0.02701356,-0.00465458,0.57023893,0.00282507,0.00029433,0.000
 00909,0.00313164,-0.00091083,-0.00346220,-0.02442680,0.01502745,0.0118
 2750,0.00286783,-0.00500535,-0.00567755,-0.11138381,-0.03973051,0.0334
 9376,0.41900120,-0.00215614,0.00089467,-0.00141486,0.00163027,-0.00041
 330,-0.00087603,0.02562041,-0.01747150,-0.00096536,-0.02636478,-0.0207
 7783,0.01077838,-0.03851204,-0.11946317,0.02791043,-0.00728360,0.54449
 840,-0.00025719,-0.00107483,0.00263921,0.00012132,-0.00017691,-0.00024
 333,0.02942733,-0.00707406,-0.00028928,-0.00653719,-0.00257462,0.00355
 785,0.03170225,0.02620309,-0.10281623,0.00477042,0.05290663,0.58964121
 ,-0.08401586,0.04970087,-0.07020997,-0.01436407,0.01842551,-0.02591471
 ,0.00180840,0.00135448,-0.00072371,0.00578714,-0.00750478,0.01011787,0
 .00091598,-0.00035255,-0.00057664,-0.00023547,0.00050256,-0.00071878,0
 .09324660,0.05033704,-0.11845216,0.09918052,-0.00105696,0.00130939,-0.
 00236806,0.00002933,0.00045312,-0.00094918,-0.00420576,0.00555287,-0.0
 0843776,-0.00074155,0.00058535,-0.00004631,-0.00021570,-0.00052422,0.0
 0001795,-0.05663446,0.12695515,-0.07088295,0.09812420,-0.18615293,-0.0
 0025876,-0.00050440,0.00022027,-0.00002147,0.00036852,0.00026735,-0.01
 131441,0.01486851,-0.02314051,-0.00053311,0.00085144,0.00156058,-0.000
 48324,0.00032227,-0.00081041,0.07733691,-0.10848513,0.20531991,-0.0166
 4966,0.01742572,-0.02608264,-0.07802703,0.04603697,-0.06964979,0.00335
 178,-0.00763162,0.01121205,0.00144139,0.00051661,-0.00251373,0.0000488
 4,0.00001725,0.00016812,-0.00019294,0.00004831,-0.00020076,-0.00662885
 ,-0.00073898,0.00034009,0.09043263,-0.00041947,0.00095239,-0.00111358,
 0.04572763,-0.11195916,0.09782116,0.00928536,-0.01920470,0.02814287,0.
 00011250,-0.00000181,0.00037603,-0.00012362,-0.00006326,-0.00007624,0.
 00015864,-0.00001102,0.00019723,-0.00050586,0.00096886,0.00016082,-0.0
 4642333,0.12235502,-0.00016463,0.00015057,-0.00094083,-0.07003610,0.09
 991888,-0.20225641,0.00082184,-0.00115327,-0.00084972,0.00134434,-0.00
 068517,0.00111719,0.00004617,-0.00011392,-0.00001652,0.00046105,-0.000
 05230,-0.00005695,0.00032767,-0.00073823,0.00106783,0.07654987,-0.1109
 4307,0.21812653,0.00131300,0.00015441,0.00098401,0.00327644,-0.0079738
 9,0.01016667,-0.06707795,0.02652808,-0.04877019,-0.00014900,0.00003107
 ,0.00010829,-0.00031201,0.00007572,-0.00047885,0.00221349,-0.00151301,
 0.00542342,0.00002118,0.00027462,-0.00033366,0.00009267,-0.00256652,0.
 00033467,0.06438886,0.00151201,0.00090984,0.00025465,0.00778368,-0.017
 77040,0.02661585,0.02786635,-0.10806471,0.10133874,-0.00013109,-0.0000
 5675,0.00003325,0.00026909,-0.00027074,0.00029474,-0.00239324,0.001976
 56,-0.00329419,-0.00099927,0.00049766,-0.00054931,-0.00305794,-0.00554
 535,-0.00048208,-0.03120805,0.12037834,0.00005915,-0.00034589,-0.00000
 682,-0.00152465,0.00085101,0.00083860,-0.04404763,0.09914110,-0.206216
 28,-0.00000148,-0.00005080,0.00001166,0.00041940,-0.00017772,0.0005879
 2,-0.00682882,0.00295584,-0.00045723,0.00062951,0.00007718,0.00001807,
 -0.00037311,-0.00043202,0.00143128,0.04706612,-0.10146012,0.24225997,0
 .00627143,-0.00492414,0.01181083,0.00119813,-0.00095508,0.00177001,-0.
 00007101,-0.00009745,0.00021853,-0.12732854,0.05302372,-0.10559998,-0.
 00173506,0.00171823,-0.00045076,-0.00016688,-0.00002561,0.00032039,-0.
 00068339,0.00040068,0.00315022,0.00019623,0.00031696,-0.00025009,-0.00
 002571,0.00003762,-0.00008610,0.13768149,-0.00378200,0.00350903,-0.005
 87909,-0.00022621,0.00055972,-0.00007014,-0.00013247,-0.00011161,0.000
 10755,0.05165833,-0.08351952,0.07083472,0.01983038,-0.01633604,0.02192
 513,0.00288378,-0.00038112,-0.00028771,0.00081125,0.00024957,-0.001372
 12,-0.00022111,0.00012366,0.00014626,0.00002109,-0.00000250,-0.0000711
 2,-0.06149465,0.09380612,-0.01430023,0.01134802,-0.02678173,-0.0022178
 9,0.00111184,0.00103626,0.00047740,0.00003677,-0.00028652,-0.10410987,
 0.07286399,-0.18322247,0.00354420,-0.00372315,0.00303661,-0.00041525,0
 .00046894,-0.00014743,0.00252267,-0.00264680,-0.00444973,0.00148281,-0
 .00047079,0.00079538,-0.00004814,-0.00025623,0.00009958,0.11173792,-0.
 07401324,0.20397056,0.00058787,0.00127141,0.00023525,0.00010083,-0.000
 28113,-0.00008100,-0.00004341,0.00020684,0.00023033,-0.00056901,0.0024
 3092,0.00461846,-0.04978170,0.00145573,0.00901029,-0.00100944,0.001902
 14,0.02658593,-0.00010086,-0.00000526,0.00011978,0.00000634,0.00006760
 ,-0.00003608,0.00004241,0.00001078,-0.00024592,0.00070039,0.00003242,0
 .00047987,0.04980233,-0.00126678,-0.00604466,0.00084420,-0.00034407,-0
 .00006503,-0.00020114,0.00007784,-0.00043564,-0.00010419,0.00412892,-0
 .00813460,-0.03274407,0.00196481,-0.05212001,-0.04219581,-0.00121809,-
 0.00049255,0.02130372,-0.00019543,0.00018498,0.00017990,0.00010328,0.0
 0000781,0.00002632,0.00007657,0.00000783,-0.00012902,0.00055097,0.0014
 7686,-0.00023685,-0.00047891,0.06496020,-0.00069421,-0.00113438,0.0011
 8813,-0.00010275,0.00012941,0.00001494,-0.00004349,0.00004769,0.000092
 06,-0.00024906,-0.00013805,-0.00406192,0.01107559,-0.04141738,-0.29562
 950,-0.00104703,-0.00017294,-0.01363967,-0.00003180,0.00021465,0.00040
 824,0.00006167,-0.00003546,0.00002210,-0.00012020,0.00008370,0.0001023
 9,0.00032893,0.00006246,0.00164129,-0.01280301,0.04328963,0.32049086,-
 0.05952362,-0.05850261,-0.01224827,-0.01174176,-0.03445431,-0.00392067
 ,-0.00725496,0.00300656,0.00027444,0.00101399,0.01415060,0.00319892,0.
 00012380,0.00035623,0.00312997,-0.00103990,0.00033341,-0.00008369,0.00
 293255,0.01220064,0.00238789,0.00110973,0.00036190,-0.00056981,0.00014
 253,0.00006000,0.00014220,0.00006361,-0.00036559,-0.00013768,-0.000066
 49,0.00091913,0.00033288,0.07136462,-0.05871724,-0.28010757,-0.0388773
 0,-0.00001188,-0.00151568,0.00024641,-0.00080290,0.00144226,-0.0001287
 2,-0.00132148,-0.00869567,-0.00104706,0.00029899,0.00115577,-0.0022599
 9,0.00052721,0.00052757,0.00024137,-0.00379128,-0.01741499,-0.00191053
 ,-0.00043459,0.00038617,-0.00033545,0.00019613,0.00027329,-0.00005352,
 -0.00006935,0.00006305,-0.00044034,0.00017050,-0.00074377,-0.00016055,
 0.06366695,0.30281776,-0.01200146,-0.03812238,-0.05403406,0.00010954,-
 0.00016839,-0.00070689,0.00035634,0.00005150,0.00047558,-0.00425387,-0
 .02973548,-0.00594179,0.00156732,0.00044214,-0.00491356,0.00039104,0.0
 0087420,-0.00054718,0.00640181,0.02378988,0.00392842,0.00007506,-0.000
 34796,-0.00003014,-0.00017068,-0.00032257,0.00012444,-0.00064251,0.000
 40473,0.00019257,0.00037482,-0.00157757,-0.00032911,0.00769692,0.04413
 612,0.05874867,-0.01267657,0.01394473,0.02863825,-0.07641108,0.0380341
 0,0.07119511,0.00357250,-0.00300725,-0.00905556,-0.00617032,-0.0013194
 9,-0.00208830,0.00008027,-0.00024991,0.00005423,-0.00113541,-0.0004665
 9,-0.00008992,0.00081544,0.00047284,-0.00052480,0.00362886,-0.00577201
 ,-0.00905473,0.00044671,0.00034781,0.00005596,0.00019106,-0.00014988,-
 0.00027106,-0.00000755,0.00019293,0.00005013,0.00143250,-0.00037723,0.
 00016442,0.08577714,-0.00103531,0.00030550,0.00263549,0.03834556,-0.09
 595041,-0.08952920,0.01329067,-0.01122400,-0.02667539,-0.00085304,0.00
 084118,0.00045237,-0.00028112,-0.00000994,0.00031906,-0.00201199,0.000
 45671,-0.00011446,0.00021122,-0.00014604,-0.00015386,-0.00635610,0.007
 72002,0.01334566,0.00084106,0.00075057,0.00090638,-0.00005684,0.000007
 14,-0.00036749,-0.00000557,0.00007566,-0.00002106,-0.00003090,0.000660
 35,0.00057020,-0.03986929,0.10394425,-0.00142764,0.00097406,0.00082976
 ,0.07180403,-0.09040511,-0.21776167,0.00076557,0.00146433,-0.00260155,
 0.00036387,0.00048937,0.00054816,-0.00008350,-0.00000775,0.00016978,-0
 .00034705,0.00024316,-0.00003235,0.00054878,-0.00001660,0.00040374,0.0
 0841141,-0.01133647,-0.02089670,-0.00017252,-0.00047100,0.00076977,-0.
 00010777,-0.00016617,0.00061249,-0.00000545,0.00003217,-0.00003574,0.0
 0051551,0.00057251,0.00035669,-0.08008636,0.10026680,0.23592347,0.0010
 4649,-0.00299897,-0.00051988,-0.01153024,0.00010866,-0.00249285,-0.302
 57134,0.00656753,-0.02908663,0.00026108,0.00023279,-0.00012616,-0.0001
 8209,0.00012379,-0.00001865,0.00175195,-0.00062144,0.00228074,0.000293
 14,0.00013059,0.00006263,0.00077291,0.00007598,0.00068793,-0.00555498,
 0.00000503,-0.00205319,0.00000192,-0.00001726,0.00006705,-0.00006413,-
 0.00001053,0.00009613,-0.00092008,-0.00005544,0.00010478,0.00000708,-0
 .00065715,-0.00044414,0.32966429,-0.00003760,-0.00612247,-0.00041351,-
 0.03304881,0.00015311,-0.00255612,0.00273442,-0.04699260,0.00291290,0.
 00013005,-0.00024793,-0.00031081,0.00057464,-0.00060260,0.00003185,0.0
 0108524,-0.00042553,-0.00347863,0.00017283,0.00010712,-0.00019006,0.00
 030521,0.00130721,0.00045969,0.01551514,0.00030451,0.00240366,0.000010
 27,0.00006340,0.00011647,0.00006282,0.00015147,-0.00003505,-0.00199982
 ,-0.00034898,0.00002531,0.00075729,0.00091977,-0.00038000,-0.01117223,
 0.05793375,0.00033332,-0.00007925,0.00079665,0.00095306,0.00204821,0.0
 0104655,-0.03817910,0.00559960,-0.05356192,-0.00025802,-0.00023822,-0.
 00004054,0.00076476,-0.00047387,0.00053816,-0.00016757,-0.00017712,-0.
 00422535,0.00043295,0.00003115,0.00012139,0.00062874,-0.00046759,0.000
 42488,-0.02604812,0.00056052,-0.00138534,0.00000580,0.00001827,0.00003
 009,-0.00005899,-0.00002751,0.00002351,-0.00000108,-0.00015216,0.00027
 777,-0.00007117,0.00008221,0.00006014,0.02637492,0.00452808,0.05828937
 ,-0.01159509,-0.00370761,0.00013611,0.00020745,0.00122626,0.00316454,0
 .00034807,0.00056417,-0.00007687,-0.25708021,-0.09580172,0.01667392,0.
 00333237,0.00369683,-0.00110565,0.00014824,0.00124041,-0.00026154,0.00
 006185,-0.00012831,0.00043315,0.00046482,-0.00014949,0.00006494,0.0000
 0480,-0.00006907,0.00004567,-0.01740044,-0.00724938,0.00078642,-0.0001
 3559,-0.00067139,0.00003289,0.00070297,0.00075818,-0.00004047,-0.00099
 950,-0.00029581,0.00026930,-0.00003739,-0.00003599,-0.00002650,0.27958
 292,0.00933807,0.00198947,-0.00121966,0.00106990,0.00033047,-0.0017465
 3,0.00047075,-0.00071716,-0.00062240,-0.09590262,-0.08760999,0.0086005
 0,-0.02925623,-0.01774370,0.00428627,0.00261536,-0.00579200,-0.0030899
 8,-0.00031949,-0.00004148,0.00015113,-0.00025040,0.00000537,-0.0001288
 0,0.00002554,0.00003321,0.00003385,0.01096796,0.00523183,-0.00154376,0
 .00016175,0.00001864,-0.00064502,0.00075967,0.00098047,0.00004364,0.00
 052605,0.00017223,-0.00026781,-0.00005374,0.00014933,0.00007938,0.1012
 4363,0.10137842,0.02914565,0.01007219,-0.00267358,0.00025242,-0.001186
 55,-0.00525026,0.00022539,-0.00072090,-0.00056399,0.01502186,0.0078873
 8,-0.04944115,-0.00289842,-0.00054996,0.00062910,0.00023123,0.00014904
 ,0.00007221,-0.00042583,0.00058375,0.00007334,0.00002482,-0.00024483,0
 .00024572,0.00001626,0.00002746,0.00002759,-0.02239838,-0.01071650,0.0
 0199692,-0.00003784,0.00026440,-0.00026275,-0.00019364,0.00016133,0.00
 162570,0.00167320,-0.00004622,0.00002139,-0.00000028,0.00017537,0.0001
 0140,-0.02043703,-0.00575571,0.05202638,-0.00009363,0.00035738,-0.0001
 0614,0.00023333,-0.00002059,0.00005634,0.00015999,-0.00138518,-0.00148
 891,-0.00164231,-0.00068909,-0.00103983,-0.23378442,0.06613159,-0.0846
 5293,-0.02053594,0.01000752,-0.01117029,-0.00022647,0.00010290,0.00041
 992,0.00007420,-0.00001467,-0.00001896,-0.00010519,0.00011101,0.000337
 79,0.00100012,-0.00010219,0.00048125,0.00129407,-0.00075546,-0.0002532
 2,0.00009720,0.00004580,0.00020685,-0.00000293,0.00007795,0.00006914,-
 0.00012862,0.00021199,0.00030769,0.00175640,-0.00009061,0.00025889,0.2
 5598038,-0.00035084,-0.00004284,0.00129036,0.00008547,0.00014035,0.000
 11124,-0.00036219,-0.00101562,-0.00055688,0.02692350,-0.01408492,0.014
 51726,0.06528063,-0.06839658,0.02909289,-0.01390541,0.00625356,-0.0066
 8498,-0.00004378,0.00027042,-0.00071958,-0.00018388,0.00009539,-0.0000
 5609,-0.00005351,0.00014480,0.00010089,0.00091116,-0.00588529,-0.00164
 183,-0.00503380,0.00129521,-0.00164549,-0.00014907,0.00000933,-0.00023
 007,0.00006536,0.00006564,-0.00011452,-0.00004068,0.00015011,0.0002071
 3,0.00004093,0.00144096,0.00009156,-0.07072527,0.07950457,0.00035379,-
 0.00009959,0.00083837,-0.00009615,-0.00003081,0.00000546,0.00006226,0.
 00033325,0.00055193,0.00535125,-0.00130733,0.00168570,-0.08595828,0.02
 951588,-0.08729464,0.01251179,-0.00441369,0.00353180,-0.00023435,0.000
 21906,-0.00010750,0.00002559,0.00002934,-0.00007593,-0.00001407,0.0000
 1471,-0.00004529,0.00033025,-0.00047730,0.00088625,-0.02882446,0.00949
 524,-0.01280768,-0.00015994,0.00007794,-0.00007295,-0.00002230,-0.0000
 1687,0.00001514,0.00002923,-0.00011336,-0.00017054,0.00024649,0.000814
 80,0.00071795,0.09247690,-0.03497504,0.09156123,-0.00033005,0.00041303
 ,0.00032174,-0.00070614,0.00029007,0.00094280,-0.00268009,0.00306254,-
 0.00445447,-0.00349292,-0.00083203,0.00166393,0.00214096,-0.02199339,-
 0.00814430,-0.04413414,-0.01131423,-0.00863642,0.00010830,0.00009081,0
 .00002955,0.00000217,-0.00004045,-0.00001692,0.00020053,-0.00038328,0.
 00028037,-0.00002564,-0.00027448,0.00014938,0.00100400,0.00032153,0.00
 010196,0.00010131,-0.00002586,-0.00004465,0.00032950,0.00040478,0.0000
 8098,-0.00050183,0.00077114,0.00085885,0.00003784,-0.00138289,-0.00004
 656,0.00012447,0.00105506,-0.00040262,0.06207277,0.00006760,0.00054543
 ,0.00045373,0.00004525,-0.00009418,-0.00041282,0.00012023,-0.00026977,
 0.00370433,-0.00370553,-0.00020187,0.00125295,-0.00233369,-0.01745336,
 -0.00910551,-0.00574578,-0.24829507,-0.10306034,-0.00003568,0.00007291
 ,-0.00006613,-0.00000509,0.00002246,0.00003034,-0.00012700,0.00012294,
 -0.00016996,0.00005456,-0.00006359,0.00005270,0.00088565,0.00099942,0.
 00050718,-0.00006102,-0.00004382,-0.00004736,-0.00001288,-0.00019512,-
 0.00009309,0.00019226,-0.00028705,-0.00036006,0.00014540,-0.00127070,0
 .00002872,-0.00093645,-0.00046963,0.00014060,-0.00013626,0.27131328,-0
 .00027984,-0.00002443,-0.00035585,-0.00005607,0.00037095,0.00032949,0.
 00026829,0.00029437,-0.00055512,0.00264191,0.00129257,-0.00070058,0.00
 209611,0.01504427,0.00536436,-0.00323337,-0.10745973,-0.10781064,0.000
 11864,-0.00003843,0.00034392,0.00002852,-0.00006639,0.00004201,0.00026
 327,-0.00038672,0.00052457,-0.00008603,-0.00000240,0.00000118,-0.00060
 228,0.00049459,0.00129899,-0.00001442,-0.00014486,0.00020321,0.0000261
 2,0.00008054,0.00001053,0.00016277,-0.00028192,0.00021530,0.00001380,0
 .00084487,0.00007253,0.00001587,-0.00043917,0.00025106,-0.00087181,0.1
 1324484,0.10955587,0.00002324,-0.00024916,-0.00022406,-0.00011973,0.00
 019722,0.00066852,0.00175051,-0.00148301,-0.00772891,0.00009146,0.0006
 7198,0.00027528,0.00117767,-0.00338108,0.02350439,-0.05054026,0.005047
 66,-0.02970986,0.00009464,-0.00025238,-0.00027033,-0.00009887,-0.00025
 478,0.00003468,0.00026605,-0.00048774,0.00192727,0.00000553,-0.0000844
 3,-0.00004378,-0.00259023,-0.00362840,0.00212612,0.00004190,0.00002666
 ,-0.00005333,0.00010529,0.00025532,0.00008510,0.00016334,-0.00031514,0
 .00021321,0.00003327,0.00005173,-0.00002861,0.00105940,0.00003641,0.00
 017668,0.00136107,-0.00080562,-0.00104625,0.07248790,0.00018859,-0.000
 67651,0.00029926,0.00024923,-0.00027579,-0.00029566,-0.00023691,0.0009
 0572,0.00413350,0.00030515,0.00095696,0.00031194,0.00149022,-0.0015084
 0,0.02074576,0.00215970,-0.05762305,0.02648688,-0.00005817,-0.00060860
 ,-0.00050781,-0.00009053,0.00014438,-0.00004945,0.00004037,0.00024485,
 -0.00067992,0.00001246,0.00005653,-0.00011560,-0.00279183,-0.00155572,
 0.00158877,-0.00005757,0.00020283,-0.00014693,0.00001771,-0.00007593,-
 0.00007226,-0.00014336,0.00011386,-0.00022906,-0.00000250,0.00006651,-
 0.00013188,0.00062469,0.00122224,-0.00075811,-0.00485032,0.00562553,-0
 .02750160,-0.00957932,0.05684929,-0.00073498,0.00023493,-0.00103507,-0
 .00026222,0.00012924,0.00019802,0.00351948,-0.00367527,0.00179713,0.00
 013457,-0.00043809,0.00000890,-0.00027841,0.00076547,-0.01280660,-0.03
 535235,0.03077702,-0.27977618,0.00025452,-0.00052680,0.00074291,0.0000
 5243,-0.00012434,-0.00004887,-0.00060840,0.00080857,0.00173861,0.00000
 958,-0.00007126,0.00013326,0.00208618,0.00183895,0.00048396,0.00009268
 ,-0.00010914,0.00037559,0.00003655,0.00014142,0.00006410,0.00017710,-0
 .00024184,0.00068102,0.00002972,0.00011808,0.00004442,0.00084386,-0.00
 001144,0.00088922,-0.00158693,0.00131804,-0.01356848,0.04129583,-0.035
 99800,0.30507050,-0.00007806,0.00136312,-0.00053196,0.00668496,-0.0016
 5000,-0.00498022,-0.09321819,0.03053639,0.03536771,0.00310462,0.003320
 96,0.00053979,-0.04029331,0.01229788,-0.00649133,-0.17713842,0.0419247
 6,-0.04296615,0.00016976,-0.00006011,0.00034259,-0.00002521,0.00016365
 ,-0.00052583,0.00081617,0.00072629,0.00419749,0.00012676,-0.00113759,-
 0.00018507,0.00083016,0.00023308,0.00113846,0.00142011,-0.00008316,-0.
 00024192,0.00101702,-0.00197342,-0.00023927,-0.01247149,0.02427859,0.0
 3393726,0.00056723,0.00002555,-0.00038314,-0.00526005,-0.00355009,0.00
 414794,-0.01561210,0.01239407,0.00055475,-0.02531216,0.01272237,-0.009
 70919,0.35467221,0.00276177,0.00282153,0.00123548,0.01509741,-0.020708
 03,-0.03719016,0.01932051,-0.09591487,-0.06746297,0.00079122,0.0005290
 5,-0.00063356,-0.00983644,0.01077252,-0.00180151,0.05366879,-0.0829371
 3,0.00355385,-0.00073798,-0.00001992,-0.00056786,0.00094024,0.00269655
 ,0.00066012,-0.00033782,0.00606603,-0.00289981,-0.00038150,0.00115277,
 -0.00054265,-0.00006203,0.00041388,-0.00051812,-0.00019419,0.00035163,
 0.00036097,-0.00313430,-0.00831757,-0.00071162,0.00833417,-0.00632648,
 -0.01094969,-0.00080453,0.00137812,-0.00008864,-0.00295130,-0.00069772
 ,0.00155127,0.03482423,-0.01005781,0.00467867,0.01423408,-0.00406473,0
 .00506446,-0.13153233,0.20286219,0.00112723,0.00062131,-0.00020015,0.0
 0292834,-0.01426467,-0.00965459,0.00219259,-0.05046943,-0.15901256,-0.
 00136245,-0.00050346,-0.00035318,0.00906236,-0.00799637,0.00722668,-0.
 00668145,-0.01185390,-0.08859007,0.00014444,0.00013916,0.00018510,-0.0
 0024113,-0.00106870,0.00189916,0.01240212,-0.02280998,-0.04042348,-0.0
 0006083,-0.00037207,0.00045543,-0.00104587,-0.00055296,0.00099991,-0.0
 0044220,0.00018393,0.00026705,-0.00062977,-0.00187558,0.00154284,0.004
 69849,-0.00265203,-0.00322252,0.00005113,0.00004716,0.00053711,0.00325
 578,0.00166378,-0.00035960,0.01977511,-0.00741815,0.00477762,-0.031201
 96,0.01292018,-0.00499244,-0.01397192,0.10626177,0.28891769\\-0.000012
 07,0.00000146,-0.00001537,-0.00000049,0.00000789,0.00000020,-0.0000030
 0,-0.00001696,0.00001185,0.00000441,0.00000236,0.00000038,-0.00000966,
 -0.00000702,0.00000292,0.00002266,-0.00000713,0.00001525,0.00000300,0.
 00000389,0.00000272,-0.00000248,-0.00000217,-0.00000224,-0.00000415,0.
 00000605,-0.00000116,0.00000290,-0.00000408,-0.00000033,0.00000020,-0.
 00000355,0.00000458,-0.00000161,-0.00000356,-0.00000061,0.00000054,0.0
 0000242,-0.00000929,0.00000339,-0.00000288,0.00000241,-0.00000430,-0.0
 0000037,-0.00000047,-0.00000075,0.00000379,-0.00000231,0.00000478,-0.0
 0000226,0.00001079,-0.00000370,0.00000146,-0.00000446,0.00000032,0.000
 02065,-0.00001487\\\@


 I LOVE THOSE WHO LONG FOR THE IMPOSSIBLE.

                                 -- GOETHE
 Job cpu time:       0 days  0 hours 31 minutes 36.8 seconds.
 File lengths (MBytes):  RWF=    144 Int=      0 D2E=      0 Chk=      5 Scr=      1
 Normal termination of Gaussian 09 at Tue Nov  2 17:14:12 2021.
