 Entering Gaussian System, Link 0=g09
 Initial command:
 /cm/shared/apps/gaussian/g09revD.01/g09/l1.exe "//home/sweav003/CHB/CHActivation_Mkhalid/OtherCharges/G09-Table9_7.com.o9447159.tmp/Gau-35043.inp" -scrdir="//home/sweav003/CHB/CHActivation_Mkhalid/OtherCharges/G09-Table9_7.com.o9447159.tmp/"
 Entering Link 1 = /cm/shared/apps/gaussian/g09revD.01/g09/l1.exe PID=     35044.
  
 Copyright (c) 1988,1990,1992,1993,1995,1998,2003,2009,2013,
            Gaussian, Inc.  All Rights Reserved.
  
 This is part of the Gaussian(R) 09 program.  It is based on
 the Gaussian(R) 03 system (copyright 2003, Gaussian, Inc.),
 the Gaussian(R) 98 system (copyright 1998, Gaussian, Inc.),
 the Gaussian(R) 94 system (copyright 1995, Gaussian, Inc.),
 the Gaussian 92(TM) system (copyright 1992, Gaussian, Inc.),
 the Gaussian 90(TM) system (copyright 1990, Gaussian, Inc.),
 the Gaussian 88(TM) system (copyright 1988, Gaussian, Inc.),
 the Gaussian 86(TM) system (copyright 1986, Carnegie Mellon
 University), and the Gaussian 82(TM) system (copyright 1983,
 Carnegie Mellon University). Gaussian is a federally registered
 trademark of Gaussian, Inc.
  
 This software contains proprietary and confidential information,
 including trade secrets, belonging to Gaussian, Inc.
  
 This software is provided under written license and may be
 used, copied, transmitted, or stored only in accord with that
 written license.
  
 The following legend is applicable only to US Government
 contracts under FAR:
  
                    RESTRICTED RIGHTS LEGEND
  
 Use, reproduction and disclosure by the US Government is
 subject to restrictions as set forth in subparagraphs (a)
 and (c) of the Commercial Computer Software - Restricted
 Rights clause in FAR 52.227-19.
  
 Gaussian, Inc.
 340 Quinnipiac St., Bldg. 40, Wallingford CT 06492
  
  
 ---------------------------------------------------------------
 Warning -- This program may not be used in any manner that
 competes with the business of Gaussian, Inc. or will provide
 assistance to any competitor of Gaussian, Inc.  The licensee
 of this program is prohibited from giving any competitor of
 Gaussian, Inc. access to this program.  By using this program,
 the user acknowledges that Gaussian, Inc. is engaged in the
 business of creating and licensing software in the field of
 computational chemistry and represents and warrants to the
 licensee that it is not a competitor of Gaussian, Inc. and that
 it will not use this program in any manner prohibited above.
 ---------------------------------------------------------------
  

 Cite this work as:
 Gaussian 09, Revision D.01,
 M. J. Frisch, G. W. Trucks, H. B. Schlegel, G. E. Scuseria, 
 M. A. Robb, J. R. Cheeseman, G. Scalmani, V. Barone, B. Mennucci, 
 G. A. Petersson, H. Nakatsuji, M. Caricato, X. Li, H. P. Hratchian, 
 A. F. Izmaylov, J. Bloino, G. Zheng, J. L. Sonnenberg, M. Hada, 
 M. Ehara, K. Toyota, R. Fukuda, J. Hasegawa, M. Ishida, T. Nakajima, 
 Y. Honda, O. Kitao, H. Nakai, T. Vreven, J. A. Montgomery, Jr., 
 J. E. Peralta, F. Ogliaro, M. Bearpark, J. J. Heyd, E. Brothers, 
 K. N. Kudin, V. N. Staroverov, T. Keith, R. Kobayashi, J. Normand, 
 K. Raghavachari, A. Rendell, J. C. Burant, S. S. Iyengar, J. Tomasi, 
 M. Cossi, N. Rega, J. M. Millam, M. Klene, J. E. Knox, J. B. Cross, 
 V. Bakken, C. Adamo, J. Jaramillo, R. Gomperts, R. E. Stratmann, 
 O. Yazyev, A. J. Austin, R. Cammi, C. Pomelli, J. W. Ochterski, 
 R. L. Martin, K. Morokuma, V. G. Zakrzewski, G. A. Voth, 
 P. Salvador, J. J. Dannenberg, S. Dapprich, A. D. Daniels, 
 O. Farkas, J. B. Foresman, J. V. Ortiz, J. Cioslowski, 
 and D. J. Fox, Gaussian, Inc., Wallingford CT, 2013.
 
 ******************************************
 Gaussian 09:  ES64L-G09RevD.01 24-Apr-2013
                23-Jul-2021 
 ******************************************
 %mem=100MW
 %nprocshared=20
 Will use up to   20 processors via shared memory.
 ---------------------------------------------------------------------
 # b3lyp/6-311+g(d,p) geom=connectivity pop=(hirshfeld,chelpg,mbs,npa)
 ---------------------------------------------------------------------
 1/38=1,57=2/1;
 2/12=2,17=6,18=5,40=1/2;
 3/5=4,6=6,7=111,11=2,16=1,25=1,30=1,74=-5/1,2,3;
 4//1;
 5/5=2,38=5/2;
 6/7=2,8=2,9=2,10=2,15=8,20=3,27=100,28=1,40=-1,79=1/1,2,7;
 99/5=1,9=1/99;
 --------
 Table9_7
 --------
 Symbolic Z-matrix:
 Charge =  0 Multiplicity = 1
 6                    -0.93204   0.98586   0.00016 
 6                    -0.87904  -0.43585   0.00029 
 6                    -2.07114  -1.17101   0.00027 
 6                    -3.27782  -0.491     0.00023 
 6                    -3.31431   0.92058  -0.00003 
 6                    -2.1463    1.66649  -0.00006 
 6                     1.22289   0.37375   0.00023 
 6                     0.50119  -0.79767   0.00018 
 1                    -2.07161  -2.25153   0.00027 
 1                    -4.25994   1.43891  -0.00033 
 1                    -2.18906   2.74678  -0.00023 
 1                     0.67475   2.40304   0.00045 
 1                     0.91993  -1.78774  -0.00024 
 7                     0.36032   1.44865   0.00028 
 6                     2.66219   0.63911  -0.00007 
 8                     3.13036   1.75969  0. 
 8                     3.39651  -0.48693  -0.00048 
 6                     4.83374  -0.30837  -0.00045 
 6                     5.46567  -1.68264   0.00029 
 1                     5.1119    0.27033   0.87973 
 1                     5.11191   0.26933  -0.88129 
 1                     6.55153  -1.58446   0.00018 
 1                     5.17342  -2.24746   0.88488 
 1                     5.17333  -2.24849  -0.88361 
 8                    -4.40471  -1.27297  -0.00016 
 6                    -5.67402  -0.64126  -0.00031 
 1                    -6.40619  -1.44396  -0.00039 
 1                    -5.81782  -0.02571   0.89132 
 1                    -5.81765  -0.02572  -0.89196 
 
                          Input orientation:                          
 ---------------------------------------------------------------------
 Center     Atomic      Atomic             Coordinates (Angstroms)
 Number     Number       Type             X           Y           Z
 ---------------------------------------------------------------------
      1          6           0       -0.932042    0.985863    0.000156
      2          6           0       -0.879038   -0.435849    0.000288
      3          6           0       -2.071139   -1.171009    0.000274
      4          6           0       -3.277822   -0.491004    0.000227
      5          6           0       -3.314310    0.920576   -0.000033
      6          6           0       -2.146304    1.666493   -0.000063
      7          6           0        1.222889    0.373746    0.000233
      8          6           0        0.501190   -0.797674    0.000183
      9          1           0       -2.071614   -2.251529    0.000270
     10          1           0       -4.259944    1.438906   -0.000331
     11          1           0       -2.189058    2.746779   -0.000231
     12          1           0        0.674748    2.403044    0.000449
     13          1           0        0.919930   -1.787742   -0.000235
     14          7           0        0.360319    1.448646    0.000275
     15          6           0        2.662191    0.639107   -0.000070
     16          8           0        3.130359    1.759685   -0.000003
     17          8           0        3.396506   -0.486933   -0.000477
     18          6           0        4.833742   -0.308367   -0.000445
     19          6           0        5.465667   -1.682641    0.000292
     20          1           0        5.111898    0.270334    0.879725
     21          1           0        5.111912    0.269326   -0.881288
     22          1           0        6.551531   -1.584456    0.000180
     23          1           0        5.173420   -2.247464    0.884875
     24          1           0        5.173333   -2.248487   -0.883608
     25          8           0       -4.404713   -1.272971   -0.000156
     26          6           0       -5.674019   -0.641257   -0.000309
     27          1           0       -6.406188   -1.443959   -0.000387
     28          1           0       -5.817817   -0.025711    0.891317
     29          1           0       -5.817651   -0.025717   -0.891964
 ---------------------------------------------------------------------
                    Distance matrix (angstroms):
                    1          2          3          4          5
     1  C    0.000000
     2  C    1.422700   0.000000
     3  C    2.439188   1.400559   0.000000
     4  C    2.771970   2.399418   1.385096   0.000000
     5  C    2.383162   2.787551   2.433147   1.412052   0.000000
     6  C    1.392009   2.454752   2.838497   2.436211   1.385868
     7  C    2.240182   2.252452   3.638253   4.583033   4.570033
     8  C    2.288047   1.426866   2.599280   3.791435   4.184546
     9  H    3.432103   2.172310   1.080520   2.134101   3.406838
    10  H    3.358598   3.865906   3.406248   2.165437   1.078374
    11  H    2.163542   3.441696   3.919562   3.415940   2.145043
    12  H    2.142470   3.236289   4.507078   4.898808   4.255619
    13  H    3.335069   2.250311   3.053990   4.393478   5.026308
    14  N    1.372722   2.255510   3.574154   4.122901   3.712379
    15  C    3.610921   3.700788   5.067636   6.046561   5.983125
    16  O    4.135445   4.571174   5.970306   6.791935   6.499066
    17  O    4.572248   4.275849   5.510272   6.674329   6.856831
    18  C    5.909255   5.714202   6.958558   8.113620   8.240209
    19  C    6.931926   6.466048   7.554152   8.824319   9.157769
    20  H    6.149377   6.096181   7.378816   8.469980   8.496927
    21  H    6.149776   6.096387   7.378885   8.470113   8.497173
    22  H    7.912674   7.518820   8.632576   9.889986  10.178900
    23  H    6.965185   6.379396   7.377324   8.677053   9.102807
    24  H    6.965462   6.379508   7.377302   8.677092   9.102953
    25  O    4.142677   3.623694   2.335801   1.371625   2.449618
    26  C    5.013369   4.799379   3.641618   2.400903   2.829761
    27  H    5.989183   5.618334   4.343633   3.270290   3.892395
    28  H    5.068357   5.035244   4.017868   2.731687   2.820906
    29  H    5.068367   5.035297   4.017976   2.731891   2.820944
                    6          7          8          9         10
     6  C    0.000000
     7  C    3.608692   0.000000
     8  C    3.616814   1.375890   0.000000
     9  H    3.918734   4.212579   2.955167   0.000000
    10  H    2.125857   5.585340   5.260293   4.290466   0.000000
    11  H    1.081132   4.156040   4.449784   4.999688   2.449306
    12  H    2.915620   2.102025   3.205420   5.404401   5.027996
    13  H    4.618823   2.182616   1.074978   3.027282   6.102651
    14  N    2.516072   1.378201   2.250733   4.427820   4.620273
    15  C    4.917026   1.463560   2.595046   5.546592   6.968187
    16  O    5.277486   2.357810   3.667781   6.568893   7.397262
    17  O    5.946426   2.337815   2.911944   5.745793   7.894940
    18  C    7.254041   3.674716   4.360095   7.173550   9.260026
    19  C    8.316177   4.714859   5.042737   7.558719  10.214282
    20  H    7.443439   3.988558   4.813820   7.663947   9.485330
    21  H    7.443812   3.989045   4.813963   7.663870   9.485552
    22  H    9.285527   5.677057   6.101283   8.648908  11.226251
    23  H    8.347487   4.822865   4.971348   7.298840  10.166674
    24  H    8.347743   4.823203   4.971405   7.298665  10.166797
    25  O    3.706867   5.863581   4.928873   2.530005   2.715738
    26  C    4.215505   6.971196   6.177190   3.945922   2.515290
    27  H    5.274611   7.842631   6.937547   4.409161   3.594061
    28  H    4.139821   7.108104   6.428055   4.447726   2.316702
    29  H    4.139789   7.108079   6.428032   4.447821   2.316588
                   11         12         13         14         15
    11  H    0.000000
    12  H    2.884361   0.000000
    13  H    5.497971   4.197952   0.000000
    14  N    2.860852   1.004859   3.284413   0.000000
    15  C    5.289319   2.657330   2.987485   2.440075   0.000000
    16  O    5.410227   2.538491   4.179741   2.787448   1.214445
    17  O    6.454101   3.969878   2.797415   3.600680   1.344316
    18  C    7.658566   4.964774   4.184074   4.806101   2.369249
    19  C    8.843901   6.296485   4.546952   5.989118   3.640054
    20  H    7.759579   5.000988   4.752116   4.973867   2.628897
    21  H    7.760039   5.001863   4.751894   4.974493   2.629528
    22  H    9.754870   7.101882   5.635269   6.894259   4.480089
    23  H    8.940467   6.530504   4.368860   6.132674   3.927046
    24  H    8.940796   6.531123   4.368532   6.133119   3.927426
    25  O    4.589937   6.270089   5.349468   5.487507   7.321009
    26  C    4.860426   7.040924   6.692876   6.385995   8.433963
    27  H    5.945290   8.058479   7.334180   7.358857   9.304551
    28  H    4.652897   6.988984   7.021172   6.413817   8.552607
    29  H    4.652807   6.989029   7.021033   6.413825   8.552496
                   16         17         18         19         20
    16  O    0.000000
    17  O    2.262328   0.000000
    18  C    2.679245   1.448286   0.000000
    19  C    4.159720   2.389800   1.512600   0.000000
    20  H    2.630320   2.071419   1.089479   2.170868   0.000000
    21  H    2.631423   2.071322   1.089492   2.170830   1.761013
    22  H    4.784109   3.340470   2.139907   1.090294   2.507267
    23  H    4.584141   2.653439   2.158534   1.089459   2.518555
    24  H    4.584751   2.653320   2.158556   1.089459   3.075317
    25  O    8.122457   7.840719   9.288677   9.878878   9.681005
    26  C    9.125875   9.071838  10.513033  11.188257  10.860086
    27  H   10.060272   9.849300  11.297150  11.874254  11.678172
    28  H    9.167985   9.268860  10.692560  11.439246  10.933730
    29  H    9.167886   9.268665  10.692374  11.439178  11.076171
                   21         22         23         24         25
    21  H    0.000000
    22  H    2.507189   0.000000
    23  H    3.075280   1.766764   0.000000
    24  H    2.518563   1.766762   1.768483   0.000000
    25  O    9.680972  10.960671   9.668172   9.668044   0.000000
    26  C   10.860092  12.261880  11.001381  11.001293   1.417815
    27  H   11.678097  12.958481  11.641161  11.640990   2.008766
    28  H   11.076468  12.498983  11.213542  11.353258   2.085005
    29  H   10.933550  12.498890  11.353280  11.213497   2.085032
                   26         27         28         29
    26  C    0.000000
    27  H    1.086463   0.000000
    28  H    1.092965   1.775597   0.000000
    29  H    1.092963   1.775583   1.783281   0.000000
 Stoichiometry    C12H13NO3
 Framework group  C1[X(C12H13NO3)]
 Deg. of freedom    81
 Full point group                 C1      NOp   1
 Largest Abelian subgroup         C1      NOp   1
 Largest concise Abelian subgroup C1      NOp   1
                         Standard orientation:                         
 ---------------------------------------------------------------------
 Center     Atomic      Atomic             Coordinates (Angstroms)
 Number     Number       Type             X           Y           Z
 ---------------------------------------------------------------------
      1          6           0        0.932042    0.985863   -0.000156
      2          6           0        0.879038   -0.435849   -0.000288
      3          6           0        2.071139   -1.171009   -0.000274
      4          6           0        3.277822   -0.491004   -0.000227
      5          6           0        3.314310    0.920576    0.000033
      6          6           0        2.146304    1.666493    0.000063
      7          6           0       -1.222889    0.373746   -0.000233
      8          6           0       -0.501190   -0.797674   -0.000183
      9          1           0        2.071614   -2.251529   -0.000270
     10          1           0        4.259944    1.438906    0.000331
     11          1           0        2.189058    2.746779    0.000231
     12          1           0       -0.674748    2.403044   -0.000449
     13          1           0       -0.919930   -1.787742    0.000235
     14          7           0       -0.360319    1.448646   -0.000275
     15          6           0       -2.662191    0.639107    0.000070
     16          8           0       -3.130359    1.759685    0.000003
     17          8           0       -3.396506   -0.486933    0.000477
     18          6           0       -4.833742   -0.308367    0.000445
     19          6           0       -5.465667   -1.682641   -0.000292
     20          1           0       -5.111898    0.270334   -0.879725
     21          1           0       -5.111912    0.269326    0.881288
     22          1           0       -6.551531   -1.584456   -0.000180
     23          1           0       -5.173420   -2.247464   -0.884875
     24          1           0       -5.173333   -2.248487    0.883608
     25          8           0        4.404713   -1.272971    0.000156
     26          6           0        5.674019   -0.641257    0.000309
     27          1           0        6.406188   -1.443959    0.000387
     28          1           0        5.817817   -0.025711   -0.891317
     29          1           0        5.817651   -0.025717    0.891964
 ---------------------------------------------------------------------
 Rotational constants (GHZ):      1.7873174      0.2050126      0.1845535
 Standard basis: 6-311+G(d,p) (5D, 7F)
 There are   446 symmetry adapted cartesian basis functions of A   symmetry.
 There are   430 symmetry adapted basis functions of A   symmetry.
   430 basis functions,   680 primitive gaussians,   446 cartesian basis functions
    58 alpha electrons       58 beta electrons
       nuclear repulsion energy      1029.8405836996 Hartrees.
 NAtoms=   29 NActive=   29 NUniq=   29 SFac= 1.00D+00 NAtFMM=   60 NAOKFM=F Big=F
 Integral buffers will be    131072 words long.
 Raffenetti 2 integral format.
 Two-electron integral symmetry is turned on.
 One-electron integrals computed using PRISM.
 NBasis=   430 RedAO= T EigKep=  2.57D-06  NBF=   430
 NBsUse=   427 1.00D-06 EigRej=  8.48D-07 NBFU=   427
 ExpMin= 4.38D-02 ExpMax= 8.59D+03 ExpMxC= 1.30D+03 IAcc=2 IRadAn=         4 AccDes= 0.00D+00
 Harris functional with IExCor=  402 and IRadAn=       4 diagonalized for initial guess.
 HarFok:  IExCor=  402 AccDes= 0.00D+00 IRadAn=         4 IDoV= 1 UseB2=F ITyADJ=14
 ICtDFT=  3500011 ScaDFX=  1.000000  1.000000  1.000000  1.000000
 FoFCou: FMM=F IPFlag=           0 FMFlag=      100000 FMFlg1=           0
         NFxFlg=           0 DoJE=T BraDBF=F KetDBF=T FulRan=T
         wScrn=  0.000000 ICntrl=     500 IOpCl=  0 I1Cent=   200000004 NGrid=           0
         NMat0=    1 NMatS0=      1 NMatT0=    0 NMatD0=    1 NMtDS0=    0 NMtDT0=    0
 Petite list used in FoFCou.
 Requested convergence on RMS density matrix=1.00D-08 within 128 cycles.
 Requested convergence on MAX density matrix=1.00D-06.
 Requested convergence on             energy=1.00D-06.
 No special actions if energy rises.
 SCF Done:  E(RB3LYP) =  -745.748153928     A.U. after   15 cycles
            NFock= 15  Conv=0.74D-08     -V/T= 2.0039

 **********************************************************************

            Population analysis using the SCF density.

 **********************************************************************

 Orbital symmetries:
       Occupied  (A) (A) (A) (A) (A) (A) (A) (A) (A) (A) (A) (A)
                 (A) (A) (A) (A) (A) (A) (A) (A) (A) (A) (A) (A)
                 (A) (A) (A) (A) (A) (A) (A) (A) (A) (A) (A) (A)
                 (A) (A) (A) (A) (A) (A) (A) (A) (A) (A) (A) (A)
                 (A) (A) (A) (A) (A) (A) (A) (A) (A) (A)
       Virtual   (A) (A) (A) (A) (A) (A) (A) (A) (A) (A) (A) (A)
                 (A) (A) (A) (A) (A) (A) (A) (A) (A) (A) (A) (A)
                 (A) (A) (A) (A) (A) (A) (A) (A) (A) (A) (A) (A)
                 (A) (A) (A) (A) (A) (A) (A) (A) (A) (A) (A) (A)
                 (A) (A) (A) (A) (A) (A) (A) (A) (A) (A) (A) (A)
                 (A) (A) (A) (A) (A) (A) (A) (A) (A) (A) (A) (A)
                 (A) (A) (A) (A) (A) (A) (A) (A) (A) (A) (A) (A)
                 (A) (A) (A) (A) (A) (A) (A) (A) (A) (A) (A) (A)
                 (A) (A) (A) (A) (A) (A) (A) (A) (A) (A) (A) (A)
                 (A) (A) (A) (A) (A) (A) (A) (A) (A) (A) (A) (A)
                 (A) (A) (A) (A) (A) (A) (A) (A) (A) (A) (A) (A)
                 (A) (A) (A) (A) (A) (A) (A) (A) (A) (A) (A) (A)
                 (A) (A) (A) (A) (A) (A) (A) (A) (A) (A) (A) (A)
                 (A) (A) (A) (A) (A) (A) (A) (A) (A) (A) (A) (A)
                 (A) (A) (A) (A) (A) (A) (A) (A) (A) (A) (A) (A)
                 (A) (A) (A) (A) (A) (A) (A) (A) (A) (A) (A) (A)
                 (A) (A) (A) (A) (A) (A) (A) (A) (A) (A) (A) (A)
                 (A) (A) (A) (A) (A) (A) (A) (A) (A) (A) (A) (A)
                 (A) (A) (A) (A) (A) (A) (A) (A) (A) (A) (A) (A)
                 (A) (A) (A) (A) (A) (A) (A) (A) (A) (A) (A) (A)
                 (A) (A) (A) (A) (A) (A) (A) (A) (A) (A) (A) (A)
                 (A) (A) (A) (A) (A) (A) (A) (A) (A) (A) (A) (A)
                 (A) (A) (A) (A) (A) (A) (A) (A) (A) (A) (A) (A)
                 (A) (A) (A) (A) (A) (A) (A) (A) (A) (A) (A) (A)
                 (A) (A) (A) (A) (A) (A) (A) (A) (A) (A) (A) (A)
                 (A) (A) (A) (A) (A) (A) (A) (A) (A) (A) (A) (A)
                 (A) (A) (A) (A) (A) (A) (A) (A) (A) (A) (A) (A)
                 (A) (A) (A) (A) (A) (A) (A) (A) (A) (A) (A) (A)
                 (A) (A) (A) (A) (A) (A) (A) (A) (A) (A) (A) (A)
                 (A) (A) (A) (A) (A) (A) (A) (A) (A) (A) (A) (A)
                 (A) (A) (A) (A) (A) (A) (A) (A) (A)
 The electronic state is 1-A.
 Alpha  occ. eigenvalues --  -19.17253 -19.15143 -19.11567 -14.36246 -10.30994
 Alpha  occ. eigenvalues --  -10.23423 -10.23289 -10.22539 -10.21904 -10.21324
 Alpha  occ. eigenvalues --  -10.18500 -10.18208 -10.18037 -10.17595 -10.17313
 Alpha  occ. eigenvalues --  -10.17137  -1.11492  -1.06681  -1.02896  -0.99289
 Alpha  occ. eigenvalues --   -0.85370  -0.80376  -0.78619  -0.76230  -0.74275
 Alpha  occ. eigenvalues --   -0.70027  -0.67651  -0.63468  -0.61301  -0.59142
 Alpha  occ. eigenvalues --   -0.58002  -0.55765  -0.52852  -0.51440  -0.50368
 Alpha  occ. eigenvalues --   -0.48099  -0.47797  -0.47284  -0.45193  -0.44939
 Alpha  occ. eigenvalues --   -0.44439  -0.43049  -0.42319  -0.41989  -0.40934
 Alpha  occ. eigenvalues --   -0.40362  -0.39877  -0.37608  -0.36624  -0.36583
 Alpha  occ. eigenvalues --   -0.36208  -0.33363  -0.31454  -0.30977  -0.29244
 Alpha  occ. eigenvalues --   -0.29174  -0.22838  -0.21008
 Alpha virt. eigenvalues --   -0.05891  -0.00085  -0.00062   0.00404   0.01151
 Alpha virt. eigenvalues --    0.02146   0.02267   0.02769   0.03490   0.03627
 Alpha virt. eigenvalues --    0.03802   0.04378   0.04559   0.05608   0.06316
 Alpha virt. eigenvalues --    0.06598   0.06788   0.07724   0.07804   0.08453
 Alpha virt. eigenvalues --    0.08583   0.09420   0.09750   0.10223   0.10601
 Alpha virt. eigenvalues --    0.11170   0.11589   0.12251   0.12918   0.13772
 Alpha virt. eigenvalues --    0.14093   0.14145   0.14413   0.15002   0.15446
 Alpha virt. eigenvalues --    0.15694   0.16525   0.16681   0.16980   0.17304
 Alpha virt. eigenvalues --    0.17758   0.18264   0.18476   0.18626   0.19148
 Alpha virt. eigenvalues --    0.19602   0.19860   0.20206   0.20653   0.21051
 Alpha virt. eigenvalues --    0.21606   0.21691   0.21912   0.22006   0.22971
 Alpha virt. eigenvalues --    0.23003   0.23139   0.23547   0.23701   0.24005
 Alpha virt. eigenvalues --    0.24105   0.25023   0.25774   0.26205   0.26750
 Alpha virt. eigenvalues --    0.27484   0.27765   0.28130   0.28608   0.29217
 Alpha virt. eigenvalues --    0.29337   0.30175   0.30490   0.31249   0.32062
 Alpha virt. eigenvalues --    0.32876   0.33136   0.33436   0.34074   0.35746
 Alpha virt. eigenvalues --    0.35909   0.36880   0.37227   0.38047   0.38498
 Alpha virt. eigenvalues --    0.40165   0.40604   0.41517   0.42436   0.42569
 Alpha virt. eigenvalues --    0.43598   0.43812   0.44764   0.46806   0.47664
 Alpha virt. eigenvalues --    0.49447   0.49635   0.50569   0.51327   0.52085
 Alpha virt. eigenvalues --    0.53494   0.55027   0.55271   0.55617   0.56108
 Alpha virt. eigenvalues --    0.56843   0.58123   0.58286   0.59361   0.60545
 Alpha virt. eigenvalues --    0.60870   0.61017   0.61751   0.62898   0.63279
 Alpha virt. eigenvalues --    0.64168   0.65602   0.65758   0.66153   0.67133
 Alpha virt. eigenvalues --    0.67400   0.68165   0.68997   0.69859   0.70983
 Alpha virt. eigenvalues --    0.71359   0.71629   0.72193   0.73172   0.73830
 Alpha virt. eigenvalues --    0.74820   0.75724   0.76790   0.78178   0.80269
 Alpha virt. eigenvalues --    0.80811   0.82528   0.85505   0.86592   0.86811
 Alpha virt. eigenvalues --    0.87615   0.88419   0.88741   0.88952   0.90295
 Alpha virt. eigenvalues --    0.91166   0.92173   0.94546   0.95755   0.95938
 Alpha virt. eigenvalues --    0.98335   0.99269   0.99572   0.99846   1.00496
 Alpha virt. eigenvalues --    1.01963   1.02063   1.03996   1.05124   1.06562
 Alpha virt. eigenvalues --    1.06721   1.06833   1.08032   1.08944   1.11411
 Alpha virt. eigenvalues --    1.11700   1.14103   1.15685   1.16291   1.16603
 Alpha virt. eigenvalues --    1.18432   1.20023   1.21023   1.21617   1.23996
 Alpha virt. eigenvalues --    1.26356   1.28264   1.28515   1.30820   1.31543
 Alpha virt. eigenvalues --    1.33278   1.36497   1.37552   1.43386   1.43833
 Alpha virt. eigenvalues --    1.45032   1.46568   1.47417   1.49284   1.51033
 Alpha virt. eigenvalues --    1.51104   1.51822   1.53537   1.54303   1.54457
 Alpha virt. eigenvalues --    1.55375   1.56871   1.57977   1.58614   1.59263
 Alpha virt. eigenvalues --    1.60736   1.60738   1.62115   1.63714   1.65214
 Alpha virt. eigenvalues --    1.65870   1.66613   1.68111   1.68914   1.69983
 Alpha virt. eigenvalues --    1.71828   1.72163   1.72516   1.73613   1.74388
 Alpha virt. eigenvalues --    1.76535   1.77936   1.79092   1.81730   1.83926
 Alpha virt. eigenvalues --    1.84486   1.85549   1.86459   1.87219   1.87997
 Alpha virt. eigenvalues --    1.89499   1.91964   1.93276   1.93446   1.95187
 Alpha virt. eigenvalues --    1.98264   1.98619   2.00166   2.02716   2.04824
 Alpha virt. eigenvalues --    2.05416   2.06638   2.08810   2.09221   2.10461
 Alpha virt. eigenvalues --    2.11827   2.12978   2.13460   2.15608   2.15832
 Alpha virt. eigenvalues --    2.17153   2.18849   2.20602   2.23684   2.26366
 Alpha virt. eigenvalues --    2.31266   2.33608   2.34747   2.35851   2.41360
 Alpha virt. eigenvalues --    2.42506   2.43993   2.44885   2.45303   2.45806
 Alpha virt. eigenvalues --    2.47207   2.49857   2.50599   2.51896   2.52209
 Alpha virt. eigenvalues --    2.53994   2.54467   2.57179   2.58592   2.59952
 Alpha virt. eigenvalues --    2.62197   2.62958   2.64350   2.64874   2.66221
 Alpha virt. eigenvalues --    2.67205   2.68809   2.70215   2.73522   2.74458
 Alpha virt. eigenvalues --    2.74689   2.77033   2.78574   2.79075   2.80609
 Alpha virt. eigenvalues --    2.82435   2.82767   2.85301   2.85574   2.87510
 Alpha virt. eigenvalues --    2.88348   2.89139   2.92793   2.93246   2.93945
 Alpha virt. eigenvalues --    2.96061   3.01112   3.01271   3.05062   3.05654
 Alpha virt. eigenvalues --    3.06901   3.08480   3.09139   3.12055   3.13540
 Alpha virt. eigenvalues --    3.17706   3.21100   3.22290   3.24684   3.25587
 Alpha virt. eigenvalues --    3.28585   3.31475   3.36966   3.37289   3.38027
 Alpha virt. eigenvalues --    3.43172   3.44676   3.48185   3.54325   3.59697
 Alpha virt. eigenvalues --    3.62619   3.67129   3.67442   3.69289   3.77690
 Alpha virt. eigenvalues --    3.79449   3.81271   3.81623   3.82652   3.88996
 Alpha virt. eigenvalues --    3.89050   3.97319   4.06484   4.06747   4.10678
 Alpha virt. eigenvalues --    4.11813   4.18283   4.21022   4.25284   4.31700
 Alpha virt. eigenvalues --    4.49385   4.83706   4.94566   4.97779   5.02619
 Alpha virt. eigenvalues --    5.06190   5.15187   5.25900   5.37234   5.39915
 Alpha virt. eigenvalues --    5.70573   5.79869   5.87290  23.62746  23.81728
 Alpha virt. eigenvalues --   23.85746  23.89364  23.91178  23.91684  23.97507
 Alpha virt. eigenvalues --   23.99713  24.03839  24.11341  24.15677  24.19214
 Alpha virt. eigenvalues --   35.68625  49.91000  49.96436  50.03837
          Condensed to atoms (all electrons):
               1          2          3          4          5          6
     1  C   15.213807  -2.682194  -0.156088  -0.719418   0.314432   0.982388
     2  C   -2.682194  11.804255  -1.620814  -1.436942  -0.949586  -2.223550
     3  C   -0.156088  -1.620814  11.425711   1.154975  -2.576619   1.823892
     4  C   -0.719418  -1.436942   1.154975  10.081112  -0.455023  -0.823081
     5  C    0.314432  -0.949586  -2.576619  -0.455023   8.820954   0.550519
     6  C    0.982388  -2.223550   1.823892  -0.823081   0.550519   9.816508
     7  C   -2.105748  -0.687564  -1.777543  -1.081270  -0.329661  -1.733491
     8  C   -4.162731   1.705541  -2.038842  -0.415382   0.000653  -1.943645
     9  H    0.008469  -0.005523   0.345588  -0.006989   0.002231  -0.030907
    10  H    0.066380   0.057463  -0.061712  -0.035952   0.407208  -0.075679
    11  H   -0.036999  -0.011081  -0.026535   0.015097   0.081716   0.308906
    12  H   -0.103227   0.058624   0.002911   0.003546   0.001564  -0.004703
    13  H   -0.011371  -0.016393   0.026478  -0.003221   0.000300   0.006256
    14  N   -0.171861   0.372329  -0.062668  -0.003483  -0.066887  -0.365663
    15  C    0.071439   0.493830   0.472916   0.119737  -0.055123   0.535357
    16  O    0.158601  -0.053191  -0.002791  -0.000777   0.005332   0.020630
    17  O    0.070473   0.002493   0.001901  -0.001424  -0.001523   0.019030
    18  C    0.123786   0.095550   0.012522   0.002827   0.000556   0.027005
    19  C   -0.005089   0.000423   0.003451   0.000766   0.000218  -0.003501
    20  H   -0.000073  -0.003182  -0.000243  -0.000045   0.000000  -0.000078
    21  H   -0.000089  -0.003172  -0.000242  -0.000045   0.000000  -0.000077
    22  H   -0.000243  -0.000157   0.000013   0.000000   0.000000  -0.000009
    23  H    0.000392  -0.000660  -0.000187  -0.000023   0.000000   0.000016
    24  H    0.000395  -0.000658  -0.000187  -0.000023   0.000000   0.000016
    25  O   -0.006833  -0.123286  -0.380775   0.168451   0.159406   0.060294
    26  C   -0.012868  -0.162661   0.196335   0.027916  -0.221710  -0.009508
    27  H    0.002424   0.015750  -0.010625   0.064532  -0.013298  -0.004450
    28  H   -0.005170  -0.015064   0.015662  -0.050174   0.014558   0.014857
    29  H   -0.005179  -0.015029   0.015786  -0.049836   0.014295   0.014762
               7          8          9         10         11         12
     1  C   -2.105748  -4.162731   0.008469   0.066380  -0.036999  -0.103227
     2  C   -0.687564   1.705541  -0.005523   0.057463  -0.011081   0.058624
     3  C   -1.777543  -2.038842   0.345588  -0.061712  -0.026535   0.002911
     4  C   -1.081270  -0.415382  -0.006989  -0.035952   0.015097   0.003546
     5  C   -0.329661   0.000653   0.002231   0.407208   0.081716   0.001564
     6  C   -1.733491  -1.943645  -0.030907  -0.075679   0.308906  -0.004703
     7  C   12.592728   2.746223   0.014406   0.006902   0.021022  -0.053347
     8  C    2.746223  10.158608   0.034614   0.008246   0.004433   0.018110
     9  H    0.014406   0.034614   0.531787  -0.000149   0.000048   0.000008
    10  H    0.006902   0.008246  -0.000149   0.543760  -0.007846   0.000011
    11  H    0.021022   0.004433   0.000048  -0.007846   0.546521   0.001594
    12  H   -0.053347   0.018110   0.000008   0.000011   0.001594   0.365324
    13  H   -0.072676   0.388748   0.001367  -0.000002   0.000013  -0.000031
    14  N    0.152636  -0.006527  -0.000642  -0.000327  -0.004003   0.377307
    15  C   -1.249281  -0.891769  -0.002027  -0.000570  -0.004795   0.015543
    16  O   -0.213798  -0.025670  -0.000001   0.000000   0.000001   0.007574
    17  O   -0.272745   0.030485  -0.000013   0.000001   0.000007   0.002697
    18  C   -0.332829  -0.118833  -0.000075  -0.000003  -0.000034   0.002249
    19  C    0.035477  -0.011997   0.000010   0.000000  -0.000002  -0.000244
    20  H    0.008067  -0.005367   0.000000   0.000000   0.000000  -0.000011
    21  H    0.007941  -0.005282   0.000000   0.000000   0.000000  -0.000011
    22  H   -0.000968   0.000155   0.000000   0.000000   0.000000   0.000000
    23  H    0.005542  -0.004386   0.000000   0.000000   0.000000   0.000000
    24  H    0.005575  -0.004418   0.000000   0.000000   0.000000   0.000000
    25  O   -0.003406   0.016642  -0.006360  -0.019840  -0.000475   0.000006
    26  C   -0.020668  -0.030041  -0.003354  -0.009864   0.000671  -0.000012
    27  H    0.000235   0.000337  -0.000050   0.000472  -0.000002   0.000000
    28  H   -0.000400  -0.000314   0.000059  -0.000424   0.000038   0.000000
    29  H   -0.000396  -0.000319   0.000059  -0.000415   0.000038   0.000000
              13         14         15         16         17         18
     1  C   -0.011371  -0.171861   0.071439   0.158601   0.070473   0.123786
     2  C   -0.016393   0.372329   0.493830  -0.053191   0.002493   0.095550
     3  C    0.026478  -0.062668   0.472916  -0.002791   0.001901   0.012522
     4  C   -0.003221  -0.003483   0.119737  -0.000777  -0.001424   0.002827
     5  C    0.000300  -0.066887  -0.055123   0.005332  -0.001523   0.000556
     6  C    0.006256  -0.365663   0.535357   0.020630   0.019030   0.027005
     7  C   -0.072676   0.152636  -1.249281  -0.213798  -0.272745  -0.332829
     8  C    0.388748  -0.006527  -0.891769  -0.025670   0.030485  -0.118833
     9  H    0.001367  -0.000642  -0.002027  -0.000001  -0.000013  -0.000075
    10  H   -0.000002  -0.000327  -0.000570   0.000000   0.000001  -0.000003
    11  H    0.000013  -0.004003  -0.004795   0.000001   0.000007  -0.000034
    12  H   -0.000031   0.377307   0.015543   0.007574   0.002697   0.002249
    13  H    0.517310   0.016577   0.014767  -0.000933   0.004818   0.000313
    14  N    0.016577   6.807318  -0.007759   0.036628   0.029341   0.012416
    15  C    0.014767  -0.007759   6.225963   0.402036  -0.011751  -0.217643
    16  O   -0.000933   0.036628   0.402036   8.138114  -0.173526  -0.047410
    17  O    0.004818   0.029341  -0.011751  -0.173526   8.403337   0.228076
    18  C    0.000313   0.012416  -0.217643  -0.047410   0.228076   5.450317
    19  C    0.001662   0.003265   0.066876   0.036063  -0.151444   0.023116
    20  H    0.000011  -0.000264   0.003440   0.001473  -0.036152   0.415898
    21  H    0.000011  -0.000266   0.003646   0.001446  -0.036158   0.415855
    22  H   -0.000003  -0.000017   0.011358   0.000159   0.015141  -0.076129
    23  H    0.000014   0.000000  -0.008951  -0.000227  -0.004909  -0.019730
    24  H    0.000014   0.000000  -0.009021  -0.000228  -0.004923  -0.019684
    25  O   -0.000065   0.001789  -0.000440   0.000003  -0.000007  -0.000003
    26  C   -0.000056  -0.001391   0.001891  -0.000003  -0.000001   0.000023
    27  H    0.000000   0.000012  -0.000011   0.000000   0.000000   0.000000
    28  H    0.000000  -0.000017   0.000029   0.000000   0.000000   0.000000
    29  H    0.000000  -0.000017   0.000029   0.000000   0.000000   0.000000
              19         20         21         22         23         24
     1  C   -0.005089  -0.000073  -0.000089  -0.000243   0.000392   0.000395
     2  C    0.000423  -0.003182  -0.003172  -0.000157  -0.000660  -0.000658
     3  C    0.003451  -0.000243  -0.000242   0.000013  -0.000187  -0.000187
     4  C    0.000766  -0.000045  -0.000045   0.000000  -0.000023  -0.000023
     5  C    0.000218   0.000000   0.000000   0.000000   0.000000   0.000000
     6  C   -0.003501  -0.000078  -0.000077  -0.000009   0.000016   0.000016
     7  C    0.035477   0.008067   0.007941  -0.000968   0.005542   0.005575
     8  C   -0.011997  -0.005367  -0.005282   0.000155  -0.004386  -0.004418
     9  H    0.000010   0.000000   0.000000   0.000000   0.000000   0.000000
    10  H    0.000000   0.000000   0.000000   0.000000   0.000000   0.000000
    11  H   -0.000002   0.000000   0.000000   0.000000   0.000000   0.000000
    12  H   -0.000244  -0.000011  -0.000011   0.000000   0.000000   0.000000
    13  H    0.001662   0.000011   0.000011  -0.000003   0.000014   0.000014
    14  N    0.003265  -0.000264  -0.000266  -0.000017   0.000000   0.000000
    15  C    0.066876   0.003440   0.003646   0.011358  -0.008951  -0.009021
    16  O    0.036063   0.001473   0.001446   0.000159  -0.000227  -0.000228
    17  O   -0.151444  -0.036152  -0.036158   0.015141  -0.004909  -0.004923
    18  C    0.023116   0.415898   0.415855  -0.076129  -0.019730  -0.019684
    19  C    5.354936  -0.037266  -0.037400   0.432089   0.408595   0.408644
    20  H   -0.037266   0.539540  -0.041259  -0.003607  -0.008199   0.007258
    21  H   -0.037400  -0.041259   0.539572  -0.003607   0.007261  -0.008195
    22  H    0.432089  -0.003607  -0.003607   0.531258  -0.026118  -0.026122
    23  H    0.408595  -0.008199   0.007261  -0.026118   0.533594  -0.029475
    24  H    0.408644   0.007258  -0.008195  -0.026122  -0.029475   0.533582
    25  O    0.000000   0.000000   0.000000   0.000000   0.000000   0.000000
    26  C    0.000001   0.000000   0.000000   0.000000   0.000000   0.000000
    27  H    0.000000   0.000000   0.000000   0.000000   0.000000   0.000000
    28  H    0.000000   0.000000   0.000000   0.000000   0.000000   0.000000
    29  H    0.000000   0.000000   0.000000   0.000000   0.000000   0.000000
              25         26         27         28         29
     1  C   -0.006833  -0.012868   0.002424  -0.005170  -0.005179
     2  C   -0.123286  -0.162661   0.015750  -0.015064  -0.015029
     3  C   -0.380775   0.196335  -0.010625   0.015662   0.015786
     4  C    0.168451   0.027916   0.064532  -0.050174  -0.049836
     5  C    0.159406  -0.221710  -0.013298   0.014558   0.014295
     6  C    0.060294  -0.009508  -0.004450   0.014857   0.014762
     7  C   -0.003406  -0.020668   0.000235  -0.000400  -0.000396
     8  C    0.016642  -0.030041   0.000337  -0.000314  -0.000319
     9  H   -0.006360  -0.003354  -0.000050   0.000059   0.000059
    10  H   -0.019840  -0.009864   0.000472  -0.000424  -0.000415
    11  H   -0.000475   0.000671  -0.000002   0.000038   0.000038
    12  H    0.000006  -0.000012   0.000000   0.000000   0.000000
    13  H   -0.000065  -0.000056   0.000000   0.000000   0.000000
    14  N    0.001789  -0.001391   0.000012  -0.000017  -0.000017
    15  C   -0.000440   0.001891  -0.000011   0.000029   0.000029
    16  O    0.000003  -0.000003   0.000000   0.000000   0.000000
    17  O   -0.000007  -0.000001   0.000000   0.000000   0.000000
    18  C   -0.000003   0.000023   0.000000   0.000000   0.000000
    19  C    0.000000   0.000001   0.000000   0.000000   0.000000
    20  H    0.000000   0.000000   0.000000   0.000000   0.000000
    21  H    0.000000   0.000000   0.000000   0.000000   0.000000
    22  H    0.000000   0.000000   0.000000   0.000000   0.000000
    23  H    0.000000   0.000000   0.000000   0.000000   0.000000
    24  H    0.000000   0.000000   0.000000   0.000000   0.000000
    25  O    8.252003   0.207417  -0.074553  -0.031073  -0.031126
    26  C    0.207417   5.052577   0.385277   0.426623   0.426520
    27  H   -0.074553   0.385277   0.532957  -0.027986  -0.027988
    28  H   -0.031073   0.426623  -0.027986   0.572410  -0.055310
    29  H   -0.031126   0.426520  -0.027988  -0.055310   0.572425
 Mulliken charges:
               1
     1  C   -0.827806
     2  C    1.404451
     3  C   -0.782267
     4  C   -0.555852
     5  C    0.295489
     6  C   -0.962094
     7  C    0.339038
     8  C    0.552726
     9  H    0.117442
    10  H    0.122340
    11  H    0.111667
    12  H    0.304516
    13  H    0.126091
    14  N   -0.117829
    15  C    0.020286
    16  O   -0.289502
    17  O   -0.113223
    18  C    0.021865
    19  C   -0.528651
    20  H    0.160060
    21  H    0.160070
    22  H    0.146808
    23  H    0.147452
    24  H    0.147450
    25  O   -0.187773
    26  C   -0.253115
    27  H    0.156966
    28  H    0.141695
    29  H    0.141699
 Sum of Mulliken charges =   0.00000
 Mulliken charges with hydrogens summed into heavy atoms:
               1
     1  C   -0.827806
     2  C    1.404451
     3  C   -0.664825
     4  C   -0.555852
     5  C    0.417830
     6  C   -0.850427
     7  C    0.339038
     8  C    0.678817
    14  N    0.186687
    15  C    0.020286
    16  O   -0.289502
    17  O   -0.113223
    18  C    0.341995
    19  C   -0.086942
    25  O   -0.187773
    26  C    0.187246
 Electronic spatial extent (au):  <R**2>=           5676.1807
 Charge=              0.0000 electrons
 Dipole moment (field-independent basis, Debye):
    X=              0.6089    Y=              0.1930    Z=              0.0004  Tot=              0.6388
 Quadrupole moment (field-independent basis, Debye-Ang):
   XX=            -71.7987   YY=            -92.5062   ZZ=            -97.2508
   XY=             12.2125   XZ=              0.0018   YZ=             -0.0007
 Traceless Quadrupole moment (field-independent basis, Debye-Ang):
   XX=             15.3866   YY=             -5.3210   ZZ=            -10.0656
   XY=             12.2125   XZ=              0.0018   YZ=             -0.0007
 Octapole moment (field-independent basis, Debye-Ang**2):
  XXX=             14.9421  YYY=              6.4031  ZZZ=              0.0071  XYY=              9.0651
  XXY=            -18.9346  XXZ=              0.0162  XZZ=            -13.9542  YZZ=             -0.4877
  YYZ=              0.0012  XYZ=              0.0047
 Hexadecapole moment (field-independent basis, Debye-Ang**3):
 XXXX=          -5405.0104 YYYY=           -789.2347 ZZZZ=           -126.3001 XXXY=            123.2573
 XXXZ=              0.0370 YYYX=             26.1566 YYYZ=             -0.0141 ZZZX=             -0.0026
 ZZZY=             -0.0015 XXYY=          -1309.7976 XXZZ=          -1125.1931 YYZZ=           -168.3867
 XXYZ=             -0.0014 YYXZ=              0.0049 ZZXY=            -12.2261
 N-N= 1.029840583700D+03 E-N=-3.800083697221D+03  KE= 7.428777306991D+02
 There are a total of      242512 grid points.
 ElSum from          density=      116.0000273495
 ElSum from atomic densities=      116.0001950345

 Hirshfeld populations at iteration   1 (CX, CA, CB, DipXYZ):
               1          2          3          4          5          6
     1  C    0.000000   2.981313   2.981313  -0.050494   0.058600   0.000002
     2  C    0.000000   3.010866   3.010866   0.005421  -0.029232  -0.000012
     3  C    0.000000   3.031743   3.031743  -0.023279  -0.059063   0.000015
     4  C    0.000000   2.969014   2.969014   0.133399  -0.047630  -0.000015
     5  C    0.000000   3.034956   3.034956   0.046896   0.004688   0.000018
     6  C    0.000000   3.030038   3.030038  -0.021248   0.066604   0.000017
     7  C    0.000001   2.990217   2.990217  -0.049682   0.080473  -0.000008
     8  C    0.000000   3.034769   3.034769   0.010302  -0.094312   0.000023
     9  H    0.000002   0.473644   0.473644  -0.009352  -0.163586   0.000004
    10  H    0.000001   0.478417   0.478417   0.130053   0.089575   0.000052
    11  H    0.000002   0.475691   0.475691   0.009000   0.161786   0.000027
    12  H    0.000001   0.426481   0.426481  -0.030677   0.201574  -0.000042
    13  H    0.000001   0.472273   0.472273  -0.050797  -0.162159   0.000080
    14  N    0.000001   3.541906   3.541906  -0.008001   0.072832  -0.000020
    15  C    0.000000   2.894859   2.894859  -0.053723  -0.061032   0.000023
    16  O    0.000003   4.150628   4.150628   0.042955  -0.114881   0.000001
    17  O    0.000000   4.063822   4.063822  -0.080118   0.106501  -0.000029
    18  C    0.000000   2.986373   2.986373   0.055197  -0.026712  -0.000021
    19  C    0.000000   3.049208   3.049208  -0.009346   0.012584   0.000011
    20  H    0.000001   0.477554   0.477554  -0.057985   0.066175  -0.125229
    21  H    0.000001   0.477554   0.477554  -0.057946   0.066068   0.125311
    22  H    0.000000   0.477384   0.477384  -0.151216   0.015954   0.000017
    23  H    0.000000   0.478677   0.478677   0.035643  -0.079587  -0.124371
    24  H    0.000000   0.478676   0.478676   0.035655  -0.079735   0.124275
    25  O    0.000001   4.075056   4.075056   0.021991   0.162340  -0.000015
    26  C    0.000000   3.005682   3.005682  -0.052651  -0.029864   0.000002
    27  H    0.000001   0.473739   0.473739   0.113400  -0.112755   0.000013
    28  H    0.000001   0.479737   0.479737   0.033518   0.076841  -0.118312
    29  H    0.000001   0.479737   0.479737   0.033497   0.076842   0.118321
       Tot   0.000020  58.000014  58.000014   0.000412   0.258892   0.000140

 Dip from Atomic Chgs              0.237805  -0.182936   0.000021
         Total Dipole              0.238216   0.075956   0.000161

 Hirshfeld charges, spin densities, dipoles, and CM5 charges using IRadAn=      4:
              Q-H        S-H        Dx         Dy         Dz        Q-CM5   
     1  C    0.037374   0.000000  -0.050494   0.058600   0.000002   0.099034
     2  C   -0.021732   0.000000   0.005421  -0.029232  -0.000012  -0.020268
     3  C   -0.063486   0.000000  -0.023279  -0.059063   0.000015  -0.110507
     4  C    0.061973   0.000000   0.133399  -0.047630  -0.000015   0.077558
     5  C   -0.069912   0.000000   0.046896   0.004688   0.000018  -0.122226
     6  C   -0.060075   0.000000  -0.021248   0.066604   0.000017  -0.109065
     7  C    0.019566   0.000000  -0.049682   0.080473  -0.000008   0.084779
     8  C   -0.069537   0.000000   0.010302  -0.094312   0.000023  -0.111390
     9  H    0.052712   0.000000  -0.009352  -0.163586   0.000004   0.112871
    10  H    0.043165   0.000000   0.130053   0.089575   0.000052   0.103341
    11  H    0.048618   0.000000   0.009000   0.161786   0.000027   0.106610
    12  H    0.147038   0.000000  -0.030677   0.201574  -0.000042   0.345892
    13  H    0.055453   0.000000  -0.050797  -0.162159   0.000080   0.114490
    14  N   -0.083813   0.000000  -0.008001   0.072832  -0.000020  -0.435775
    15  C    0.210282   0.000000  -0.053723  -0.061032   0.000023   0.273885
    16  O   -0.301256   0.000000   0.042955  -0.114881   0.000001  -0.348476
    17  O   -0.127644   0.000000  -0.080118   0.106501  -0.000029  -0.207530
    18  C    0.027254   0.000000   0.055197  -0.026712  -0.000021  -0.057563
    19  C   -0.098416   0.000000  -0.009346   0.012584   0.000011  -0.246441
    20  H    0.044892   0.000000  -0.057985   0.066175  -0.125229   0.110505
    21  H    0.044892   0.000000  -0.057946   0.066068   0.125311   0.110498
    22  H    0.045232   0.000000  -0.151216   0.015954   0.000017   0.097019
    23  H    0.042646   0.000000   0.035643  -0.079587  -0.124371   0.096489
    24  H    0.042649   0.000000   0.035655  -0.079735   0.124275   0.096492
    25  O   -0.150113   0.000000   0.021991   0.162340  -0.000015  -0.239372
    26  C   -0.011364   0.000000  -0.052651  -0.029864   0.000002  -0.134022
    27  H    0.052523   0.000000   0.113400  -0.112755   0.000013   0.113479
    28  H    0.040526   0.000000   0.033518   0.076841  -0.118312   0.099834
    29  H    0.040527   0.000000   0.033497   0.076842   0.118321   0.099834
       Tot  -0.000027   0.000000   0.000412   0.258892   0.000140  -0.000027
 Hirshfeld charges with hydrogens summed into heavy atoms:
              Q-H       Q-CM5   
     1  C    0.037374   0.099034
     2  C   -0.021732  -0.020268
     3  C   -0.010775   0.002364
     4  C    0.061973   0.077558
     5  C   -0.026747  -0.018885
     6  C   -0.011457  -0.002455
     7  C    0.019566   0.084779
     8  C   -0.014084   0.003100
    14  N    0.063225  -0.089883
    15  C    0.210282   0.273885
    16  O   -0.301256  -0.348476
    17  O   -0.127644  -0.207530
    18  C    0.117038   0.163440
    19  C    0.032111   0.043558
    25  O   -0.150113  -0.239372
    26  C    0.122211   0.179124
 
 EQQ= 0.000000000000E+00 EQD= 0.000000000000E+00 EDD= 0.435283525492E-02
 EQQ+QD+DD= 0.435283525492E-02
 
          MBS Condensed to atoms (all electrons):
               1          2          3          4          5          6
     1  C    4.733853   0.477142  -0.028860  -0.011944  -0.033485   0.497539
     2  C    0.477142   4.784242   0.490582  -0.029464  -0.010453  -0.027644
     3  C   -0.028860   0.490582   4.849174   0.514852  -0.032869  -0.008491
     4  C   -0.011944  -0.029464   0.514852   4.675642   0.481746  -0.027102
     5  C   -0.033485  -0.010453  -0.032869   0.481746   4.880881   0.518006
     6  C    0.497539  -0.027644  -0.008491  -0.027102   0.518006   4.822989
     7  C   -0.064880  -0.052969   0.001032  -0.000011  -0.000011   0.001328
     8  C   -0.049838   0.470851  -0.019612   0.000727   0.000047   0.001143
     9  H    0.001433  -0.022567   0.386557  -0.025331   0.001403   0.000033
    10  H    0.001567   0.000083   0.001310  -0.025319   0.390499  -0.025389
    11  H   -0.024991   0.001377   0.000005   0.001351  -0.024036   0.389717
    12  H   -0.022759   0.002168  -0.000029  -0.000001  -0.000010  -0.001120
    13  H    0.001661  -0.018266  -0.001122  -0.000003  -0.000001  -0.000019
    14  N    0.415803  -0.050384   0.000817   0.000039   0.000562  -0.020529
    15  C    0.001302   0.000977  -0.000005   0.000000   0.000000  -0.000008
    16  O    0.000018  -0.000004   0.000000   0.000000   0.000000   0.000000
    17  O   -0.000003   0.000004   0.000000   0.000000   0.000000   0.000000
    18  C    0.000000   0.000000   0.000000   0.000000   0.000000   0.000000
    19  C    0.000000   0.000000   0.000000   0.000000   0.000000   0.000000
    20  H    0.000000   0.000000   0.000000   0.000000   0.000000   0.000000
    21  H    0.000000   0.000000   0.000000   0.000000   0.000000   0.000000
    22  H    0.000000   0.000000   0.000000   0.000000   0.000000   0.000000
    23  H    0.000000   0.000000   0.000000   0.000000   0.000000   0.000000
    24  H    0.000000   0.000000   0.000000   0.000000   0.000000   0.000000
    25  O    0.000011   0.000386  -0.029254   0.308865  -0.019315   0.000307
    26  C    0.000000  -0.000019   0.001600  -0.035082  -0.007302   0.000053
    27  H    0.000000   0.000000  -0.000033   0.002317   0.000103  -0.000001
    28  H   -0.000001   0.000000   0.000002  -0.002637   0.000225  -0.000004
    29  H   -0.000001   0.000000   0.000002  -0.002634   0.000225  -0.000004
               7          8          9         10         11         12
     1  C   -0.064880  -0.049838   0.001433   0.001567  -0.024991  -0.022759
     2  C   -0.052969   0.470851  -0.022567   0.000083   0.001377   0.002168
     3  C    0.001032  -0.019612   0.386557   0.001310   0.000005  -0.000029
     4  C   -0.000011   0.000727  -0.025331  -0.025319   0.001351  -0.000001
     5  C   -0.000011   0.000047   0.001403   0.390499  -0.024036  -0.000010
     6  C    0.001328   0.001143   0.000033  -0.025389   0.389717  -0.001120
     7  C    4.793089   0.533258   0.000000   0.000000  -0.000008  -0.027286
     8  C    0.533258   4.885624  -0.002256   0.000000  -0.000033   0.002161
     9  H    0.000000  -0.002256   0.540577  -0.000046   0.000002   0.000001
    10  H    0.000000   0.000000  -0.000046   0.554666  -0.004399   0.000000
    11  H   -0.000008  -0.000033   0.000002  -0.004399   0.552924   0.000687
    12  H   -0.027286   0.002161   0.000001   0.000000   0.000687   0.396125
    13  H   -0.021051   0.391000   0.000491   0.000000   0.000001  -0.000045
    14  N    0.410038  -0.051621  -0.000014  -0.000010  -0.001631   0.340129
    15  C    0.408641  -0.017059   0.000000   0.000000   0.000000  -0.002217
    16  O   -0.029570   0.000275   0.000000   0.000000   0.000000   0.003809
    17  O   -0.035028  -0.000774   0.000000   0.000000   0.000000   0.000032
    18  C    0.001592   0.000010   0.000000   0.000000   0.000000  -0.000001
    19  C   -0.000011  -0.000001   0.000000   0.000000   0.000000   0.000000
    20  H    0.000009  -0.000001   0.000000   0.000000   0.000000   0.000000
    21  H    0.000008  -0.000001   0.000000   0.000000   0.000000   0.000000
    22  H    0.000000   0.000000   0.000000   0.000000   0.000000   0.000000
    23  H   -0.000002   0.000000   0.000000   0.000000   0.000000   0.000000
    24  H   -0.000002   0.000000   0.000000   0.000000   0.000000   0.000000
    25  O    0.000000  -0.000001  -0.000665  -0.001575  -0.000005   0.000000
    26  C    0.000000   0.000000   0.000022  -0.000739   0.000000   0.000000
    27  H    0.000000   0.000000  -0.000008   0.000003   0.000000   0.000000
    28  H    0.000000   0.000000   0.000003  -0.000184   0.000002   0.000000
    29  H    0.000000   0.000000   0.000003  -0.000184   0.000002   0.000000
              13         14         15         16         17         18
     1  C    0.001661   0.415803   0.001302   0.000018  -0.000003   0.000000
     2  C   -0.018266  -0.050384   0.000977  -0.000004   0.000004   0.000000
     3  C   -0.001122   0.000817  -0.000005   0.000000   0.000000   0.000000
     4  C   -0.000003   0.000039   0.000000   0.000000   0.000000   0.000000
     5  C   -0.000001   0.000562   0.000000   0.000000   0.000000   0.000000
     6  C   -0.000019  -0.020529  -0.000008   0.000000   0.000000   0.000000
     7  C   -0.021051   0.410038   0.408641  -0.029570  -0.035028   0.001592
     8  C    0.391000  -0.051621  -0.017059   0.000275  -0.000774   0.000010
     9  H    0.000491  -0.000014   0.000000   0.000000   0.000000   0.000000
    10  H    0.000000  -0.000010   0.000000   0.000000   0.000000   0.000000
    11  H    0.000001  -0.001631   0.000000   0.000000   0.000000   0.000000
    12  H   -0.000045   0.340129  -0.002217   0.003809   0.000032  -0.000001
    13  H    0.515791   0.001179  -0.001470   0.000004   0.000666  -0.000019
    14  N    0.001179   6.335737  -0.024575  -0.001936   0.000158  -0.000007
    15  C   -0.001470  -0.024575   4.444547   0.449988   0.296483  -0.031468
    16  O    0.000004  -0.001936   0.449988   8.093794  -0.022513  -0.002415
    17  O    0.000666   0.000158   0.296483  -0.022513   7.941145   0.252169
    18  C   -0.000019  -0.000007  -0.031468  -0.002415   0.252169   4.696667
    19  C    0.000001   0.000000   0.001576   0.000020  -0.021322   0.374370
    20  H    0.000001   0.000000  -0.003581   0.001409  -0.017674   0.373275
    21  H    0.000001   0.000000  -0.003570   0.001402  -0.017684   0.373277
    22  H    0.000000   0.000000  -0.000043   0.000001   0.000803  -0.019854
    23  H    0.000002   0.000000   0.000010  -0.000001  -0.000504  -0.022140
    24  H    0.000002   0.000000   0.000010  -0.000001  -0.000505  -0.022138
    25  O    0.000000   0.000000   0.000000   0.000000   0.000000   0.000000
    26  C    0.000000   0.000000   0.000000   0.000000   0.000000   0.000000
    27  H    0.000000   0.000000   0.000000   0.000000   0.000000   0.000000
    28  H    0.000000   0.000000   0.000000   0.000000   0.000000   0.000000
    29  H    0.000000   0.000000   0.000000   0.000000   0.000000   0.000000
              19         20         21         22         23         24
     1  C    0.000000   0.000000   0.000000   0.000000   0.000000   0.000000
     2  C    0.000000   0.000000   0.000000   0.000000   0.000000   0.000000
     3  C    0.000000   0.000000   0.000000   0.000000   0.000000   0.000000
     4  C    0.000000   0.000000   0.000000   0.000000   0.000000   0.000000
     5  C    0.000000   0.000000   0.000000   0.000000   0.000000   0.000000
     6  C    0.000000   0.000000   0.000000   0.000000   0.000000   0.000000
     7  C   -0.000011   0.000009   0.000008   0.000000  -0.000002  -0.000002
     8  C   -0.000001  -0.000001  -0.000001   0.000000   0.000000   0.000000
     9  H    0.000000   0.000000   0.000000   0.000000   0.000000   0.000000
    10  H    0.000000   0.000000   0.000000   0.000000   0.000000   0.000000
    11  H    0.000000   0.000000   0.000000   0.000000   0.000000   0.000000
    12  H    0.000000   0.000000   0.000000   0.000000   0.000000   0.000000
    13  H    0.000001   0.000001   0.000001   0.000000   0.000002   0.000002
    14  N    0.000000   0.000000   0.000000   0.000000   0.000000   0.000000
    15  C    0.001576  -0.003581  -0.003570  -0.000043   0.000010   0.000010
    16  O    0.000020   0.001409   0.001402   0.000001  -0.000001  -0.000001
    17  O   -0.021322  -0.017674  -0.017684   0.000803  -0.000504  -0.000505
    18  C    0.374370   0.373275   0.373277  -0.019854  -0.022140  -0.022138
    19  C    4.817409  -0.023089  -0.023095   0.374778   0.377931   0.377933
    20  H   -0.023089   0.585255  -0.027293  -0.001419  -0.002952   0.002184
    21  H   -0.023095  -0.027293   0.585296  -0.001420   0.002184  -0.002951
    22  H    0.374778  -0.001419  -0.001420   0.593169  -0.021007  -0.021007
    23  H    0.377931  -0.002952   0.002184  -0.021007   0.589426  -0.023036
    24  H    0.377933   0.002184  -0.002951  -0.021007  -0.023036   0.589419
    25  O    0.000000   0.000000   0.000000   0.000000   0.000000   0.000000
    26  C    0.000000   0.000000   0.000000   0.000000   0.000000   0.000000
    27  H    0.000000   0.000000   0.000000   0.000000   0.000000   0.000000
    28  H    0.000000   0.000000   0.000000   0.000000   0.000000   0.000000
    29  H    0.000000   0.000000   0.000000   0.000000   0.000000   0.000000
              25         26         27         28         29
     1  C    0.000011   0.000000   0.000000  -0.000001  -0.000001
     2  C    0.000386  -0.000019   0.000000   0.000000   0.000000
     3  C   -0.029254   0.001600  -0.000033   0.000002   0.000002
     4  C    0.308865  -0.035082   0.002317  -0.002637  -0.002634
     5  C   -0.019315  -0.007302   0.000103   0.000225   0.000225
     6  C    0.000307   0.000053  -0.000001  -0.000004  -0.000004
     7  C    0.000000   0.000000   0.000000   0.000000   0.000000
     8  C   -0.000001   0.000000   0.000000   0.000000   0.000000
     9  H   -0.000665   0.000022  -0.000008   0.000003   0.000003
    10  H   -0.001575  -0.000739   0.000003  -0.000184  -0.000184
    11  H   -0.000005   0.000000   0.000000   0.000002   0.000002
    12  H    0.000000   0.000000   0.000000   0.000000   0.000000
    13  H    0.000000   0.000000   0.000000   0.000000   0.000000
    14  N    0.000000   0.000000   0.000000   0.000000   0.000000
    15  C    0.000000   0.000000   0.000000   0.000000   0.000000
    16  O    0.000000   0.000000   0.000000   0.000000   0.000000
    17  O    0.000000   0.000000   0.000000   0.000000   0.000000
    18  C    0.000000   0.000000   0.000000   0.000000   0.000000
    19  C    0.000000   0.000000   0.000000   0.000000   0.000000
    20  H    0.000000   0.000000   0.000000   0.000000   0.000000
    21  H    0.000000   0.000000   0.000000   0.000000   0.000000
    22  H    0.000000   0.000000   0.000000   0.000000   0.000000
    23  H    0.000000   0.000000   0.000000   0.000000   0.000000
    24  H    0.000000   0.000000   0.000000   0.000000   0.000000
    25  O    7.897760   0.278571  -0.020586  -0.017463  -0.017464
    26  C    0.278571   4.716271   0.380364   0.368658   0.368657
    27  H   -0.020586   0.380364   0.564210  -0.023104  -0.023108
    28  H   -0.017463   0.368658  -0.023104   0.606731  -0.027942
    29  H   -0.017464   0.368657  -0.023108  -0.027942   0.606735
 MBS Mulliken charges:
               1
     1  C    0.106432
     2  C   -0.016045
     3  C   -0.125658
     4  C    0.173988
     5  C   -0.146214
     6  C   -0.120804
     7  C    0.081834
     8  C   -0.143901
     9  H    0.120362
    10  H    0.109717
    11  H    0.109036
    12  H    0.308356
    13  H    0.131197
    14  N   -0.353756
    15  C    0.480463
    16  O   -0.494279
    17  O   -0.375453
    18  C    0.026683
    19  C   -0.256499
    20  H    0.113877
    21  H    0.113844
    22  H    0.095997
    23  H    0.100090
    24  H    0.100094
    25  O   -0.379574
    26  C   -0.071054
    27  H    0.119842
    28  H    0.095714
    29  H    0.095712
 Sum of MBS Mulliken charges =   0.00000
 MBS Mulliken charges with hydrogens summed into heavy atoms:
               1
     1  C    0.106432
     2  C   -0.016045
     3  C   -0.005297
     4  C    0.173988
     5  C   -0.036497
     6  C   -0.011768
     7  C    0.081834
     8  C   -0.012705
    14  N   -0.045400
    15  C    0.480463
    16  O   -0.494279
    17  O   -0.375453
    18  C    0.254405
    19  C    0.039681
    25  O   -0.379574
    26  C    0.240214
 Breneman (CHELPG) radii used.
 Generate Potential Derived Charges using the Breneman model, NDens= 1.
 Grid spacing= 0.300 Box extension= 2.800
 NStep X,Y,Z=   62     37     26   Total possible points=       59644
 Number of Points to Fit=   18295

 **********************************************************************

            Electrostatic Properties Using The SCF Density

 **********************************************************************

       Atomic Center    1 is at   0.932042  0.985863 -0.000156
       Atomic Center    2 is at   0.879038 -0.435849 -0.000288
       Atomic Center    3 is at   2.071139 -1.171009 -0.000274
       Atomic Center    4 is at   3.277822 -0.491004 -0.000227
       Atomic Center    5 is at   3.314310  0.920576  0.000033
       Atomic Center    6 is at   2.146304  1.666493  0.000063
       Atomic Center    7 is at  -1.222889  0.373746 -0.000233
       Atomic Center    8 is at  -0.501190 -0.797674 -0.000183
       Atomic Center    9 is at   2.071614 -2.251529 -0.000270
       Atomic Center   10 is at   4.259944  1.438906  0.000331
       Atomic Center   11 is at   2.189058  2.746779  0.000231
       Atomic Center   12 is at  -0.674748  2.403044 -0.000449
       Atomic Center   13 is at  -0.919930 -1.787742  0.000235
       Atomic Center   14 is at  -0.360319  1.448646 -0.000275
       Atomic Center   15 is at  -2.662191  0.639107  0.000070
       Atomic Center   16 is at  -3.130359  1.759685  0.000003
       Atomic Center   17 is at  -3.396506 -0.486933  0.000477
       Atomic Center   18 is at  -4.833742 -0.308367  0.000445
       Atomic Center   19 is at  -5.465667 -1.682641 -0.000292
       Atomic Center   20 is at  -5.111898  0.270334 -0.879725
       Atomic Center   21 is at  -5.111912  0.269326  0.881288
       Atomic Center   22 is at  -6.551531 -1.584456 -0.000180
       Atomic Center   23 is at  -5.173420 -2.247464 -0.884875
       Atomic Center   24 is at  -5.173333 -2.248487  0.883608
       Atomic Center   25 is at   4.404713 -1.272971  0.000156
       Atomic Center   26 is at   5.674019 -0.641257  0.000309
       Atomic Center   27 is at   6.406188 -1.443959  0.000387
       Atomic Center   28 is at   5.817817 -0.025711 -0.891317
       Atomic Center   29 is at   5.817651 -0.025717  0.891964
   18295 points will be used for fitting atomic charges
 Fitting point charges to electrostatic potential
 Charges from ESP fit, RMS=   0.00383 RRMS=   0.30321:
 ESP charges:
               1
     1  C    0.203608
     2  C    0.263013
     3  C   -0.473615
     4  C    0.440225
     5  C   -0.245696
     6  C   -0.241425
     7  C   -0.093722
     8  C   -0.267749
     9  H    0.190792
    10  H    0.137546
    11  H    0.144603
    12  H    0.351558
    13  H    0.148496
    14  N   -0.424154
    15  C    0.852642
    16  O   -0.612638
    17  O   -0.518505
    18  C    0.411786
    19  C   -0.228672
    20  H   -0.013611
    21  H   -0.013621
    22  H    0.039276
    23  H    0.071868
    24  H    0.071943
    25  O   -0.428726
    26  C    0.217472
    27  H    0.034248
    28  H   -0.008515
    29  H   -0.008426
 Sum of ESP charges =   0.00000
 ESP charges with hydrogens summed into heavy atoms:
               1
     1  C    0.203608
     2  C    0.263013
     3  C   -0.282824
     4  C    0.440225
     5  C   -0.108150
     6  C   -0.096822
     7  C   -0.093722
     8  C   -0.119253
    14  N   -0.072596
    15  C    0.852642
    16  O   -0.612638
    17  O   -0.518505
    18  C    0.384554
    19  C   -0.045586
    25  O   -0.428726
    26  C    0.234779
 Charge=   0.00000 Dipole=     0.7143     0.2237     0.0004 Tot=     0.7486
 -----------------------------------------------------------------

              Electrostatic Properties (Atomic Units)

 -----------------------------------------------------------------
    Center     Electric         -------- Electric Field --------
               Potential          X             Y             Z
 -----------------------------------------------------------------
    1 Atom    -14.736812
    2 Atom    -14.768902
    3 Atom    -14.779127
    4 Atom    -14.716028
    5 Atom    -14.769821
    6 Atom    -14.765155
    7 Atom    -14.731110
    8 Atom    -14.774349
    9 Atom     -1.106501
   10 Atom     -1.098332
   11 Atom     -1.094841
   12 Atom     -0.998650
   13 Atom     -1.097081
   14 Atom    -18.346357
   15 Atom    -14.640283
   16 Atom    -22.383543
   17 Atom    -22.323819
   18 Atom    -14.711246
   19 Atom    -14.773076
   20 Atom     -1.109664
   21 Atom     -1.109673
   22 Atom     -1.107154
   23 Atom     -1.114090
   24 Atom     -1.114088
   25 Atom    -22.342106
   26 Atom    -14.719931
   27 Atom     -1.104961
   28 Atom     -1.106084
   29 Atom     -1.106086
 -----------------------------------------------------------------
 ******************************Gaussian NBO Version 3.1******************************
             N A T U R A L   A T O M I C   O R B I T A L   A N D
          N A T U R A L   B O N D   O R B I T A L   A N A L Y S I S
 ******************************Gaussian NBO Version 3.1******************************
       /RESON  / : Allow strongly delocalized NBO set

 Analyzing the SCF density

 Job title: Table9_7                                                        

 Storage needed:    557682 in NPA ( 104853105 available)
 Remove ICRem=  253 ICRemI=  232 L=0 PNAO number  253 atom   16 type  51 NPNAO=  430
   due to symmetric orthogonalization 2, value= 0.00D+00.

 Computed number of electrons  115.99990610 does not match expected value of   116.


 NATURAL POPULATIONS:  Natural atomic orbital occupancies 
                                                          
   NAO  Atom  No  lang   Type(AO)    Occupancy      Energy
 ----------------------------------------------------------
     1    C    1  S      Cor( 1S)     1.99898     -10.06873
     2    C    1  S      Val( 2S)     0.81700      -0.10609
     3    C    1  S      Ryd( 3S)     0.00149       0.86091
     4    C    1  S      Ryd( 4S)     0.00019       0.98486
     5    C    1  S      Ryd( 5S)     0.00002      22.53727
     6    C    1  px     Val( 2p)     0.93572      -0.02877
     7    C    1  px     Ryd( 4p)     0.00426       1.37260
     8    C    1  px     Ryd( 3p)     0.00031       0.67062
     9    C    1  px     Ryd( 5p)     0.00014       3.07291
    10    C    1  py     Val( 2p)     1.04538      -0.06173
    11    C    1  py     Ryd( 4p)     0.00684       1.22718
    12    C    1  py     Ryd( 3p)     0.00043       0.45794
    13    C    1  py     Ryd( 5p)     0.00012       2.92524
    14    C    1  pz     Val( 2p)     1.03092      -0.11410
    15    C    1  pz     Ryd( 4p)     0.00120       0.62600
    16    C    1  pz     Ryd( 3p)     0.00062       0.33927
    17    C    1  pz     Ryd( 5p)     0.00004       2.67694
    18    C    1  dxy    Ryd( 3d)     0.00102       2.50550
    19    C    1  dxz    Ryd( 3d)     0.00135       1.66819
    20    C    1  dyz    Ryd( 3d)     0.00070       1.62381
    21    C    1  dx2y2  Ryd( 3d)     0.00098       2.73922
    22    C    1  dz2    Ryd( 3d)     0.00048       2.12179

    23    C    2  S      Cor( 1S)     1.99902     -10.03225
    24    C    2  S      Val( 2S)     0.86664      -0.11390
    25    C    2  S      Ryd( 4S)     0.00095       0.79241
    26    C    2  S      Ryd( 3S)     0.00009       0.78021
    27    C    2  S      Ryd( 5S)     0.00002      23.07023
    28    C    2  px     Val( 2p)     1.09541      -0.05199
    29    C    2  px     Ryd( 4p)     0.00405       1.68368
    30    C    2  px     Ryd( 3p)     0.00023       0.82137
    31    C    2  px     Ryd( 5p)     0.00014       3.21439
    32    C    2  py     Val( 2p)     1.06270      -0.05356
    33    C    2  py     Ryd( 4p)     0.00577       1.25538
    34    C    2  py     Ryd( 3p)     0.00014       0.57147
    35    C    2  py     Ryd( 5p)     0.00010       3.18434
    36    C    2  pz     Val( 2p)     1.04484      -0.10205
    37    C    2  pz     Ryd( 4p)     0.00039       0.63123
    38    C    2  pz     Ryd( 3p)     0.00034       0.45045
    39    C    2  pz     Ryd( 5p)     0.00002       2.65843
    40    C    2  dxy    Ryd( 3d)     0.00057       2.51430
    41    C    2  dxz    Ryd( 3d)     0.00098       1.70296
    42    C    2  dyz    Ryd( 3d)     0.00048       1.64432
    43    C    2  dx2y2  Ryd( 3d)     0.00088       2.76663
    44    C    2  dz2    Ryd( 3d)     0.00042       2.17941

    45    C    3  S      Cor( 1S)     1.99899     -10.02045
    46    C    3  S      Val( 2S)     0.93251      -0.14139
    47    C    3  S      Ryd( 4S)     0.00135       1.14513
    48    C    3  S      Ryd( 3S)     0.00011       1.10363
    49    C    3  S      Ryd( 5S)     0.00001      22.43635
    50    C    3  px     Val( 2p)     1.05324      -0.03907
    51    C    3  px     Ryd( 4p)     0.00415       0.95041
    52    C    3  px     Ryd( 3p)     0.00025       0.70427
    53    C    3  px     Ryd( 5p)     0.00013       2.99804
    54    C    3  py     Val( 2p)     1.18287      -0.05742
    55    C    3  py     Ryd( 4p)     0.00541       1.28631
    56    C    3  py     Ryd( 3p)     0.00036       0.61061
    57    C    3  py     Ryd( 5p)     0.00008       2.78757
    58    C    3  pz     Val( 2p)     1.03849      -0.10428
    59    C    3  pz     Ryd( 4p)     0.00121       0.58006
    60    C    3  pz     Ryd( 3p)     0.00063       0.33497
    61    C    3  pz     Ryd( 5p)     0.00002       2.65828
    62    C    3  dxy    Ryd( 3d)     0.00071       2.67037
    63    C    3  dxz    Ryd( 3d)     0.00055       1.68456
    64    C    3  dyz    Ryd( 3d)     0.00052       1.63626
    65    C    3  dx2y2  Ryd( 3d)     0.00070       2.52819
    66    C    3  dz2    Ryd( 3d)     0.00049       2.18174

    67    C    4  S      Cor( 1S)     1.99879     -10.09947
    68    C    4  S      Val( 2S)     0.82436      -0.12385
    69    C    4  S      Ryd( 3S)     0.00089       0.93786
    70    C    4  S      Ryd( 4S)     0.00017       0.97220
    71    C    4  S      Ryd( 5S)     0.00002      22.54569
    72    C    4  px     Val( 2p)     0.85527      -0.03955
    73    C    4  px     Ryd( 4p)     0.00507       1.18147
    74    C    4  px     Ryd( 3p)     0.00031       0.64230
    75    C    4  px     Ryd( 5p)     0.00015       2.92601
    76    C    4  py     Val( 2p)     0.98689      -0.04375
    77    C    4  py     Ryd( 4p)     0.00778       1.20523
    78    C    4  py     Ryd( 3p)     0.00015       0.61961
    79    C    4  py     Ryd( 5p)     0.00013       2.80239
    80    C    4  pz     Val( 2p)     1.00842      -0.11451
    81    C    4  pz     Ryd( 4p)     0.00081       0.63012
    82    C    4  pz     Ryd( 3p)     0.00027       0.52184
    83    C    4  pz     Ryd( 5p)     0.00004       2.54266
    84    C    4  dxy    Ryd( 3d)     0.00171       2.56563
    85    C    4  dxz    Ryd( 3d)     0.00203       1.60743
    86    C    4  dyz    Ryd( 3d)     0.00113       1.65483
    87    C    4  dx2y2  Ryd( 3d)     0.00149       2.58549
    88    C    4  dz2    Ryd( 3d)     0.00059       2.07917

    89    C    5  S      Cor( 1S)     1.99910     -10.03458
    90    C    5  S      Val( 2S)     0.94557      -0.16515
    91    C    5  S      Ryd( 4S)     0.00136       0.85286
    92    C    5  S      Ryd( 3S)     0.00013       0.69815
    93    C    5  S      Ryd( 5S)     0.00002      23.19887
    94    C    5  px     Val( 2p)     1.15311      -0.06142
    95    C    5  px     Ryd( 4p)     0.00386       1.11666
    96    C    5  px     Ryd( 3p)     0.00048       0.46994
    97    C    5  px     Ryd( 5p)     0.00008       3.13423
    98    C    5  py     Val( 2p)     1.08823      -0.05583
    99    C    5  py     Ryd( 4p)     0.00401       0.92434
   100    C    5  py     Ryd( 3p)     0.00037       0.49830
   101    C    5  py     Ryd( 5p)     0.00013       3.15310
   102    C    5  pz     Val( 2p)     1.06950      -0.11844
   103    C    5  pz     Ryd( 4p)     0.00196       0.50701
   104    C    5  pz     Ryd( 3p)     0.00043       0.32200
   105    C    5  pz     Ryd( 5p)     0.00003       2.72043
   106    C    5  dxy    Ryd( 3d)     0.00057       2.56579
   107    C    5  dxz    Ryd( 3d)     0.00043       1.62043
   108    C    5  dyz    Ryd( 3d)     0.00057       1.66650
   109    C    5  dx2y2  Ryd( 3d)     0.00077       2.58374
   110    C    5  dz2    Ryd( 3d)     0.00044       2.09336

   111    C    6  S      Cor( 1S)     1.99909     -10.03493
   112    C    6  S      Val( 2S)     0.93217      -0.15401
   113    C    6  S      Ryd( 3S)     0.00209       0.89937
   114    C    6  S      Ryd( 4S)     0.00014       1.07517
   115    C    6  S      Ryd( 5S)     0.00001      22.50436
   116    C    6  px     Val( 2p)     1.05613      -0.05022
   117    C    6  px     Ryd( 4p)     0.00396       0.84430
   118    C    6  px     Ryd( 3p)     0.00039       0.42578
   119    C    6  px     Ryd( 5p)     0.00014       3.02661
   120    C    6  py     Val( 2p)     1.17740      -0.06353
   121    C    6  py     Ryd( 4p)     0.00537       1.18373
   122    C    6  py     Ryd( 3p)     0.00026       0.40461
   123    C    6  py     Ryd( 5p)     0.00009       2.98985
   124    C    6  pz     Val( 2p)     1.03571      -0.11513
   125    C    6  pz     Ryd( 4p)     0.00108       0.52494
   126    C    6  pz     Ryd( 3p)     0.00039       0.29396
   127    C    6  pz     Ryd( 5p)     0.00002       2.68818
   128    C    6  dxy    Ryd( 3d)     0.00065       2.63798
   129    C    6  dxz    Ryd( 3d)     0.00062       1.67483
   130    C    6  dyz    Ryd( 3d)     0.00041       1.62419
   131    C    6  dx2y2  Ryd( 3d)     0.00068       2.52385
   132    C    6  dz2    Ryd( 3d)     0.00043       2.13129

   133    C    7  S      Cor( 1S)     1.99899     -10.08280
   134    C    7  S      Val( 2S)     0.86808      -0.14683
   135    C    7  S      Ryd( 3S)     0.00199       0.83056
   136    C    7  S      Ryd( 4S)     0.00020       0.93207
   137    C    7  S      Ryd( 5S)     0.00002      22.92940
   138    C    7  px     Val( 2p)     1.01266      -0.07026
   139    C    7  px     Ryd( 4p)     0.00557       1.52934
   140    C    7  px     Ryd( 3p)     0.00023       0.77233
   141    C    7  px     Ryd( 5p)     0.00017       2.96636
   142    C    7  py     Val( 2p)     0.95942      -0.05701
   143    C    7  py     Ryd( 4p)     0.00811       1.20343
   144    C    7  py     Ryd( 3p)     0.00043       0.63834
   145    C    7  py     Ryd( 5p)     0.00015       2.90464
   146    C    7  pz     Val( 2p)     1.07976      -0.12782
   147    C    7  pz     Ryd( 4p)     0.00177       0.63062
   148    C    7  pz     Ryd( 3p)     0.00034       0.55925
   149    C    7  pz     Ryd( 5p)     0.00009       2.47624
   150    C    7  dxy    Ryd( 3d)     0.00106       2.72910
   151    C    7  dxz    Ryd( 3d)     0.00065       1.64644
   152    C    7  dyz    Ryd( 3d)     0.00129       1.62375
   153    C    7  dx2y2  Ryd( 3d)     0.00106       2.51130
   154    C    7  dz2    Ryd( 3d)     0.00051       2.06243

   155    C    8  S      Cor( 1S)     1.99901     -10.02670
   156    C    8  S      Val( 2S)     0.93942      -0.15041
   157    C    8  S      Ryd( 3S)     0.00102       0.97060
   158    C    8  S      Ryd( 4S)     0.00011       1.40218
   159    C    8  S      Ryd( 5S)     0.00001      22.34416
   160    C    8  px     Val( 2p)     1.04653      -0.04525
   161    C    8  px     Ryd( 4p)     0.00368       0.89377
   162    C    8  px     Ryd( 3p)     0.00038       0.62107
   163    C    8  px     Ryd( 5p)     0.00015       3.14013
   164    C    8  py     Val( 2p)     1.16878      -0.06096
   165    C    8  py     Ryd( 4p)     0.00430       1.12663
   166    C    8  py     Ryd( 3p)     0.00021       0.41351
   167    C    8  py     Ryd( 5p)     0.00010       3.08551
   168    C    8  pz     Val( 2p)     1.05005      -0.11072
   169    C    8  pz     Ryd( 4p)     0.00179       0.54418
   170    C    8  pz     Ryd( 3p)     0.00041       0.29617
   171    C    8  pz     Ryd( 5p)     0.00004       2.72731
   172    C    8  dxy    Ryd( 3d)     0.00083       2.64917
   173    C    8  dxz    Ryd( 3d)     0.00052       1.64233
   174    C    8  dyz    Ryd( 3d)     0.00068       1.68219
   175    C    8  dx2y2  Ryd( 3d)     0.00056       2.55808
   176    C    8  dz2    Ryd( 3d)     0.00044       2.19476

   177    H    9  S      Val( 1S)     0.77743       0.05374
   178    H    9  S      Ryd( 2S)     0.00221       0.37550
   179    H    9  S      Ryd( 3S)     0.00026       2.34162
   180    H    9  px     Ryd( 2p)     0.00014       2.08166
   181    H    9  py     Ryd( 2p)     0.00044       2.76838
   182    H    9  pz     Ryd( 2p)     0.00017       1.62182

   183    H   10  S      Val( 1S)     0.78690       0.04364
   184    H   10  S      Ryd( 2S)     0.00087       0.77145
   185    H   10  S      Ryd( 3S)     0.00018       1.92449
   186    H   10  px     Ryd( 2p)     0.00034       2.58494
   187    H   10  py     Ryd( 2p)     0.00019       2.20524
   188    H   10  pz     Ryd( 2p)     0.00025       1.60044

   189    H   11  S      Val( 1S)     0.78785       0.03593
   190    H   11  S      Ryd( 2S)     0.00097       0.69488
   191    H   11  S      Ryd( 3S)     0.00019       1.99052
   192    H   11  px     Ryd( 2p)     0.00010       2.04726
   193    H   11  py     Ryd( 2p)     0.00044       2.73043
   194    H   11  pz     Ryd( 2p)     0.00022       1.60218

   195    H   12  S      Val( 1S)     0.57413       0.08900
   196    H   12  S      Ryd( 2S)     0.00098       1.20388
   197    H   12  S      Ryd( 3S)     0.00032       1.90014
   198    H   12  px     Ryd( 2p)     0.00021       2.09640
   199    H   12  py     Ryd( 2p)     0.00040       2.68592
   200    H   12  pz     Ryd( 2p)     0.00060       1.57949

   201    H   13  S      Val( 1S)     0.76847       0.05835
   202    H   13  S      Ryd( 3S)     0.00080       1.44412
   203    H   13  S      Ryd( 2S)     0.00020       1.21751
   204    H   13  px     Ryd( 2p)     0.00018       2.15767
   205    H   13  py     Ryd( 2p)     0.00039       2.68971
   206    H   13  pz     Ryd( 2p)     0.00020       1.61605

   207    N   14  S      Cor( 1S)     1.99926     -14.18067
   208    N   14  S      Val( 2S)     1.21590      -0.52268
   209    N   14  S      Ryd( 4S)     0.00055       1.27422
   210    N   14  S      Ryd( 3S)     0.00011       1.01598
   211    N   14  S      Ryd( 5S)     0.00000      35.39335
   212    N   14  px     Val( 2p)     1.28955      -0.24291
   213    N   14  px     Ryd( 3p)     0.00308       0.93483
   214    N   14  px     Ryd( 4p)     0.00037       0.95128
   215    N   14  px     Ryd( 5p)     0.00003       4.44861
   216    N   14  py     Val( 2p)     1.38771      -0.26322
   217    N   14  py     Ryd( 4p)     0.00268       1.08131
   218    N   14  py     Ryd( 3p)     0.00056       0.77591
   219    N   14  py     Ryd( 5p)     0.00003       4.41511
   220    N   14  pz     Val( 2p)     1.61930      -0.26349
   221    N   14  pz     Ryd( 3p)     0.00407       0.41593
   222    N   14  pz     Ryd( 4p)     0.00048       0.69564
   223    N   14  pz     Ryd( 5p)     0.00001       3.82044
   224    N   14  dxy    Ryd( 3d)     0.00085       2.98817
   225    N   14  dxz    Ryd( 3d)     0.00059       2.18894
   226    N   14  dyz    Ryd( 3d)     0.00035       2.21623
   227    N   14  dx2y2  Ryd( 3d)     0.00076       2.92989
   228    N   14  dz2    Ryd( 3d)     0.00058       2.65498

   229    C   15  S      Cor( 1S)     1.99924     -10.18907
   230    C   15  S      Val( 2S)     0.75070      -0.12979
   231    C   15  S      Ryd( 4S)     0.00326       1.16950
   232    C   15  S      Ryd( 3S)     0.00034       0.89275
   233    C   15  S      Ryd( 5S)     0.00005      22.30714
   234    C   15  px     Val( 2p)     0.91472      -0.05915
   235    C   15  px     Ryd( 4p)     0.00562       1.45259
   236    C   15  px     Ryd( 3p)     0.00045       0.62602
   237    C   15  px     Ryd( 5p)     0.00022       2.12267
   238    C   15  py     Val( 2p)     0.73084      -0.01502
   239    C   15  py     Ryd( 4p)     0.01941       1.07322
   240    C   15  py     Ryd( 3p)     0.00033       0.57774
   241    C   15  py     Ryd( 5p)     0.00021       2.33343
   242    C   15  pz     Val( 2p)     0.78594      -0.13418
   243    C   15  pz     Ryd( 4p)     0.00077       0.72942
   244    C   15  pz     Ryd( 3p)     0.00067       0.55237
   245    C   15  pz     Ryd( 5p)     0.00015       2.27719
   246    C   15  dxy    Ryd( 3d)     0.00411       2.54860
   247    C   15  dxz    Ryd( 3d)     0.00169       1.54924
   248    C   15  dyz    Ryd( 3d)     0.00505       1.62380
   249    C   15  dx2y2  Ryd( 3d)     0.00358       2.63219
   250    C   15  dz2    Ryd( 3d)     0.00066       2.07213

   251    O   16  S      Cor( 1S)     1.99975     -18.85030
   252    O   16  S      Val( 2S)     1.70467      -0.89697
   253    O   16  S      Ryd( 3S)     0.00025       1.72944
   254    O   16  S      Ryd( 4S)     0.00000      49.74979
   255    O   16  px     Val( 2p)     1.80897      -0.27766
   256    O   16  px     Ryd( 3p)     0.00220       0.67323
   257    O   16  px     Ryd( 4p)     0.00022       1.08943
   258    O   16  px     Ryd( 5p)     0.00002       5.12805
   259    O   16  py     Val( 2p)     1.60734      -0.30180
   260    O   16  py     Ryd( 3p)     0.00070       0.53507
   261    O   16  py     Ryd( 4p)     0.00023       1.16715
   262    O   16  py     Ryd( 5p)     0.00009       5.29022
   263    O   16  pz     Val( 2p)     1.48479      -0.26091
   264    O   16  pz     Ryd( 3p)     0.00168       0.54282
   265    O   16  pz     Ryd( 4p)     0.00017       0.94822
   266    O   16  pz     Ryd( 5p)     0.00002       4.94029
   267    O   16  dxy    Ryd( 3d)     0.00165       3.40385
   268    O   16  dxz    Ryd( 3d)     0.00027       2.87896
   269    O   16  dyz    Ryd( 3d)     0.00142       3.06554
   270    O   16  dx2y2  Ryd( 3d)     0.00169       3.38568
   271    O   16  dz2    Ryd( 3d)     0.00052       3.09147

   272    O   17  S      Cor( 1S)     1.99971     -18.96915
   273    O   17  S      Val( 2S)     1.62347      -0.89544
   274    O   17  S      Ryd( 3S)     0.00339       0.95639
   275    O   17  S      Ryd( 4S)     0.00012       1.17730
   276    O   17  S      Ryd( 5S)     0.00000      49.67614
   277    O   17  px     Val( 2p)     1.43614      -0.32639
   278    O   17  px     Ryd( 4p)     0.00134       1.06612
   279    O   17  px     Ryd( 3p)     0.00075       1.01923
   280    O   17  px     Ryd( 5p)     0.00003       5.25374
   281    O   17  py     Val( 2p)     1.68373      -0.34924
   282    O   17  py     Ryd( 3p)     0.00354       0.69388
   283    O   17  py     Ryd( 4p)     0.00065       0.87001
   284    O   17  py     Ryd( 5p)     0.00019       5.12758
   285    O   17  pz     Val( 2p)     1.79376      -0.33134
   286    O   17  pz     Ryd( 3p)     0.00277       0.52466
   287    O   17  pz     Ryd( 4p)     0.00072       0.79464
   288    O   17  pz     Ryd( 5p)     0.00000       4.94060
   289    O   17  dxy    Ryd( 3d)     0.00115       3.38005
   290    O   17  dxz    Ryd( 3d)     0.00015       2.95126
   291    O   17  dyz    Ryd( 3d)     0.00091       2.91997
   292    O   17  dx2y2  Ryd( 3d)     0.00108       3.38167
   293    O   17  dz2    Ryd( 3d)     0.00060       3.23792

   294    C   18  S      Cor( 1S)     1.99921     -10.10904
   295    C   18  S      Val( 2S)     1.02498      -0.26102
   296    C   18  S      Ryd( 3S)     0.00439       0.90990
   297    C   18  S      Ryd( 4S)     0.00025       1.04137
   298    C   18  S      Ryd( 5S)     0.00000      23.01884
   299    C   18  px     Val( 2p)     0.69453      -0.07521
   300    C   18  px     Ryd( 4p)     0.00187       0.62719
   301    C   18  px     Ryd( 3p)     0.00048       0.57553
   302    C   18  px     Ryd( 5p)     0.00016       2.72022
   303    C   18  py     Val( 2p)     1.10360      -0.10723
   304    C   18  py     Ryd( 4p)     0.00290       0.69240
   305    C   18  py     Ryd( 3p)     0.00037       0.63465
   306    C   18  py     Ryd( 5p)     0.00024       2.65351
   307    C   18  pz     Val( 2p)     1.19495      -0.10777
   308    C   18  pz     Ryd( 3p)     0.00165       0.62765
   309    C   18  pz     Ryd( 4p)     0.00036       0.63014
   310    C   18  pz     Ryd( 5p)     0.00010       2.64710
   311    C   18  dxy    Ryd( 3d)     0.00124       2.02107
   312    C   18  dxz    Ryd( 3d)     0.00117       1.81339
   313    C   18  dyz    Ryd( 3d)     0.00114       2.15730
   314    C   18  dx2y2  Ryd( 3d)     0.00199       2.16503
   315    C   18  dz2    Ryd( 3d)     0.00113       2.12710

   316    C   19  S      Cor( 1S)     1.99936     -10.03225
   317    C   19  S      Val( 2S)     1.09404      -0.26510
   318    C   19  S      Ryd( 4S)     0.00108       0.78121
   319    C   19  S      Ryd( 3S)     0.00029       0.73893
   320    C   19  S      Ryd( 5S)     0.00000      23.28612
   321    C   19  px     Val( 2p)     1.18131      -0.10187
   322    C   19  px     Ryd( 4p)     0.00212       0.60402
   323    C   19  px     Ryd( 3p)     0.00009       0.28629
   324    C   19  px     Ryd( 5p)     0.00003       3.05601
   325    C   19  py     Val( 2p)     1.09260      -0.09998
   326    C   19  py     Ryd( 4p)     0.00097       0.51905
   327    C   19  py     Ryd( 3p)     0.00023       0.26182
   328    C   19  py     Ryd( 5p)     0.00011       3.00807
   329    C   19  pz     Val( 2p)     1.21591      -0.10184
   330    C   19  pz     Ryd( 4p)     0.00085       0.51045
   331    C   19  pz     Ryd( 3p)     0.00007       0.25075
   332    C   19  pz     Ryd( 5p)     0.00002       3.05088
   333    C   19  dxy    Ryd( 3d)     0.00033       2.01151
   334    C   19  dxz    Ryd( 3d)     0.00025       1.87341
   335    C   19  dyz    Ryd( 3d)     0.00088       2.17037
   336    C   19  dx2y2  Ryd( 3d)     0.00074       2.20672
   337    C   19  dz2    Ryd( 3d)     0.00069       2.13095

   338    H   20  S      Val( 1S)     0.81209       0.01595
   339    H   20  S      Ryd( 2S)     0.00128       0.67866
   340    H   20  S      Ryd( 3S)     0.00019       2.14886
   341    H   20  px     Ryd( 2p)     0.00010       1.80887
   342    H   20  py     Ryd( 2p)     0.00028       2.06229
   343    H   20  pz     Ryd( 2p)     0.00032       2.41067

   344    H   21  S      Val( 1S)     0.81213       0.01593
   345    H   21  S      Ryd( 2S)     0.00128       0.67875
   346    H   21  S      Ryd( 3S)     0.00019       2.14881
   347    H   21  px     Ryd( 2p)     0.00010       1.80893
   348    H   21  py     Ryd( 2p)     0.00028       2.06161
   349    H   21  pz     Ryd( 2p)     0.00032       2.41160

   350    H   22  S      Val( 1S)     0.79123       0.02154
   351    H   22  S      Ryd( 2S)     0.00054       0.63669
   352    H   22  S      Ryd( 3S)     0.00010       2.08824
   353    H   22  px     Ryd( 2p)     0.00032       2.67797
   354    H   22  py     Ryd( 2p)     0.00013       1.70528
   355    H   22  pz     Ryd( 2p)     0.00010       1.74502

   356    H   23  S      Val( 1S)     0.79229       0.02967
   357    H   23  S      Ryd( 2S)     0.00098       0.88218
   358    H   23  S      Ryd( 3S)     0.00015       1.87010
   359    H   23  px     Ryd( 2p)     0.00014       1.83037
   360    H   23  py     Ryd( 2p)     0.00016       1.97241
   361    H   23  pz     Ryd( 2p)     0.00024       2.38021

   362    H   24  S      Val( 1S)     0.79229       0.02967
   363    H   24  S      Ryd( 2S)     0.00098       0.88215
   364    H   24  S      Ryd( 3S)     0.00015       1.87013
   365    H   24  px     Ryd( 2p)     0.00014       1.83040
   366    H   24  py     Ryd( 2p)     0.00016       1.97337
   367    H   24  pz     Ryd( 2p)     0.00024       2.37919

   368    O   25  S      Cor( 1S)     1.99971     -18.94985
   369    O   25  S      Val( 2S)     1.59047      -0.86276
   370    O   25  S      Ryd( 3S)     0.00281       1.12693
   371    O   25  S      Ryd( 4S)     0.00007       1.34322
   372    O   25  S      Ryd( 5S)     0.00000      49.42105
   373    O   25  px     Val( 2p)     1.35725      -0.30186
   374    O   25  px     Ryd( 4p)     0.00171       1.14942
   375    O   25  px     Ryd( 3p)     0.00056       0.80954
   376    O   25  px     Ryd( 5p)     0.00001       5.26121
   377    O   25  py     Val( 2p)     1.72845      -0.32879
   378    O   25  py     Ryd( 3p)     0.00382       0.73104
   379    O   25  py     Ryd( 4p)     0.00059       0.81327
   380    O   25  py     Ryd( 5p)     0.00005       5.06445
   381    O   25  pz     Val( 2p)     1.85455      -0.30969
   382    O   25  pz     Ryd( 3p)     0.00360       0.62070
   383    O   25  pz     Ryd( 4p)     0.00027       0.66564
   384    O   25  pz     Ryd( 5p)     0.00000       4.96359
   385    O   25  dxy    Ryd( 3d)     0.00136       3.55397
   386    O   25  dxz    Ryd( 3d)     0.00017       2.98719
   387    O   25  dyz    Ryd( 3d)     0.00087       2.90593
   388    O   25  dx2y2  Ryd( 3d)     0.00075       3.24045
   389    O   25  dz2    Ryd( 3d)     0.00061       3.25602

   390    C   26  S      Cor( 1S)     1.99926     -10.10096
   391    C   26  S      Val( 2S)     1.07727      -0.27286
   392    C   26  S      Ryd( 3S)     0.00186       0.88871
   393    C   26  S      Ryd( 4S)     0.00007       1.06091
   394    C   26  S      Ryd( 5S)     0.00000      22.90911
   395    C   26  px     Val( 2p)     0.81682      -0.08829
   396    C   26  px     Ryd( 3p)     0.00246       0.69252
   397    C   26  px     Ryd( 4p)     0.00021       0.99001
   398    C   26  px     Ryd( 5p)     0.00006       2.17043
   399    C   26  py     Val( 2p)     1.11531      -0.10579
   400    C   26  py     Ryd( 3p)     0.00311       0.69248
   401    C   26  py     Ryd( 4p)     0.00033       1.06768
   402    C   26  py     Ryd( 5p)     0.00005       2.18728
   403    C   26  pz     Val( 2p)     1.18140      -0.11250
   404    C   26  pz     Ryd( 3p)     0.00030       0.60224
   405    C   26  pz     Ryd( 4p)     0.00063       0.98163
   406    C   26  pz     Ryd( 5p)     0.00005       2.21504
   407    C   26  dxy    Ryd( 3d)     0.00181       2.19867
   408    C   26  dxz    Ryd( 3d)     0.00136       1.72270
   409    C   26  dyz    Ryd( 3d)     0.00104       2.18578
   410    C   26  dx2y2  Ryd( 3d)     0.00157       1.95577
   411    C   26  dz2    Ryd( 3d)     0.00101       2.12982

   412    H   27  S      Val( 1S)     0.80795       0.01620
   413    H   27  S      Ryd( 2S)     0.00035       0.45621
   414    H   27  S      Ryd( 3S)     0.00012       2.22429
   415    H   27  px     Ryd( 2p)     0.00014       2.14800
   416    H   27  py     Ryd( 2p)     0.00033       2.25229
   417    H   27  pz     Ryd( 2p)     0.00016       1.72404

   418    H   28  S      Val( 1S)     0.83078      -0.00086
   419    H   28  S      Ryd( 2S)     0.00156       0.51530
   420    H   28  S      Ryd( 3S)     0.00013       2.24808
   421    H   28  px     Ryd( 2p)     0.00009       1.72278
   422    H   28  py     Ryd( 2p)     0.00023       2.05900
   423    H   28  pz     Ryd( 2p)     0.00037       2.39660

   424    H   29  S      Val( 1S)     0.83079      -0.00086
   425    H   29  S      Ryd( 2S)     0.00156       0.51527
   426    H   29  S      Ryd( 3S)     0.00013       2.24812
   427    H   29  px     Ryd( 2p)     0.00009       1.72274
   428    H   29  py     Ryd( 2p)     0.00023       2.05901
   429    H   29  pz     Ryd( 2p)     0.00037       2.39666

 WARNING:  1 low occupancy (<1.9990e) core orbital  found on  C    1
           1 low occupancy (<1.9990e) core orbital  found on  C    3
           1 low occupancy (<1.9990e) core orbital  found on  C    4
           1 low occupancy (<1.9990e) core orbital  found on  C    7

 WARNING:  Population inversion found on atom  C    1
           Population inversion found on atom  C    2
           Population inversion found on atom  C    3
           Population inversion found on atom  C    4
           Population inversion found on atom  C    5
           Population inversion found on atom  C    6
           Population inversion found on atom  C    7
           Population inversion found on atom  C    8
           Population inversion found on atom  H   13
           Population inversion found on atom  N   14
           Population inversion found on atom  C   15
           Population inversion found on atom  O   17
           Population inversion found on atom  C   18
           Population inversion found on atom  C   19
           Population inversion found on atom  O   25
           Population inversion found on atom  C   26


 Summary of Natural Population Analysis:                  
                                                          
                                       Natural Population 
                Natural  -----------------------------------------------
    Atom  No    Charge         Core      Valence    Rydberg      Total
 -----------------------------------------------------------------------
      C    1    0.15180      1.99898     3.82902    0.02020     5.84820
      C    2   -0.08420      1.99902     4.06959    0.01559     6.08420
      C    3   -0.22276      1.99899     4.20710    0.01667     6.22276
      C    4    0.30352      1.99879     3.67494    0.02275     5.69648
      C    5   -0.27114      1.99910     4.25641    0.01563     6.27114
      C    6   -0.21723      1.99909     4.20141    0.01674     6.21723
      C    7    0.05746      1.99899     3.91993    0.02362     5.94254
      C    8   -0.21901      1.99901     4.20479    0.01522     6.21901
      H    9    0.21934      0.00000     0.77743    0.00323     0.78066
      H   10    0.21126      0.00000     0.78690    0.00183     0.78874
      H   11    0.21023      0.00000     0.78785    0.00192     0.78977
      H   12    0.42335      0.00000     0.57413    0.00252     0.57665
      H   13    0.22977      0.00000     0.76847    0.00176     0.77023
      N   14   -0.52680      1.99926     5.51247    0.01508     7.52680
      C   15    0.77200      1.99924     3.18220    0.04656     5.22800
      O   16   -0.61666      1.99975     6.60578    0.01113     8.61666
      O   17   -0.55420      1.99971     6.53711    0.01738     8.55420
      C   18   -0.03672      1.99921     4.01805    0.01946     6.03672
      C   19   -0.59197      1.99936     4.58386    0.00875     6.59197
      H   20    0.18573      0.00000     0.81209    0.00218     0.81427
      H   21    0.18570      0.00000     0.81213    0.00218     0.81430
      H   22    0.20757      0.00000     0.79123    0.00120     0.79243
      H   23    0.20605      0.00000     0.79229    0.00166     0.79395
      H   24    0.20606      0.00000     0.79229    0.00165     0.79394
      O   25   -0.54767      1.99971     6.53071    0.01725     8.54767
      C   26   -0.20598      1.99926     4.19080    0.01592     6.20598
      H   27    0.19095      0.00000     0.80795    0.00110     0.80905
      H   28    0.16683      0.00000     0.83078    0.00238     0.83317
      H   29    0.16683      0.00000     0.83079    0.00238     0.83317
 =======================================================================
   * Total *    0.00009     31.98746    83.68851    0.32394   115.99991

                                 Natural Population      
 --------------------------------------------------------
   Core                      31.98746 ( 99.9608% of  32)
   Valence                   83.68851 ( 99.6292% of  84)
   Natural Minimal Basis    115.67597 ( 99.7207% of 116)
   Natural Rydberg Basis      0.32394 (  0.2793% of 116)
 --------------------------------------------------------

    Atom  No          Natural Electron Configuration
 ----------------------------------------------------------------------------
      C    1      [core]2S( 0.82)2p( 3.01)4p( 0.01)
      C    2      [core]2S( 0.87)2p( 3.20)4p( 0.01)
      C    3      [core]2S( 0.93)2p( 3.27)4p( 0.01)
      C    4      [core]2S( 0.82)2p( 2.85)3d( 0.01)4p( 0.01)
      C    5      [core]2S( 0.95)2p( 3.31)4p( 0.01)
      C    6      [core]2S( 0.93)2p( 3.27)4p( 0.01)
      C    7      [core]2S( 0.87)2p( 3.05)4p( 0.02)
      C    8      [core]2S( 0.94)2p( 3.27)4p( 0.01)
      H    9            1S( 0.78)
      H   10            1S( 0.79)
      H   11            1S( 0.79)
      H   12            1S( 0.57)
      H   13            1S( 0.77)
      N   14      [core]2S( 1.22)2p( 4.30)3p( 0.01)
      C   15      [core]2S( 0.75)2p( 2.43)3d( 0.02)4p( 0.03)
      O   16      [core]2S( 1.70)2p( 4.90)3d( 0.01)
      O   17      [core]2S( 1.62)2p( 4.91)3p( 0.01)
      C   18      [core]2S( 1.02)2p( 2.99)3d( 0.01)4p( 0.01)
      C   19      [core]2S( 1.09)2p( 3.49)
      H   20            1S( 0.81)
      H   21            1S( 0.81)
      H   22            1S( 0.79)
      H   23            1S( 0.79)
      H   24            1S( 0.79)
      O   25      [core]2S( 1.59)2p( 4.94)3p( 0.01)
      C   26      [core]2S( 1.08)2p( 3.11)3p( 0.01)3d( 0.01)
      H   27            1S( 0.81)
      H   28            1S( 0.83)
      H   29            1S( 0.83)


 NBO analysis skipped by request.
 1\1\GINC-COREV2-22-035\SP\RB3LYP\6-311+G(d,p)\C12H13N1O3\ROOT\23-Jul-2
 021\0\\# b3lyp/6-311+g(d,p) geom=connectivity pop=(hirshfeld,chelpg,mb
 s,npa)\\Table9_7\\0,1\C,0,-0.932042,0.985863,0.000156\C,0,-0.879038,-0
 .435849,0.000288\C,0,-2.071139,-1.171009,0.000274\C,0,-3.277822,-0.491
 004,0.000227\C,0,-3.31431,0.920576,-0.000033\C,0,-2.146304,1.666493,-0
 .000063\C,0,1.222889,0.373746,0.000233\C,0,0.50119,-0.797674,0.000183\
 H,0,-2.071614,-2.251529,0.00027\H,0,-4.259944,1.438906,-0.000331\H,0,-
 2.189058,2.746779,-0.000231\H,0,0.674748,2.403044,0.000449\H,0,0.91993
 ,-1.787742,-0.000235\N,0,0.360319,1.448646,0.000275\C,0,2.662191,0.639
 107,-0.00007\O,0,3.130359,1.759685,-0.000003\O,0,3.396506,-0.486933,-0
 .000477\C,0,4.833742,-0.308367,-0.000445\C,0,5.465667,-1.682641,0.0002
 92\H,0,5.111898,0.270334,0.879725\H,0,5.111912,0.269326,-0.881288\H,0,
 6.551531,-1.584456,0.00018\H,0,5.17342,-2.247464,0.884875\H,0,5.173333
 ,-2.248487,-0.883608\O,0,-4.404713,-1.272971,-0.000156\C,0,-5.674019,-
 0.641257,-0.000309\H,0,-6.406188,-1.443959,-0.000387\H,0,-5.817817,-0.
 025711,0.891317\H,0,-5.817651,-0.025717,-0.891964\\Version=ES64L-G09Re
 vD.01\State=1-A\HF=-745.7481539\RMSD=7.381e-09\Dipole=-0.2395594,0.075
 9493,-0.0001603\Quadrupole=11.4395318,-3.9560189,-7.4835128,-9.0797182
 ,0.0013643,0.0005439\PG=C01 [X(C12H13N1O3)]\\@


 IT PROBABLY IS NOT POSSIBLE FOR A SCIENTIST TO INTERROGATE NATURE 
 FROM A WHOLLY DISINTERESTED VIEWPOINT.
 EVEN IF HE HAS NO PARTICULAR AXE TO GRIND, HE IS LIKELY TO HAVE 
 A DISTINCTIVE WAY OF VIEWING NATURE.

                                                   -- JOHN LOSEE
 Job cpu time:       0 days  0 hours 23 minutes 38.8 seconds.
 File lengths (MBytes):  RWF=    137 Int=      0 D2E=      0 Chk=      8 Scr=      1
 Normal termination of Gaussian 09 at Fri Jul 23 17:41:22 2021.
