 Entering Gaussian System, Link 0=g09
 Initial command:
 /cm/shared/apps/gaussian/g09revD.01/g09/l1.exe "//home/sweav003/CHB/CHActivation_Mkhalid/OtherCharges/G09-Table9_3.com.o9447156.tmp/Gau-75799.inp" -scrdir="//home/sweav003/CHB/CHActivation_Mkhalid/OtherCharges/G09-Table9_3.com.o9447156.tmp/"
 Entering Link 1 = /cm/shared/apps/gaussian/g09revD.01/g09/l1.exe PID=     75800.
  
 Copyright (c) 1988,1990,1992,1993,1995,1998,2003,2009,2013,
            Gaussian, Inc.  All Rights Reserved.
  
 This is part of the Gaussian(R) 09 program.  It is based on
 the Gaussian(R) 03 system (copyright 2003, Gaussian, Inc.),
 the Gaussian(R) 98 system (copyright 1998, Gaussian, Inc.),
 the Gaussian(R) 94 system (copyright 1995, Gaussian, Inc.),
 the Gaussian 92(TM) system (copyright 1992, Gaussian, Inc.),
 the Gaussian 90(TM) system (copyright 1990, Gaussian, Inc.),
 the Gaussian 88(TM) system (copyright 1988, Gaussian, Inc.),
 the Gaussian 86(TM) system (copyright 1986, Carnegie Mellon
 University), and the Gaussian 82(TM) system (copyright 1983,
 Carnegie Mellon University). Gaussian is a federally registered
 trademark of Gaussian, Inc.
  
 This software contains proprietary and confidential information,
 including trade secrets, belonging to Gaussian, Inc.
  
 This software is provided under written license and may be
 used, copied, transmitted, or stored only in accord with that
 written license.
  
 The following legend is applicable only to US Government
 contracts under FAR:
  
                    RESTRICTED RIGHTS LEGEND
  
 Use, reproduction and disclosure by the US Government is
 subject to restrictions as set forth in subparagraphs (a)
 and (c) of the Commercial Computer Software - Restricted
 Rights clause in FAR 52.227-19.
  
 Gaussian, Inc.
 340 Quinnipiac St., Bldg. 40, Wallingford CT 06492
  
  
 ---------------------------------------------------------------
 Warning -- This program may not be used in any manner that
 competes with the business of Gaussian, Inc. or will provide
 assistance to any competitor of Gaussian, Inc.  The licensee
 of this program is prohibited from giving any competitor of
 Gaussian, Inc. access to this program.  By using this program,
 the user acknowledges that Gaussian, Inc. is engaged in the
 business of creating and licensing software in the field of
 computational chemistry and represents and warrants to the
 licensee that it is not a competitor of Gaussian, Inc. and that
 it will not use this program in any manner prohibited above.
 ---------------------------------------------------------------
  

 Cite this work as:
 Gaussian 09, Revision D.01,
 M. J. Frisch, G. W. Trucks, H. B. Schlegel, G. E. Scuseria, 
 M. A. Robb, J. R. Cheeseman, G. Scalmani, V. Barone, B. Mennucci, 
 G. A. Petersson, H. Nakatsuji, M. Caricato, X. Li, H. P. Hratchian, 
 A. F. Izmaylov, J. Bloino, G. Zheng, J. L. Sonnenberg, M. Hada, 
 M. Ehara, K. Toyota, R. Fukuda, J. Hasegawa, M. Ishida, T. Nakajima, 
 Y. Honda, O. Kitao, H. Nakai, T. Vreven, J. A. Montgomery, Jr., 
 J. E. Peralta, F. Ogliaro, M. Bearpark, J. J. Heyd, E. Brothers, 
 K. N. Kudin, V. N. Staroverov, T. Keith, R. Kobayashi, J. Normand, 
 K. Raghavachari, A. Rendell, J. C. Burant, S. S. Iyengar, J. Tomasi, 
 M. Cossi, N. Rega, J. M. Millam, M. Klene, J. E. Knox, J. B. Cross, 
 V. Bakken, C. Adamo, J. Jaramillo, R. Gomperts, R. E. Stratmann, 
 O. Yazyev, A. J. Austin, R. Cammi, C. Pomelli, J. W. Ochterski, 
 R. L. Martin, K. Morokuma, V. G. Zakrzewski, G. A. Voth, 
 P. Salvador, J. J. Dannenberg, S. Dapprich, A. D. Daniels, 
 O. Farkas, J. B. Foresman, J. V. Ortiz, J. Cioslowski, 
 and D. J. Fox, Gaussian, Inc., Wallingford CT, 2013.
 
 ******************************************
 Gaussian 09:  ES64L-G09RevD.01 24-Apr-2013
                23-Jul-2021 
 ******************************************
 %mem=100MW
 %nprocshared=20
 Will use up to   20 processors via shared memory.
 ---------------------------------------------------------------------
 # b3lyp/6-311+g(d,p) geom=connectivity pop=(hirshfeld,chelpg,mbs,npa)
 ---------------------------------------------------------------------
 1/38=1,57=2/1;
 2/12=2,17=6,18=5,40=1/2;
 3/5=4,6=6,7=111,11=2,16=1,25=1,30=1,74=-5/1,2,3;
 4//1;
 5/5=2,38=5/2;
 6/7=2,8=2,9=2,10=2,15=8,20=3,27=100,28=1,40=-1,79=1/1,2,7;
 99/5=1,9=1/99;
 --------
 Table9_3
 --------
 Symbolic Z-matrix:
 Charge =  0 Multiplicity = 1
 6                    -0.73497   0.76852   0.00007 
 6                    -0.54756  -0.64011   0.00029 
 6                     0.75233  -1.15718   0.0002 
 6                     1.83112  -0.27758   0.00036 
 6                     1.62946   1.11672   0.0004 
 6                     0.34065   1.64826   0.00014 
 6                    -2.77723  -0.21166   0.00008 
 6                    -1.85822  -1.23034   0.00033 
 1                     0.94264  -2.22383   0.00033 
 1                     2.47207   1.7941    0.00064 
 1                     0.19633   2.72323   0.00016 
 1                    -2.54137   1.90316   0.00502 
 1                    -2.09474  -2.28335   0.00004 
 7                    -2.10213   0.99801  -0.00115 
 6                    -4.26951  -0.25945  -0.0004 
 1                    -4.69009   0.23484   0.88235 
 1                    -4.68923   0.23068  -0.88585 
 1                    -4.61071  -1.2951    0.00196 
 8                     3.07505  -0.86469   0.00032 
 6                     4.22162  -0.03222  -0.00079 
 1                     5.07869  -0.70471  -0.00167 
 1                     4.26158   0.60139  -0.89468 
 1                     4.26313   0.60127   0.89317 
 
                          Input orientation:                          
 ---------------------------------------------------------------------
 Center     Atomic      Atomic             Coordinates (Angstroms)
 Number     Number       Type             X           Y           Z
 ---------------------------------------------------------------------
      1          6           0       -0.734974    0.768515    0.000065
      2          6           0       -0.547556   -0.640105    0.000285
      3          6           0        0.752332   -1.157177    0.000199
      4          6           0        1.831122   -0.277576    0.000362
      5          6           0        1.629463    1.116721    0.000400
      6          6           0        0.340646    1.648256    0.000135
      7          6           0       -2.777229   -0.211658    0.000075
      8          6           0       -1.858224   -1.230341    0.000333
      9          1           0        0.942638   -2.223829    0.000331
     10          1           0        2.472070    1.794104    0.000638
     11          1           0        0.196328    2.723225    0.000160
     12          1           0       -2.541371    1.903156    0.005018
     13          1           0       -2.094741   -2.283352    0.000038
     14          7           0       -2.102126    0.998010   -0.001150
     15          6           0       -4.269508   -0.259448   -0.000395
     16          1           0       -4.690092    0.234838    0.882352
     17          1           0       -4.689230    0.230675   -0.885853
     18          1           0       -4.610707   -1.295096    0.001963
     19          8           0        3.075055   -0.864692    0.000318
     20          6           0        4.221618   -0.032222   -0.000786
     21          1           0        5.078693   -0.704708   -0.001672
     22          1           0        4.261584    0.601393   -0.894675
     23          1           0        4.263133    0.601265    0.893170
 ---------------------------------------------------------------------
                    Distance matrix (angstroms):
                    1          2          3          4          5
     1  C    0.000000
     2  C    1.421033   0.000000
     3  C    2.433181   1.398954   0.000000
     4  C    2.771129   2.406146   1.391936   0.000000
     5  C    2.389939   2.797472   2.437206   1.408805   0.000000
     6  C    1.389569   2.454689   2.835479   2.435231   1.394123
     7  C    2.265291   2.270464   3.654012   4.608822   4.602556
     8  C    2.292840   1.437438   2.611581   3.810385   4.203886
     9  H    3.430525   2.174594   1.083496   2.139464   3.410426
    10  H    3.367041   3.878597   3.415781   2.168565   1.081126
    11  H    2.165229   3.444612   3.920033   3.417215   2.152843
    12  H    2.133191   3.231640   4.496014   4.886134   4.244332
    13  H    3.341086   2.256998   3.061714   4.408575   5.042836
    14  N    1.386281   2.258342   3.576697   4.134920   3.733477
    15  C    3.680983   3.741367   5.101450   6.100657   6.057367
    16  H    4.087322   4.324832   5.686465   6.600508   6.441454
    17  H    4.087819   4.323998   5.685228   6.599900   6.441770
    18  H    4.390877   4.115606   5.364812   6.521695   6.690036
    19  O    4.145321   3.629566   2.341066   1.375527   2.452699
    20  C    5.020855   4.807759   3.647118   2.403055   2.835373
    21  H    5.997426   5.626620   4.349958   3.275540   3.900615
    22  H    5.078787   5.046791   4.025943   2.735109   2.827505
    23  H    5.080028   5.047868   4.026815   2.735717   2.828242
                    6          7          8          9         10
     6  C    0.000000
     7  C    3.630485   0.000000
     8  C    3.622340   1.371964   0.000000
     9  H    3.918601   4.229213   2.971842   0.000000
    10  H    2.136408   5.619450   5.281923   4.299180   0.000000
    11  H    1.084613   4.177987   4.455544   5.003031   2.458102
    12  H    2.893271   2.127931   3.207104   5.400958   5.014629
    13  H    4.624787   2.181217   1.079246   3.037962   6.122206
    14  N    2.527836   1.385302   2.241660   4.432926   4.642956
    15  C    4.989274   1.493044   2.599408   5.570032   7.047407
    16  H    5.299470   2.153327   3.308199   6.208917   7.382770
    17  H    5.300393   2.153201   3.306734   6.207081   7.383386
    18  H    5.760141   2.129667   2.753245   5.630470   7.727153
    19  O    3.713745   5.888606   4.946811   2.528726   2.726314
    20  C    4.229179   7.001147   6.196771   3.943964   2.529108
    21  H    5.290135   7.871379   6.956803   4.406210   3.610893
    22  H    4.155762   7.141885   6.450453   4.449530   2.329486
    23  H    4.156875   7.143190   6.451585   4.450169   2.329675
                   11         12         13         14         15
    11  H    0.000000
    12  H    2.857890   0.000000
    13  H    5.505889   4.210267   0.000000
    14  N    2.873893   1.006113   3.281371   0.000000
    15  C    5.370291   2.768274   2.970825   2.505743   0.000000
    16  H    5.554047   2.858322   3.722312   2.839115   1.095651
    17  H    5.555763   2.864287   3.719746   2.839826   1.095638
    18  H    6.265341   3.809328   2.703098   3.398724   1.090408
    19  O    4.600024   6.261409   5.360913   5.502078   7.369459
    20  C    4.878058   7.034468   6.705518   6.407115   8.494166
    21  H    5.965586   8.053966   7.345085   7.379933   9.358799
    22  H    4.672174   6.984571   7.037410   6.438361   8.620923
    23  H    4.673231   6.984627   7.038555   6.440011   8.622369
                   16         17         18         19         20
    16  H    0.000000
    17  H    1.768210   0.000000
    18  H    1.766942   1.767020   0.000000
    19  O    7.892050   7.891087   7.697804   0.000000
    20  C    8.959343   8.958553   8.922154   1.416903   0.000000
    21  H    9.853599   9.852362   9.707371   2.010016   1.089411
    22  H    9.133712   8.958492   9.116917   2.087647   1.096404
    23  H    8.960727   9.134936   9.117866   2.087521   1.096443
                   21         22         23
    21  H    0.000000
    22  H    1.780736   0.000000
    23  H    1.780855   1.787846   0.000000
 Stoichiometry    C10H11NO
 Framework group  C1[X(C10H11NO)]
 Deg. of freedom    63
 Full point group                 C1      NOp   1
 Largest Abelian subgroup         C1      NOp   1
 Largest concise Abelian subgroup C1      NOp   1
                         Standard orientation:                         
 ---------------------------------------------------------------------
 Center     Atomic      Atomic             Coordinates (Angstroms)
 Number     Number       Type             X           Y           Z
 ---------------------------------------------------------------------
      1          6           0        0.734974    0.768515   -0.000065
      2          6           0        0.547556   -0.640105   -0.000285
      3          6           0       -0.752332   -1.157177   -0.000199
      4          6           0       -1.831122   -0.277576   -0.000362
      5          6           0       -1.629463    1.116721   -0.000400
      6          6           0       -0.340646    1.648256   -0.000135
      7          6           0        2.777229   -0.211658   -0.000075
      8          6           0        1.858224   -1.230341   -0.000333
      9          1           0       -0.942638   -2.223829   -0.000331
     10          1           0       -2.472070    1.794104   -0.000638
     11          1           0       -0.196328    2.723225   -0.000160
     12          1           0        2.541371    1.903156   -0.005018
     13          1           0        2.094741   -2.283352   -0.000038
     14          7           0        2.102126    0.998010    0.001150
     15          6           0        4.269508   -0.259448    0.000395
     16          1           0        4.690092    0.234838   -0.882352
     17          1           0        4.689230    0.230675    0.885853
     18          1           0        4.610707   -1.295096   -0.001963
     19          8           0       -3.075055   -0.864692   -0.000318
     20          6           0       -4.221618   -0.032222    0.000786
     21          1           0       -5.078693   -0.704708    0.001672
     22          1           0       -4.261584    0.601393    0.894675
     23          1           0       -4.263133    0.601265   -0.893170
 ---------------------------------------------------------------------
 Rotational constants (GHZ):      3.3090897      0.4955991      0.4333979
 Standard basis: 6-311+G(d,p) (5D, 7F)
 There are   342 symmetry adapted cartesian basis functions of A   symmetry.
 There are   330 symmetry adapted basis functions of A   symmetry.
   330 basis functions,   520 primitive gaussians,   342 cartesian basis functions
    43 alpha electrons       43 beta electrons
       nuclear repulsion energy       657.0649842456 Hartrees.
 NAtoms=   23 NActive=   23 NUniq=   23 SFac= 1.00D+00 NAtFMM=   60 NAOKFM=F Big=F
 Integral buffers will be    131072 words long.
 Raffenetti 2 integral format.
 Two-electron integral symmetry is turned on.
 One-electron integrals computed using PRISM.
 NBasis=   330 RedAO= T EigKep=  1.41D-06  NBF=   330
 NBsUse=   329 1.00D-06 EigRej=  6.65D-07 NBFU=   329
 ExpMin= 4.38D-02 ExpMax= 8.59D+03 ExpMxC= 1.30D+03 IAcc=2 IRadAn=         4 AccDes= 0.00D+00
 Harris functional with IExCor=  402 and IRadAn=       4 diagonalized for initial guess.
 HarFok:  IExCor=  402 AccDes= 0.00D+00 IRadAn=         4 IDoV= 1 UseB2=F ITyADJ=14
 ICtDFT=  3500011 ScaDFX=  1.000000  1.000000  1.000000  1.000000
 FoFCou: FMM=F IPFlag=           0 FMFlag=      100000 FMFlg1=           0
         NFxFlg=           0 DoJE=T BraDBF=F KetDBF=T FulRan=T
         wScrn=  0.000000 ICntrl=     500 IOpCl=  0 I1Cent=   200000004 NGrid=           0
         NMat0=    1 NMatS0=      1 NMatT0=    0 NMatD0=    1 NMtDS0=    0 NMtDT0=    0
 Petite list used in FoFCou.
 Requested convergence on RMS density matrix=1.00D-08 within 128 cycles.
 Requested convergence on MAX density matrix=1.00D-06.
 Requested convergence on             energy=1.00D-06.
 No special actions if energy rises.
 SCF Done:  E(RB3LYP) =  -517.797612862     A.U. after   14 cycles
            NFock= 14  Conv=0.64D-08     -V/T= 2.0043

 **********************************************************************

            Population analysis using the SCF density.

 **********************************************************************

 Orbital symmetries:
       Occupied  (A) (A) (A) (A) (A) (A) (A) (A) (A) (A) (A) (A)
                 (A) (A) (A) (A) (A) (A) (A) (A) (A) (A) (A) (A)
                 (A) (A) (A) (A) (A) (A) (A) (A) (A) (A) (A) (A)
                 (A) (A) (A) (A) (A) (A) (A)
       Virtual   (A) (A) (A) (A) (A) (A) (A) (A) (A) (A) (A) (A)
                 (A) (A) (A) (A) (A) (A) (A) (A) (A) (A) (A) (A)
                 (A) (A) (A) (A) (A) (A) (A) (A) (A) (A) (A) (A)
                 (A) (A) (A) (A) (A) (A) (A) (A) (A) (A) (A) (A)
                 (A) (A) (A) (A) (A) (A) (A) (A) (A) (A) (A) (A)
                 (A) (A) (A) (A) (A) (A) (A) (A) (A) (A) (A) (A)
                 (A) (A) (A) (A) (A) (A) (A) (A) (A) (A) (A) (A)
                 (A) (A) (A) (A) (A) (A) (A) (A) (A) (A) (A) (A)
                 (A) (A) (A) (A) (A) (A) (A) (A) (A) (A) (A) (A)
                 (A) (A) (A) (A) (A) (A) (A) (A) (A) (A) (A) (A)
                 (A) (A) (A) (A) (A) (A) (A) (A) (A) (A) (A) (A)
                 (A) (A) (A) (A) (A) (A) (A) (A) (A) (A) (A) (A)
                 (A) (A) (A) (A) (A) (A) (A) (A) (A) (A) (A) (A)
                 (A) (A) (A) (A) (A) (A) (A) (A) (A) (A) (A) (A)
                 (A) (A) (A) (A) (A) (A) (A) (A) (A) (A) (A) (A)
                 (A) (A) (A) (A) (A) (A) (A) (A) (A) (A) (A) (A)
                 (A) (A) (A) (A) (A) (A) (A) (A) (A) (A) (A) (A)
                 (A) (A) (A) (A) (A) (A) (A) (A) (A) (A) (A) (A)
                 (A) (A) (A) (A) (A) (A) (A) (A) (A) (A) (A) (A)
                 (A) (A) (A) (A) (A) (A) (A) (A) (A) (A) (A) (A)
                 (A) (A) (A) (A) (A) (A) (A) (A) (A) (A) (A) (A)
                 (A) (A) (A) (A) (A) (A) (A) (A) (A) (A) (A) (A)
                 (A) (A) (A) (A) (A) (A) (A) (A) (A) (A) (A) (A)
                 (A) (A) (A) (A) (A) (A) (A) (A) (A) (A)
 The electronic state is 1-A.
 Alpha  occ. eigenvalues --  -19.14173 -14.35221 -10.22122 -10.21834 -10.21172
 Alpha  occ. eigenvalues --  -10.19863 -10.18227 -10.17427 -10.16938 -10.16656
 Alpha  occ. eigenvalues --  -10.15931 -10.15437  -1.05590  -0.97922  -0.84061
 Alpha  occ. eigenvalues --   -0.78730  -0.76090  -0.74574  -0.69372  -0.68501
 Alpha  occ. eigenvalues --   -0.61274  -0.58675  -0.57840  -0.53695  -0.51311
 Alpha  occ. eigenvalues --   -0.48180  -0.46322  -0.45853  -0.44545  -0.43972
 Alpha  occ. eigenvalues --   -0.42437  -0.41676  -0.40775  -0.40208  -0.38945
 Alpha  occ. eigenvalues --   -0.37759  -0.35675  -0.35213  -0.32301  -0.29692
 Alpha  occ. eigenvalues --   -0.27779  -0.20890  -0.19885
 Alpha virt. eigenvalues --   -0.01782  -0.00622   0.00693   0.01621   0.02330
 Alpha virt. eigenvalues --    0.02875   0.03201   0.03791   0.04086   0.05067
 Alpha virt. eigenvalues --    0.05176   0.05328   0.06535   0.06863   0.07264
 Alpha virt. eigenvalues --    0.08069   0.08572   0.08665   0.10024   0.10585
 Alpha virt. eigenvalues --    0.10711   0.12356   0.12703   0.12999   0.13701
 Alpha virt. eigenvalues --    0.14334   0.14863   0.15863   0.15866   0.16750
 Alpha virt. eigenvalues --    0.17106   0.17556   0.17761   0.18014   0.18077
 Alpha virt. eigenvalues --    0.18550   0.19102   0.19800   0.20113   0.20883
 Alpha virt. eigenvalues --    0.21000   0.21396   0.21752   0.21898   0.22141
 Alpha virt. eigenvalues --    0.23090   0.23376   0.23791   0.24387   0.24978
 Alpha virt. eigenvalues --    0.25271   0.25622   0.26240   0.27252   0.28064
 Alpha virt. eigenvalues --    0.28609   0.29079   0.29422   0.29956   0.30284
 Alpha virt. eigenvalues --    0.30882   0.33249   0.33975   0.34596   0.35719
 Alpha virt. eigenvalues --    0.36218   0.38258   0.40131   0.40926   0.42584
 Alpha virt. eigenvalues --    0.43117   0.43941   0.44167   0.45361   0.46009
 Alpha virt. eigenvalues --    0.46413   0.50445   0.51572   0.52861   0.53621
 Alpha virt. eigenvalues --    0.55132   0.55477   0.57171   0.57425   0.58995
 Alpha virt. eigenvalues --    0.59092   0.60672   0.61061   0.61196   0.61637
 Alpha virt. eigenvalues --    0.63544   0.63627   0.65561   0.66192   0.66797
 Alpha virt. eigenvalues --    0.67630   0.68047   0.68531   0.70283   0.71809
 Alpha virt. eigenvalues --    0.71862   0.72763   0.74023   0.74849   0.75540
 Alpha virt. eigenvalues --    0.77125   0.79005   0.81404   0.82732   0.84897
 Alpha virt. eigenvalues --    0.86771   0.86956   0.87752   0.89275   0.89550
 Alpha virt. eigenvalues --    0.91263   0.91951   0.93015   0.95006   0.95683
 Alpha virt. eigenvalues --    0.95947   1.00688   1.01244   1.02145   1.02271
 Alpha virt. eigenvalues --    1.04157   1.04617   1.05323   1.07188   1.07855
 Alpha virt. eigenvalues --    1.08914   1.11846   1.13658   1.15031   1.15067
 Alpha virt. eigenvalues --    1.15947   1.17479   1.19490   1.28318   1.29369
 Alpha virt. eigenvalues --    1.31531   1.33676   1.35808   1.39660   1.43942
 Alpha virt. eigenvalues --    1.44436   1.44478   1.46748   1.48163   1.51549
 Alpha virt. eigenvalues --    1.52052   1.52413   1.53766   1.54510   1.57480
 Alpha virt. eigenvalues --    1.57676   1.59488   1.59897   1.61997   1.62834
 Alpha virt. eigenvalues --    1.63346   1.65962   1.67582   1.69529   1.69646
 Alpha virt. eigenvalues --    1.70282   1.71546   1.71965   1.75765   1.75878
 Alpha virt. eigenvalues --    1.79937   1.81862   1.81868   1.85700   1.86585
 Alpha virt. eigenvalues --    1.87359   1.88854   1.89892   1.91851   1.92507
 Alpha virt. eigenvalues --    1.95270   1.97470   1.99849   2.03018   2.03173
 Alpha virt. eigenvalues --    2.05634   2.07025   2.09218   2.09786   2.11620
 Alpha virt. eigenvalues --    2.13306   2.13480   2.15040   2.15384   2.19351
 Alpha virt. eigenvalues --    2.21143   2.25298   2.25540   2.32392   2.34336
 Alpha virt. eigenvalues --    2.38825   2.40048   2.41675   2.42118   2.44178
 Alpha virt. eigenvalues --    2.44226   2.47348   2.49086   2.49407   2.51733
 Alpha virt. eigenvalues --    2.53425   2.54718   2.55485   2.60167   2.61468
 Alpha virt. eigenvalues --    2.64115   2.64343   2.66661   2.68101   2.69897
 Alpha virt. eigenvalues --    2.71841   2.75366   2.75586   2.75982   2.76961
 Alpha virt. eigenvalues --    2.79826   2.79910   2.82958   2.86083   2.86975
 Alpha virt. eigenvalues --    2.89940   2.92589   2.93373   2.93455   2.94842
 Alpha virt. eigenvalues --    2.97792   3.02901   3.05925   3.08673   3.09546
 Alpha virt. eigenvalues --    3.11238   3.12857   3.17720   3.23549   3.25357
 Alpha virt. eigenvalues --    3.28989   3.37716   3.37811   3.43183   3.45489
 Alpha virt. eigenvalues --    3.50743   3.53927   3.62589   3.63830   3.69741
 Alpha virt. eigenvalues --    3.77724   3.77966   3.81014   3.82767   3.87134
 Alpha virt. eigenvalues --    3.89862   3.97105   4.07533   4.12055   4.18529
 Alpha virt. eigenvalues --    4.21696   4.29278   4.46006   4.84740   4.94163
 Alpha virt. eigenvalues --    5.03415   5.16148   5.40615   5.79969  23.61839
 Alpha virt. eigenvalues --   23.81829  23.91612  23.92282  23.95237  24.00002
 Alpha virt. eigenvalues --   24.05108  24.11773  24.15943  24.19456  35.66845
 Alpha virt. eigenvalues --   49.97339
          Condensed to atoms (all electrons):
               1          2          3          4          5          6
     1  C   10.251425  -0.193106  -1.523429  -0.904831  -0.068139  -0.368356
     2  C   -0.193106  15.247184  -6.351108   0.770588  -1.750247   0.242751
     3  C   -1.523429  -6.351108  16.563989  -0.238705  -0.631420   0.068287
     4  C   -0.904831   0.770588  -0.238705   8.724906  -1.006949   0.297524
     5  C   -0.068139  -1.750247  -0.631420  -1.006949   8.570259  -0.539115
     6  C   -0.368356   0.242751   0.068287   0.297524  -0.539115  10.036996
     7  C    1.319976   0.651999  -2.194665  -0.459896  -0.040452  -0.843056
     8  C   -1.683791  -3.215659   1.759896  -0.966399   0.795518  -1.941116
     9  H    0.015678   0.075376   0.259704   0.036123  -0.011956  -0.016776
    10  H    0.051666   0.072786  -0.094396  -0.025840   0.395746  -0.042743
    11  H   -0.021072  -0.010416  -0.042179   0.010245   0.095517   0.278281
    12  H   -0.070900   0.082410  -0.001209   0.005409  -0.000086   0.009661
    13  H   -0.014990   0.063145   0.009874   0.013282  -0.001904   0.010560
    14  N   -0.041878   0.296719   0.119579   0.038076  -0.016376  -0.155020
    15  C    0.022658  -1.466432  -0.475723  -0.151607   0.056829  -0.300331
    16  H    0.016061   0.003656  -0.001831   0.000051  -0.000320   0.000170
    17  H    0.015499   0.003825  -0.001736   0.000035  -0.000339   0.000342
    18  H   -0.003554  -0.006991  -0.001411  -0.000436   0.000274   0.002072
    19  O   -0.007586  -0.154835  -0.429881   0.317714   0.091587   0.070896
    20  C   -0.037670  -0.087367   0.122824   0.035708  -0.255282   0.025980
    21  H    0.003243   0.017500  -0.002349   0.060131  -0.014882  -0.006643
    22  H   -0.006954  -0.019082   0.015741  -0.054242   0.021511   0.016965
    23  H   -0.006816  -0.019025   0.014746  -0.054384   0.022145   0.016959
               7          8          9         10         11         12
     1  C    1.319976  -1.683791   0.015678   0.051666  -0.021072  -0.070900
     2  C    0.651999  -3.215659   0.075376   0.072786  -0.010416   0.082410
     3  C   -2.194665   1.759896   0.259704  -0.094396  -0.042179  -0.001209
     4  C   -0.459896  -0.966399   0.036123  -0.025840   0.010245   0.005409
     5  C   -0.040452   0.795518  -0.011956   0.395746   0.095517  -0.000086
     6  C   -0.843056  -1.941116  -0.016776  -0.042743   0.278281   0.009661
     7  C    7.718797   0.294259   0.019530   0.008341   0.030668  -0.043634
     8  C    0.294259   9.880879  -0.023492   0.001100   0.002437  -0.001445
     9  H    0.019530  -0.023492   0.538859  -0.000145   0.000052   0.000013
    10  H    0.008341   0.001100  -0.000145   0.551277  -0.008002   0.000009
    11  H    0.030668   0.002437   0.000052  -0.008002   0.559698   0.002312
    12  H   -0.043634  -0.001445   0.000013   0.000009   0.002312   0.403166
    13  H   -0.041520   0.337902   0.001778  -0.000001   0.000015  -0.000085
    14  N    0.135655  -0.115915  -0.001148  -0.000811  -0.005743   0.381264
    15  C   -0.376257   0.593866   0.001058   0.000390   0.003928  -0.045302
    16  H    0.019871  -0.018418   0.000000   0.000000   0.000002   0.001042
    17  H    0.019811  -0.020103   0.000000   0.000000   0.000002   0.000893
    18  H   -0.126444  -0.002052   0.000001   0.000000   0.000001  -0.000258
    19  O   -0.008207   0.004447  -0.007133  -0.019319  -0.000477   0.000002
    20  C   -0.021070  -0.032427  -0.001428  -0.006159   0.000651   0.000012
    21  H    0.000473   0.000614  -0.000059   0.000466  -0.000002   0.000000
    22  H   -0.000831  -0.000188   0.000062  -0.000541   0.000034   0.000000
    23  H   -0.000865  -0.000194   0.000061  -0.000528   0.000035   0.000000
              13         14         15         16         17         18
     1  C   -0.014990  -0.041878   0.022658   0.016061   0.015499  -0.003554
     2  C    0.063145   0.296719  -1.466432   0.003656   0.003825  -0.006991
     3  C    0.009874   0.119579  -0.475723  -0.001831  -0.001736  -0.001411
     4  C    0.013282   0.038076  -0.151607   0.000051   0.000035  -0.000436
     5  C   -0.001904  -0.016376   0.056829  -0.000320  -0.000339   0.000274
     6  C    0.010560  -0.155020  -0.300331   0.000170   0.000342   0.002072
     7  C   -0.041520   0.135655  -0.376257   0.019871   0.019811  -0.126444
     8  C    0.337902  -0.115915   0.593866  -0.018418  -0.020103  -0.002052
     9  H    0.001778  -0.001148   0.001058   0.000000   0.000000   0.000001
    10  H   -0.000001  -0.000811   0.000390   0.000000   0.000000   0.000000
    11  H    0.000015  -0.005743   0.003928   0.000002   0.000002   0.000001
    12  H   -0.000085   0.381264  -0.045302   0.001042   0.000893  -0.000258
    13  H    0.545854   0.015839  -0.047876  -0.000047  -0.000049   0.001322
    14  N    0.015839   6.829284  -0.384667   0.000813   0.001047   0.011965
    15  C   -0.047876  -0.384667   7.758283   0.341531   0.343340   0.500148
    16  H   -0.000047   0.000813   0.341531   0.550967  -0.041762  -0.022236
    17  H   -0.000049   0.001047   0.343340  -0.041762   0.550559  -0.022201
    18  H    0.001322   0.011965   0.500148  -0.022236  -0.022201   0.514249
    19  O   -0.000081   0.001332   0.000162   0.000000   0.000000   0.000000
    20  C   -0.000031   0.000203  -0.001956   0.000001   0.000001  -0.000002
    21  H    0.000000   0.000003   0.000012   0.000000   0.000000   0.000000
    22  H    0.000000   0.000004  -0.000026   0.000000   0.000000   0.000000
    23  H    0.000000   0.000007  -0.000027   0.000000   0.000000   0.000000
              19         20         21         22         23
     1  C   -0.007586  -0.037670   0.003243  -0.006954  -0.006816
     2  C   -0.154835  -0.087367   0.017500  -0.019082  -0.019025
     3  C   -0.429881   0.122824  -0.002349   0.015741   0.014746
     4  C    0.317714   0.035708   0.060131  -0.054242  -0.054384
     5  C    0.091587  -0.255282  -0.014882   0.021511   0.022145
     6  C    0.070896   0.025980  -0.006643   0.016965   0.016959
     7  C   -0.008207  -0.021070   0.000473  -0.000831  -0.000865
     8  C    0.004447  -0.032427   0.000614  -0.000188  -0.000194
     9  H   -0.007133  -0.001428  -0.000059   0.000062   0.000061
    10  H   -0.019319  -0.006159   0.000466  -0.000541  -0.000528
    11  H   -0.000477   0.000651  -0.000002   0.000034   0.000035
    12  H    0.000002   0.000012   0.000000   0.000000   0.000000
    13  H   -0.000081  -0.000031   0.000000   0.000000   0.000000
    14  N    0.001332   0.000203   0.000003   0.000004   0.000007
    15  C    0.000162  -0.001956   0.000012  -0.000026  -0.000027
    16  H    0.000000   0.000001   0.000000   0.000000   0.000000
    17  H    0.000000   0.000001   0.000000   0.000000   0.000000
    18  H    0.000000  -0.000002   0.000000   0.000000   0.000000
    19  O    8.252384   0.219191  -0.076054  -0.031157  -0.031290
    20  C    0.219191   5.059065   0.382379   0.426950   0.427318
    21  H   -0.076054   0.382379   0.539729  -0.028898  -0.028907
    22  H   -0.031157   0.426950  -0.028898   0.577053  -0.055796
    23  H   -0.031290   0.427318  -0.028907  -0.055796   0.577188
 Mulliken charges:
               1
     1  C   -0.743135
     2  C    1.746329
     3  C   -0.944598
     4  C   -0.446503
     5  C    0.288083
     6  C   -0.864287
     7  C   -0.062486
     8  C    0.350283
     9  H    0.113838
    10  H    0.116704
    11  H    0.104010
    12  H    0.276725
    13  H    0.107015
    14  N   -0.110233
    15  C   -0.372004
    16  H    0.150447
    17  H    0.150836
    18  H    0.155553
    19  O   -0.191695
    20  C   -0.256892
    21  H    0.153243
    22  H    0.139394
    23  H    0.139373
 Sum of Mulliken charges =   0.00000
 Mulliken charges with hydrogens summed into heavy atoms:
               1
     1  C   -0.743135
     2  C    1.746329
     3  C   -0.830760
     4  C   -0.446503
     5  C    0.404787
     6  C   -0.760277
     7  C   -0.062486
     8  C    0.457298
    14  N    0.166492
    15  C    0.084832
    19  O   -0.191695
    20  C    0.175117
 Electronic spatial extent (au):  <R**2>=           2545.6430
 Charge=              0.0000 electrons
 Dipole moment (field-independent basis, Debye):
    X=              1.5783    Y=              2.3069    Z=             -0.0065  Tot=              2.7951
 Quadrupole moment (field-independent basis, Debye-Ang):
   XX=            -54.5270   YY=            -65.7609   ZZ=            -76.4196
   XY=             -0.6555   XZ=             -0.0273   YZ=             -0.0230
 Traceless Quadrupole moment (field-independent basis, Debye-Ang):
   XX=             11.0422   YY=             -0.1917   ZZ=            -10.8505
   XY=             -0.6555   XZ=             -0.0273   YZ=             -0.0230
 Octapole moment (field-independent basis, Debye-Ang**2):
  XXX=            -11.9246  YYY=              7.0410  ZZZ=              0.0097  XYY=             11.9465
  XXY=             18.5239  XXZ=             -0.0270  XZZ=             -4.0175  YZZ=              0.3315
  YYZ=             -0.0433  XYZ=             -0.0527
 Hexadecapole moment (field-independent basis, Debye-Ang**3):
 XXXX=          -2499.2001 YYYY=           -449.3331 ZZZZ=           -101.9840 XXXY=              8.9507
 XXXZ=             -0.2341 YYYX=             22.0801 YYYZ=             -0.0839 ZZZX=              0.0201
 ZZZY=             -0.0170 XXYY=           -535.8812 XXZZ=           -504.1251 YYZZ=           -112.1327
 XXYZ=             -0.1754 YYXZ=             -0.1281 ZZXY=              9.6530
 N-N= 6.570649842456D+02 E-N=-2.519332226308D+03  KE= 5.155650623102D+02
 There are a total of      190634 grid points.
 ElSum from          density=       86.0002188947
 ElSum from atomic densities=       86.0004439120

 Hirshfeld populations at iteration   1 (CX, CA, CB, DipXYZ):
               1          2          3          4          5          6
     1  C    0.000001   2.987419   2.987419   0.067618   0.045193   0.000051
     2  C    0.000001   3.012391   3.012391  -0.005796  -0.029796   0.000092
     3  C    0.000000   3.034867   3.034867   0.008430  -0.057612   0.000021
     4  C    0.000000   2.971198   2.971198  -0.137971  -0.031663  -0.000011
     5  C    0.000000   3.041186   3.041186  -0.038674   0.014281   0.000007
     6  C    0.000001   3.033984   3.033984   0.023574   0.058473   0.000067
     7  C    0.000000   2.979946   2.979946   0.090050   0.082980   0.000086
     8  C    0.000001   3.050750   3.050750  -0.028660  -0.084130   0.000181
     9  H    0.000002   0.475503   0.475503  -0.019007  -0.160257  -0.000027
    10  H    0.000001   0.480474   0.480474  -0.112013   0.109100  -0.000032
    11  H    0.000002   0.478439   0.478439   0.017258   0.157274   0.000007
    12  H    0.000001   0.428186   0.428186   0.090374   0.192117  -0.001351
    13  H    0.000002   0.477576   0.477576   0.030612  -0.162469   0.000052
    14  N    0.000000   3.549960   3.549960   0.020592   0.059913  -0.001025
    15  C    0.000000   3.046823   3.046823  -0.010683  -0.001196   0.000024
    16  H    0.000001   0.478833   0.478833   0.061137   0.064244  -0.119881
    17  H    0.000001   0.478803   0.478803   0.061061   0.063651   0.120295
    18  H    0.000001   0.474808   0.474808   0.052791  -0.147244  -0.000313
    19  O    0.000001   4.076556   4.076556   0.006822   0.166232   0.000126
    20  C    0.000000   3.006590   3.006590   0.049071  -0.038094  -0.000023
    21  H    0.000001   0.474751   0.474751  -0.128815  -0.091889   0.000144
    22  H    0.000001   0.480530   0.480530  -0.019929   0.080178   0.116603
    23  H    0.000001   0.480535   0.480535  -0.020088   0.080160  -0.116586
       Tot   0.000019  43.000109  43.000109   0.057756   0.369446  -0.001495

 Dip from Atomic Chgs              0.562586   0.538313  -0.001055
         Total Dipole              0.620342   0.907760  -0.002550

 Hirshfeld charges, spin densities, dipoles, and CM5 charges using IRadAn=      4:
              Q-H        S-H        Dx         Dy         Dz        Q-CM5   
     1  C    0.025163   0.000000   0.067618   0.045193   0.000051   0.084378
     2  C   -0.024781   0.000000  -0.005796  -0.029796   0.000092  -0.023396
     3  C   -0.069734   0.000000   0.008430  -0.057612   0.000021  -0.116418
     4  C    0.057603   0.000000  -0.137971  -0.031663  -0.000011   0.073042
     5  C   -0.082372   0.000000  -0.038674   0.014281   0.000007  -0.134285
     6  C   -0.067968   0.000000   0.023574   0.058473   0.000067  -0.116596
     7  C    0.040107   0.000000   0.090050   0.082980   0.000086   0.089540
     8  C   -0.101500   0.000000  -0.028660  -0.084130   0.000181  -0.144419
     9  H    0.048994   0.000000  -0.019007  -0.160257  -0.000027   0.108717
    10  H    0.039052   0.000000  -0.112013   0.109100  -0.000032   0.098660
    11  H    0.043122   0.000000   0.017258   0.157274   0.000007   0.100547
    12  H    0.143627   0.000000   0.090374   0.192117  -0.001351   0.338075
    13  H    0.044848   0.000000   0.030612  -0.162469   0.000052   0.101480
    14  N   -0.099921   0.000000   0.020592   0.059913  -0.001025  -0.450359
    15  C   -0.093646   0.000000  -0.010683  -0.001196   0.000024  -0.232628
    16  H    0.042334   0.000000   0.061137   0.064244  -0.119881   0.095122
    17  H    0.042394   0.000000   0.061061   0.063651   0.120295   0.095181
    18  H    0.050383   0.000000   0.052791  -0.147244  -0.000313   0.103081
    19  O   -0.153111   0.000000   0.006822   0.166232   0.000126  -0.241924
    20  C   -0.013181   0.000000   0.049071  -0.038094  -0.000023  -0.134583
    21  H    0.050499   0.000000  -0.128815  -0.091889   0.000144   0.111062
    22  H    0.038939   0.000000  -0.019929   0.080178   0.116603   0.097758
    23  H    0.038929   0.000000  -0.020088   0.080160  -0.116586   0.097745
       Tot  -0.000219   0.000000   0.057756   0.369446  -0.001495  -0.000219
 Hirshfeld charges with hydrogens summed into heavy atoms:
              Q-H       Q-CM5   
     1  C    0.025163   0.084378
     2  C   -0.024781  -0.023396
     3  C   -0.020740  -0.007701
     4  C    0.057603   0.073042
     5  C   -0.043320  -0.035625
     6  C   -0.024846  -0.016049
     7  C    0.040107   0.089540
     8  C   -0.056652  -0.042938
    14  N    0.043707  -0.112284
    15  C    0.041466   0.060755
    19  O   -0.153111  -0.241924
    20  C    0.115186   0.171981
 
 EQQ= 0.000000000000E+00 EQD= 0.000000000000E+00 EDD= 0.572886981906E-02
 EQQ+QD+DD= 0.572886981906E-02
 
          MBS Condensed to atoms (all electrons):
               1          2          3          4          5          6
     1  C    4.750079   0.478577  -0.028510  -0.012073  -0.033264   0.504438
     2  C    0.478577   4.782091   0.495906  -0.028994  -0.010290  -0.027186
     3  C   -0.028510   0.495906   4.855366   0.509173  -0.032878  -0.008636
     4  C   -0.012073  -0.028994   0.509173   4.681205   0.487815  -0.027324
     5  C   -0.033264  -0.010290  -0.032878   0.487815   4.894075   0.510712
     6  C    0.504438  -0.027186  -0.008636  -0.027324   0.510712   4.827677
     7  C   -0.061147  -0.050241   0.000954  -0.000011  -0.000010   0.001199
     8  C   -0.050613   0.461607  -0.019331   0.000710   0.000050   0.001106
     9  H    0.001453  -0.022687   0.385787  -0.025554   0.001379   0.000036
    10  H    0.001509   0.000080   0.001294  -0.025135   0.390008  -0.025097
    11  H   -0.025120   0.001382   0.000009   0.001337  -0.024100   0.388445
    12  H   -0.025000   0.002307  -0.000032  -0.000001  -0.000013  -0.001121
    13  H    0.001649  -0.018962  -0.001068  -0.000004  -0.000001  -0.000019
    14  N    0.403868  -0.050569   0.000811   0.000038   0.000544  -0.020036
    15  C    0.001227   0.001018  -0.000005   0.000000   0.000000  -0.000007
    16  H    0.000026  -0.000030   0.000000   0.000000   0.000000   0.000000
    17  H    0.000026  -0.000030   0.000000   0.000000   0.000000   0.000000
    18  H   -0.000036   0.000035   0.000000   0.000000   0.000000   0.000000
    19  O    0.000011   0.000375  -0.028788   0.306504  -0.019176   0.000304
    20  C    0.000000  -0.000018   0.001578  -0.034857  -0.007124   0.000050
    21  H    0.000000   0.000000  -0.000033   0.002305   0.000098  -0.000001
    22  H   -0.000001   0.000000   0.000002  -0.002602   0.000320  -0.000005
    23  H   -0.000001   0.000000   0.000001  -0.002591   0.000316  -0.000005
               7          8          9         10         11         12
     1  C   -0.061147  -0.050613   0.001453   0.001509  -0.025120  -0.025000
     2  C   -0.050241   0.461607  -0.022687   0.000080   0.001382   0.002307
     3  C    0.000954  -0.019331   0.385787   0.001294   0.000009  -0.000032
     4  C   -0.000011   0.000710  -0.025554  -0.025135   0.001337  -0.000001
     5  C   -0.000010   0.000050   0.001379   0.390008  -0.024100  -0.000013
     6  C    0.001199   0.001106   0.000036  -0.025097   0.388445  -0.001121
     7  C    4.756972   0.551328   0.000000   0.000000  -0.000006  -0.025834
     8  C    0.551328   4.926206  -0.002220   0.000000  -0.000033   0.002199
     9  H    0.000000  -0.002220   0.547116  -0.000045   0.000002   0.000001
    10  H    0.000000   0.000000  -0.000045   0.560117  -0.004245   0.000000
    11  H   -0.000006  -0.000033   0.000002  -0.004245   0.562750   0.000784
    12  H   -0.025834   0.002199   0.000001   0.000000   0.000784   0.419339
    13  H   -0.021853   0.390962   0.000501   0.000000   0.000001  -0.000048
    14  N    0.407786  -0.053360  -0.000014  -0.000009  -0.001665   0.345332
    15  C    0.395149  -0.021425   0.000000   0.000000   0.000000  -0.001235
    16  H   -0.022587   0.000468   0.000000   0.000000   0.000000   0.000399
    17  H   -0.022585   0.000459   0.000000   0.000000   0.000000   0.000387
    18  H   -0.020839  -0.003318   0.000000   0.000000   0.000000  -0.000026
    19  O    0.000000  -0.000001  -0.000626  -0.001546  -0.000005   0.000000
    20  C    0.000000   0.000000   0.000021  -0.000725   0.000000   0.000000
    21  H    0.000000   0.000000  -0.000008   0.000004   0.000000   0.000000
    22  H    0.000000   0.000000   0.000003  -0.000158   0.000002   0.000000
    23  H    0.000000   0.000000   0.000003  -0.000156   0.000002   0.000000
              13         14         15         16         17         18
     1  C    0.001649   0.403868   0.001227   0.000026   0.000026  -0.000036
     2  C   -0.018962  -0.050569   0.001018  -0.000030  -0.000030   0.000035
     3  C   -0.001068   0.000811  -0.000005   0.000000   0.000000   0.000000
     4  C   -0.000004   0.000038   0.000000   0.000000   0.000000   0.000000
     5  C   -0.000001   0.000544   0.000000   0.000000   0.000000   0.000000
     6  C   -0.000019  -0.020036  -0.000007   0.000000   0.000000   0.000000
     7  C   -0.021853   0.407786   0.395149  -0.022587  -0.022585  -0.020839
     8  C    0.390962  -0.053360  -0.021425   0.000468   0.000459  -0.003318
     9  H    0.000501  -0.000014   0.000000   0.000000   0.000000   0.000000
    10  H    0.000000  -0.000009   0.000000   0.000000   0.000000   0.000000
    11  H    0.000001  -0.001665   0.000000   0.000000   0.000000   0.000000
    12  H   -0.000048   0.345332  -0.001235   0.000399   0.000387  -0.000026
    13  H    0.540731   0.001233  -0.001620   0.000024   0.000024   0.000628
    14  N    0.001233   6.364132  -0.024132  -0.001281  -0.001271   0.001055
    15  C   -0.001620  -0.024132   4.789792   0.372416   0.372414   0.378720
    16  H    0.000024  -0.001281   0.372416   0.594494  -0.023433  -0.020983
    17  H    0.000024  -0.001271   0.372414  -0.023433   0.594292  -0.020976
    18  H    0.000628   0.001055   0.378720  -0.020983  -0.020976   0.575653
    19  O    0.000000   0.000000   0.000000   0.000000   0.000000   0.000000
    20  C    0.000000   0.000000   0.000000   0.000000   0.000000   0.000000
    21  H    0.000000   0.000000   0.000000   0.000000   0.000000   0.000000
    22  H    0.000000   0.000000   0.000000   0.000000   0.000000   0.000000
    23  H    0.000000   0.000000   0.000000   0.000000   0.000000   0.000000
              19         20         21         22         23
     1  C    0.000011   0.000000   0.000000  -0.000001  -0.000001
     2  C    0.000375  -0.000018   0.000000   0.000000   0.000000
     3  C   -0.028788   0.001578  -0.000033   0.000002   0.000001
     4  C    0.306504  -0.034857   0.002305  -0.002602  -0.002591
     5  C   -0.019176  -0.007124   0.000098   0.000320   0.000316
     6  C    0.000304   0.000050  -0.000001  -0.000005  -0.000005
     7  C    0.000000   0.000000   0.000000   0.000000   0.000000
     8  C   -0.000001   0.000000   0.000000   0.000000   0.000000
     9  H   -0.000626   0.000021  -0.000008   0.000003   0.000003
    10  H   -0.001546  -0.000725   0.000004  -0.000158  -0.000156
    11  H   -0.000005   0.000000   0.000000   0.000002   0.000002
    12  H    0.000000   0.000000   0.000000   0.000000   0.000000
    13  H    0.000000   0.000000   0.000000   0.000000   0.000000
    14  N    0.000000   0.000000   0.000000   0.000000   0.000000
    15  C    0.000000   0.000000   0.000000   0.000000   0.000000
    16  H    0.000000   0.000000   0.000000   0.000000   0.000000
    17  H    0.000000   0.000000   0.000000   0.000000   0.000000
    18  H    0.000000   0.000000   0.000000   0.000000   0.000000
    19  O    7.901210   0.279395  -0.020657  -0.017468  -0.017484
    20  C    0.279395   4.714223   0.379623   0.367549   0.367556
    21  H   -0.020657   0.379623   0.568809  -0.023104  -0.023103
    22  H   -0.017468   0.367549  -0.023104   0.610426  -0.027991
    23  H   -0.017484   0.367556  -0.023103  -0.027991   0.610454
 MBS Mulliken charges:
               1
     1  C    0.092902
     2  C   -0.014372
     3  C   -0.131599
     4  C    0.170061
     5  C   -0.158461
     6  C   -0.124529
     7  C    0.111725
     8  C   -0.184795
     9  H    0.114851
    10  H    0.104103
    11  H    0.100460
    12  H    0.282563
    13  H    0.107823
    14  N   -0.372461
    15  C   -0.262310
    16  H    0.100488
    17  H    0.100691
    18  H    0.110086
    19  O   -0.382049
    20  C   -0.067269
    21  H    0.116065
    22  H    0.093027
    23  H    0.093000
 Sum of MBS Mulliken charges =   0.00000
 MBS Mulliken charges with hydrogens summed into heavy atoms:
               1
     1  C    0.092902
     2  C   -0.014372
     3  C   -0.016748
     4  C    0.170061
     5  C   -0.054357
     6  C   -0.024069
     7  C    0.111725
     8  C   -0.076972
    14  N   -0.089898
    15  C    0.048955
    19  O   -0.382049
    20  C    0.234822
 Breneman (CHELPG) radii used.
 Generate Potential Derived Charges using the Breneman model, NDens= 1.
 Grid spacing= 0.300 Box extension= 2.800
 NStep X,Y,Z=   53     36     26   Total possible points=       49608
 Number of Points to Fit=   14996

 **********************************************************************

            Electrostatic Properties Using The SCF Density

 **********************************************************************

       Atomic Center    1 is at   0.734974  0.768515 -0.000065
       Atomic Center    2 is at   0.547556 -0.640105 -0.000285
       Atomic Center    3 is at  -0.752332 -1.157177 -0.000199
       Atomic Center    4 is at  -1.831122 -0.277576 -0.000362
       Atomic Center    5 is at  -1.629463  1.116721 -0.000400
       Atomic Center    6 is at  -0.340646  1.648256 -0.000135
       Atomic Center    7 is at   2.777229 -0.211658 -0.000075
       Atomic Center    8 is at   1.858224 -1.230341 -0.000333
       Atomic Center    9 is at  -0.942638 -2.223829 -0.000331
       Atomic Center   10 is at  -2.472070  1.794104 -0.000638
       Atomic Center   11 is at  -0.196328  2.723225 -0.000160
       Atomic Center   12 is at   2.541371  1.903156 -0.005018
       Atomic Center   13 is at   2.094741 -2.283352 -0.000038
       Atomic Center   14 is at   2.102126  0.998010  0.001150
       Atomic Center   15 is at   4.269508 -0.259448  0.000395
       Atomic Center   16 is at   4.690092  0.234838 -0.882352
       Atomic Center   17 is at   4.689230  0.230675  0.885853
       Atomic Center   18 is at   4.610707 -1.295096 -0.001963
       Atomic Center   19 is at  -3.075055 -0.864692 -0.000318
       Atomic Center   20 is at  -4.221618 -0.032222  0.000786
       Atomic Center   21 is at  -5.078693 -0.704708  0.001672
       Atomic Center   22 is at  -4.261584  0.601393  0.894675
       Atomic Center   23 is at  -4.263133  0.601265 -0.893170
   14996 points will be used for fitting atomic charges
 Fitting point charges to electrostatic potential
 Charges from ESP fit, RMS=   0.00419 RRMS=   0.27629:
 ESP charges:
               1
     1  C    0.114753
     2  C    0.339820
     3  C   -0.489548
     4  C    0.469535
     5  C   -0.310598
     6  C   -0.197584
     7  C    0.249649
     8  C   -0.496926
     9  H    0.185060
    10  H    0.146242
    11  H    0.129519
    12  H    0.358982
    13  H    0.186551
    14  N   -0.492079
    15  C   -0.128507
    16  H    0.043352
    17  H    0.043713
    18  H    0.059765
    19  O   -0.444171
    20  C    0.244736
    21  H    0.023812
    22  H   -0.017947
    23  H   -0.018129
 Sum of ESP charges =   0.00000
 ESP charges with hydrogens summed into heavy atoms:
               1
     1  C    0.114753
     2  C    0.339820
     3  C   -0.304488
     4  C    0.469535
     5  C   -0.164356
     6  C   -0.068065
     7  C    0.249649
     8  C   -0.310375
    14  N   -0.133097
    15  C    0.018322
    19  O   -0.444171
    20  C    0.232472
 Charge=   0.00000 Dipole=     1.5863     2.2885    -0.0078 Tot=     2.7846
 -----------------------------------------------------------------

              Electrostatic Properties (Atomic Units)

 -----------------------------------------------------------------
    Center     Electric         -------- Electric Field --------
               Potential          X             Y             Z
 -----------------------------------------------------------------
    1 Atom    -14.751087
    2 Atom    -14.781442
    3 Atom    -14.790851
    4 Atom    -14.727537
    5 Atom    -14.783068
    6 Atom    -14.775559
    7 Atom    -14.737825
    8 Atom    -14.795030
    9 Atom     -1.118180
   10 Atom     -1.109926
   11 Atom     -1.104420
   12 Atom     -1.003824
   13 Atom     -1.110844
   14 Atom    -18.356465
   15 Atom    -14.762968
   16 Atom     -1.103883
   17 Atom     -1.103923
   18 Atom     -1.104788
   19 Atom    -22.351800
   20 Atom    -14.726801
   21 Atom     -1.112221
   22 Atom     -1.113768
   23 Atom     -1.113780
 -----------------------------------------------------------------
 ******************************Gaussian NBO Version 3.1******************************
             N A T U R A L   A T O M I C   O R B I T A L   A N D
          N A T U R A L   B O N D   O R B I T A L   A N A L Y S I S
 ******************************Gaussian NBO Version 3.1******************************
       /RESON  / : Allow strongly delocalized NBO set

 Analyzing the SCF density

 Job title: Table9_3                                                        

 Storage needed:    328640 in NPA ( 104854725 available)


 NATURAL POPULATIONS:  Natural atomic orbital occupancies 
                                                          
   NAO  Atom  No  lang   Type(AO)    Occupancy      Energy
 ----------------------------------------------------------
     1    C    1  S      Cor( 1S)     1.99895     -10.05447
     2    C    1  S      Val( 2S)     0.81753      -0.09512
     3    C    1  S      Ryd( 4S)     0.00146       0.87312
     4    C    1  S      Ryd( 3S)     0.00015       0.82136
     5    C    1  S      Ryd( 5S)     0.00002      22.66325
     6    C    1  px     Val( 2p)     0.90107      -0.01450
     7    C    1  px     Ryd( 4p)     0.00425       1.34079
     8    C    1  px     Ryd( 3p)     0.00030       0.56634
     9    C    1  px     Ryd( 5p)     0.00013       3.09482
    10    C    1  py     Val( 2p)     1.07576      -0.05301
    11    C    1  py     Ryd( 4p)     0.00669       1.26150
    12    C    1  py     Ryd( 3p)     0.00027       0.45481
    13    C    1  py     Ryd( 5p)     0.00013       2.97487
    14    C    1  pz     Val( 2p)     1.05076      -0.10161
    15    C    1  pz     Ryd( 4p)     0.00129       0.63445
    16    C    1  pz     Ryd( 3p)     0.00060       0.31251
    17    C    1  pz     Ryd( 5p)     0.00003       2.70867
    18    C    1  dxy    Ryd( 3d)     0.00086       2.52425
    19    C    1  dxz    Ryd( 3d)     0.00128       1.66388
    20    C    1  dyz    Ryd( 3d)     0.00067       1.65035
    21    C    1  dx2y2  Ryd( 3d)     0.00116       2.71771
    22    C    1  dz2    Ryd( 3d)     0.00047       2.11678

    23    C    2  S      Cor( 1S)     1.99902     -10.01921
    24    C    2  S      Val( 2S)     0.86572      -0.10049
    25    C    2  S      Ryd( 3S)     0.00090       0.80676
    26    C    2  S      Ryd( 4S)     0.00011       0.93673
    27    C    2  S      Ryd( 5S)     0.00002      22.85168
    28    C    2  px     Val( 2p)     1.09817      -0.03695
    29    C    2  px     Ryd( 4p)     0.00408       1.69233
    30    C    2  px     Ryd( 3p)     0.00029       0.81604
    31    C    2  px     Ryd( 5p)     0.00012       3.18085
    32    C    2  py     Val( 2p)     1.05816      -0.03967
    33    C    2  py     Ryd( 4p)     0.00587       1.22344
    34    C    2  py     Ryd( 3p)     0.00014       0.59717
    35    C    2  py     Ryd( 5p)     0.00008       3.14257
    36    C    2  pz     Val( 2p)     1.03361      -0.08715
    37    C    2  pz     Ryd( 4p)     0.00038       0.64817
    38    C    2  pz     Ryd( 3p)     0.00042       0.49314
    39    C    2  pz     Ryd( 5p)     0.00002       2.60844
    40    C    2  dxy    Ryd( 3d)     0.00055       2.50866
    41    C    2  dxz    Ryd( 3d)     0.00101       1.72460
    42    C    2  dyz    Ryd( 3d)     0.00048       1.64668
    43    C    2  dx2y2  Ryd( 3d)     0.00087       2.77576
    44    C    2  dz2    Ryd( 3d)     0.00041       2.18110

    45    C    3  S      Cor( 1S)     1.99899     -10.00926
    46    C    3  S      Val( 2S)     0.93300      -0.13095
    47    C    3  S      Ryd( 4S)     0.00135       1.14358
    48    C    3  S      Ryd( 3S)     0.00011       0.91198
    49    C    3  S      Ryd( 5S)     0.00001      22.63104
    50    C    3  px     Val( 2p)     1.05759      -0.02583
    51    C    3  px     Ryd( 4p)     0.00431       0.95427
    52    C    3  px     Ryd( 3p)     0.00026       0.68317
    53    C    3  px     Ryd( 5p)     0.00012       2.99234
    54    C    3  py     Val( 2p)     1.17637      -0.04738
    55    C    3  py     Ryd( 4p)     0.00520       1.26996
    56    C    3  py     Ryd( 3p)     0.00037       0.65385
    57    C    3  py     Ryd( 5p)     0.00007       2.78805
    58    C    3  pz     Val( 2p)     1.05002      -0.09283
    59    C    3  pz     Ryd( 4p)     0.00128       0.58410
    60    C    3  pz     Ryd( 3p)     0.00063       0.36166
    61    C    3  pz     Ryd( 5p)     0.00002       2.65425
    62    C    3  dxy    Ryd( 3d)     0.00077       2.66778
    63    C    3  dxz    Ryd( 3d)     0.00054       1.69530
    64    C    3  dyz    Ryd( 3d)     0.00052       1.64550
    65    C    3  dx2y2  Ryd( 3d)     0.00065       2.53248
    66    C    3  dz2    Ryd( 3d)     0.00049       2.18156

    67    C    4  S      Cor( 1S)     1.99879     -10.08812
    68    C    4  S      Val( 2S)     0.82573      -0.11400
    69    C    4  S      Ryd( 3S)     0.00088       0.93641
    70    C    4  S      Ryd( 4S)     0.00017       1.05919
    71    C    4  S      Ryd( 5S)     0.00002      22.48444
    72    C    4  px     Val( 2p)     0.80424      -0.02235
    73    C    4  px     Ryd( 4p)     0.00598       1.17146
    74    C    4  px     Ryd( 3p)     0.00031       0.65548
    75    C    4  px     Ryd( 5p)     0.00014       2.95195
    76    C    4  py     Val( 2p)     1.03418      -0.03735
    77    C    4  py     Ryd( 4p)     0.00697       1.21310
    78    C    4  py     Ryd( 3p)     0.00015       0.61783
    79    C    4  py     Ryd( 5p)     0.00014       2.81336
    80    C    4  pz     Val( 2p)     1.01116      -0.10271
    81    C    4  pz     Ryd( 4p)     0.00081       0.63864
    82    C    4  pz     Ryd( 3p)     0.00028       0.52790
    83    C    4  pz     Ryd( 5p)     0.00004       2.55085
    84    C    4  dxy    Ryd( 3d)     0.00163       2.61113
    85    C    4  dxz    Ryd( 3d)     0.00219       1.61116
    86    C    4  dyz    Ryd( 3d)     0.00093       1.67155
    87    C    4  dx2y2  Ryd( 3d)     0.00154       2.54315
    88    C    4  dz2    Ryd( 3d)     0.00059       2.08452

    89    C    5  S      Cor( 1S)     1.99910     -10.02162
    90    C    5  S      Val( 2S)     0.94470      -0.15316
    91    C    5  S      Ryd( 4S)     0.00139       0.84694
    92    C    5  S      Ryd( 3S)     0.00012       0.68601
    93    C    5  S      Ryd( 5S)     0.00002      23.23603
    94    C    5  px     Val( 2p)     1.13213      -0.04851
    95    C    5  px     Ryd( 4p)     0.00354       1.07521
    96    C    5  px     Ryd( 3p)     0.00052       0.50285
    97    C    5  px     Ryd( 5p)     0.00010       3.14773
    98    C    5  py     Val( 2p)     1.10611      -0.04544
    99    C    5  py     Ryd( 4p)     0.00438       0.95054
   100    C    5  py     Ryd( 3p)     0.00037       0.48824
   101    C    5  py     Ryd( 5p)     0.00012       3.15866
   102    C    5  pz     Val( 2p)     1.09402      -0.10649
   103    C    5  pz     Ryd( 4p)     0.00231       0.50684
   104    C    5  pz     Ryd( 3p)     0.00047       0.33141
   105    C    5  pz     Ryd( 5p)     0.00003       2.73866
   106    C    5  dxy    Ryd( 3d)     0.00062       2.53557
   107    C    5  dxz    Ryd( 3d)     0.00045       1.63986
   108    C    5  dyz    Ryd( 3d)     0.00054       1.67011
   109    C    5  dx2y2  Ryd( 3d)     0.00070       2.62080
   110    C    5  dz2    Ryd( 3d)     0.00044       2.10093

   111    C    6  S      Cor( 1S)     1.99909     -10.02485
   112    C    6  S      Val( 2S)     0.93208      -0.14401
   113    C    6  S      Ryd( 3S)     0.00193       0.92845
   114    C    6  S      Ryd( 4S)     0.00014       1.10917
   115    C    6  S      Ryd( 5S)     0.00001      22.44867
   116    C    6  px     Val( 2p)     1.06239      -0.04101
   117    C    6  px     Ryd( 4p)     0.00385       0.86244
   118    C    6  px     Ryd( 3p)     0.00038       0.42496
   119    C    6  px     Ryd( 5p)     0.00014       3.04948
   120    C    6  py     Val( 2p)     1.16794      -0.05042
   121    C    6  py     Ryd( 4p)     0.00533       1.16866
   122    C    6  py     Ryd( 3p)     0.00022       0.40271
   123    C    6  py     Ryd( 5p)     0.00009       3.01321
   124    C    6  pz     Val( 2p)     1.04286      -0.10430
   125    C    6  pz     Ryd( 4p)     0.00113       0.53331
   126    C    6  pz     Ryd( 3p)     0.00044       0.29336
   127    C    6  pz     Ryd( 5p)     0.00003       2.70229
   128    C    6  dxy    Ryd( 3d)     0.00070       2.63185
   129    C    6  dxz    Ryd( 3d)     0.00067       1.67965
   130    C    6  dyz    Ryd( 3d)     0.00040       1.63746
   131    C    6  dx2y2  Ryd( 3d)     0.00063       2.52860
   132    C    6  dz2    Ryd( 3d)     0.00043       2.13307

   133    C    7  S      Cor( 1S)     1.99912     -10.07384
   134    C    7  S      Val( 2S)     0.85401      -0.13631
   135    C    7  S      Ryd( 3S)     0.00137       0.75358
   136    C    7  S      Ryd( 4S)     0.00017       1.38460
   137    C    7  S      Ryd( 5S)     0.00001      22.36203
   138    C    7  px     Val( 2p)     1.03076      -0.04949
   139    C    7  px     Ryd( 4p)     0.00522       1.37221
   140    C    7  px     Ryd( 3p)     0.00049       0.66653
   141    C    7  px     Ryd( 5p)     0.00014       2.84772
   142    C    7  py     Val( 2p)     0.89907      -0.02773
   143    C    7  py     Ryd( 4p)     0.00498       0.82655
   144    C    7  py     Ryd( 3p)     0.00027       0.56112
   145    C    7  py     Ryd( 5p)     0.00010       2.89489
   146    C    7  pz     Val( 2p)     1.01252      -0.10801
   147    C    7  pz     Ryd( 4p)     0.00225       0.62530
   148    C    7  pz     Ryd( 3p)     0.00044       0.56500
   149    C    7  pz     Ryd( 5p)     0.00009       2.41937
   150    C    7  dxy    Ryd( 3d)     0.00116       2.65175
   151    C    7  dxz    Ryd( 3d)     0.00095       1.69335
   152    C    7  dyz    Ryd( 3d)     0.00122       1.62404
   153    C    7  dx2y2  Ryd( 3d)     0.00092       2.42575
   154    C    7  dz2    Ryd( 3d)     0.00045       2.04130

   155    C    8  S      Cor( 1S)     1.99894     -10.00528
   156    C    8  S      Val( 2S)     0.93407      -0.13105
   157    C    8  S      Ryd( 3S)     0.00103       0.87717
   158    C    8  S      Ryd( 4S)     0.00009       1.83661
   159    C    8  S      Ryd( 5S)     0.00001      21.90057
   160    C    8  px     Val( 2p)     1.03498      -0.03406
   161    C    8  px     Ryd( 4p)     0.00431       0.73253
   162    C    8  px     Ryd( 3p)     0.00023       0.49374
   163    C    8  px     Ryd( 5p)     0.00012       3.08903
   164    C    8  py     Val( 2p)     1.18173      -0.04916
   165    C    8  py     Ryd( 4p)     0.00388       1.14350
   166    C    8  py     Ryd( 3p)     0.00045       0.55724
   167    C    8  py     Ryd( 5p)     0.00007       2.98675
   168    C    8  pz     Val( 2p)     1.12898      -0.09787
   169    C    8  pz     Ryd( 4p)     0.00245       0.50823
   170    C    8  pz     Ryd( 3p)     0.00052       0.33083
   171    C    8  pz     Ryd( 5p)     0.00003       2.70757
   172    C    8  dxy    Ryd( 3d)     0.00080       2.67982
   173    C    8  dxz    Ryd( 3d)     0.00052       1.65693
   174    C    8  dyz    Ryd( 3d)     0.00072       1.69404
   175    C    8  dx2y2  Ryd( 3d)     0.00061       2.47892
   176    C    8  dz2    Ryd( 3d)     0.00044       2.14793

   177    H    9  S      Val( 1S)     0.78022       0.06190
   178    H    9  S      Ryd( 2S)     0.00231       0.37259
   179    H    9  S      Ryd( 3S)     0.00026       2.35533
   180    H    9  px     Ryd( 2p)     0.00016       2.10871
   181    H    9  py     Ryd( 2p)     0.00042       2.74617
   182    H    9  pz     Ryd( 2p)     0.00018       1.63031

   183    H   10  S      Val( 1S)     0.78894       0.05218
   184    H   10  S      Ryd( 2S)     0.00089       0.75937
   185    H   10  S      Ryd( 3S)     0.00018       1.95373
   186    H   10  px     Ryd( 2p)     0.00029       2.47597
   187    H   10  py     Ryd( 2p)     0.00024       2.32469
   188    H   10  pz     Ryd( 2p)     0.00027       1.61011

   189    H   11  S      Val( 1S)     0.79301       0.04106
   190    H   11  S      Ryd( 2S)     0.00091       0.71348
   191    H   11  S      Ryd( 3S)     0.00020       1.98378
   192    H   11  px     Ryd( 2p)     0.00011       2.06118
   193    H   11  py     Ryd( 2p)     0.00042       2.71890
   194    H   11  pz     Ryd( 2p)     0.00024       1.60778

   195    H   12  S      Val( 1S)     0.59840       0.06934
   196    H   12  S      Ryd( 2S)     0.00149       0.39516
   197    H   12  S      Ryd( 3S)     0.00046       2.16004
   198    H   12  px     Ryd( 2p)     0.00020       2.14428
   199    H   12  py     Ryd( 2p)     0.00044       2.56852
   200    H   12  pz     Ryd( 2p)     0.00074       1.57582

   201    H   13  S      Val( 1S)     0.78157       0.05951
   202    H   13  S      Ryd( 2S)     0.00051       0.84950
   203    H   13  S      Ryd( 3S)     0.00024       1.79054
   204    H   13  px     Ryd( 2p)     0.00014       2.04015
   205    H   13  py     Ryd( 2p)     0.00044       2.75868
   206    H   13  pz     Ryd( 2p)     0.00023       1.62029

   207    N   14  S      Cor( 1S)     1.99926     -14.17179
   208    N   14  S      Val( 2S)     1.22042      -0.51797
   209    N   14  S      Ryd( 4S)     0.00033       1.51144
   210    N   14  S      Ryd( 3S)     0.00005       1.08996
   211    N   14  S      Ryd( 5S)     0.00000      35.09905
   212    N   14  px     Val( 2p)     1.30427      -0.23690
   213    N   14  px     Ryd( 3p)     0.00236       0.87221
   214    N   14  px     Ryd( 4p)     0.00037       0.88537
   215    N   14  px     Ryd( 5p)     0.00002       4.41913
   216    N   14  py     Val( 2p)     1.36855      -0.25168
   217    N   14  py     Ryd( 4p)     0.00201       1.12724
   218    N   14  py     Ryd( 3p)     0.00081       0.92861
   219    N   14  py     Ryd( 5p)     0.00002       4.38444
   220    N   14  pz     Val( 2p)     1.65263      -0.25628
   221    N   14  pz     Ryd( 3p)     0.00491       0.39962
   222    N   14  pz     Ryd( 4p)     0.00077       0.69468
   223    N   14  pz     Ryd( 5p)     0.00000       3.82598
   224    N   14  dxy    Ryd( 3d)     0.00084       2.91666
   225    N   14  dxz    Ryd( 3d)     0.00052       2.19275
   226    N   14  dyz    Ryd( 3d)     0.00040       2.21662
   227    N   14  dx2y2  Ryd( 3d)     0.00084       2.95896
   228    N   14  dz2    Ryd( 3d)     0.00060       2.64818

   229    C   15  S      Cor( 1S)     1.99929     -10.03740
   230    C   15  S      Val( 2S)     1.07942      -0.25335
   231    C   15  S      Ryd( 4S)     0.00070       0.94545
   232    C   15  S      Ryd( 3S)     0.00009       0.81823
   233    C   15  S      Ryd( 5S)     0.00000      23.05000
   234    C   15  px     Val( 2p)     1.08261      -0.09834
   235    C   15  px     Ryd( 4p)     0.00120       0.49751
   236    C   15  px     Ryd( 3p)     0.00024       0.26962
   237    C   15  px     Ryd( 5p)     0.00009       2.98442
   238    C   15  py     Val( 2p)     1.22688      -0.10913
   239    C   15  py     Ryd( 4p)     0.00282       0.51962
   240    C   15  py     Ryd( 3p)     0.00006       0.33582
   241    C   15  py     Ryd( 5p)     0.00002       3.01062
   242    C   15  pz     Val( 2p)     1.20866      -0.10720
   243    C   15  pz     Ryd( 4p)     0.00044       0.50640
   244    C   15  pz     Ryd( 3p)     0.00005       0.28386
   245    C   15  pz     Ryd( 5p)     0.00006       2.98791
   246    C   15  dxy    Ryd( 3d)     0.00036       2.03774
   247    C   15  dxz    Ryd( 3d)     0.00063       1.96063
   248    C   15  dyz    Ryd( 3d)     0.00065       2.00684
   249    C   15  dx2y2  Ryd( 3d)     0.00079       2.29901
   250    C   15  dz2    Ryd( 3d)     0.00066       2.11095

   251    H   16  S      Val( 1S)     0.78751       0.01938
   252    H   16  S      Ryd( 2S)     0.00118       0.56334
   253    H   16  S      Ryd( 3S)     0.00010       2.18474
   254    H   16  px     Ryd( 2p)     0.00020       1.86943
   255    H   16  py     Ryd( 2p)     0.00014       1.94421
   256    H   16  pz     Ryd( 2p)     0.00023       2.35912

   257    H   17  S      Val( 1S)     0.78735       0.01952
   258    H   17  S      Ryd( 2S)     0.00119       0.56342
   259    H   17  S      Ryd( 3S)     0.00010       2.18494
   260    H   17  px     Ryd( 2p)     0.00020       1.86884
   261    H   17  py     Ryd( 2p)     0.00013       1.94126
   262    H   17  pz     Ryd( 2p)     0.00023       2.36279

   263    H   18  S      Val( 1S)     0.77680       0.02867
   264    H   18  S      Ryd( 2S)     0.00054       0.62548
   265    H   18  S      Ryd( 3S)     0.00008       2.09793
   266    H   18  px     Ryd( 2p)     0.00016       1.82924
   267    H   18  py     Ryd( 2p)     0.00025       2.61273
   268    H   18  pz     Ryd( 2p)     0.00009       1.72726

   269    O   19  S      Cor( 1S)     1.99972     -18.94037
   270    O   19  S      Val( 2S)     1.59148      -0.85367
   271    O   19  S      Ryd( 3S)     0.00287       1.12807
   272    O   19  S      Ryd( 4S)     0.00007       1.35829
   273    O   19  S      Ryd( 5S)     0.00000      49.43327
   274    O   19  px     Val( 2p)     1.36178      -0.29354
   275    O   19  px     Ryd( 4p)     0.00183       1.10300
   276    O   19  px     Ryd( 3p)     0.00063       0.79487
   277    O   19  px     Ryd( 5p)     0.00002       5.26137
   278    O   19  py     Val( 2p)     1.72391      -0.31790
   279    O   19  py     Ryd( 3p)     0.00375       0.78289
   280    O   19  py     Ryd( 4p)     0.00051       0.85077
   281    O   19  py     Ryd( 5p)     0.00005       5.07652
   282    O   19  pz     Val( 2p)     1.85686      -0.30006
   283    O   19  pz     Ryd( 3p)     0.00358       0.62417
   284    O   19  pz     Ryd( 4p)     0.00028       0.67778
   285    O   19  pz     Ryd( 5p)     0.00000       4.97252
   286    O   19  dxy    Ryd( 3d)     0.00133       3.54438
   287    O   19  dxz    Ryd( 3d)     0.00020       2.99391
   288    O   19  dyz    Ryd( 3d)     0.00082       2.91651
   289    O   19  dx2y2  Ryd( 3d)     0.00076       3.26200
   290    O   19  dz2    Ryd( 3d)     0.00061       3.26364

   291    C   20  S      Cor( 1S)     1.99927     -10.09478
   292    C   20  S      Val( 2S)     1.07825      -0.26679
   293    C   20  S      Ryd( 3S)     0.00191       0.89502
   294    C   20  S      Ryd( 4S)     0.00007       1.08194
   295    C   20  S      Ryd( 5S)     0.00000      22.89999
   296    C   20  px     Val( 2p)     0.88504      -0.08666
   297    C   20  px     Ryd( 3p)     0.00225       0.73247
   298    C   20  px     Ryd( 4p)     0.00026       0.96923
   299    C   20  px     Ryd( 5p)     0.00005       2.19885
   300    C   20  py     Val( 2p)     1.04656      -0.09188
   301    C   20  py     Ryd( 3p)     0.00334       0.65880
   302    C   20  py     Ryd( 4p)     0.00029       1.03260
   303    C   20  py     Ryd( 5p)     0.00006       2.24049
   304    C   20  pz     Val( 2p)     1.18051      -0.10514
   305    C   20  pz     Ryd( 3p)     0.00031       0.60784
   306    C   20  pz     Ryd( 4p)     0.00066       0.95472
   307    C   20  pz     Ryd( 5p)     0.00005       2.25326
   308    C   20  dxy    Ryd( 3d)     0.00192       2.25640
   309    C   20  dxz    Ryd( 3d)     0.00116       1.69954
   310    C   20  dyz    Ryd( 3d)     0.00126       2.21617
   311    C   20  dx2y2  Ryd( 3d)     0.00147       1.90930
   312    C   20  dz2    Ryd( 3d)     0.00100       2.13291

   313    H   21  S      Val( 1S)     0.80999       0.02097
   314    H   21  S      Ryd( 2S)     0.00037       0.46194
   315    H   21  S      Ryd( 3S)     0.00012       2.23304
   316    H   21  px     Ryd( 2p)     0.00020       2.31497
   317    H   21  py     Ryd( 2p)     0.00027       2.09036
   318    H   21  pz     Ryd( 2p)     0.00016       1.72841

   319    H   22  S      Val( 1S)     0.83166       0.00496
   320    H   22  S      Ryd( 2S)     0.00169       0.52049
   321    H   22  S      Ryd( 3S)     0.00013       2.25696
   322    H   22  px     Ryd( 2p)     0.00011       1.71983
   323    H   22  py     Ryd( 2p)     0.00021       2.07071
   324    H   22  pz     Ryd( 2p)     0.00038       2.39732

   325    H   23  S      Val( 1S)     0.83168       0.00494
   326    H   23  S      Ryd( 2S)     0.00169       0.52047
   327    H   23  S      Ryd( 3S)     0.00013       2.25706
   328    H   23  px     Ryd( 2p)     0.00011       1.72018
   329    H   23  py     Ryd( 2p)     0.00021       2.07060
   330    H   23  pz     Ryd( 2p)     0.00038       2.39715

 WARNING:  1 low occupancy (<1.9990e) core orbital  found on  C    1
           1 low occupancy (<1.9990e) core orbital  found on  C    3
           1 low occupancy (<1.9990e) core orbital  found on  C    4
           1 low occupancy (<1.9990e) core orbital  found on  C    8

 WARNING:  Population inversion found on atom  C    1
           Population inversion found on atom  C    2
           Population inversion found on atom  C    3
           Population inversion found on atom  C    4
           Population inversion found on atom  C    5
           Population inversion found on atom  C    6
           Population inversion found on atom  C    7
           Population inversion found on atom  C    8
           Population inversion found on atom  N   14
           Population inversion found on atom  C   15
           Population inversion found on atom  O   19
           Population inversion found on atom  C   20


 Summary of Natural Population Analysis:                  
                                                          
                                       Natural Population 
                Natural  -----------------------------------------------
    Atom  No    Charge         Core      Valence    Rydberg      Total
 -----------------------------------------------------------------------
      C    1    0.13619      1.99895     3.84512    0.01974     5.86381
      C    2   -0.07044      1.99902     4.05566    0.01576     6.07044
      C    3   -0.23266      1.99899     4.21697    0.01670     6.23266
      C    4    0.30314      1.99879     3.67531    0.02276     5.69686
      C    5   -0.29215      1.99910     4.27696    0.01610     6.29215
      C    6   -0.22085      1.99909     4.20526    0.01650     6.22085
      C    7    0.18426      1.99912     3.79636    0.02025     5.81574
      C    8   -0.29499      1.99894     4.27976    0.01628     6.29499
      H    9    0.21645      0.00000     0.78022    0.00333     0.78355
      H   10    0.20919      0.00000     0.78894    0.00187     0.79081
      H   11    0.20512      0.00000     0.79301    0.00187     0.79488
      H   12    0.39827      0.00000     0.59840    0.00333     0.60173
      H   13    0.21689      0.00000     0.78157    0.00154     0.78311
      N   14   -0.55998      1.99926     5.54586    0.01486     7.55998
      C   15   -0.60570      1.99929     4.59757    0.00885     6.60570
      H   16    0.21064      0.00000     0.78751    0.00185     0.78936
      H   17    0.21080      0.00000     0.78735    0.00185     0.78920
      H   18    0.22207      0.00000     0.77680    0.00113     0.77793
      O   19   -0.55107      1.99972     6.53403    0.01732     8.55107
      C   20   -0.20569      1.99927     4.19036    0.01606     6.20569
      H   21    0.18889      0.00000     0.80999    0.00112     0.81111
      H   22    0.16582      0.00000     0.83166    0.00251     0.83418
      H   23    0.16580      0.00000     0.83168    0.00251     0.83420
 =======================================================================
   * Total *    0.00000     23.98954    61.78635    0.22411    86.00000

                                 Natural Population      
 --------------------------------------------------------
   Core                      23.98954 ( 99.9564% of  24)
   Valence                   61.78635 ( 99.6554% of  62)
   Natural Minimal Basis     85.77589 ( 99.7394% of  86)
   Natural Rydberg Basis      0.22411 (  0.2606% of  86)
 --------------------------------------------------------

    Atom  No          Natural Electron Configuration
 ----------------------------------------------------------------------------
      C    1      [core]2S( 0.82)2p( 3.03)4p( 0.01)
      C    2      [core]2S( 0.87)2p( 3.19)4p( 0.01)
      C    3      [core]2S( 0.93)2p( 3.28)4p( 0.01)
      C    4      [core]2S( 0.83)2p( 2.85)3d( 0.01)4p( 0.01)
      C    5      [core]2S( 0.94)2p( 3.33)4p( 0.01)
      C    6      [core]2S( 0.93)2p( 3.27)4p( 0.01)
      C    7      [core]2S( 0.85)2p( 2.94)4p( 0.01)
      C    8      [core]2S( 0.93)2p( 3.35)4p( 0.01)
      H    9            1S( 0.78)
      H   10            1S( 0.79)
      H   11            1S( 0.79)
      H   12            1S( 0.60)
      H   13            1S( 0.78)
      N   14      [core]2S( 1.22)2p( 4.33)3p( 0.01)
      C   15      [core]2S( 1.08)2p( 3.52)
      H   16            1S( 0.79)
      H   17            1S( 0.79)
      H   18            1S( 0.78)
      O   19      [core]2S( 1.59)2p( 4.94)3p( 0.01)
      C   20      [core]2S( 1.08)2p( 3.11)3p( 0.01)3d( 0.01)
      H   21            1S( 0.81)
      H   22            1S( 0.83)
      H   23            1S( 0.83)


 NBO analysis skipped by request.
 1\1\GINC-COREV2-25-046\SP\RB3LYP\6-311+G(d,p)\C10H11N1O1\ROOT\23-Jul-2
 021\0\\# b3lyp/6-311+g(d,p) geom=connectivity pop=(hirshfeld,chelpg,mb
 s,npa)\\Table9_3\\0,1\C,0,-0.734974,0.768515,0.000065\C,0,-0.547556,-0
 .640105,0.000285\C,0,0.752332,-1.157177,0.000199\C,0,1.831122,-0.27757
 6,0.000362\C,0,1.629463,1.116721,0.0004\C,0,0.340646,1.648256,0.000135
 \C,0,-2.777229,-0.211658,0.000075\C,0,-1.858224,-1.230341,0.000333\H,0
 ,0.942638,-2.223829,0.000331\H,0,2.47207,1.794104,0.000638\H,0,0.19632
 8,2.723225,0.00016\H,0,-2.541371,1.903156,0.005018\H,0,-2.094741,-2.28
 3352,0.000038\N,0,-2.102126,0.99801,-0.00115\C,0,-4.269508,-0.259448,-
 0.000395\H,0,-4.690092,0.234838,0.882352\H,0,-4.68923,0.230675,-0.8858
 53\H,0,-4.610707,-1.295096,0.001963\O,0,3.075055,-0.864692,0.000318\C,
 0,4.221618,-0.032222,-0.000786\H,0,5.078693,-0.704708,-0.001672\H,0,4.
 261584,0.601393,-0.894675\H,0,4.263133,0.601265,0.89317\\Version=ES64L
 -G09RevD.01\State=1-A\HF=-517.7976129\RMSD=6.389e-09\Dipole=-0.6209471
 ,0.9076068,0.002553\Quadrupole=8.2095784,-0.1425166,-8.0670618,0.48734
 51,-0.0202816,0.0170799\PG=C01 [X(C10H11N1O1)]\\@


 IN NATURE THERE ARE NEITHER REWARDS OR
 PUNISHMENTS -- THERE ARE CONSEQUENCES.

                            -- ROBERT GREEN INGERSOLL
 Job cpu time:       0 days  0 hours  9 minutes 22.0 seconds.
 File lengths (MBytes):  RWF=    112 Int=      0 D2E=      0 Chk=      5 Scr=      1
 Normal termination of Gaussian 09 at Fri Jul 23 17:40:11 2021.
