 Entering Gaussian System, Link 0=g09
 Initial command:
 /cm/shared/apps/gaussian/g09revD.01/g09/l1.exe "//home/sweav003/CHB/CHActivation_Mkhalid/OtherCharges/G09-Table9_13.com.o9447152.tmp/Gau-34610.inp" -scrdir="//home/sweav003/CHB/CHActivation_Mkhalid/OtherCharges/G09-Table9_13.com.o9447152.tmp/"
 Entering Link 1 = /cm/shared/apps/gaussian/g09revD.01/g09/l1.exe PID=     34611.
  
 Copyright (c) 1988,1990,1992,1993,1995,1998,2003,2009,2013,
            Gaussian, Inc.  All Rights Reserved.
  
 This is part of the Gaussian(R) 09 program.  It is based on
 the Gaussian(R) 03 system (copyright 2003, Gaussian, Inc.),
 the Gaussian(R) 98 system (copyright 1998, Gaussian, Inc.),
 the Gaussian(R) 94 system (copyright 1995, Gaussian, Inc.),
 the Gaussian 92(TM) system (copyright 1992, Gaussian, Inc.),
 the Gaussian 90(TM) system (copyright 1990, Gaussian, Inc.),
 the Gaussian 88(TM) system (copyright 1988, Gaussian, Inc.),
 the Gaussian 86(TM) system (copyright 1986, Carnegie Mellon
 University), and the Gaussian 82(TM) system (copyright 1983,
 Carnegie Mellon University). Gaussian is a federally registered
 trademark of Gaussian, Inc.
  
 This software contains proprietary and confidential information,
 including trade secrets, belonging to Gaussian, Inc.
  
 This software is provided under written license and may be
 used, copied, transmitted, or stored only in accord with that
 written license.
  
 The following legend is applicable only to US Government
 contracts under FAR:
  
                    RESTRICTED RIGHTS LEGEND
  
 Use, reproduction and disclosure by the US Government is
 subject to restrictions as set forth in subparagraphs (a)
 and (c) of the Commercial Computer Software - Restricted
 Rights clause in FAR 52.227-19.
  
 Gaussian, Inc.
 340 Quinnipiac St., Bldg. 40, Wallingford CT 06492
  
  
 ---------------------------------------------------------------
 Warning -- This program may not be used in any manner that
 competes with the business of Gaussian, Inc. or will provide
 assistance to any competitor of Gaussian, Inc.  The licensee
 of this program is prohibited from giving any competitor of
 Gaussian, Inc. access to this program.  By using this program,
 the user acknowledges that Gaussian, Inc. is engaged in the
 business of creating and licensing software in the field of
 computational chemistry and represents and warrants to the
 licensee that it is not a competitor of Gaussian, Inc. and that
 it will not use this program in any manner prohibited above.
 ---------------------------------------------------------------
  

 Cite this work as:
 Gaussian 09, Revision D.01,
 M. J. Frisch, G. W. Trucks, H. B. Schlegel, G. E. Scuseria, 
 M. A. Robb, J. R. Cheeseman, G. Scalmani, V. Barone, B. Mennucci, 
 G. A. Petersson, H. Nakatsuji, M. Caricato, X. Li, H. P. Hratchian, 
 A. F. Izmaylov, J. Bloino, G. Zheng, J. L. Sonnenberg, M. Hada, 
 M. Ehara, K. Toyota, R. Fukuda, J. Hasegawa, M. Ishida, T. Nakajima, 
 Y. Honda, O. Kitao, H. Nakai, T. Vreven, J. A. Montgomery, Jr., 
 J. E. Peralta, F. Ogliaro, M. Bearpark, J. J. Heyd, E. Brothers, 
 K. N. Kudin, V. N. Staroverov, T. Keith, R. Kobayashi, J. Normand, 
 K. Raghavachari, A. Rendell, J. C. Burant, S. S. Iyengar, J. Tomasi, 
 M. Cossi, N. Rega, J. M. Millam, M. Klene, J. E. Knox, J. B. Cross, 
 V. Bakken, C. Adamo, J. Jaramillo, R. Gomperts, R. E. Stratmann, 
 O. Yazyev, A. J. Austin, R. Cammi, C. Pomelli, J. W. Ochterski, 
 R. L. Martin, K. Morokuma, V. G. Zakrzewski, G. A. Voth, 
 P. Salvador, J. J. Dannenberg, S. Dapprich, A. D. Daniels, 
 O. Farkas, J. B. Foresman, J. V. Ortiz, J. Cioslowski, 
 and D. J. Fox, Gaussian, Inc., Wallingford CT, 2013.
 
 ******************************************
 Gaussian 09:  ES64L-G09RevD.01 24-Apr-2013
                23-Jul-2021 
 ******************************************
 %mem=100MW
 %nprocshared=20
 Will use up to   20 processors via shared memory.
 ---------------------------------------------------------------------
 # b3lyp/6-311+g(d,p) geom=connectivity pop=(hirshfeld,chelpg,mbs,npa)
 ---------------------------------------------------------------------
 1/38=1,57=2/1;
 2/12=2,17=6,18=5,40=1/2;
 3/5=4,6=6,7=111,11=2,16=1,25=1,30=1,74=-5/1,2,3;
 4//1;
 5/5=2,38=5/2;
 6/7=2,8=2,9=2,10=2,15=8,20=3,27=100,28=1,40=-1,79=1/1,2,7;
 99/5=1,9=1/99;
 ---------
 Table9_13
 ---------
 Symbolic Z-matrix:
 Charge =  0 Multiplicity = 1
 6                    -1.60658  -0.6554    0.00011 
 6                    -1.63615   0.7644    0.00006 
 6                    -2.88024   1.41818  -0.00003 
 6                    -4.04001   0.65887  -0.00007 
 6                    -3.98693  -0.74992  -0.00002 
 6                    -2.77422  -1.42474   0.00008 
 6                     0.54638   0.09014   0.0001 
 6                    -0.27052   1.20203   0.00007 
 1                    -2.93096   2.5017   -0.00007 
 1                    -5.00579   1.15141  -0.00016 
 1                    -4.91124  -1.31653  -0.00007 
 1                    -2.73795  -2.50887   0.00011 
 1                     0.03837  -1.98725   0.00012 
 1                     0.07101   2.22621   0.00002 
 7                    -0.28158  -1.03321   0.00012 
 14                    2.42719   0.0043   -0.00004 
 6                     3.0172   -0.91983  -1.53971 
 1                     4.11022  -0.97743  -1.56525 
 1                     2.63611  -1.94554  -1.57119 
 1                     2.68536  -0.41656  -2.45222 
 6                     3.01766  -0.91925   1.53982 
 1                     4.11069  -0.97683   1.56494 
 1                     2.68621  -0.41552   2.45222 
 1                     2.63656  -1.94492   1.57196 
 6                     3.0936    1.76634  -0.00033 
 1                     2.76623   2.31942  -0.8851 
 1                     2.76643   2.31956   0.88442 
 1                     4.18793   1.75852  -0.00047 
 
                          Input orientation:                          
 ---------------------------------------------------------------------
 Center     Atomic      Atomic             Coordinates (Angstroms)
 Number     Number       Type             X           Y           Z
 ---------------------------------------------------------------------
      1          6           0       -1.606581   -0.655396    0.000106
      2          6           0       -1.636149    0.764398    0.000058
      3          6           0       -2.880243    1.418184   -0.000026
      4          6           0       -4.040012    0.658872   -0.000071
      5          6           0       -3.986930   -0.749924   -0.000019
      6          6           0       -2.774215   -1.424735    0.000081
      7          6           0        0.546378    0.090139    0.000102
      8          6           0       -0.270523    1.202027    0.000073
      9          1           0       -2.930957    2.501699   -0.000071
     10          1           0       -5.005786    1.151406   -0.000155
     11          1           0       -4.911242   -1.316533   -0.000065
     12          1           0       -2.737948   -2.508865    0.000114
     13          1           0        0.038373   -1.987250    0.000123
     14          1           0        0.071006    2.226207    0.000016
     15          7           0       -0.281576   -1.033214    0.000115
     16         14           0        2.427194    0.004297   -0.000038
     17          6           0        3.017204   -0.919833   -1.539710
     18          1           0        4.110215   -0.977429   -1.565253
     19          1           0        2.636106   -1.945539   -1.571188
     20          1           0        2.685357   -0.416562   -2.452222
     21          6           0        3.017664   -0.919245    1.539815
     22          1           0        4.110691   -0.976826    1.564939
     23          1           0        2.686206   -0.415524    2.452223
     24          1           0        2.636563   -1.944923    1.571963
     25          6           0        3.093596    1.766343   -0.000333
     26          1           0        2.766230    2.319423   -0.885100
     27          1           0        2.766434    2.319555    0.884419
     28          1           0        4.187932    1.758515   -0.000473
 ---------------------------------------------------------------------
                    Distance matrix (angstroms):
                    1          2          3          4          5
     1  C    0.000000
     2  C    1.420102   0.000000
     3  C    2.433505   1.405420   0.000000
     4  C    2.765662   2.406178   1.386225   0.000000
     5  C    2.382225   2.796309   2.434224   1.409796   0.000000
     6  C    1.398303   2.467285   2.844895   2.437962   1.387821
     7  C    2.278389   2.284305   3.674974   4.621518   4.610487
     8  C    2.288028   1.434034   2.618657   3.808420   4.197832
     9  H    3.423627   2.166735   1.084701   2.150817   3.418791
    10  H    3.849562   3.391788   2.142219   1.084117   2.157110
    11  H    3.370146   3.880272   3.406411   2.158997   1.084158
    12  H    2.171483   3.453724   3.929626   3.424898   2.157274
    13  H    2.116532   3.221116   4.485008   4.861603   4.211180
    14  H    3.334357   2.247502   3.059865   4.399660   5.032316
    15  N    1.377819   2.250839   3.572453   4.121771   3.716168
    16  Si   4.087363   4.133825   5.492537   6.500248   6.458315
    17  C    4.880609   5.182780   6.528157   7.393720   7.173382
    18  H    5.935976   6.205228   7.553503   8.458929   8.250180
    19  H    4.704660   5.297616   6.649307   7.336342   6.911054
    20  H    4.948908   5.107226   6.352595   7.238798   7.116449
    21  C    4.880980   5.182999   6.528399   7.394085   7.173848
    22  H    5.936263   6.205391   7.553698   8.459239   8.250578
    23  H    4.949590   5.107649   6.353059   7.239481   7.117307
    24  H    4.705091   5.297865   6.649570   7.336736   6.911571
    25  C    5.287389   4.834706   5.983976   7.219062   7.514349
    26  H    5.362333   4.752110   5.786039   7.061560   7.470571
    27  H    5.362425   4.752194   5.786162   7.061721   7.470733
    28  H    6.277209   5.908315   7.076364   8.301101   8.551060
                    6          7          8          9         10
     6  C    0.000000
     7  C    3.649819   0.000000
     8  C    3.628822   1.379718   0.000000
     9  H    3.929561   4.231723   2.960922   0.000000
    10  H    3.408286   5.652682   4.735534   2.475521   0.000000
    11  H    2.139764   5.635986   5.280096   4.301212   2.469749
    12  H    1.084736   4.188272   4.456333   5.014280   4.305888
    13  H    2.868288   2.138601   3.204201   5.382154   5.940934
    14  H    4.628678   2.188325   1.079623   3.014578   5.189317
    15  N    2.523200   1.395503   2.235268   4.417559   5.204875
    16  Si   5.394144   1.882774   2.951649   5.911582   7.520974
    17  C    6.013852   3.081565   4.205041   7.032637   8.427848
    18  H    7.074301   4.036208   5.137231   8.008260   9.491204
    19  H    5.657888   3.313593   4.563390   7.296473   8.393910
    20  H    6.069360   3.293307   4.167830   6.787656   8.223432
    21  C    6.014330   3.081692   4.205089   7.032795   8.428218
    22  H    7.074697   4.036268   5.137241   8.008383   9.491525
    23  H    6.070231   3.293548   4.167944   6.787964   8.224121
    24  H    5.658439   3.313774   4.563473   7.296644   8.394302
    25  C    6.679385   3.049259   3.411121   6.069266   8.122693
    26  H    6.745279   3.268185   3.354694   5.768400   7.908958
    27  H    6.745410   3.268174   3.354705   5.768515   7.909137
    28  H    7.655362   4.005545   4.493050   7.157577   9.213741
                   11         12         13         14         15
    11  H    0.000000
    12  H    2.478883   0.000000
    13  H    4.994852   2.824897   0.000000
    14  H    6.113412   5.505554   4.213583   0.000000
    15  N    4.638327   2.865538   1.006256   3.278436   0.000000
    16  Si   7.456355   5.744099   3.110101   3.238596   2.900666
    17  C    8.086293   6.165862   3.519076   4.576943   3.642234
    18  H    9.162505   7.189785   4.477727   5.387816   4.662759
    19  H    7.734762   5.627325   3.036276   5.143140   3.437179
    20  H    8.033140   6.309035   3.935426   4.453373   3.898321
    21  C    8.086818   6.166412   3.519583   4.576859   3.642616
    22  H    9.162964   7.190249   4.478100   5.387714   4.663032
    23  H    8.034099   6.310021   3.936259   4.453238   3.898988
    24  H    7.735341   5.627976   3.036950   5.143095   3.437652
    25  C    8.577969   7.230789   4.839819   3.057372   4.385123
    26  H    8.540904   7.375089   5.174191   2.838371   4.616590
    27  H    8.541086   7.375219   5.174250   2.838347   4.616646
    28  H    9.604733   8.135007   5.590134   4.143406   5.269749
                   16         17         18         19         20
    16  Si   0.000000
    17  C    1.890163   0.000000
    18  H    2.499249   1.094825   0.000000
    19  H    2.512771   1.094669   1.763596   0.000000
    20  H    2.501395   1.093655   1.769606   1.765338   0.000000
    21  C    1.890167   3.079525   3.292188   3.298061   4.037261
    22  H    2.499183   3.292083   3.130192   3.598347   4.299192
    23  H    2.501384   4.037254   4.299262   4.304799   4.904445
    24  H    2.512863   3.298213   3.598586   3.143151   4.304920
    25  C    1.883852   3.096943   3.318249   4.056470   3.308095
    26  H    2.501617   3.314254   3.624657   4.321753   3.154049
    27  H    2.501553   4.053754   4.321660   4.923212   4.315795
    28  H    2.485454   3.303544   3.152771   4.312230   3.605519
                   21         22         23         24         25
    21  C    0.000000
    22  H    1.094831   0.000000
    23  H    1.093658   1.769602   0.000000
    24  H    1.094663   1.763608   1.765328   0.000000
    25  C    3.096806   3.318062   3.307800   4.056413   0.000000
    26  H    4.053690   4.321519   4.315561   4.923273   1.093562
    27  H    3.313983   3.624398   3.153586   4.321499   1.093556
    28  H    3.303394   3.152550   3.605183   4.312163   1.094364
                   26         27         28
    26  H    0.000000
    27  H    1.769519   0.000000
    28  H    1.765905   1.765915   0.000000
 Stoichiometry    C11H15NSi
 Framework group  C1[X(C11H15NSi)]
 Deg. of freedom    78
 Full point group                 C1      NOp   1
 Largest Abelian subgroup         C1      NOp   1
 Largest concise Abelian subgroup C1      NOp   1
                         Standard orientation:                         
 ---------------------------------------------------------------------
 Center     Atomic      Atomic             Coordinates (Angstroms)
 Number     Number       Type             X           Y           Z
 ---------------------------------------------------------------------
      1          6           0       -1.606581   -0.655396    0.000106
      2          6           0       -1.636149    0.764398    0.000058
      3          6           0       -2.880243    1.418184   -0.000026
      4          6           0       -4.040012    0.658872   -0.000071
      5          6           0       -3.986930   -0.749924   -0.000019
      6          6           0       -2.774215   -1.424735    0.000081
      7          6           0        0.546378    0.090139    0.000102
      8          6           0       -0.270523    1.202027    0.000073
      9          1           0       -2.930957    2.501699   -0.000071
     10          1           0       -5.005786    1.151406   -0.000155
     11          1           0       -4.911242   -1.316533   -0.000065
     12          1           0       -2.737948   -2.508865    0.000114
     13          1           0        0.038373   -1.987250    0.000123
     14          1           0        0.071006    2.226207    0.000016
     15          7           0       -0.281576   -1.033214    0.000115
     16         14           0        2.427194    0.004297   -0.000038
     17          6           0        3.017204   -0.919833   -1.539710
     18          1           0        4.110215   -0.977429   -1.565253
     19          1           0        2.636106   -1.945539   -1.571188
     20          1           0        2.685357   -0.416562   -2.452222
     21          6           0        3.017664   -0.919245    1.539815
     22          1           0        4.110691   -0.976826    1.564939
     23          1           0        2.686206   -0.415524    2.452223
     24          1           0        2.636563   -1.944923    1.571963
     25          6           0        3.093596    1.766343   -0.000333
     26          1           0        2.766230    2.319423   -0.885100
     27          1           0        2.766434    2.319555    0.884419
     28          1           0        4.187932    1.758515   -0.000473
 ---------------------------------------------------------------------
 Rotational constants (GHZ):      1.7318124      0.3645095      0.3330881
 Standard basis: 6-311+G(d,p) (5D, 7F)
 There are   397 symmetry adapted cartesian basis functions of A   symmetry.
 There are   384 symmetry adapted basis functions of A   symmetry.
   384 basis functions,   602 primitive gaussians,   397 cartesian basis functions
    51 alpha electrons       51 beta electrons
       nuclear repulsion energy       842.4327309946 Hartrees.
 NAtoms=   28 NActive=   28 NUniq=   28 SFac= 1.00D+00 NAtFMM=   60 NAOKFM=F Big=F
 Integral buffers will be    131072 words long.
 Raffenetti 2 integral format.
 Two-electron integral symmetry is turned on.
 One-electron integrals computed using PRISM.
 NBasis=   384 RedAO= T EigKep=  1.22D-06  NBF=   384
 NBsUse=   383 1.00D-06 EigRej=  4.96D-07 NBFU=   383
 ExpMin= 3.31D-02 ExpMax= 6.94D+04 ExpMxC= 2.33D+03 IAcc=3 IRadAn=         5 AccDes= 0.00D+00
 Harris functional with IExCor=  402 and IRadAn=       5 diagonalized for initial guess.
 HarFok:  IExCor=  402 AccDes= 0.00D+00 IRadAn=         5 IDoV= 1 UseB2=F ITyADJ=14
 ICtDFT=  3500011 ScaDFX=  1.000000  1.000000  1.000000  1.000000
 FoFCou: FMM=F IPFlag=           0 FMFlag=      100000 FMFlg1=           0
         NFxFlg=           0 DoJE=T BraDBF=F KetDBF=T FulRan=T
         wScrn=  0.000000 ICntrl=     500 IOpCl=  0 I1Cent=   200000004 NGrid=           0
         NMat0=    1 NMatS0=      1 NMatT0=    0 NMatD0=    1 NMtDS0=    0 NMtDT0=    0
 Petite list used in FoFCou.
 Requested convergence on RMS density matrix=1.00D-08 within 128 cycles.
 Requested convergence on MAX density matrix=1.00D-06.
 Requested convergence on             energy=1.00D-06.
 No special actions if energy rises.
 SCF Done:  E(RB3LYP) =  -772.656548760     A.U. after   14 cycles
            NFock= 14  Conv=0.47D-08     -V/T= 2.0036

 **********************************************************************

            Population analysis using the SCF density.

 **********************************************************************

 Orbital symmetries:
       Occupied  (A) (A) (A) (A) (A) (A) (A) (A) (A) (A) (A) (A)
                 (A) (A) (A) (A) (A) (A) (A) (A) (A) (A) (A) (A)
                 (A) (A) (A) (A) (A) (A) (A) (A) (A) (A) (A) (A)
                 (A) (A) (A) (A) (A) (A) (A) (A) (A) (A) (A) (A)
                 (A) (A) (A)
       Virtual   (A) (A) (A) (A) (A) (A) (A) (A) (A) (A) (A) (A)
                 (A) (A) (A) (A) (A) (A) (A) (A) (A) (A) (A) (A)
                 (A) (A) (A) (A) (A) (A) (A) (A) (A) (A) (A) (A)
                 (A) (A) (A) (A) (A) (A) (A) (A) (A) (A) (A) (A)
                 (A) (A) (A) (A) (A) (A) (A) (A) (A) (A) (A) (A)
                 (A) (A) (A) (A) (A) (A) (A) (A) (A) (A) (A) (A)
                 (A) (A) (A) (A) (A) (A) (A) (A) (A) (A) (A) (A)
                 (A) (A) (A) (A) (A) (A) (A) (A) (A) (A) (A) (A)
                 (A) (A) (A) (A) (A) (A) (A) (A) (A) (A) (A) (A)
                 (A) (A) (A) (A) (A) (A) (A) (A) (A) (A) (A) (A)
                 (A) (A) (A) (A) (A) (A) (A) (A) (A) (A) (A) (A)
                 (A) (A) (A) (A) (A) (A) (A) (A) (A) (A) (A) (A)
                 (A) (A) (A) (A) (A) (A) (A) (A) (A) (A) (A) (A)
                 (A) (A) (A) (A) (A) (A) (A) (A) (A) (A) (A) (A)
                 (A) (A) (A) (A) (A) (A) (A) (A) (A) (A) (A) (A)
                 (A) (A) (A) (A) (A) (A) (A) (A) (A) (A) (A) (A)
                 (A) (A) (A) (A) (A) (A) (A) (A) (A) (A) (A) (A)
                 (A) (A) (A) (A) (A) (A) (A) (A) (A) (A) (A) (A)
                 (A) (A) (A) (A) (A) (A) (A) (A) (A) (A) (A) (A)
                 (A) (A) (A) (A) (A) (A) (A) (A) (A) (A) (A) (A)
                 (A) (A) (A) (A) (A) (A) (A) (A) (A) (A) (A) (A)
                 (A) (A) (A) (A) (A) (A) (A) (A) (A) (A) (A) (A)
                 (A) (A) (A) (A) (A) (A) (A) (A) (A) (A) (A) (A)
                 (A) (A) (A) (A) (A) (A) (A) (A) (A) (A) (A) (A)
                 (A) (A) (A) (A) (A) (A) (A) (A) (A) (A) (A) (A)
                 (A) (A) (A) (A) (A) (A) (A) (A) (A) (A) (A) (A)
                 (A) (A) (A) (A) (A) (A) (A) (A) (A) (A) (A) (A)
                 (A) (A) (A) (A) (A) (A) (A) (A)
 The electronic state is 1-A.
 Alpha  occ. eigenvalues --  -66.09133 -14.35581 -10.20434 -10.18925 -10.17359
 Alpha  occ. eigenvalues --  -10.16944 -10.16895 -10.16887 -10.16358 -10.16109
 Alpha  occ. eigenvalues --  -10.15233 -10.15233 -10.15194  -5.26402  -3.62258
 Alpha  occ. eigenvalues --   -3.62189  -3.62178  -0.97726  -0.84104  -0.78233
 Alpha  occ. eigenvalues --   -0.73767  -0.72752  -0.70925  -0.68687  -0.68640
 Alpha  occ. eigenvalues --   -0.62232  -0.59174  -0.58241  -0.53983  -0.49015
 Alpha  occ. eigenvalues --   -0.47781  -0.44432  -0.43332  -0.43241  -0.42496
 Alpha  occ. eigenvalues --   -0.42159  -0.41513  -0.41504  -0.40552  -0.39828
 Alpha  occ. eigenvalues --   -0.39730  -0.38994  -0.36231  -0.33997  -0.33818
 Alpha  occ. eigenvalues --   -0.32278  -0.31225  -0.31130  -0.28161  -0.22589
 Alpha  occ. eigenvalues --   -0.21044
 Alpha virt. eigenvalues --   -0.02650  -0.01679   0.00190   0.01106   0.01281
 Alpha virt. eigenvalues --    0.01767   0.02411   0.02802   0.03206   0.04080
 Alpha virt. eigenvalues --    0.04799   0.04840   0.05701   0.05919   0.06350
 Alpha virt. eigenvalues --    0.06354   0.07204   0.07365   0.07583   0.08460
 Alpha virt. eigenvalues --    0.08705   0.09293   0.09306   0.09929   0.10108
 Alpha virt. eigenvalues --    0.10572   0.10956   0.10991   0.11857   0.12312
 Alpha virt. eigenvalues --    0.13395   0.13656   0.13784   0.13979   0.14850
 Alpha virt. eigenvalues --    0.15073   0.15081   0.15278   0.16458   0.16924
 Alpha virt. eigenvalues --    0.17362   0.17582   0.17960   0.18163   0.18417
 Alpha virt. eigenvalues --    0.18844   0.19000   0.19518   0.19949   0.20499
 Alpha virt. eigenvalues --    0.21155   0.21298   0.21377   0.21794   0.22299
 Alpha virt. eigenvalues --    0.22448   0.22565   0.23542   0.23731   0.24285
 Alpha virt. eigenvalues --    0.25203   0.26044   0.26622   0.26639   0.27298
 Alpha virt. eigenvalues --    0.27612   0.27772   0.28912   0.29390   0.29480
 Alpha virt. eigenvalues --    0.30040   0.31403   0.31877   0.32606   0.33206
 Alpha virt. eigenvalues --    0.33530   0.34468   0.35375   0.36113   0.36879
 Alpha virt. eigenvalues --    0.37979   0.38917   0.40678   0.42196   0.43227
 Alpha virt. eigenvalues --    0.45379   0.47460   0.49895   0.50440   0.51147
 Alpha virt. eigenvalues --    0.51812   0.51855   0.53062   0.53271   0.53844
 Alpha virt. eigenvalues --    0.55219   0.55231   0.55798   0.56721   0.57990
 Alpha virt. eigenvalues --    0.58409   0.59392   0.59826   0.61394   0.62131
 Alpha virt. eigenvalues --    0.62987   0.63675   0.64149   0.65737   0.65825
 Alpha virt. eigenvalues --    0.66897   0.66946   0.68048   0.68723   0.68822
 Alpha virt. eigenvalues --    0.69053   0.70856   0.71491   0.71890   0.72062
 Alpha virt. eigenvalues --    0.72754   0.73894   0.73896   0.74685   0.75168
 Alpha virt. eigenvalues --    0.76967   0.78186   0.78193   0.80810   0.82482
 Alpha virt. eigenvalues --    0.83450   0.83945   0.84417   0.84554   0.84883
 Alpha virt. eigenvalues --    0.86341   0.87094   0.87572   0.89052   0.89315
 Alpha virt. eigenvalues --    0.90988   0.92287   0.93841   0.94247   0.95152
 Alpha virt. eigenvalues --    0.96959   0.97919   1.00613   1.01660   1.02698
 Alpha virt. eigenvalues --    1.03812   1.04368   1.05717   1.06993   1.07440
 Alpha virt. eigenvalues --    1.08348   1.09846   1.11559   1.13286   1.13568
 Alpha virt. eigenvalues --    1.15546   1.17502   1.18197   1.20977   1.24070
 Alpha virt. eigenvalues --    1.25009   1.29284   1.30167   1.32449   1.35167
 Alpha virt. eigenvalues --    1.44961   1.45539   1.45877   1.47374   1.48801
 Alpha virt. eigenvalues --    1.48914   1.49268   1.51994   1.54081   1.55947
 Alpha virt. eigenvalues --    1.56008   1.57191   1.57328   1.57537   1.57937
 Alpha virt. eigenvalues --    1.59130   1.60648   1.61060   1.61363   1.62359
 Alpha virt. eigenvalues --    1.63737   1.64531   1.65023   1.66840   1.67456
 Alpha virt. eigenvalues --    1.69769   1.71276   1.71546   1.72904   1.73027
 Alpha virt. eigenvalues --    1.75164   1.77187   1.77870   1.78297   1.80272
 Alpha virt. eigenvalues --    1.80332   1.81934   1.82384   1.84992   1.86758
 Alpha virt. eigenvalues --    1.87328   1.88175   1.90654   1.91112   1.94166
 Alpha virt. eigenvalues --    1.95545   1.95592   1.96594   2.01167   2.03607
 Alpha virt. eigenvalues --    2.05413   2.06008   2.07089   2.07639   2.09561
 Alpha virt. eigenvalues --    2.10881   2.12285   2.12312   2.17348   2.18529
 Alpha virt. eigenvalues --    2.19067   2.21140   2.23422   2.24534   2.25298
 Alpha virt. eigenvalues --    2.26665   2.29377   2.35303   2.35779   2.40848
 Alpha virt. eigenvalues --    2.41928   2.44573   2.44639   2.44863   2.45366
 Alpha virt. eigenvalues --    2.46431   2.49130   2.49871   2.50446   2.51467
 Alpha virt. eigenvalues --    2.52633   2.53099   2.53704   2.55233   2.57073
 Alpha virt. eigenvalues --    2.59203   2.60901   2.64133   2.64145   2.67206
 Alpha virt. eigenvalues --    2.67284   2.68190   2.69242   2.70337   2.72599
 Alpha virt. eigenvalues --    2.73957   2.76772   2.76843   2.77318   2.77914
 Alpha virt. eigenvalues --    2.79503   2.82653   2.83404   2.85996   2.86254
 Alpha virt. eigenvalues --    2.88787   2.89615   2.91596   2.92982   2.95471
 Alpha virt. eigenvalues --    2.97714   3.02941   3.03462   3.06139   3.09654
 Alpha virt. eigenvalues --    3.12909   3.18087   3.24506   3.27882   3.30556
 Alpha virt. eigenvalues --    3.31414   3.37420   3.41773   3.43840   3.51039
 Alpha virt. eigenvalues --    3.54092   3.58676   3.64082   3.69535   3.72643
 Alpha virt. eigenvalues --    3.73717   3.74731   3.76838   3.77551   3.79068
 Alpha virt. eigenvalues --    3.90588   3.91718   3.97928   4.04107   4.08362
 Alpha virt. eigenvalues --    4.19632   4.40344   4.82889   4.90752   5.15211
 Alpha virt. eigenvalues --    5.87854  11.51741  11.56901  11.57923  23.60675
 Alpha virt. eigenvalues --   23.80419  23.93939  23.93993  23.96205  23.97308
 Alpha virt. eigenvalues --   24.00254  24.05275  24.11057  24.13404  24.19745
 Alpha virt. eigenvalues --   35.65400 141.32809
          Condensed to atoms (all electrons):
               1          2          3          4          5          6
     1  C   11.466483  -1.104877  -1.476742  -0.807696   0.401777  -0.541111
     2  C   -1.104877  14.780049  -8.282938   1.753001  -2.131977   1.076097
     3  C   -1.476742  -8.282938  17.169869  -1.841701   1.807662  -2.036325
     4  C   -0.807696   1.753001  -1.841701   6.477501  -0.170377   0.940138
     5  C    0.401777  -2.131977   1.807662  -0.170377   5.924205  -0.259016
     6  C   -0.541111   1.076097  -2.036325   0.940138  -0.259016   9.718903
     7  C    1.657649  -0.169207  -1.960087  -0.110973  -0.103419   0.153183
     8  C   -2.798434  -1.478391   3.091572  -0.567501   0.366600  -2.283205
     9  H   -0.015798   0.031317   0.310226  -0.013874  -0.012642   0.001188
    10  H    0.022626   0.002915  -0.034591   0.350655   0.024494  -0.041991
    11  H    0.037717   0.064602  -0.080446   0.034105   0.338387  -0.052485
    12  H   -0.030735  -0.009266  -0.015177  -0.002720   0.034232   0.356322
    13  H   -0.094997   0.084772   0.003834   0.002506  -0.005574  -0.018605
    14  H   -0.015986   0.084944  -0.049968   0.014909  -0.003538   0.013951
    15  N    0.046781   0.033301   0.156105  -0.010129   0.028200  -0.394867
    16  Si  -0.018928  -0.035568  -0.007774   0.006995   0.002516   0.030723
    17  C   -0.020109   0.016231   0.020396  -0.002318   0.000631  -0.020441
    18  H   -0.001264  -0.001330  -0.000370   0.000008   0.000008   0.000332
    19  H    0.002543  -0.001579   0.000101   0.000025   0.000063   0.002156
    20  H    0.001607   0.001432  -0.000247   0.000069  -0.000135  -0.000249
    21  C   -0.020111   0.016243   0.020403  -0.002316   0.000631  -0.020430
    22  H   -0.001261  -0.001328  -0.000370   0.000008   0.000008   0.000331
    23  H    0.001608   0.001426  -0.000245   0.000069  -0.000134  -0.000249
    24  H    0.002528  -0.001585   0.000100   0.000025   0.000063   0.002156
    25  C    0.101895  -0.167324  -0.017153  -0.008052   0.001283   0.000682
    26  H   -0.009469   0.000549   0.004327  -0.000129   0.000065  -0.000663
    27  H   -0.009462   0.000568   0.004323  -0.000129   0.000065  -0.000662
    28  H    0.001135   0.003250  -0.000456   0.000096  -0.000019   0.000207
               7          8          9         10         11         12
     1  C    1.657649  -2.798434  -0.015798   0.022626   0.037717  -0.030735
     2  C   -0.169207  -1.478391   0.031317   0.002915   0.064602  -0.009266
     3  C   -1.960087   3.091572   0.310226  -0.034591  -0.080446  -0.015177
     4  C   -0.110973  -0.567501  -0.013874   0.350655   0.034105  -0.002720
     5  C   -0.103419   0.366600  -0.012642   0.024494   0.338387   0.034232
     6  C    0.153183  -2.283205   0.001188  -0.041991  -0.052485   0.356322
     7  C    8.233385  -0.714103   0.020358   0.000833   0.004766   0.017881
     8  C   -0.714103   9.426044   0.018337   0.020486   0.000408   0.000899
     9  H    0.020358   0.018337   0.553349  -0.008203  -0.000239   0.000067
    10  H    0.000833   0.020486  -0.008203   0.550654  -0.007883  -0.000251
    11  H    0.004766   0.000408  -0.000239  -0.007883   0.549279  -0.008020
    12  H    0.017881   0.000899   0.000067  -0.000251  -0.008020   0.557543
    13  H   -0.066229   0.027983   0.000014   0.000000   0.000024   0.002367
    14  H   -0.082065   0.363351   0.002067  -0.000008  -0.000001   0.000014
    15  N   -0.166503   0.124110  -0.001374   0.000935  -0.000781  -0.006510
    16  Si   0.318967   0.067497   0.000224   0.000051  -0.000006  -0.000001
    17  C   -0.228022   0.047346  -0.000016   0.000001   0.000002   0.000008
    18  H    0.021091   0.001581   0.000000   0.000000   0.000000   0.000000
    19  H   -0.023508  -0.003563   0.000000   0.000000   0.000000   0.000002
    20  H   -0.005155  -0.004755   0.000000   0.000000   0.000000   0.000000
    21  C   -0.228075   0.047336  -0.000016   0.000001   0.000002   0.000008
    22  H    0.021115   0.001581   0.000000   0.000000   0.000000   0.000000
    23  H   -0.005163  -0.004763   0.000000   0.000000   0.000000   0.000000
    24  H   -0.023496  -0.003555   0.000000   0.000000   0.000000   0.000002
    25  C    0.104367  -0.249255   0.000054   0.000002   0.000002   0.000059
    26  H   -0.031657   0.025091   0.000000   0.000000   0.000000   0.000000
    27  H   -0.031682   0.025092   0.000000   0.000000   0.000000   0.000000
    28  H   -0.002983   0.013137   0.000000   0.000000   0.000000   0.000000
              13         14         15         16         17         18
     1  C   -0.094997  -0.015986   0.046781  -0.018928  -0.020109  -0.001264
     2  C    0.084772   0.084944   0.033301  -0.035568   0.016231  -0.001330
     3  C    0.003834  -0.049968   0.156105  -0.007774   0.020396  -0.000370
     4  C    0.002506   0.014909  -0.010129   0.006995  -0.002318   0.000008
     5  C   -0.005574  -0.003538   0.028200   0.002516   0.000631   0.000008
     6  C   -0.018605   0.013951  -0.394867   0.030723  -0.020441   0.000332
     7  C   -0.066229  -0.082065  -0.166503   0.318967  -0.228022   0.021091
     8  C    0.027983   0.363351   0.124110   0.067497   0.047346   0.001581
     9  H    0.000014   0.002067  -0.001374   0.000224  -0.000016   0.000000
    10  H    0.000000  -0.000008   0.000935   0.000051   0.000001   0.000000
    11  H    0.000024  -0.000001  -0.000781  -0.000006   0.000002   0.000000
    12  H    0.002367   0.000014  -0.006510  -0.000001   0.000008   0.000000
    13  H    0.405814   0.000021   0.384444   0.001080   0.000109  -0.000043
    14  H    0.000021   0.549691   0.020642   0.003487  -0.001082   0.000002
    15  N    0.384444   0.020642   6.762747  -0.053530   0.029802  -0.001265
    16  Si   0.001080   0.003487  -0.053530  11.741862   0.229602  -0.013361
    17  C    0.000109  -0.001082   0.029802   0.229602   5.873870   0.371934
    18  H   -0.000043   0.000002  -0.001265  -0.013361   0.371934   0.517750
    19  H   -0.000637  -0.000010   0.004607   0.014987   0.353149  -0.022077
    20  H    0.000082   0.000001  -0.000904  -0.009530   0.368071  -0.018860
    21  C    0.000099  -0.001083   0.029841   0.229610  -0.128918  -0.006362
    22  H   -0.000043   0.000002  -0.001268  -0.013359  -0.006368   0.000456
    23  H    0.000082   0.000001  -0.000900  -0.009528   0.016752  -0.000028
    24  H   -0.000638  -0.000010   0.004601   0.014977  -0.011892   0.000299
    25  C   -0.000094  -0.009244   0.000985   0.324502  -0.154725  -0.010883
    26  H    0.000007   0.000121  -0.000642   0.001815  -0.008542   0.000204
    27  H    0.000007   0.000121  -0.000644   0.001835   0.016075  -0.000096
    28  H    0.000006   0.000216   0.000278  -0.018343  -0.003698   0.000627
              19         20         21         22         23         24
     1  C    0.002543   0.001607  -0.020111  -0.001261   0.001608   0.002528
     2  C   -0.001579   0.001432   0.016243  -0.001328   0.001426  -0.001585
     3  C    0.000101  -0.000247   0.020403  -0.000370  -0.000245   0.000100
     4  C    0.000025   0.000069  -0.002316   0.000008   0.000069   0.000025
     5  C    0.000063  -0.000135   0.000631   0.000008  -0.000134   0.000063
     6  C    0.002156  -0.000249  -0.020430   0.000331  -0.000249   0.002156
     7  C   -0.023508  -0.005155  -0.228075   0.021115  -0.005163  -0.023496
     8  C   -0.003563  -0.004755   0.047336   0.001581  -0.004763  -0.003555
     9  H    0.000000   0.000000  -0.000016   0.000000   0.000000   0.000000
    10  H    0.000000   0.000000   0.000001   0.000000   0.000000   0.000000
    11  H    0.000000   0.000000   0.000002   0.000000   0.000000   0.000000
    12  H    0.000002   0.000000   0.000008   0.000000   0.000000   0.000002
    13  H   -0.000637   0.000082   0.000099  -0.000043   0.000082  -0.000638
    14  H   -0.000010   0.000001  -0.001083   0.000002   0.000001  -0.000010
    15  N    0.004607  -0.000904   0.029841  -0.001268  -0.000900   0.004601
    16  Si   0.014987  -0.009530   0.229610  -0.013359  -0.009528   0.014977
    17  C    0.353149   0.368071  -0.128918  -0.006368   0.016752  -0.011892
    18  H   -0.022077  -0.018860  -0.006362   0.000456  -0.000028   0.000299
    19  H    0.530740  -0.018881  -0.011898   0.000299  -0.000048   0.001087
    20  H   -0.018881   0.506778   0.016751  -0.000028  -0.000173  -0.000048
    21  C   -0.011898   0.016751   5.873921   0.371916   0.368078   0.353159
    22  H    0.000299  -0.000028   0.371916   0.517764  -0.018864  -0.022076
    23  H   -0.000048  -0.000173   0.368078  -0.018864   0.506784  -0.018877
    24  H    0.001087  -0.000048   0.353159  -0.022076  -0.018877   0.530719
    25  C    0.017725  -0.008374  -0.154791  -0.010891  -0.008371   0.017731
    26  H   -0.000135   0.001248   0.016075  -0.000096  -0.000070  -0.000175
    27  H   -0.000175  -0.000070  -0.008548   0.000204   0.001249  -0.000135
    28  H   -0.000081   0.000136  -0.003688   0.000627   0.000136  -0.000081
              25         26         27         28
     1  C    0.101895  -0.009469  -0.009462   0.001135
     2  C   -0.167324   0.000549   0.000568   0.003250
     3  C   -0.017153   0.004327   0.004323  -0.000456
     4  C   -0.008052  -0.000129  -0.000129   0.000096
     5  C    0.001283   0.000065   0.000065  -0.000019
     6  C    0.000682  -0.000663  -0.000662   0.000207
     7  C    0.104367  -0.031657  -0.031682  -0.002983
     8  C   -0.249255   0.025091   0.025092   0.013137
     9  H    0.000054   0.000000   0.000000   0.000000
    10  H    0.000002   0.000000   0.000000   0.000000
    11  H    0.000002   0.000000   0.000000   0.000000
    12  H    0.000059   0.000000   0.000000   0.000000
    13  H   -0.000094   0.000007   0.000007   0.000006
    14  H   -0.009244   0.000121   0.000121   0.000216
    15  N    0.000985  -0.000642  -0.000644   0.000278
    16  Si   0.324502   0.001815   0.001835  -0.018343
    17  C   -0.154725  -0.008542   0.016075  -0.003698
    18  H   -0.010883   0.000204  -0.000096   0.000627
    19  H    0.017725  -0.000135  -0.000175  -0.000081
    20  H   -0.008374   0.001248  -0.000070   0.000136
    21  C   -0.154791   0.016075  -0.008548  -0.003688
    22  H   -0.010891  -0.000096   0.000204   0.000627
    23  H   -0.008371  -0.000070   0.001249   0.000136
    24  H    0.017731  -0.000175  -0.000135  -0.000081
    25  C    5.950792   0.358492   0.358483   0.370168
    26  H    0.358492   0.511305  -0.020263  -0.018344
    27  H    0.358483  -0.020263   0.511309  -0.018345
    28  H    0.370168  -0.018344  -0.018345   0.510768
 Mulliken charges:
               1
     1  C   -0.777368
     2  C    1.434672
     3  C   -0.784329
     4  C   -0.042193
     5  C   -0.244057
     6  C   -0.626071
     7  C   -0.601267
     8  C    0.439073
     9  H    0.114961
    10  H    0.119275
    11  H    0.120567
    12  H    0.103277
    13  H    0.273611
    14  H    0.109456
    15  N    0.011938
    16  Si   1.189197
    17  C   -0.757845
    18  H    0.161648
    19  H    0.155109
    20  H    0.171233
    21  C   -0.757836
    22  H    0.161642
    23  H    0.171229
    24  H    0.155123
    25  C   -0.808067
    26  H    0.170885
    27  H    0.170882
    28  H    0.165255
 Sum of Mulliken charges =   0.00000
 Mulliken charges with hydrogens summed into heavy atoms:
               1
     1  C   -0.777368
     2  C    1.434672
     3  C   -0.669368
     4  C    0.077082
     5  C   -0.123490
     6  C   -0.522794
     7  C   -0.601267
     8  C    0.548529
    15  N    0.285549
    16  Si   1.189197
    17  C   -0.269855
    21  C   -0.269842
    25  C   -0.301045
 Electronic spatial extent (au):  <R**2>=           3455.9514
 Charge=              0.0000 electrons
 Dipole moment (field-independent basis, Debye):
    X=              1.8107    Y=             -1.1952    Z=             -0.0002  Tot=              2.1695
 Quadrupole moment (field-independent basis, Debye-Ang):
   XX=            -84.3028   YY=            -79.4626   ZZ=            -92.4418
   XY=              0.4644   XZ=              0.0001   YZ=             -0.0007
 Traceless Quadrupole moment (field-independent basis, Debye-Ang):
   XX=              1.0996   YY=              5.9398   ZZ=             -7.0394
   XY=              0.4644   XZ=              0.0001   YZ=             -0.0007
 Octapole moment (field-independent basis, Debye-Ang**2):
  XXX=              2.3615  YYY=            -11.7895  ZZZ=             -0.0022  XYY=             -9.7318
  XXY=             -0.1029  XXZ=             -0.0062  XZZ=             11.5782  YZZ=              2.3321
  YYZ=              0.0025  XYZ=              0.0011
 Hexadecapole moment (field-independent basis, Debye-Ang**3):
 XXXX=          -3650.4399 YYYY=           -692.0083 ZZZZ=           -381.0101 XXXY=              5.4950
 XXXZ=             -0.0048 YYYX=             -6.9246 YYYZ=             -0.0076 ZZZX=             -0.0045
 ZZZY=             -0.0010 XXYY=           -751.1613 XXZZ=           -764.1481 YYZZ=           -198.5236
 XXYZ=              0.0008 YYXZ=              0.0074 ZZXY=             12.0333
 N-N= 8.424327309946D+02 E-N=-3.495550936413D+03  KE= 7.698602145532D+02
 There are a total of      231400 grid points.
 ElSum from          density=      102.0004254727
 ElSum from atomic densities=      102.0007572417

 Hirshfeld populations at iteration   1 (CX, CA, CB, DipXYZ):
               1          2          3          4          5          6
     1  C    0.000000   2.981531   2.981531   0.051161  -0.054739   0.000006
     2  C    0.000000   3.014145   3.014145  -0.008324   0.030151  -0.000001
     3  C    0.000000   3.025836   3.025836   0.020378   0.064089   0.000000
     4  C    0.000000   3.032715   3.032715  -0.052548   0.010354  -0.000004
     5  C    0.000000   3.029067   3.029067  -0.053311  -0.015081  -0.000003
     6  C    0.000001   3.033742   3.033742   0.026023  -0.059506   0.000005
     7  C    0.000000   3.038315   3.038315  -0.066042  -0.082279   0.000008
     8  C    0.000000   3.042494   3.042494  -0.018451   0.089172  -0.000005
     9  H    0.000002   0.477260   0.477260  -0.008316   0.158251  -0.000007
    10  H    0.000002   0.479379   0.479379  -0.141572   0.071940  -0.000013
    11  H    0.000003   0.478605   0.478605  -0.136591  -0.082126  -0.000008
    12  H    0.000002   0.478452   0.478452   0.001392  -0.158117   0.000004
    13  H    0.000000   0.428276   0.428276   0.062684  -0.199567   0.000003
    14  H    0.000001   0.477021   0.477021   0.043327   0.155920  -0.000010
    15  N    0.000000   3.545611   3.545611   0.013895  -0.065259  -0.000002
    16  Si   0.000000   6.801896   6.801896   0.024860   0.003289  -0.000011
    17  C    0.000000   3.106285   3.106285   0.036785  -0.042634  -0.079965
    18  H    0.000001   0.479965   0.479965   0.155691  -0.004730   0.000292
    19  H    0.000001   0.482003   0.482003  -0.052225  -0.143139  -0.002251
    20  H    0.000001   0.479147   0.479147  -0.047032   0.075973  -0.129705
    21  C    0.000000   3.106285   3.106285   0.036801  -0.042611   0.079969
    22  H    0.000001   0.479965   0.479965   0.155688  -0.004729  -0.000356
    23  H    0.000001   0.479148   0.479148  -0.046980   0.076033   0.129686
    24  H    0.000001   0.482002   0.482002  -0.052228  -0.143139   0.002350
    25  C    0.000000   3.104045   3.104045   0.035374   0.088683  -0.000014
    26  H    0.000001   0.478914   0.478914  -0.045980   0.076786  -0.128350
    27  H    0.000001   0.478914   0.478914  -0.045955   0.076805   0.128349
    28  H    0.000001   0.479192   0.479192   0.156579  -0.005470  -0.000022
       Tot   0.000024  51.000213  51.000213   0.045082  -0.125679  -0.000055

 Dip from Atomic Chgs              0.666540  -0.344676  -0.000025
         Total Dipole              0.711622  -0.470355  -0.000081

 Hirshfeld charges, spin densities, dipoles, and CM5 charges using IRadAn=      4:
              Q-H        S-H        Dx         Dy         Dz        Q-CM5   
     1  C    0.036937   0.000000   0.051161  -0.054739   0.000006   0.097286
     2  C   -0.028291   0.000000  -0.008324   0.030151  -0.000001  -0.027231
     3  C   -0.051673   0.000000   0.020378   0.064089   0.000000  -0.103898
     4  C   -0.065430   0.000000  -0.052548   0.010354  -0.000004  -0.120852
     5  C   -0.058135   0.000000  -0.053311  -0.015081  -0.000003  -0.113390
     6  C   -0.067485   0.000000   0.026023  -0.059506   0.000005  -0.116239
     7  C   -0.076631   0.000000  -0.066042  -0.082279   0.000008  -0.054538
     8  C   -0.084988   0.000000  -0.018451   0.089172  -0.000005  -0.129500
     9  H    0.045479   0.000000  -0.008316   0.158251  -0.000007   0.101545
    10  H    0.041242   0.000000  -0.141572   0.071940  -0.000013   0.097044
    11  H    0.042791   0.000000  -0.136591  -0.082126  -0.000008   0.098613
    12  H    0.043095   0.000000   0.001392  -0.158117   0.000004   0.100419
    13  H    0.143447   0.000000   0.062684  -0.199567   0.000003   0.335991
    14  H    0.045958   0.000000   0.043327   0.155920  -0.000010   0.101450
    15  N   -0.091221   0.000000   0.013895  -0.065259  -0.000002  -0.432803
    16  Si   0.396208   0.000000   0.024860   0.003289  -0.000011   0.272819
    17  C   -0.212569   0.000000   0.036785  -0.042634  -0.079965  -0.320708
    18  H    0.040071   0.000000   0.155691  -0.004730   0.000292   0.094204
    19  H    0.035994   0.000000  -0.052225  -0.143139  -0.002251   0.090376
    20  H    0.041705   0.000000  -0.047032   0.075973  -0.129705   0.096095
    21  C   -0.212569   0.000000   0.036801  -0.042611   0.079969  -0.320709
    22  H    0.040070   0.000000   0.155688  -0.004729  -0.000356   0.094203
    23  H    0.041704   0.000000  -0.046980   0.076033   0.129686   0.096093
    24  H    0.035995   0.000000  -0.052228  -0.143139   0.002350   0.090376
    25  C   -0.208090   0.000000   0.035374   0.088683  -0.000014  -0.316317
    26  H    0.042172   0.000000  -0.045980   0.076786  -0.128350   0.096611
    27  H    0.042172   0.000000  -0.045955   0.076805   0.128349   0.096614
    28  H    0.041616   0.000000   0.156579  -0.005470  -0.000022   0.096022
       Tot  -0.000425   0.000000   0.045082  -0.125679  -0.000055  -0.000425
 Hirshfeld charges with hydrogens summed into heavy atoms:
              Q-H       Q-CM5   
     1  C    0.036937   0.097286
     2  C   -0.028291  -0.027231
     3  C   -0.006194  -0.002353
     4  C   -0.024188  -0.023808
     5  C   -0.015344  -0.014777
     6  C   -0.024390  -0.015820
     7  C   -0.076631  -0.054538
     8  C   -0.039030  -0.028051
    15  N    0.052226  -0.096812
    16  Si   0.396208   0.272819
    17  C   -0.094799  -0.040034
    21  C   -0.094801  -0.040037
    25  C   -0.082130  -0.027070
 
 EQQ= 0.000000000000E+00 EQD= 0.000000000000E+00 EDD= 0.135551281198E-01
 EQQ+QD+DD= 0.135551281198E-01
 
          MBS Condensed to atoms (all electrons):
               1          2          3          4          5          6
     1  C    4.740366   0.481063  -0.028480  -0.012515  -0.032836   0.493638
     2  C    0.481063   4.803753   0.488029  -0.031928  -0.011504  -0.025678
     3  C   -0.028480   0.488029   4.822969   0.521418  -0.030511  -0.009086
     4  C   -0.012515  -0.031928   0.521418   4.842555   0.491689  -0.030500
     5  C   -0.032836  -0.011504  -0.030511   0.491689   4.833297   0.518916
     6  C    0.493638  -0.025678  -0.009086  -0.030500   0.518916   4.841370
     7  C   -0.059603  -0.049144   0.000967  -0.000013  -0.000013   0.001213
     8  C   -0.052958   0.463677  -0.018640   0.000735   0.000057   0.001113
     9  H    0.001495  -0.025798   0.388360  -0.024973   0.001471   0.000016
    10  H    0.000074   0.001540  -0.026137   0.390716  -0.025942   0.001461
    11  H    0.001558   0.000062   0.001468  -0.025513   0.390561  -0.026455
    12  H   -0.025257   0.001309   0.000019   0.001425  -0.023738   0.388132
    13  H   -0.027006   0.002379  -0.000033   0.000000  -0.000014  -0.001151
    14  H    0.001657  -0.020296  -0.001050  -0.000003  -0.000001  -0.000018
    15  N    0.410920  -0.052659   0.000827   0.000034   0.000545  -0.020344
    16  Si   0.001086   0.000951  -0.000007   0.000000   0.000000  -0.000009
    17  C    0.000000  -0.000002   0.000000   0.000000   0.000000   0.000000
    18  H    0.000000   0.000000   0.000000   0.000000   0.000000   0.000000
    19  H   -0.000001   0.000000   0.000000   0.000000   0.000000   0.000000
    20  H   -0.000001   0.000000   0.000000   0.000000   0.000000   0.000000
    21  C    0.000000  -0.000002   0.000000   0.000000   0.000000   0.000000
    22  H    0.000000   0.000000   0.000000   0.000000   0.000000   0.000000
    23  H   -0.000001   0.000000   0.000000   0.000000   0.000000   0.000000
    24  H   -0.000001   0.000000   0.000000   0.000000   0.000000   0.000000
    25  C   -0.000002   0.000004   0.000000   0.000000   0.000000   0.000000
    26  H    0.000000   0.000000   0.000000   0.000000   0.000000   0.000000
    27  H    0.000000   0.000000   0.000000   0.000000   0.000000   0.000000
    28  H    0.000000   0.000000   0.000000   0.000000   0.000000   0.000000
               7          8          9         10         11         12
     1  C   -0.059603  -0.052958   0.001495   0.000074   0.001558  -0.025257
     2  C   -0.049144   0.463677  -0.025798   0.001540   0.000062   0.001309
     3  C    0.000967  -0.018640   0.388360  -0.026137   0.001468   0.000019
     4  C   -0.000013   0.000735  -0.024973   0.390716  -0.025513   0.001425
     5  C   -0.000013   0.000057   0.001471  -0.025942   0.390561  -0.023738
     6  C    0.001213   0.001113   0.000016   0.001461  -0.026455   0.388132
     7  C    4.964457   0.535274  -0.000003   0.000000   0.000000  -0.000006
     8  C    0.535274   4.916128  -0.002104  -0.000016   0.000000  -0.000030
     9  H   -0.000003  -0.002104   0.561314  -0.003947  -0.000039   0.000003
    10  H    0.000000  -0.000016  -0.003947   0.564711  -0.003708  -0.000037
    11  H    0.000000   0.000000  -0.000039  -0.003708   0.562996  -0.003978
    12  H   -0.000006  -0.000030   0.000003  -0.000037  -0.003978   0.562740
    13  H   -0.026174   0.002302   0.000001   0.000000   0.000000   0.000862
    14  H   -0.022314   0.390470   0.000555   0.000000   0.000000   0.000001
    15  N    0.392477  -0.051779  -0.000015   0.000000  -0.000010  -0.001672
    16  Si   0.367362  -0.014813   0.000000   0.000000   0.000000   0.000000
    17  C   -0.008026   0.000047   0.000000   0.000000   0.000000   0.000000
    18  H    0.000261  -0.000001   0.000000   0.000000   0.000000   0.000000
    19  H   -0.000217   0.000003   0.000000   0.000000   0.000000   0.000000
    20  H   -0.000139   0.000010   0.000000   0.000000   0.000000   0.000000
    21  C   -0.008024   0.000047   0.000000   0.000000   0.000000   0.000000
    22  H    0.000261  -0.000001   0.000000   0.000000   0.000000   0.000000
    23  H   -0.000139   0.000010   0.000000   0.000000   0.000000   0.000000
    24  H   -0.000217   0.000003   0.000000   0.000000   0.000000   0.000000
    25  C   -0.007607  -0.000769   0.000000   0.000000   0.000000   0.000000
    26  H   -0.000243  -0.000016   0.000000   0.000000   0.000000   0.000000
    27  H   -0.000243  -0.000016   0.000000   0.000000   0.000000   0.000000
    28  H    0.000243   0.000013   0.000000   0.000000   0.000000   0.000000
              13         14         15         16         17         18
     1  C   -0.027006   0.001657   0.410920   0.001086   0.000000   0.000000
     2  C    0.002379  -0.020296  -0.052659   0.000951  -0.000002   0.000000
     3  C   -0.000033  -0.001050   0.000827  -0.000007   0.000000   0.000000
     4  C    0.000000  -0.000003   0.000034   0.000000   0.000000   0.000000
     5  C   -0.000014  -0.000001   0.000545   0.000000   0.000000   0.000000
     6  C   -0.001151  -0.000018  -0.020344  -0.000009   0.000000   0.000000
     7  C   -0.026174  -0.022314   0.392477   0.367362  -0.008026   0.000261
     8  C    0.002302   0.390470  -0.051779  -0.014813   0.000047  -0.000001
     9  H    0.000001   0.000555  -0.000015   0.000000   0.000000   0.000000
    10  H    0.000000   0.000000   0.000000   0.000000   0.000000   0.000000
    11  H    0.000000   0.000000  -0.000010   0.000000   0.000000   0.000000
    12  H    0.000862   0.000001  -0.001672   0.000000   0.000000   0.000000
    13  H    0.422896  -0.000047   0.345593  -0.001523   0.000146  -0.000006
    14  H   -0.000047   0.543367   0.001312  -0.001781   0.000007   0.000000
    15  N    0.345593   0.001312   6.350522  -0.015426  -0.000143   0.000001
    16  Si  -0.001523  -0.001781  -0.015426  12.055160   0.357157  -0.014937
    17  C    0.000146   0.000007  -0.000143   0.357157   4.998178   0.367418
    18  H   -0.000006   0.000000   0.000001  -0.014937   0.367418   0.596749
    19  H    0.000169   0.000000   0.000016  -0.014770   0.367770  -0.021211
    20  H   -0.000003   0.000001   0.000012  -0.015013   0.368932  -0.020655
    21  C    0.000145   0.000007  -0.000142   0.357156  -0.008718  -0.000193
    22  H   -0.000006   0.000000   0.000001  -0.014938  -0.000193   0.000101
    23  H   -0.000003   0.000001   0.000012  -0.015013   0.000266  -0.000001
    24  H    0.000169   0.000000   0.000016  -0.014768  -0.000248   0.000020
    25  C    0.000000   0.000106   0.000053   0.361804  -0.007820  -0.000240
    26  H    0.000000   0.000169   0.000000  -0.015054  -0.000256   0.000022
    27  H    0.000000   0.000169   0.000000  -0.015055   0.000251  -0.000001
    28  H    0.000000  -0.000007  -0.000001  -0.015372  -0.000229   0.000121
              19         20         21         22         23         24
     1  C   -0.000001  -0.000001   0.000000   0.000000  -0.000001  -0.000001
     2  C    0.000000   0.000000  -0.000002   0.000000   0.000000   0.000000
     3  C    0.000000   0.000000   0.000000   0.000000   0.000000   0.000000
     4  C    0.000000   0.000000   0.000000   0.000000   0.000000   0.000000
     5  C    0.000000   0.000000   0.000000   0.000000   0.000000   0.000000
     6  C    0.000000   0.000000   0.000000   0.000000   0.000000   0.000000
     7  C   -0.000217  -0.000139  -0.008024   0.000261  -0.000139  -0.000217
     8  C    0.000003   0.000010   0.000047  -0.000001   0.000010   0.000003
     9  H    0.000000   0.000000   0.000000   0.000000   0.000000   0.000000
    10  H    0.000000   0.000000   0.000000   0.000000   0.000000   0.000000
    11  H    0.000000   0.000000   0.000000   0.000000   0.000000   0.000000
    12  H    0.000000   0.000000   0.000000   0.000000   0.000000   0.000000
    13  H    0.000169  -0.000003   0.000145  -0.000006  -0.000003   0.000169
    14  H    0.000000   0.000001   0.000007   0.000000   0.000001   0.000000
    15  N    0.000016   0.000012  -0.000142   0.000001   0.000012   0.000016
    16  Si  -0.014770  -0.015013   0.357156  -0.014938  -0.015013  -0.014768
    17  C    0.367770   0.368932  -0.008718  -0.000193   0.000266  -0.000248
    18  H   -0.021211  -0.020655  -0.000193   0.000101  -0.000001   0.000020
    19  H    0.602100  -0.021049  -0.000248   0.000020  -0.000001   0.000127
    20  H   -0.021049   0.588742   0.000266  -0.000001  -0.000007  -0.000001
    21  C   -0.000248   0.000266   4.998180   0.367414   0.368930   0.367776
    22  H    0.000020  -0.000001   0.367414   0.596760  -0.020655  -0.021210
    23  H   -0.000001  -0.000007   0.368930  -0.020655   0.588749  -0.021050
    24  H    0.000127  -0.000001   0.367776  -0.021210  -0.021050   0.602083
    25  C    0.000249  -0.000261  -0.007822  -0.000240  -0.000261   0.000249
    26  H   -0.000001   0.000128   0.000251  -0.000001  -0.000001  -0.000007
    27  H   -0.000007  -0.000001  -0.000256   0.000022   0.000128  -0.000001
    28  H    0.000000   0.000022  -0.000229   0.000121   0.000022   0.000000
              25         26         27         28
     1  C   -0.000002   0.000000   0.000000   0.000000
     2  C    0.000004   0.000000   0.000000   0.000000
     3  C    0.000000   0.000000   0.000000   0.000000
     4  C    0.000000   0.000000   0.000000   0.000000
     5  C    0.000000   0.000000   0.000000   0.000000
     6  C    0.000000   0.000000   0.000000   0.000000
     7  C   -0.007607  -0.000243  -0.000243   0.000243
     8  C   -0.000769  -0.000016  -0.000016   0.000013
     9  H    0.000000   0.000000   0.000000   0.000000
    10  H    0.000000   0.000000   0.000000   0.000000
    11  H    0.000000   0.000000   0.000000   0.000000
    12  H    0.000000   0.000000   0.000000   0.000000
    13  H    0.000000   0.000000   0.000000   0.000000
    14  H    0.000106   0.000169   0.000169  -0.000007
    15  N    0.000053   0.000000   0.000000  -0.000001
    16  Si   0.361804  -0.015054  -0.015055  -0.015372
    17  C   -0.007820  -0.000256   0.000251  -0.000229
    18  H   -0.000240   0.000022  -0.000001   0.000121
    19  H    0.000249  -0.000001  -0.000007   0.000000
    20  H   -0.000261   0.000128  -0.000001   0.000022
    21  C   -0.007822   0.000251  -0.000256  -0.000229
    22  H   -0.000240  -0.000001   0.000022   0.000121
    23  H   -0.000261  -0.000001   0.000128   0.000022
    24  H    0.000249  -0.000007  -0.000001   0.000000
    25  C    4.993338   0.369011   0.369011   0.368110
    26  H    0.369011   0.589568  -0.020778  -0.020714
    27  H    0.369011  -0.020778   0.589568  -0.020713
    28  H    0.368110  -0.020714  -0.020713   0.594676
 MBS Mulliken charges:
               1
     1  C    0.106803
     2  C   -0.025755
     3  C   -0.110112
     4  C   -0.123127
     5  C   -0.111979
     6  C   -0.132619
     7  C   -0.080391
     8  C   -0.168740
     9  H    0.103666
    10  H    0.101285
    11  H    0.103056
    12  H    0.100228
    13  H    0.281306
    14  H    0.107699
    15  N   -0.360150
    16  Si   0.667800
    17  C   -0.434539
    18  H    0.092552
    19  H    0.087051
    20  H    0.099018
    21  C   -0.434539
    22  H    0.092546
    23  H    0.099013
    24  H    0.087060
    25  C   -0.436914
    26  H    0.097922
    27  H    0.097923
    28  H    0.093938
 Sum of MBS Mulliken charges =   0.00000
 MBS Mulliken charges with hydrogens summed into heavy atoms:
               1
     1  C    0.106803
     2  C   -0.025755
     3  C   -0.006446
     4  C   -0.021842
     5  C   -0.008923
     6  C   -0.032390
     7  C   -0.080391
     8  C   -0.061042
    15  N   -0.078844
    16  Si   0.667800
    17  C   -0.155919
    21  C   -0.155920
    25  C   -0.147132
 Breneman (CHELPG) radii used.
 Generate Potential Derived Charges using the Breneman model, NDens= 1.
 Grid spacing= 0.300 Box extension= 2.800
 NStep X,Y,Z=   51     37     37   Total possible points=       69819
 Number of Points to Fit=   18266

 **********************************************************************

            Electrostatic Properties Using The SCF Density

 **********************************************************************

       Atomic Center    1 is at  -1.606581 -0.655396  0.000106
       Atomic Center    2 is at  -1.636149  0.764398  0.000058
       Atomic Center    3 is at  -2.880243  1.418184 -0.000026
       Atomic Center    4 is at  -4.040012  0.658872 -0.000071
       Atomic Center    5 is at  -3.986930 -0.749924 -0.000019
       Atomic Center    6 is at  -2.774215 -1.424735  0.000081
       Atomic Center    7 is at   0.546378  0.090139  0.000102
       Atomic Center    8 is at  -0.270523  1.202027  0.000073
       Atomic Center    9 is at  -2.930957  2.501699 -0.000071
       Atomic Center   10 is at  -5.005786  1.151406 -0.000155
       Atomic Center   11 is at  -4.911242 -1.316533 -0.000065
       Atomic Center   12 is at  -2.737948 -2.508865  0.000114
       Atomic Center   13 is at   0.038373 -1.987250  0.000123
       Atomic Center   14 is at   0.071006  2.226207  0.000016
       Atomic Center   15 is at  -0.281576 -1.033214  0.000115
       Atomic Center   16 is at   2.427194  0.004297 -0.000038
       Atomic Center   17 is at   3.017204 -0.919833 -1.539710
       Atomic Center   18 is at   4.110215 -0.977429 -1.565253
       Atomic Center   19 is at   2.636106 -1.945539 -1.571188
       Atomic Center   20 is at   2.685357 -0.416562 -2.452222
       Atomic Center   21 is at   3.017664 -0.919245  1.539815
       Atomic Center   22 is at   4.110691 -0.976826  1.564939
       Atomic Center   23 is at   2.686206 -0.415524  2.452223
       Atomic Center   24 is at   2.636563 -1.944923  1.571963
       Atomic Center   25 is at   3.093596  1.766343 -0.000333
       Atomic Center   26 is at   2.766230  2.319423 -0.885100
       Atomic Center   27 is at   2.766434  2.319555  0.884419
       Atomic Center   28 is at   4.187932  1.758515 -0.000473
   18266 points will be used for fitting atomic charges
 Fitting point charges to electrostatic potential
 Charges from ESP fit, RMS=   0.00382 RRMS=   0.31778:
 ESP charges:
               1
     1  C    0.263957
     2  C    0.207994
     3  C   -0.250583
     4  C   -0.097591
     5  C   -0.086226
     6  C   -0.264095
     7  C   -0.039839
     8  C   -0.363832
     9  H    0.130390
    10  H    0.083941
    11  H    0.087739
    12  H    0.126496
    13  H    0.362302
    14  H    0.153937
    15  N   -0.507305
    16  Si   0.731781
    17  C   -0.377099
    18  H    0.074417
    19  H    0.060440
    20  H    0.054788
    21  C   -0.378606
    22  H    0.074776
    23  H    0.055137
    24  H    0.060998
    25  C   -0.359072
    26  H    0.062901
    27  H    0.062980
    28  H    0.069276
 Sum of ESP charges =   0.00000
 ESP charges with hydrogens summed into heavy atoms:
               1
     1  C    0.263957
     2  C    0.207994
     3  C   -0.120193
     4  C   -0.013651
     5  C    0.001513
     6  C   -0.137599
     7  C   -0.039839
     8  C   -0.209895
    15  N   -0.145003
    16  Si   0.731781
    17  C   -0.187454
    21  C   -0.187694
    25  C   -0.163916
 Charge=   0.00000 Dipole=     1.6564    -1.1863     0.0001 Tot=     2.0374
 -----------------------------------------------------------------

              Electrostatic Properties (Atomic Units)

 -----------------------------------------------------------------
    Center     Electric         -------- Electric Field --------
               Potential          X             Y             Z
 -----------------------------------------------------------------
    1 Atom    -14.746063
    2 Atom    -14.781968
    3 Atom    -14.781416
    4 Atom    -14.786925
    5 Atom    -14.781735
    6 Atom    -14.776459
    7 Atom    -14.761706
    8 Atom    -14.789082
    9 Atom     -1.115760
   10 Atom     -1.121007
   11 Atom     -1.117340
   12 Atom     -1.104224
   13 Atom     -1.004820
   14 Atom     -1.109226
   15 Atom    -18.353339
   16 Atom    -49.293711
   17 Atom    -14.794093
   18 Atom     -1.110809
   19 Atom     -1.109857
   20 Atom     -1.112826
   21 Atom    -14.794095
   22 Atom     -1.110810
   23 Atom     -1.112828
   24 Atom     -1.109862
   25 Atom    -14.794245
   26 Atom     -1.111840
   27 Atom     -1.111838
   28 Atom     -1.110390
 -----------------------------------------------------------------
 ******************************Gaussian NBO Version 3.1******************************
             N A T U R A L   A T O M I C   O R B I T A L   A N D
          N A T U R A L   B O N D   O R B I T A L   A N A L Y S I S
 ******************************Gaussian NBO Version 3.1******************************
       /RESON  / : Allow strongly delocalized NBO set

 Analyzing the SCF density

 Job title: Table9_13                                                       

 Storage needed:    445132 in NPA ( 104853400 available)


 NATURAL POPULATIONS:  Natural atomic orbital occupancies 
                                                          
   NAO  Atom  No  lang   Type(AO)    Occupancy      Energy
 ----------------------------------------------------------
     1    C    1  S      Cor( 1S)     1.99897     -10.05974
     2    C    1  S      Val( 2S)     0.82377      -0.10027
     3    C    1  S      Ryd( 3S)     0.00201       0.84899
     4    C    1  S      Ryd( 4S)     0.00014       1.21917
     5    C    1  S      Ryd( 5S)     0.00001      22.34183
     6    C    1  px     Val( 2p)     0.92238      -0.01869
     7    C    1  px     Ryd( 4p)     0.00523       1.31717
     8    C    1  px     Ryd( 3p)     0.00018       0.58492
     9    C    1  px     Ryd( 5p)     0.00012       3.12918
    10    C    1  py     Val( 2p)     1.05957      -0.05313
    11    C    1  py     Ryd( 4p)     0.00688       1.20444
    12    C    1  py     Ryd( 3p)     0.00012       0.56657
    13    C    1  py     Ryd( 5p)     0.00013       3.00066
    14    C    1  pz     Val( 2p)     1.01798      -0.10400
    15    C    1  pz     Ryd( 4p)     0.00143       0.61686
    16    C    1  pz     Ryd( 3p)     0.00046       0.39992
    17    C    1  pz     Ryd( 5p)     0.00002       2.74977
    18    C    1  dxy    Ryd( 3d)     0.00100       2.49064
    19    C    1  dxz    Ryd( 3d)     0.00146       1.67093
    20    C    1  dyz    Ryd( 3d)     0.00071       1.63767
    21    C    1  dx2y2  Ryd( 3d)     0.00110       2.72892
    22    C    1  dz2    Ryd( 3d)     0.00047       2.10195

    23    C    2  S      Cor( 1S)     1.99899     -10.01866
    24    C    2  S      Val( 2S)     0.86996      -0.10319
    25    C    2  S      Ryd( 3S)     0.00155       0.72769
    26    C    2  S      Ryd( 4S)     0.00012       1.20313
    27    C    2  S      Ryd( 5S)     0.00001      22.72526
    28    C    2  px     Val( 2p)     1.10432      -0.04390
    29    C    2  px     Ryd( 4p)     0.00487       1.58724
    30    C    2  px     Ryd( 3p)     0.00020       0.68574
    31    C    2  px     Ryd( 5p)     0.00012       3.25181
    32    C    2  py     Val( 2p)     1.06246      -0.04381
    33    C    2  py     Ryd( 4p)     0.00633       1.16824
    34    C    2  py     Ryd( 3p)     0.00034       0.51418
    35    C    2  py     Ryd( 5p)     0.00011       3.21741
    36    C    2  pz     Val( 2p)     1.04862      -0.09050
    37    C    2  pz     Ryd( 4p)     0.00063       0.60790
    38    C    2  pz     Ryd( 3p)     0.00046       0.45394
    39    C    2  pz     Ryd( 5p)     0.00002       2.67923
    40    C    2  dxy    Ryd( 3d)     0.00060       2.48192
    41    C    2  dxz    Ryd( 3d)     0.00087       1.71552
    42    C    2  dyz    Ryd( 3d)     0.00046       1.64882
    43    C    2  dx2y2  Ryd( 3d)     0.00095       2.76798
    44    C    2  dz2    Ryd( 3d)     0.00041       2.17970

    45    C    3  S      Cor( 1S)     1.99908     -10.01956
    46    C    3  S      Val( 2S)     0.93668      -0.13898
    47    C    3  S      Ryd( 4S)     0.00158       0.95325
    48    C    3  S      Ryd( 3S)     0.00011       0.68031
    49    C    3  S      Ryd( 5S)     0.00002      22.92845
    50    C    3  px     Val( 2p)     1.05647      -0.02858
    51    C    3  px     Ryd( 4p)     0.00394       0.78210
    52    C    3  px     Ryd( 3p)     0.00050       0.40198
    53    C    3  px     Ryd( 5p)     0.00015       3.15029
    54    C    3  py     Val( 2p)     1.17303      -0.04336
    55    C    3  py     Ryd( 4p)     0.00614       1.14024
    56    C    3  py     Ryd( 3p)     0.00026       0.34987
    57    C    3  py     Ryd( 5p)     0.00006       3.15276
    58    C    3  pz     Val( 2p)     1.00009      -0.09643
    59    C    3  pz     Ryd( 4p)     0.00114       0.52490
    60    C    3  pz     Ryd( 3p)     0.00039       0.29163
    61    C    3  pz     Ryd( 5p)     0.00002       2.73044
    62    C    3  dxy    Ryd( 3d)     0.00066       2.61610
    63    C    3  dxz    Ryd( 3d)     0.00059       1.68795
    64    C    3  dyz    Ryd( 3d)     0.00038       1.63228
    65    C    3  dx2y2  Ryd( 3d)     0.00080       2.50815
    66    C    3  dz2    Ryd( 3d)     0.00040       2.11131

    67    C    4  S      Cor( 1S)     1.99918     -10.01841
    68    C    4  S      Val( 2S)     0.94841      -0.14983
    69    C    4  S      Ryd( 3S)     0.00146       0.79104
    70    C    4  S      Ryd( 4S)     0.00014       0.99961
    71    C    4  S      Ryd( 5S)     0.00000      22.83545
    72    C    4  px     Val( 2p)     1.14716      -0.03877
    73    C    4  px     Ryd( 4p)     0.00618       0.98965
    74    C    4  px     Ryd( 3p)     0.00039       0.32732
    75    C    4  px     Ryd( 5p)     0.00008       3.18954
    76    C    4  py     Val( 2p)     1.07984      -0.03533
    77    C    4  py     Ryd( 4p)     0.00517       0.82231
    78    C    4  py     Ryd( 3p)     0.00045       0.39627
    79    C    4  py     Ryd( 5p)     0.00014       3.12837
    80    C    4  pz     Val( 2p)     1.03706      -0.09717
    81    C    4  pz     Ryd( 4p)     0.00165       0.51172
    82    C    4  pz     Ryd( 3p)     0.00028       0.32825
    83    C    4  pz     Ryd( 5p)     0.00003       2.70118
    84    C    4  dxy    Ryd( 3d)     0.00073       2.53992
    85    C    4  dxz    Ryd( 3d)     0.00041       1.63838
    86    C    4  dyz    Ryd( 3d)     0.00045       1.67227
    87    C    4  dx2y2  Ryd( 3d)     0.00069       2.55503
    88    C    4  dz2    Ryd( 3d)     0.00040       2.05925

    89    C    5  S      Cor( 1S)     1.99919     -10.02390
    90    C    5  S      Val( 2S)     0.94934      -0.15432
    91    C    5  S      Ryd( 3S)     0.00138       0.84900
    92    C    5  S      Ryd( 4S)     0.00013       0.98266
    93    C    5  S      Ryd( 5S)     0.00000      22.82082
    94    C    5  px     Val( 2p)     1.13188      -0.03972
    95    C    5  px     Ryd( 4p)     0.00590       0.97891
    96    C    5  px     Ryd( 3p)     0.00040       0.34508
    97    C    5  px     Ryd( 5p)     0.00009       3.16894
    98    C    5  py     Val( 2p)     1.08924      -0.03781
    99    C    5  py     Ryd( 4p)     0.00546       0.83523
   100    C    5  py     Ryd( 3p)     0.00038       0.38943
   101    C    5  py     Ryd( 5p)     0.00012       3.13650
   102    C    5  pz     Val( 2p)     1.01857      -0.09977
   103    C    5  pz     Ryd( 4p)     0.00167       0.51522
   104    C    5  pz     Ryd( 3p)     0.00027       0.31161
   105    C    5  pz     Ryd( 5p)     0.00002       2.70626
   106    C    5  dxy    Ryd( 3d)     0.00078       2.52621
   107    C    5  dxz    Ryd( 3d)     0.00045       1.63844
   108    C    5  dyz    Ryd( 3d)     0.00047       1.66470
   109    C    5  dx2y2  Ryd( 3d)     0.00063       2.56047
   110    C    5  dz2    Ryd( 3d)     0.00041       2.05593

   111    C    6  S      Cor( 1S)     1.99907     -10.02450
   112    C    6  S      Val( 2S)     0.93736      -0.14675
   113    C    6  S      Ryd( 4S)     0.00163       0.92495
   114    C    6  S      Ryd( 3S)     0.00014       0.52090
   115    C    6  S      Ryd( 5S)     0.00001      23.07824
   116    C    6  px     Val( 2p)     1.06254      -0.04373
   117    C    6  px     Ryd( 4p)     0.00402       0.86823
   118    C    6  px     Ryd( 3p)     0.00042       0.38815
   119    C    6  px     Ryd( 5p)     0.00015       3.05086
   120    C    6  py     Val( 2p)     1.17356      -0.05333
   121    C    6  py     Ryd( 4p)     0.00528       1.12890
   122    C    6  py     Ryd( 3p)     0.00025       0.36499
   123    C    6  py     Ryd( 5p)     0.00008       3.06234
   124    C    6  pz     Val( 2p)     1.04900      -0.10591
   125    C    6  pz     Ryd( 4p)     0.00132       0.53659
   126    C    6  pz     Ryd( 3p)     0.00043       0.29010
   127    C    6  pz     Ryd( 5p)     0.00002       2.70916
   128    C    6  dxy    Ryd( 3d)     0.00069       2.65037
   129    C    6  dxz    Ryd( 3d)     0.00061       1.67715
   130    C    6  dyz    Ryd( 3d)     0.00040       1.63571
   131    C    6  dx2y2  Ryd( 3d)     0.00069       2.51207
   132    C    6  dz2    Ryd( 3d)     0.00042       2.11687

   133    C    7  S      Cor( 1S)     1.99905     -10.04991
   134    C    7  S      Val( 2S)     1.01247      -0.22286
   135    C    7  S      Ryd( 3S)     0.00703       0.83483
   136    C    7  S      Ryd( 4S)     0.00027       0.90583
   137    C    7  S      Ryd( 5S)     0.00001      23.14075
   138    C    7  px     Val( 2p)     1.24617      -0.12748
   139    C    7  px     Ryd( 4p)     0.01347       1.15814
   140    C    7  px     Ryd( 3p)     0.00021       0.82018
   141    C    7  px     Ryd( 5p)     0.00010       3.09980
   142    C    7  py     Val( 2p)     0.91060      -0.04319
   143    C    7  py     Ryd( 4p)     0.00825       0.86850
   144    C    7  py     Ryd( 3p)     0.00012       0.47868
   145    C    7  py     Ryd( 5p)     0.00016       3.27368
   146    C    7  pz     Val( 2p)     1.05487      -0.11768
   147    C    7  pz     Ryd( 4p)     0.00195       0.68778
   148    C    7  pz     Ryd( 3p)     0.00095       0.39592
   149    C    7  pz     Ryd( 5p)     0.00004       2.74937
   150    C    7  dxy    Ryd( 3d)     0.00121       2.55416
   151    C    7  dxz    Ryd( 3d)     0.00071       1.58423
   152    C    7  dyz    Ryd( 3d)     0.00121       1.62144
   153    C    7  dx2y2  Ryd( 3d)     0.00110       2.09804
   154    C    7  dz2    Ryd( 3d)     0.00058       1.99921

   155    C    8  S      Cor( 1S)     1.99902     -10.01180
   156    C    8  S      Val( 2S)     0.93610      -0.13840
   157    C    8  S      Ryd( 3S)     0.00195       0.84862
   158    C    8  S      Ryd( 4S)     0.00018       0.89468
   159    C    8  S      Ryd( 5S)     0.00001      22.92302
   160    C    8  px     Val( 2p)     1.04166      -0.03547
   161    C    8  px     Ryd( 4p)     0.00413       0.79801
   162    C    8  px     Ryd( 3p)     0.00041       0.57942
   163    C    8  px     Ryd( 5p)     0.00011       3.17837
   164    C    8  py     Val( 2p)     1.17920      -0.05303
   165    C    8  py     Ryd( 4p)     0.00496       1.10617
   166    C    8  py     Ryd( 3p)     0.00047       0.40080
   167    C    8  py     Ryd( 5p)     0.00008       3.12729
   168    C    8  pz     Val( 2p)     1.08722      -0.10043
   169    C    8  pz     Ryd( 4p)     0.00195       0.53023
   170    C    8  pz     Ryd( 3p)     0.00060       0.33168
   171    C    8  pz     Ryd( 5p)     0.00003       2.73942
   172    C    8  dxy    Ryd( 3d)     0.00077       2.61828
   173    C    8  dxz    Ryd( 3d)     0.00055       1.65226
   174    C    8  dyz    Ryd( 3d)     0.00065       1.68295
   175    C    8  dx2y2  Ryd( 3d)     0.00064       2.50645
   176    C    8  dz2    Ryd( 3d)     0.00043       2.12920

   177    H    9  S      Val( 1S)     0.79308       0.05374
   178    H    9  S      Ryd( 2S)     0.00079       0.77262
   179    H    9  S      Ryd( 3S)     0.00017       1.96820
   180    H    9  px     Ryd( 2p)     0.00012       2.01918
   181    H    9  py     Ryd( 2p)     0.00043       2.73703
   182    H    9  pz     Ryd( 2p)     0.00021       1.61502

   183    H   10  S      Val( 1S)     0.79478       0.05844
   184    H   10  S      Ryd( 2S)     0.00057       0.60878
   185    H   10  S      Ryd( 3S)     0.00016       2.17063
   186    H   10  px     Ryd( 2p)     0.00035       2.56552
   187    H   10  py     Ryd( 2p)     0.00018       2.13880
   188    H   10  pz     Ryd( 2p)     0.00022       1.60775

   189    H   11  S      Val( 1S)     0.79500       0.05546
   190    H   11  S      Ryd( 2S)     0.00055       0.62009
   191    H   11  S      Ryd( 3S)     0.00017       2.16360
   192    H   11  px     Ryd( 2p)     0.00033       2.51817
   193    H   11  py     Ryd( 2p)     0.00020       2.18040
   194    H   11  pz     Ryd( 2p)     0.00022       1.60425

   195    H   12  S      Val( 1S)     0.79248       0.04210
   196    H   12  S      Ryd( 2S)     0.00081       0.83689
   197    H   12  S      Ryd( 3S)     0.00017       1.84710
   198    H   12  px     Ryd( 2p)     0.00010       2.02439
   199    H   12  py     Ryd( 2p)     0.00042       2.72960
   200    H   12  pz     Ryd( 2p)     0.00022       1.60607

   201    H   13  S      Val( 1S)     0.59884       0.08010
   202    H   13  S      Ryd( 3S)     0.00065       2.00479
   203    H   13  S      Ryd( 2S)     0.00009       1.10339
   204    H   13  px     Ryd( 2p)     0.00019       2.06015
   205    H   13  py     Ryd( 2p)     0.00046       2.63182
   206    H   13  pz     Ryd( 2p)     0.00071       1.57631

   207    H   14  S      Val( 1S)     0.78206       0.06113
   208    H   14  S      Ryd( 2S)     0.00061       0.98633
   209    H   14  S      Ryd( 3S)     0.00021       1.70552
   210    H   14  px     Ryd( 2p)     0.00017       2.08649
   211    H   14  py     Ryd( 2p)     0.00044       2.70177
   212    H   14  pz     Ryd( 2p)     0.00024       1.61990

   213    N   15  S      Cor( 1S)     1.99929     -14.17482
   214    N   15  S      Val( 2S)     1.21907      -0.51979
   215    N   15  S      Ryd( 4S)     0.00061       1.23491
   216    N   15  S      Ryd( 3S)     0.00006       1.12938
   217    N   15  S      Ryd( 5S)     0.00000      35.35919
   218    N   15  px     Val( 2p)     1.29683      -0.23770
   219    N   15  px     Ryd( 4p)     0.00301       0.79100
   220    N   15  px     Ryd( 3p)     0.00113       0.74466
   221    N   15  px     Ryd( 5p)     0.00003       4.45082
   222    N   15  py     Val( 2p)     1.38043      -0.25262
   223    N   15  py     Ryd( 4p)     0.00323       0.99501
   224    N   15  py     Ryd( 3p)     0.00108       0.58764
   225    N   15  py     Ryd( 5p)     0.00003       4.40478
   226    N   15  pz     Val( 2p)     1.63350      -0.25676
   227    N   15  pz     Ryd( 3p)     0.00328       0.47542
   228    N   15  pz     Ryd( 4p)     0.00062       0.50776
   229    N   15  pz     Ryd( 5p)     0.00000       3.83188
   230    N   15  dxy    Ryd( 3d)     0.00072       2.91748
   231    N   15  dxz    Ryd( 3d)     0.00058       2.18986
   232    N   15  dyz    Ryd( 3d)     0.00034       2.21257
   233    N   15  dx2y2  Ryd( 3d)     0.00093       2.94144
   234    N   15  dz2    Ryd( 3d)     0.00057       2.63952

   235   Si   16  S      Cor( 1S)     2.00000     -65.26604
   236   Si   16  S      Cor( 2S)     1.99902      -5.94216
   237   Si   16  S      Val( 3S)     0.79792      -0.15266
   238   Si   16  S      Ryd( 5S)     0.00039       1.32190
   239   Si   16  S      Ryd( 4S)     0.00036       0.86263
   240   Si   16  S      Ryd( 6S)     0.00003       9.23054
   241   Si   16  S      Ryd( 7S)     0.00000     135.87095
   242   Si   16  px     Cor( 2p)     1.99970      -3.61296
   243   Si   16  px     Val( 3p)     0.50907       0.05787
   244   Si   16  px     Ryd( 5p)     0.00071       0.87317
   245   Si   16  px     Ryd( 4p)     0.00038       0.62712
   246   Si   16  px     Ryd( 6p)     0.00007       1.18639
   247   Si   16  px     Ryd( 7p)     0.00001      10.61217
   248   Si   16  py     Cor( 2p)     1.99978      -3.61252
   249   Si   16  py     Val( 3p)     0.54453       0.05348
   250   Si   16  py     Ryd( 5p)     0.00200       0.95628
   251   Si   16  py     Ryd( 4p)     0.00049       0.65592
   252   Si   16  py     Ryd( 6p)     0.00016       1.11043
   253   Si   16  py     Ryd( 7p)     0.00000      10.66451
   254   Si   16  pz     Cor( 2p)     1.99981      -3.61258
   255   Si   16  pz     Val( 3p)     0.54382       0.05296
   256   Si   16  pz     Ryd( 5p)     0.00216       0.88628
   257   Si   16  pz     Ryd( 4p)     0.00047       0.64768
   258   Si   16  pz     Ryd( 6p)     0.00024       1.10148
   259   Si   16  pz     Ryd( 7p)     0.00000      10.68668
   260   Si   16  dxy    Ryd( 3d)     0.00291       1.12068
   261   Si   16  dxz    Ryd( 3d)     0.00423       0.96689
   262   Si   16  dyz    Ryd( 3d)     0.00568       1.14388
   263   Si   16  dx2y2  Ryd( 3d)     0.00654       1.28764
   264   Si   16  dz2    Ryd( 3d)     0.00566       1.21381

   265    C   17  S      Cor( 1S)     1.99933     -10.01077
   266    C   17  S      Val( 2S)     1.20473      -0.33949
   267    C   17  S      Ryd( 4S)     0.00263       1.00304
   268    C   17  S      Ryd( 3S)     0.00010       0.42446
   269    C   17  S      Ryd( 5S)     0.00000      23.46042
   270    C   17  px     Val( 2p)     1.25106      -0.11277
   271    C   17  px     Ryd( 4p)     0.00083       0.68368
   272    C   17  px     Ryd( 3p)     0.00009       0.32578
   273    C   17  px     Ryd( 5p)     0.00002       2.93204
   274    C   17  py     Val( 2p)     1.26809      -0.12015
   275    C   17  py     Ryd( 4p)     0.00119       0.69041
   276    C   17  py     Ryd( 3p)     0.00011       0.30492
   277    C   17  py     Ryd( 5p)     0.00002       2.92049
   278    C   17  pz     Val( 2p)     1.32972      -0.14464
   279    C   17  pz     Ryd( 4p)     0.00244       0.68730
   280    C   17  pz     Ryd( 3p)     0.00023       0.28860
   281    C   17  pz     Ryd( 5p)     0.00003       2.84501
   282    C   17  dxy    Ryd( 3d)     0.00037       1.86056
   283    C   17  dxz    Ryd( 3d)     0.00034       1.79923
   284    C   17  dyz    Ryd( 3d)     0.00077       1.91889
   285    C   17  dx2y2  Ryd( 3d)     0.00085       2.15651
   286    C   17  dz2    Ryd( 3d)     0.00080       2.03548

   287    H   18  S      Val( 1S)     0.77237       0.03958
   288    H   18  S      Ryd( 2S)     0.00038       0.91112
   289    H   18  S      Ryd( 3S)     0.00009       1.86813
   290    H   18  px     Ryd( 2p)     0.00030       2.65130
   291    H   18  py     Ryd( 2p)     0.00009       1.73582
   292    H   18  pz     Ryd( 2p)     0.00011       1.70370

   293    H   19  S      Val( 1S)     0.77596       0.03667
   294    H   19  S      Ryd( 2S)     0.00044       0.89225
   295    H   19  S      Ryd( 3S)     0.00012       1.88117
   296    H   19  px     Ryd( 2p)     0.00012       1.84583
   297    H   19  py     Ryd( 2p)     0.00028       2.53079
   298    H   19  pz     Ryd( 2p)     0.00012       1.69509

   299    H   20  S      Val( 1S)     0.76652       0.04589
   300    H   20  S      Ryd( 2S)     0.00044       0.97999
   301    H   20  S      Ryd( 3S)     0.00009       1.81346
   302    H   20  px     Ryd( 2p)     0.00011       1.81629
   303    H   20  py     Ryd( 2p)     0.00014       1.91402
   304    H   20  pz     Ryd( 2p)     0.00025       2.35322

   305    C   21  S      Cor( 1S)     1.99933     -10.01077
   306    C   21  S      Val( 2S)     1.20473      -0.33949
   307    C   21  S      Ryd( 4S)     0.00263       1.00305
   308    C   21  S      Ryd( 3S)     0.00010       0.42446
   309    C   21  S      Ryd( 5S)     0.00000      23.46041
   310    C   21  px     Val( 2p)     1.25108      -0.11277
   311    C   21  px     Ryd( 4p)     0.00083       0.68368
   312    C   21  px     Ryd( 3p)     0.00009       0.32565
   313    C   21  px     Ryd( 5p)     0.00002       2.93208
   314    C   21  py     Val( 2p)     1.26805      -0.12013
   315    C   21  py     Ryd( 4p)     0.00118       0.69046
   316    C   21  py     Ryd( 3p)     0.00011       0.30488
   317    C   21  py     Ryd( 5p)     0.00002       2.92062
   318    C   21  pz     Val( 2p)     1.32974      -0.14465
   319    C   21  pz     Ryd( 4p)     0.00244       0.68731
   320    C   21  pz     Ryd( 3p)     0.00023       0.28853
   321    C   21  pz     Ryd( 5p)     0.00003       2.84504
   322    C   21  dxy    Ryd( 3d)     0.00037       1.86056
   323    C   21  dxz    Ryd( 3d)     0.00034       1.79905
   324    C   21  dyz    Ryd( 3d)     0.00077       1.91917
   325    C   21  dx2y2  Ryd( 3d)     0.00085       2.15653
   326    C   21  dz2    Ryd( 3d)     0.00080       2.03537

   327    H   22  S      Val( 1S)     0.77237       0.03957
   328    H   22  S      Ryd( 2S)     0.00038       0.91108
   329    H   22  S      Ryd( 3S)     0.00009       1.86818
   330    H   22  px     Ryd( 2p)     0.00030       2.65130
   331    H   22  py     Ryd( 2p)     0.00009       1.73588
   332    H   22  pz     Ryd( 2p)     0.00011       1.70365

   333    H   23  S      Val( 1S)     0.76652       0.04589
   334    H   23  S      Ryd( 2S)     0.00044       0.98002
   335    H   23  S      Ryd( 3S)     0.00009       1.81344
   336    H   23  px     Ryd( 2p)     0.00011       1.81608
   337    H   23  py     Ryd( 2p)     0.00014       1.91440
   338    H   23  pz     Ryd( 2p)     0.00025       2.35307

   339    H   24  S      Val( 1S)     0.77595       0.03668
   340    H   24  S      Ryd( 2S)     0.00044       0.89240
   341    H   24  S      Ryd( 3S)     0.00012       1.88103
   342    H   24  px     Ryd( 2p)     0.00012       1.84582
   343    H   24  py     Ryd( 2p)     0.00028       2.53078
   344    H   24  pz     Ryd( 2p)     0.00012       1.69512

   345    C   25  S      Cor( 1S)     1.99933     -10.00977
   346    C   25  S      Val( 2S)     1.20198      -0.33963
   347    C   25  S      Ryd( 4S)     0.00214       1.01556
   348    C   25  S      Ryd( 3S)     0.00007       0.43944
   349    C   25  S      Ryd( 5S)     0.00000      23.46166
   350    C   25  px     Val( 2p)     1.25888      -0.11494
   351    C   25  px     Ryd( 4p)     0.00065       0.72768
   352    C   25  px     Ryd( 3p)     0.00012       0.35848
   353    C   25  px     Ryd( 5p)     0.00002       2.92307
   354    C   25  py     Val( 2p)     1.35140      -0.15673
   355    C   25  py     Ryd( 4p)     0.00277       0.70413
   356    C   25  py     Ryd( 3p)     0.00020       0.29446
   357    C   25  py     Ryd( 5p)     0.00003       2.80154
   358    C   25  pz     Val( 2p)     1.24454      -0.10732
   359    C   25  pz     Ryd( 4p)     0.00036       0.70044
   360    C   25  pz     Ryd( 3p)     0.00013       0.30806
   361    C   25  pz     Ryd( 5p)     0.00003       2.93641
   362    C   25  dxy    Ryd( 3d)     0.00041       1.79746
   363    C   25  dxz    Ryd( 3d)     0.00031       1.83555
   364    C   25  dyz    Ryd( 3d)     0.00070       2.08003
   365    C   25  dx2y2  Ryd( 3d)     0.00092       2.05611
   366    C   25  dz2    Ryd( 3d)     0.00081       2.00256

   367    H   26  S      Val( 1S)     0.76701       0.04409
   368    H   26  S      Ryd( 2S)     0.00050       0.81094
   369    H   26  S      Ryd( 3S)     0.00009       2.00205
   370    H   26  px     Ryd( 2p)     0.00011       1.82318
   371    H   26  py     Ryd( 2p)     0.00017       1.93096
   372    H   26  pz     Ryd( 2p)     0.00022       2.34936

   373    H   27  S      Val( 1S)     0.76702       0.04408
   374    H   27  S      Ryd( 2S)     0.00050       0.81107
   375    H   27  S      Ryd( 3S)     0.00009       2.00192
   376    H   27  px     Ryd( 2p)     0.00011       1.82310
   377    H   27  py     Ryd( 2p)     0.00017       1.93111
   378    H   27  pz     Ryd( 2p)     0.00022       2.34933

   379    H   28  S      Val( 1S)     0.77009       0.04062
   380    H   28  S      Ryd( 2S)     0.00030       1.04605
   381    H   28  S      Ryd( 3S)     0.00009       1.74960
   382    H   28  px     Ryd( 2p)     0.00030       2.65432
   383    H   28  py     Ryd( 2p)     0.00012       1.68273
   384    H   28  pz     Ryd( 2p)     0.00007       1.74167

 WARNING:  1 low occupancy (<1.9990e) core orbital  found on  C    1
           1 low occupancy (<1.9990e) core orbital  found on  C    2

 WARNING:  Population inversion found on atom  C    1
           Population inversion found on atom  C    2
           Population inversion found on atom  C    3
           Population inversion found on atom  C    4
           Population inversion found on atom  C    5
           Population inversion found on atom  C    6
           Population inversion found on atom  C    7
           Population inversion found on atom  C    8
           Population inversion found on atom  H   13
           Population inversion found on atom  N   15
           Population inversion found on atom Si   16
           Population inversion found on atom  C   17
           Population inversion found on atom  C   21
           Population inversion found on atom  C   25


 Summary of Natural Population Analysis:                  
                                                          
                                       Natural Population 
                Natural  -----------------------------------------------
    Atom  No    Charge         Core      Valence    Rydberg      Total
 -----------------------------------------------------------------------
      C    1    0.15588      1.99897     3.82369    0.02146     5.84412
      C    2   -0.10240      1.99899     4.08536    0.01805     6.10240
      C    3   -0.18247      1.99908     4.16626    0.01714     6.18247
      C    4   -0.23031      1.99918     4.21247    0.01867     6.23031
      C    5   -0.20678      1.99919     4.18903    0.01857     6.20678
      C    6   -0.23810      1.99907     4.22247    0.01657     6.23810
      C    7   -0.26052      1.99905     4.22411    0.03737     6.26052
      C    8   -0.26112      1.99902     4.24417    0.01793     6.26112
      H    9    0.20519      0.00000     0.79308    0.00173     0.79481
      H   10    0.20374      0.00000     0.79478    0.00148     0.79626
      H   11    0.20354      0.00000     0.79500    0.00147     0.79646
      H   12    0.20579      0.00000     0.79248    0.00174     0.79421
      H   13    0.39907      0.00000     0.59884    0.00209     0.60093
      H   14    0.21627      0.00000     0.78206    0.00167     0.78373
      N   15   -0.54534      1.99929     5.52983    0.01622     7.54534
     Si   16    1.57384      9.99831     2.39534    0.03252    12.42616
      C   17   -1.06375      1.99933     5.05360    0.01083     7.06375
      H   18    0.22666      0.00000     0.77237    0.00097     0.77334
      H   19    0.22298      0.00000     0.77596    0.00107     0.77702
      H   20    0.23247      0.00000     0.76652    0.00102     0.76753
      C   21   -1.06375      1.99933     5.05359    0.01083     7.06375
      H   22    0.22666      0.00000     0.77237    0.00097     0.77334
      H   23    0.23246      0.00000     0.76652    0.00102     0.76754
      H   24    0.22298      0.00000     0.77595    0.00107     0.77702
      C   25   -1.06579      1.99933     5.05680    0.00966     7.06579
      H   26    0.23190      0.00000     0.76701    0.00109     0.76810
      H   27    0.23189      0.00000     0.76702    0.00109     0.76811
      H   28    0.22903      0.00000     0.77009    0.00088     0.77097
 =======================================================================
   * Total *    0.00000     33.98812    67.74673    0.26515   102.00000

                                 Natural Population      
 --------------------------------------------------------
   Core                      33.98812 ( 99.9650% of  34)
   Valence                   67.74673 ( 99.6275% of  68)
   Natural Minimal Basis    101.73485 ( 99.7400% of 102)
   Natural Rydberg Basis      0.26515 (  0.2600% of 102)
 --------------------------------------------------------

    Atom  No          Natural Electron Configuration
 ----------------------------------------------------------------------------
      C    1      [core]2S( 0.82)2p( 3.00)4p( 0.01)
      C    2      [core]2S( 0.87)2p( 3.22)4p( 0.01)
      C    3      [core]2S( 0.94)2p( 3.23)4p( 0.01)
      C    4      [core]2S( 0.95)2p( 3.26)4p( 0.01)
      C    5      [core]2S( 0.95)2p( 3.24)4p( 0.01)
      C    6      [core]2S( 0.94)2p( 3.29)4p( 0.01)
      C    7      [core]2S( 1.01)2p( 3.21)3S( 0.01)4p( 0.02)
      C    8      [core]2S( 0.94)2p( 3.31)4p( 0.01)
      H    9            1S( 0.79)
      H   10            1S( 0.79)
      H   11            1S( 0.79)
      H   12            1S( 0.79)
      H   13            1S( 0.60)
      H   14            1S( 0.78)
      N   15      [core]2S( 1.22)2p( 4.31)3p( 0.01)4p( 0.01)
     Si   16      [core]3S( 0.80)3p( 1.60)3d( 0.03)
      C   17      [core]2S( 1.20)2p( 3.85)
      H   18            1S( 0.77)
      H   19            1S( 0.78)
      H   20            1S( 0.77)
      C   21      [core]2S( 1.20)2p( 3.85)
      H   22            1S( 0.77)
      H   23            1S( 0.77)
      H   24            1S( 0.78)
      C   25      [core]2S( 1.20)2p( 3.85)
      H   26            1S( 0.77)
      H   27            1S( 0.77)
      H   28            1S( 0.77)


 NBO analysis skipped by request.
 1\1\GINC-COREV2-22-035\SP\RB3LYP\6-311+G(d,p)\C11H15N1Si1\ROOT\23-Jul-
 2021\0\\# b3lyp/6-311+g(d,p) geom=connectivity pop=(hirshfeld,chelpg,m
 bs,npa)\\Table9_13\\0,1\C,0,-1.606581,-0.655396,0.000106\C,0,-1.636149
 ,0.764398,0.000058\C,0,-2.880243,1.418184,-0.000026\C,0,-4.040012,0.65
 8872,-0.000071\C,0,-3.98693,-0.749924,-0.000019\C,0,-2.774215,-1.42473
 5,0.000081\C,0,0.546378,0.090139,0.000102\C,0,-0.270523,1.202027,0.000
 073\H,0,-2.930957,2.501699,-0.000071\H,0,-5.005786,1.151406,-0.000155\
 H,0,-4.911242,-1.316533,-0.000065\H,0,-2.737948,-2.508865,0.000114\H,0
 ,0.038373,-1.98725,0.000123\H,0,0.071006,2.226207,0.000016\N,0,-0.2815
 76,-1.033214,0.000115\Si,0,2.427194,0.004297,-0.000038\C,0,3.017204,-0
 .919833,-1.53971\H,0,4.110215,-0.977429,-1.565253\H,0,2.636106,-1.9455
 39,-1.571188\H,0,2.685357,-0.416562,-2.452222\C,0,3.017664,-0.919245,1
 .539815\H,0,4.110691,-0.976826,1.564939\H,0,2.686206,-0.415524,2.45222
 3\H,0,2.636563,-1.944923,1.571963\C,0,3.093596,1.766343,-0.000333\H,0,
 2.76623,2.319423,-0.8851\H,0,2.766434,2.319555,0.884419\H,0,4.187932,1
 .758515,-0.000473\\Version=ES64L-G09RevD.01\State=1-A\HF=-772.6565488\
 RMSD=4.668e-09\Dipole=0.7123687,-0.4702134,-0.0000801\Quadrupole=0.817
 5281,4.4161196,-5.2336477,0.3452887,0.0000426,-0.0004979\PG=C01 [X(C11
 H15N1Si1)]\\@


 What some people mistake for the high cost
 of living is really the cost of living high.
                              -- Doug Larson
 Job cpu time:       0 days  0 hours 19 minutes 36.5 seconds.
 File lengths (MBytes):  RWF=    124 Int=      0 D2E=      0 Chk=      6 Scr=      1
 Normal termination of Gaussian 09 at Fri Jul 23 17:40:06 2021.
