 Entering Gaussian System, Link 0=g09
 Initial command:
 /cm/shared/apps/gaussian/g09revD.01/g09/l1.exe "//home/sweav003/CHB/validation/G09-C3-alkylindoles1_Movassaghi.com.o9823084.tmp/Gau-9510.inp" -scrdir="//home/sweav003/CHB/validation/G09-C3-alkylindoles1_Movassaghi.com.o9823084.tmp/"
 Entering Link 1 = /cm/shared/apps/gaussian/g09revD.01/g09/l1.exe PID=      9511.
  
 Copyright (c) 1988,1990,1992,1993,1995,1998,2003,2009,2013,
            Gaussian, Inc.  All Rights Reserved.
  
 This is part of the Gaussian(R) 09 program.  It is based on
 the Gaussian(R) 03 system (copyright 2003, Gaussian, Inc.),
 the Gaussian(R) 98 system (copyright 1998, Gaussian, Inc.),
 the Gaussian(R) 94 system (copyright 1995, Gaussian, Inc.),
 the Gaussian 92(TM) system (copyright 1992, Gaussian, Inc.),
 the Gaussian 90(TM) system (copyright 1990, Gaussian, Inc.),
 the Gaussian 88(TM) system (copyright 1988, Gaussian, Inc.),
 the Gaussian 86(TM) system (copyright 1986, Carnegie Mellon
 University), and the Gaussian 82(TM) system (copyright 1983,
 Carnegie Mellon University). Gaussian is a federally registered
 trademark of Gaussian, Inc.
  
 This software contains proprietary and confidential information,
 including trade secrets, belonging to Gaussian, Inc.
  
 This software is provided under written license and may be
 used, copied, transmitted, or stored only in accord with that
 written license.
  
 The following legend is applicable only to US Government
 contracts under FAR:
  
                    RESTRICTED RIGHTS LEGEND
  
 Use, reproduction and disclosure by the US Government is
 subject to restrictions as set forth in subparagraphs (a)
 and (c) of the Commercial Computer Software - Restricted
 Rights clause in FAR 52.227-19.
  
 Gaussian, Inc.
 340 Quinnipiac St., Bldg. 40, Wallingford CT 06492
  
  
 ---------------------------------------------------------------
 Warning -- This program may not be used in any manner that
 competes with the business of Gaussian, Inc. or will provide
 assistance to any competitor of Gaussian, Inc.  The licensee
 of this program is prohibited from giving any competitor of
 Gaussian, Inc. access to this program.  By using this program,
 the user acknowledges that Gaussian, Inc. is engaged in the
 business of creating and licensing software in the field of
 computational chemistry and represents and warrants to the
 licensee that it is not a competitor of Gaussian, Inc. and that
 it will not use this program in any manner prohibited above.
 ---------------------------------------------------------------
  

 Cite this work as:
 Gaussian 09, Revision D.01,
 M. J. Frisch, G. W. Trucks, H. B. Schlegel, G. E. Scuseria, 
 M. A. Robb, J. R. Cheeseman, G. Scalmani, V. Barone, B. Mennucci, 
 G. A. Petersson, H. Nakatsuji, M. Caricato, X. Li, H. P. Hratchian, 
 A. F. Izmaylov, J. Bloino, G. Zheng, J. L. Sonnenberg, M. Hada, 
 M. Ehara, K. Toyota, R. Fukuda, J. Hasegawa, M. Ishida, T. Nakajima, 
 Y. Honda, O. Kitao, H. Nakai, T. Vreven, J. A. Montgomery, Jr., 
 J. E. Peralta, F. Ogliaro, M. Bearpark, J. J. Heyd, E. Brothers, 
 K. N. Kudin, V. N. Staroverov, T. Keith, R. Kobayashi, J. Normand, 
 K. Raghavachari, A. Rendell, J. C. Burant, S. S. Iyengar, J. Tomasi, 
 M. Cossi, N. Rega, J. M. Millam, M. Klene, J. E. Knox, J. B. Cross, 
 V. Bakken, C. Adamo, J. Jaramillo, R. Gomperts, R. E. Stratmann, 
 O. Yazyev, A. J. Austin, R. Cammi, C. Pomelli, J. W. Ochterski, 
 R. L. Martin, K. Morokuma, V. G. Zakrzewski, G. A. Voth, 
 P. Salvador, J. J. Dannenberg, S. Dapprich, A. D. Daniels, 
 O. Farkas, J. B. Foresman, J. V. Ortiz, J. Cioslowski, 
 and D. J. Fox, Gaussian, Inc., Wallingford CT, 2013.
 
 ******************************************
 Gaussian 09:  ES64L-G09RevD.01 24-Apr-2013
                11-Jan-2023 
 ******************************************
 %nprocshared=20
 Will use up to   20 processors via shared memory.
 %mem=4GB
 %chk=C3-alkylindoles1_Movassaghi.chk
 ----------------------------------------------------------------------
 # opt=rcfc freq=noraman b3lyp/6-311+g(d,p) geom=allcheck guess=read po
 p=(hirshfeld,chelpg,mbs,npa)
 ----------------------------------------------------------------------
 1/10=5,14=-1,18=20,19=15,26=3,29=7,38=1/1,3;
 2/9=110,12=2,40=1/2;
 3/5=4,6=6,7=111,11=2,14=-4,16=1,25=1,30=1,71=1,74=-5,116=-2/1,2,3;
 4/5=1/1;
 5/5=2,38=6/2;
 6/7=2,8=2,9=2,10=2,15=8,20=3,27=100,28=1,40=-1,79=1/1,2,7;
 7//1,2,3,16;
 1/14=-1,18=20,19=15,26=3/3(2);
 2/9=110/2;
 99//99;
 2/9=110/2;
 3/5=4,6=6,7=111,11=2,14=-2,16=1,25=1,30=1,71=1,74=-5/1,2,3;
 4/5=5,16=3,69=1/1;
 5/5=2,38=5/2;
 7//1,2,3,16;
 1/14=-1,18=20,19=15,26=3/3(-5);
 2/9=110/2;
 6/7=2,8=2,9=2,10=2,15=8,19=2,20=3,27=100,28=1,40=-1,79=1/1,2,7;
 99/9=1/99;
 Structure from the checkpoint file:  "C3-alkylindoles1_Movassaghi.chk"
 -------------------
 Title Card Required
 -------------------
 Charge =  0 Multiplicity = 1
 Redundant internal coordinates found in file.
 C,0,-2.89375049,-1.6750547843,0.5418782697
 C,0,-2.2891302362,-0.3911187689,0.5887513772
 C,0,-2.9892413692,0.6659049529,1.1925185315
 C,0,-4.2493071002,0.4260289883,1.7215718526
 C,0,-4.8295569871,-0.8558825865,1.6626276383
 C,0,-4.1617441042,-1.9212829516,1.0736819485
 C,0,-0.8706513454,-1.805096386,-0.4405329688
 C,0,-0.996988687,-0.498204896,-0.0446567996
 H,0,-2.5528545308,1.6574464535,1.2472364631
 H,0,-4.7987523503,1.2349080835,2.1895780562
 H,0,-5.8153159071,-1.0138922114,2.0850764159
 H,0,-4.6110860485,-2.907516447,1.0306267959
 H,0,-2.1553574955,-3.4940838558,-0.2789781545
 H,0,-0.0586405643,-2.3017815632,-0.9478205667
 N,0,-2.0056852424,-2.5174598263,-0.0911893357
 C,0,-0.0078667276,0.6231107415,-0.1971135882
 H,0,-0.5333192721,1.50294729,-0.5852408786
 H,0,0.3830003299,0.9128157976,0.7856296702
 C,0,1.1753363879,0.2740793797,-1.1051057764
 H,0,0.8199121199,0.0154313868,-2.111918925
 H,0,1.6980549378,-0.5923653881,-0.700917062
 N,0,2.1504636262,1.384530232,-1.1741296558
 C,0,1.7371859754,2.502914033,-2.031712758
 H,0,1.587771558,2.196481309,-3.0741622496
 H,0,0.8063586246,2.9141088623,-1.6399286831
 H,0,2.4859821585,3.2950870668,-1.9951385617
 S,0,3.7597468236,0.8767403298,-1.4680747093
 O,0,3.9717381078,-0.3195917144,-0.6511576751
 O,0,4.0043593646,0.7822092355,-2.9097306342
 C,0,4.7209647215,2.2557895149,-0.7795441338
 C,0,4.6749765762,2.4558325147,0.6226048895
 C,0,5.5141898779,3.0729802487,-1.6153365368
 C,0,5.4289039495,3.4990695603,1.1577727277
 C,0,6.2468033414,4.0987648394,-1.0025177861
 C,0,6.2221294906,4.3314274244,0.3678627802
 H,0,5.3943055395,3.66010372,2.2306561308
 H,0,6.8591498962,4.7340490905,-1.6337360489
 C,0,5.6633211827,2.9443600414,-3.1171169571
 H,0,6.095300116,1.9841098742,-3.4004796164
 H,0,4.7089350076,3.0119947201,-3.6398650439
 H,0,6.3156114841,3.7408527684,-3.4788014965
 C,0,3.8697817267,1.6103333512,1.5815230463
 H,0,3.9503092617,2.0196259087,2.5894187195
 H,0,2.8162955945,1.5841085358,1.2985728443
 H,0,4.2227836841,0.5784986383,1.5891350036
 C,0,7.0367050043,5.4374929073,0.9903430454
 H,0,6.4212224691,6.061525092,1.644393927
 H,0,7.8467718129,5.0274919402,1.6020673697
 H,0,7.4846793172,6.0798058568,0.2300800787
 Recover connectivity data from disk.

 GradGradGradGradGradGradGradGradGradGradGradGradGradGradGradGradGradGrad
 Berny optimization.
 Initialization pass.
 Cartesian force constants read from checkpoint file:
 "C3-alkylindoles1_Movassaghi.chk"
 FormGI is forming the generalized inverse of G from B-inverse, IUseBI=4.
 GSVD:  received Info=                   1 from GESDD.
                           ----------------------------
                           !    Initial Parameters    !
                           ! (Angstroms and Degrees)  !
 --------------------------                            --------------------------
 ! Name  Definition              Value          Derivative Info.                !
 --------------------------------------------------------------------------------
 ! R1    R(1,2)                  1.4199         D2E/DX2 =    0.275              !
 ! R2    R(1,6)                  1.3969         D2E/DX2 =    0.3833             !
 ! R3    R(1,15)                 1.3781         D2E/DX2 =    0.3479             !
 ! R4    R(2,3)                  1.4043         D2E/DX2 =    0.3726             !
 ! R5    R(2,8)                  1.443          D2E/DX2 =    0.2916             !
 ! R6    R(3,4)                  1.3875         D2E/DX2 =    0.4042             !
 ! R7    R(3,9)                  1.0847         D2E/DX2 =    0.3542             !
 ! R8    R(4,5)                  1.4084         D2E/DX2 =    0.3592             !
 ! R9    R(4,10)                 1.0841         D2E/DX2 =    0.3555             !
 ! R10   R(5,6)                  1.3885         D2E/DX2 =    0.4035             !
 ! R11   R(5,11)                 1.084          D2E/DX2 =    0.3558             !
 ! R12   R(6,12)                 1.0846         D2E/DX2 =    0.3542             !
 ! R13   R(7,8)                  1.3714         D2E/DX2 =    0.4065             !
 ! R14   R(7,14)                 1.0786         D2E/DX2 =    0.3711             !
 ! R15   R(7,15)                 1.3848         D2E/DX2 =    0.3338             !
 ! R16   R(8,16)                 1.503          D2E/DX2 =    0.3051             !
 ! R17   R(13,15)                1.0057         D2E/DX2 =    0.4805             !
 ! R18   R(16,17)                1.0958         D2E/DX2 =    0.3262             !
 ! R19   R(16,18)                1.0966         D2E/DX2 =    0.3238             !
 ! R20   R(16,19)                1.5317         D2E/DX2 =    0.2725             !
 ! R21   R(19,20)                1.0986         D2E/DX2 =    0.3187             !
 ! R22   R(19,21)                1.0896         D2E/DX2 =    0.3423             !
 ! R23   R(19,22)                1.4794         D2E/DX2 =    0.2942             !
 ! R24   R(22,23)                1.4687         D2E/DX2 =    0.3089             !
 ! R25   R(22,27)                1.7129         D2E/DX2 =    0.2131             !
 ! R26   R(23,24)                1.0968         D2E/DX2 =    0.3245             !
 ! R27   R(23,25)                1.0904         D2E/DX2 =    0.3405             !
 ! R28   R(23,26)                1.0907         D2E/DX2 =    0.3414             !
 ! R29   R(27,28)                1.4641         D2E/DX2 =    0.5662             !
 ! R30   R(27,29)                1.4653         D2E/DX2 =    0.5658             !
 ! R31   R(27,30)                1.8165         D2E/DX2 =    0.1809             !
 ! R32   R(30,31)                1.4171         D2E/DX2 =    0.3669             !
 ! R33   R(30,32)                1.4126         D2E/DX2 =    0.377              !
 ! R34   R(31,33)                1.394          D2E/DX2 =    0.3966             !
 ! R35   R(31,42)                1.5109         D2E/DX2 =    0.2934             !
 ! R36   R(32,34)                1.4016         D2E/DX2 =    0.3828             !
 ! R37   R(32,38)                1.5146         D2E/DX2 =    0.2899             !
 ! R38   R(33,35)                1.395          D2E/DX2 =    0.393              !
 ! R39   R(33,36)                1.0855         D2E/DX2 =    0.3517             !
 ! R40   R(34,35)                1.3902         D2E/DX2 =    0.4027             !
 ! R41   R(34,37)                1.0849         D2E/DX2 =    0.3527             !
 ! R42   R(35,46)                1.5081         D2E/DX2 =    0.2993             !
 ! R43   R(38,39)                1.0904         D2E/DX2 =    0.3409             !
 ! R44   R(38,40)                1.0903         D2E/DX2 =    0.3402             !
 ! R45   R(38,41)                1.0912         D2E/DX2 =    0.338              !
 ! R46   R(42,43)                1.0908         D2E/DX2 =    0.3393             !
 ! R47   R(42,44)                1.0911         D2E/DX2 =    0.3398             !
 ! R48   R(42,45)                1.0906         D2E/DX2 =    0.3415             !
 ! R49   R(46,47)                1.0936         D2E/DX2 =    0.3335             !
 ! R50   R(46,48)                1.0948         D2E/DX2 =    0.3308             !
 ! R51   R(46,49)                1.0914         D2E/DX2 =    0.3388             !
 ! A1    A(2,1,6)              122.2313         D2E/DX2 =    0.0773             !
 ! A2    A(2,1,15)             107.0678         D2E/DX2 =    0.0884             !
 ! A3    A(6,1,15)             130.7009         D2E/DX2 =    0.0948             !
 ! A4    A(1,2,3)              118.8503         D2E/DX2 =    0.0755             !
 ! A5    A(1,2,8)              107.4391         D2E/DX2 =    0.0855             !
 ! A6    A(3,2,8)              133.7104         D2E/DX2 =    0.0887             !
 ! A7    A(2,3,4)              119.1153         D2E/DX2 =    0.081              !
 ! A8    A(2,3,9)              120.6095         D2E/DX2 =    0.0797             !
 ! A9    A(4,3,9)              120.2752         D2E/DX2 =    0.08               !
 ! A10   A(3,4,5)              121.035          D2E/DX2 =    0.0819             !
 ! A11   A(3,4,10)             119.7288         D2E/DX2 =    0.0818             !
 ! A12   A(5,4,10)             119.2362         D2E/DX2 =    0.0816             !
 ! A13   A(4,5,6)              121.199          D2E/DX2 =    0.0814             !
 ! A14   A(4,5,11)             119.4073         D2E/DX2 =    0.0815             !
 ! A15   A(6,5,11)             119.3938         D2E/DX2 =    0.0818             !
 ! A16   A(1,6,5)              117.569          D2E/DX2 =    0.0799             !
 ! A17   A(1,6,12)             121.4146         D2E/DX2 =    0.078              !
 ! A18   A(5,6,12)             121.0164         D2E/DX2 =    0.0787             !
 ! A19   A(8,7,14)             130.0877         D2E/DX2 =    0.076              !
 ! A20   A(8,7,15)             109.9918         D2E/DX2 =    0.0915             !
 ! A21   A(14,7,15)            119.9204         D2E/DX2 =    0.0845             !
 ! A22   A(2,8,7)              106.2558         D2E/DX2 =    0.0904             !
 ! A23   A(2,8,16)             125.3421         D2E/DX2 =    0.1033             !
 ! A24   A(7,8,16)             128.3947         D2E/DX2 =    0.1078             !
 ! A25   A(1,15,7)             109.2454         D2E/DX2 =    0.0922             !
 ! A26   A(1,15,13)            125.696          D2E/DX2 =    0.0775             !
 ! A27   A(7,15,13)            125.0571         D2E/DX2 =    0.0775             !
 ! A28   A(8,16,17)            108.6249         D2E/DX2 =    0.0536             !
 ! A29   A(8,16,18)            109.9239         D2E/DX2 =    0.0506             !
 ! A30   A(8,16,19)            113.4835         D2E/DX2 =    0.149              !
 ! A31   A(17,16,18)           106.0344         D2E/DX2 =    0.021              !
 ! A32   A(17,16,19)           110.0834         D2E/DX2 =    0.0592             !
 ! A33   A(18,16,19)           108.4278         D2E/DX2 =    0.0568             !
 ! A34   A(16,19,20)           110.3039         D2E/DX2 =    0.0578             !
 ! A35   A(16,19,21)           109.3819         D2E/DX2 =    0.0578             !
 ! A36   A(16,19,22)           111.4546         D2E/DX2 =    0.1682             !
 ! A37   A(20,19,21)           107.935          D2E/DX2 =    0.0218             !
 ! A38   A(20,19,22)           110.3163         D2E/DX2 =    0.0601             !
 ! A39   A(21,19,22)           107.3349         D2E/DX2 =    0.0582             !
 ! A40   A(19,22,23)           114.4145         D2E/DX2 =    0.0972             !
 ! A41   A(19,22,27)           113.8749         D2E/DX2 =    0.1093             !
 ! A42   A(23,22,27)           112.9489         D2E/DX2 =    0.1019             !
 ! A43   A(22,23,24)           112.3689         D2E/DX2 =    0.124              !
 ! A44   A(22,23,25)           108.5158         D2E/DX2 =    0.1232             !
 ! A45   A(22,23,26)           109.8958         D2E/DX2 =    0.1246             !
 ! A46   A(24,23,25)           109.3031         D2E/DX2 =    0.0585             !
 ! A47   A(24,23,26)           109.1673         D2E/DX2 =    0.0593             !
 ! A48   A(25,23,26)           107.4649         D2E/DX2 =    0.0562             !
 ! A49   A(22,27,28)           106.4107         D2E/DX2 =    0.0993             !
 ! A50   A(22,27,29)           110.1694         D2E/DX2 =    0.0899             !
 ! A51   A(22,27,30)           101.9489         D2E/DX2 =    0.2017             !
 ! A52   A(28,27,29)           118.1695         D2E/DX2 =    0.0527             !
 ! A53   A(28,27,30)           109.4038         D2E/DX2 =    0.0787             !
 ! A54   A(29,27,30)           109.4849         D2E/DX2 =    0.0934             !
 ! A55   A(27,30,31)           117.7124         D2E/DX2 =    0.2785             !
 ! A56   A(27,30,32)           120.7995         D2E/DX2 =    0.2879             !
 ! A57   A(31,30,32)           121.4648         D2E/DX2 =    0.0952             !
 ! A58   A(30,31,33)           117.9021         D2E/DX2 =    0.0903             !
 ! A59   A(30,31,42)           124.4915         D2E/DX2 =    0.1738             !
 ! A60   A(33,31,42)           117.6055         D2E/DX2 =    0.1739             !
 ! A61   A(30,32,34)           117.2703         D2E/DX2 =    0.0895             !
 ! A62   A(30,32,38)           126.3555         D2E/DX2 =    0.1881             !
 ! A63   A(34,32,38)           116.372          D2E/DX2 =    0.1899             !
 ! A64   A(31,33,35)           122.4592         D2E/DX2 =    0.0853             !
 ! A65   A(31,33,36)           118.2461         D2E/DX2 =    0.086              !
 ! A66   A(35,33,36)           119.2943         D2E/DX2 =    0.0855             !
 ! A67   A(32,34,35)           122.9697         D2E/DX2 =    0.0862             !
 ! A68   A(32,34,37)           117.9821         D2E/DX2 =    0.0867             !
 ! A69   A(35,34,37)           119.0481         D2E/DX2 =    0.0865             !
 ! A70   A(33,35,34)           117.9309         D2E/DX2 =    0.0841             !
 ! A71   A(33,35,46)           120.7318         D2E/DX2 =    0.1161             !
 ! A72   A(34,35,46)           121.3338         D2E/DX2 =    0.1189             !
 ! A73   A(32,38,39)           111.8052         D2E/DX2 =    0.1045             !
 ! A74   A(32,38,40)           112.5779         D2E/DX2 =    0.1051             !
 ! A75   A(32,38,41)           108.9969         D2E/DX2 =    0.1155             !
 ! A76   A(39,38,40)           106.0705         D2E/DX2 =    0.0556             !
 ! A77   A(39,38,41)           108.6538         D2E/DX2 =    0.0562             !
 ! A78   A(40,38,41)           108.6067         D2E/DX2 =    0.0568             !
 ! A79   A(31,42,43)           109.7014         D2E/DX2 =    0.1143             !
 ! A80   A(31,42,44)           111.3098         D2E/DX2 =    0.1043             !
 ! A81   A(31,42,45)           111.186          D2E/DX2 =    0.1054             !
 ! A82   A(43,42,44)           108.6569         D2E/DX2 =    0.0559             !
 ! A83   A(43,42,45)           108.9453         D2E/DX2 =    0.0556             !
 ! A84   A(44,42,45)           106.9529         D2E/DX2 =    0.0557             !
 ! A85   A(35,46,47)           111.1839         D2E/DX2 =    0.1021             !
 ! A86   A(35,46,48)           110.8322         D2E/DX2 =    0.1005             !
 ! A87   A(35,46,49)           111.4564         D2E/DX2 =    0.1065             !
 ! A88   A(47,46,48)           107.2148         D2E/DX2 =    0.0548             !
 ! A89   A(47,46,49)           108.1664         D2E/DX2 =    0.0562             !
 ! A90   A(48,46,49)           107.8133         D2E/DX2 =    0.0556             !
 ! D1    D(6,1,2,3)              0.1179         D2E/DX2 =    0.004              !
 ! D2    D(6,1,2,8)            179.9732         D2E/DX2 =    0.0036             !
 ! D3    D(15,1,2,3)          -179.8522         D2E/DX2 =    0.0039             !
 ! D4    D(15,1,2,8)             0.0031         D2E/DX2 =    0.0061             !
 ! D5    D(2,1,6,5)             -0.0432         D2E/DX2 =    0.0064             !
 ! D6    D(2,1,6,12)          -179.9983         D2E/DX2 =    0.0062             !
 ! D7    D(15,1,6,5)           179.919          D2E/DX2 =    0.0075             !
 ! D8    D(15,1,6,12)           -0.0361         D2E/DX2 =    0.0071             !
 ! D9    D(2,1,15,7)            -0.0193         D2E/DX2 =    0.0078             !
 ! D10   D(2,1,15,13)         -179.5859         D2E/DX2 =    0.003              !
 ! D11   D(6,1,15,7)          -179.9859         D2E/DX2 =    0.0049             !
 ! D12   D(6,1,15,13)            0.4476         D2E/DX2 =    0.0023             !
 ! D13   D(1,2,3,4)             -0.1421         D2E/DX2 =    0.0067             !
 ! D14   D(1,2,3,9)            179.7779         D2E/DX2 =    0.0067             !
 ! D15   D(8,2,3,4)           -179.9511         D2E/DX2 =    0.0074             !
 ! D16   D(8,2,3,9)             -0.0311         D2E/DX2 =    0.0071             !
 ! D17   D(1,2,8,7)              0.0141         D2E/DX2 =    0.0071             !
 ! D18   D(1,2,8,16)          -179.0605         D2E/DX2 =    0.0053             !
 ! D19   D(3,2,8,7)            179.8388         D2E/DX2 =    0.0046             !
 ! D20   D(3,2,8,16)             0.7642         D2E/DX2 =    0.0038             !
 ! D21   D(2,3,4,5)              0.098          D2E/DX2 =    0.0092             !
 ! D22   D(2,3,4,10)          -179.976          D2E/DX2 =    0.0085             !
 ! D23   D(9,3,4,5)           -179.8223         D2E/DX2 =    0.0077             !
 ! D24   D(9,3,4,10)             0.1038         D2E/DX2 =    0.0086             !
 ! D25   D(3,4,5,6)             -0.0231         D2E/DX2 =    0.0092             !
 ! D26   D(3,4,5,11)           179.9514         D2E/DX2 =    0.0079             !
 ! D27   D(10,4,5,6)          -179.9495         D2E/DX2 =    0.008              !
 ! D28   D(10,4,5,11)            0.0249         D2E/DX2 =    0.0083             !
 ! D29   D(4,5,6,1)             -0.0052         D2E/DX2 =    0.009              !
 ! D30   D(4,5,6,12)           179.9501         D2E/DX2 =    0.0074             !
 ! D31   D(11,5,6,1)          -179.9796         D2E/DX2 =    0.0083             !
 ! D32   D(11,5,6,12)           -0.0244         D2E/DX2 =    0.0083             !
 ! D33   D(14,7,8,2)          -179.9163         D2E/DX2 =    0.0055             !
 ! D34   D(14,7,8,16)           -0.8794         D2E/DX2 =    0.0049             !
 ! D35   D(15,7,8,2)            -0.0263         D2E/DX2 =    0.0096             !
 ! D36   D(15,7,8,16)          179.0106         D2E/DX2 =    0.0072             !
 ! D37   D(8,7,15,1)             0.0293         D2E/DX2 =    0.0106             !
 ! D38   D(8,7,15,13)          179.5992         D2E/DX2 =    0.0042             !
 ! D39   D(14,7,15,1)          179.9322         D2E/DX2 =    0.0053             !
 ! D40   D(14,7,15,13)          -0.4979         D2E/DX2 =    0.0027             !
 ! D41   D(2,8,16,17)          -47.9014         D2E/DX2 =    0.0127             !
 ! D42   D(2,8,16,18)           67.7055         D2E/DX2 =    0.0124             !
 ! D43   D(2,8,16,19)         -170.6882         D2E/DX2 =    0.0109             !
 ! D44   D(7,8,16,17)          133.2321         D2E/DX2 =    0.0127             !
 ! D45   D(7,8,16,18)         -111.161          D2E/DX2 =    0.0125             !
 ! D46   D(7,8,16,19)           10.4453         D2E/DX2 =    0.0103             !
 ! D47   D(8,16,19,20)          59.7085         D2E/DX2 =    0.0152             !
 ! D48   D(8,16,19,21)         -58.8612         D2E/DX2 =    0.0155             !
 ! D49   D(8,16,19,22)        -177.3918         D2E/DX2 =    0.0156             !
 ! D50   D(17,16,19,20)        -62.2704         D2E/DX2 =    0.0161             !
 ! D51   D(17,16,19,21)        179.1599         D2E/DX2 =    0.0161             !
 ! D52   D(17,16,19,22)         60.6293         D2E/DX2 =    0.0161             !
 ! D53   D(18,16,19,20)       -177.8533         D2E/DX2 =    0.0156             !
 ! D54   D(18,16,19,21)         63.5771         D2E/DX2 =    0.0164             !
 ! D55   D(18,16,19,22)        -54.9536         D2E/DX2 =    0.0159             !
 ! D56   D(16,19,22,23)        -76.6329         D2E/DX2 =    0.0193             !
 ! D57   D(16,19,22,27)        151.3631         D2E/DX2 =    0.0176             !
 ! D58   D(20,19,22,23)         46.2597         D2E/DX2 =    0.0195             !
 ! D59   D(20,19,22,27)        -85.7443         D2E/DX2 =    0.0195             !
 ! D60   D(21,19,22,23)        163.618          D2E/DX2 =    0.0204             !
 ! D61   D(21,19,22,27)         31.6139         D2E/DX2 =    0.0199             !
 ! D62   D(19,22,23,24)        -60.6712         D2E/DX2 =    0.0207             !
 ! D63   D(19,22,23,25)         60.313          D2E/DX2 =    0.0196             !
 ! D64   D(19,22,23,26)        177.5583         D2E/DX2 =    0.0199             !
 ! D65   D(27,22,23,24)         71.7747         D2E/DX2 =    0.0207             !
 ! D66   D(27,22,23,25)       -167.2412         D2E/DX2 =    0.0196             !
 ! D67   D(27,22,23,26)        -49.9959         D2E/DX2 =    0.0194             !
 ! D68   D(19,22,27,28)        -41.3715         D2E/DX2 =    0.0374             !
 ! D69   D(19,22,27,29)         87.8606         D2E/DX2 =    0.037              !
 ! D70   D(19,22,27,30)       -155.9747         D2E/DX2 =    0.0292             !
 ! D71   D(23,22,27,28)       -174.0807         D2E/DX2 =    0.0375             !
 ! D72   D(23,22,27,29)        -44.8485         D2E/DX2 =    0.037              !
 ! D73   D(23,22,27,30)         71.3162         D2E/DX2 =    0.0296             !
 ! D74   D(22,27,30,31)         67.0002         D2E/DX2 =    0.0305             !
 ! D75   D(22,27,30,32)       -114.7317         D2E/DX2 =    0.028              !
 ! D76   D(28,27,30,31)        -45.3774         D2E/DX2 =    0.0337             !
 ! D77   D(28,27,30,32)        132.8907         D2E/DX2 =    0.0322             !
 ! D78   D(29,27,30,31)       -176.3382         D2E/DX2 =    0.0308             !
 ! D79   D(29,27,30,32)          1.9299         D2E/DX2 =    0.0288             !
 ! D80   D(27,30,31,33)        178.9439         D2E/DX2 =    0.0053             !
 ! D81   D(27,30,31,42)         -0.6973         D2E/DX2 =    0.0048             !
 ! D82   D(32,30,31,33)          0.688          D2E/DX2 =    0.005              !
 ! D83   D(32,30,31,42)       -178.9532         D2E/DX2 =    0.0061             !
 ! D84   D(27,30,32,34)       -178.7213         D2E/DX2 =    0.0057             !
 ! D85   D(27,30,32,38)          0.7196         D2E/DX2 =    0.0048             !
 ! D86   D(31,30,32,34)         -0.5189         D2E/DX2 =    0.0051             !
 ! D87   D(31,30,32,38)        178.9221         D2E/DX2 =    0.0054             !
 ! D88   D(30,31,33,35)         -0.5012         D2E/DX2 =    0.006              !
 ! D89   D(30,31,33,36)        179.7317         D2E/DX2 =    0.0066             !
 ! D90   D(42,31,33,35)        179.1651         D2E/DX2 =    0.0063             !
 ! D91   D(42,31,33,36)         -0.602          D2E/DX2 =    0.0072             !
 ! D92   D(30,31,42,43)       -175.8358         D2E/DX2 =    0.0136             !
 ! D93   D(30,31,42,44)        -55.5438         D2E/DX2 =    0.0137             !
 ! D94   D(30,31,42,45)         63.591          D2E/DX2 =    0.0134             !
 ! D95   D(33,31,42,43)          4.522          D2E/DX2 =    0.0131             !
 ! D96   D(33,31,42,44)        124.814          D2E/DX2 =    0.013              !
 ! D97   D(33,31,42,45)       -116.0512         D2E/DX2 =    0.0126             !
 ! D98   D(30,32,34,35)          0.155          D2E/DX2 =    0.0062             !
 ! D99   D(30,32,34,37)       -179.9366         D2E/DX2 =    0.0066             !
 ! D100  D(38,32,34,35)       -179.3425         D2E/DX2 =    0.0057             !
 ! D101  D(38,32,34,37)          0.5659         D2E/DX2 =    0.0069             !
 ! D102  D(30,32,38,39)        -61.793          D2E/DX2 =    0.0134             !
 ! D103  D(30,32,38,40)         57.4986         D2E/DX2 =    0.0131             !
 ! D104  D(30,32,38,41)        178.0697         D2E/DX2 =    0.0138             !
 ! D105  D(34,32,38,39)        117.6524         D2E/DX2 =    0.013              !
 ! D106  D(34,32,38,40)       -123.056          D2E/DX2 =    0.0128             !
 ! D107  D(34,32,38,41)         -2.4849         D2E/DX2 =    0.0141             !
 ! D108  D(31,33,35,34)          0.1537         D2E/DX2 =    0.0062             !
 ! D109  D(31,33,35,46)       -179.182          D2E/DX2 =    0.0061             !
 ! D110  D(36,33,35,34)        179.9185         D2E/DX2 =    0.0066             !
 ! D111  D(36,33,35,46)          0.5829         D2E/DX2 =    0.007              !
 ! D112  D(32,34,35,33)          0.0262         D2E/DX2 =    0.0063             !
 ! D113  D(32,34,35,46)        179.3576         D2E/DX2 =    0.0063             !
 ! D114  D(37,34,35,33)       -179.8813         D2E/DX2 =    0.0067             !
 ! D115  D(37,34,35,46)         -0.5499         D2E/DX2 =    0.0071             !
 ! D116  D(33,35,46,47)        -51.1405         D2E/DX2 =    0.0128             !
 ! D117  D(33,35,46,48)         68.0077         D2E/DX2 =    0.0127             !
 ! D118  D(33,35,46,49)       -171.9104         D2E/DX2 =    0.0127             !
 ! D119  D(34,35,46,47)        129.5467         D2E/DX2 =    0.0122             !
 ! D120  D(34,35,46,48)       -111.3051         D2E/DX2 =    0.0122             !
 ! D121  D(34,35,46,49)          8.7768         D2E/DX2 =    0.0129             !
 --------------------------------------------------------------------------------
 Trust Radius=3.00D-01 FncErr=1.00D-07 GrdErr=1.00D-06
 Number of steps in this run=    272 maximum allowed number of steps=    294.
 GradGradGradGradGradGradGradGradGradGradGradGradGradGradGradGradGradGrad

                          Input orientation:                          
 ---------------------------------------------------------------------
 Center     Atomic      Atomic             Coordinates (Angstroms)
 Number     Number       Type             X           Y           Z
 ---------------------------------------------------------------------
      1          6           0       -2.893750   -1.675055    0.541878
      2          6           0       -2.289130   -0.391119    0.588751
      3          6           0       -2.989241    0.665905    1.192519
      4          6           0       -4.249307    0.426029    1.721572
      5          6           0       -4.829557   -0.855883    1.662628
      6          6           0       -4.161744   -1.921283    1.073682
      7          6           0       -0.870651   -1.805096   -0.440533
      8          6           0       -0.996989   -0.498205   -0.044657
      9          1           0       -2.552855    1.657446    1.247236
     10          1           0       -4.798752    1.234908    2.189578
     11          1           0       -5.815316   -1.013892    2.085076
     12          1           0       -4.611086   -2.907516    1.030627
     13          1           0       -2.155357   -3.494084   -0.278978
     14          1           0       -0.058641   -2.301782   -0.947821
     15          7           0       -2.005685   -2.517460   -0.091189
     16          6           0       -0.007867    0.623111   -0.197114
     17          1           0       -0.533319    1.502947   -0.585241
     18          1           0        0.383000    0.912816    0.785630
     19          6           0        1.175336    0.274079   -1.105106
     20          1           0        0.819912    0.015431   -2.111919
     21          1           0        1.698055   -0.592365   -0.700917
     22          7           0        2.150464    1.384530   -1.174130
     23          6           0        1.737186    2.502914   -2.031713
     24          1           0        1.587772    2.196481   -3.074162
     25          1           0        0.806359    2.914109   -1.639929
     26          1           0        2.485982    3.295087   -1.995139
     27         16           0        3.759747    0.876740   -1.468075
     28          8           0        3.971738   -0.319592   -0.651158
     29          8           0        4.004359    0.782209   -2.909731
     30          6           0        4.720965    2.255790   -0.779544
     31          6           0        4.674977    2.455833    0.622605
     32          6           0        5.514190    3.072980   -1.615337
     33          6           0        5.428904    3.499070    1.157773
     34          6           0        6.246803    4.098765   -1.002518
     35          6           0        6.222129    4.331427    0.367863
     36          1           0        5.394306    3.660104    2.230656
     37          1           0        6.859150    4.734049   -1.633736
     38          6           0        5.663321    2.944360   -3.117117
     39          1           0        6.095300    1.984110   -3.400480
     40          1           0        4.708935    3.011995   -3.639865
     41          1           0        6.315611    3.740853   -3.478801
     42          6           0        3.869782    1.610333    1.581523
     43          1           0        3.950309    2.019626    2.589419
     44          1           0        2.816296    1.584109    1.298573
     45          1           0        4.222784    0.578499    1.589135
     46          6           0        7.036705    5.437493    0.990343
     47          1           0        6.421222    6.061525    1.644394
     48          1           0        7.846772    5.027492    1.602067
     49          1           0        7.484679    6.079806    0.230080
 ---------------------------------------------------------------------
                    Distance matrix (angstroms):
                    1          2          3          4          5
     1  C    0.000000
     2  C    1.419949   0.000000
     3  C    2.431572   1.404275   0.000000
     4  C    2.764736   2.406929   1.387517   0.000000
     5  C    2.382114   2.796960   2.433845   1.408354   0.000000
     6  C    1.396872   2.466423   2.842961   2.436658   1.388492
     7  C    2.252770   2.251853   3.641583   4.589982   4.582273
     8  C    2.307965   1.443019   2.618172   3.814623   4.210859
     9  H    3.423347   2.167896   1.084704   2.149264   3.416540
    10  H    3.848614   3.391874   2.142947   1.084069   2.156393
    11  H    3.369591   3.880827   3.406622   2.158215   1.084044
    12  H    2.169580   3.452389   3.927586   3.423567   2.157859
    13  H    2.127885   3.224786   4.490676   4.873819   4.228626
    14  H    3.263409   3.314630   4.687924   5.668182   5.627318
    15  N    1.378071   2.250330   3.570588   4.121173   3.716311
    16  C    3.762446   2.617328   3.289605   4.659400   5.375384
    17  H    4.116033   2.837008   3.145254   4.504409   5.392091
    18  H    4.182533   2.979813   3.405663   4.750918   5.573883
    19  C    4.803035   3.913332   4.772454   6.118820   6.707899
    20  H    4.867409   4.138242   5.084493   6.368770   6.850029
    21  H    4.878671   4.195401   5.209519   6.502053   6.947338
    22  N    6.144090   5.096143   5.703860   7.089491   7.860492
    23  C    6.747175   5.608340   6.009109   7.364693   8.249350
    24  H    6.938918   5.928151   6.441760   7.759192   8.540270
    25  H    6.285818   5.047137   5.242495   6.561249   7.542099
    26  H    7.751148   6.562492   6.859434   8.210332   9.172073
    27  S    7.404093   6.513595   7.257551   8.632609   9.304806
    28  O    7.098982   6.382865   7.268121   8.589027   9.116140
    29  O    8.095410   7.295484   8.108787   9.470947  10.081066
    30  C    8.670731   7.617072   8.115666   9.490489  10.337271
    31  C    8.623014   7.523634   7.891063   9.217954  10.118560
    32  C    9.893982   8.817584   9.272885  10.652098  11.540109
    33  C    9.819240   8.661721   8.882184  10.170016  11.156008
    34  C   10.921166   9.775140  10.094911  11.448930  12.423256
    35  C   10.918213   9.736158   9.948139  11.257693  12.276986
    36  H   10.000388   8.839878   8.962523  10.184187  11.191253
    37  H   11.871351  10.719040  11.023988  12.378002  13.369339
    38  C   10.389933   9.386179   9.931322  11.314376  12.140358
    39  H   10.475433   9.584067  10.264609  11.647915  12.371464
    40  H    9.861858   8.856370   9.387118  10.755572  11.578417
    41  H   11.415352  10.375922  10.856188  12.233129  13.106451
    42  C    7.590784   6.551611   6.934657   8.206205   9.042527
    43  H    8.042651   6.981759   7.207028   8.398001   9.285125
    44  H    6.618108   5.520031   5.878657   7.172365   8.034000
    45  H    7.537925   6.659275   7.223451   8.474498   9.165573
    46  C   12.223068  11.004780  11.105338  12.370268  13.448670
    47  H   12.158903  10.891338  10.856967  12.067517  13.207229
    48  H   12.704604  11.537966  11.688043  12.942290  13.975231
    49  H   12.959432  11.727270  11.829608  13.110156  14.205505
                    6          7          8          9         10
     6  C    0.000000
     7  C    3.624588   0.000000
     8  C    3.645752   1.371366   0.000000
     9  H    3.927588   4.203282   2.955764   0.000000
    10  H    3.407719   5.620417   4.738026   2.471963   0.000000
    11  H    2.140228   5.608424   5.293201   4.299032   2.470106
    12  H    1.084628   4.167792   4.474675   5.012197   4.305586
    13  H    2.885997   2.128203   3.220561   5.387541   5.953543
    14  H    4.589849   1.078609   2.224655   5.168642   6.694782
    15  N    2.522091   1.384848   2.257659   4.418215   5.204170
    16  C    5.034239   2.588405   1.502982   3.103701   5.387316
    17  H    5.257646   3.328346   2.124107   2.731367   5.095624
    18  H    5.363748   3.234527   2.141197   3.063788   5.378232
    19  C    6.168562   2.991771   2.537710   4.620241   6.889693
    20  H    6.222203   2.994304   2.799736   5.035444   7.180487
    21  H    6.265179   2.852502   2.775393   5.189141   7.341825
    22  N    7.471615   4.454101   3.837559   5.297046   7.721950
    23  C    8.000898   5.281252   4.520046   5.465416   7.883250
    24  H    8.198629   5.384466   4.808349   6.009146   8.331823
    25  H    7.444914   5.149933   4.176223   4.604263   6.993004
    26  H    8.990019   6.300449   5.506771   6.211661   8.650061
    27  S    8.777214   5.448732   5.152002   6.916021   9.314216
    28  O    8.467232   5.069499   5.008791   7.076927   9.349211
    29  O    9.479541   6.046223   5.904370   7.813032  10.183450
    30  C    9.989239   6.918952   6.389017   7.574583  10.024116
    31  C    9.871689   7.073879   6.429834   7.298570   9.679752
    32  C   11.215934   8.120468   7.590510   8.676132  11.145073
    33  C   11.016707   8.388871   7.662645   8.191950  10.525968
    34  C   12.202026   9.264425   8.632621   9.405074  11.848859
    35  C   12.141639   9.413712   8.695469   9.215412  11.591674
    36  H   11.126929   8.732316   7.957212   8.254399  10.477676
    37  H   13.156126  10.194802   9.571863  10.312677  12.758072
    38  C   11.737512   8.509655   8.102530   9.391979  11.854882
    39  H   11.852307   8.464269   8.229459   9.823368  12.267454
    40  H   11.191233   8.035663   7.602933   8.857322  11.293209
    41  H   12.749897   9.572408   9.123436  10.262831  12.725540
    42  C    8.788380   6.182684   5.547598   6.431502   8.697940
    43  H    9.145142   6.859356   6.144394   6.650095   8.793278
    44  H    7.812259   5.301394   4.547684   5.369896   7.674945
    45  H    8.764411   5.978642   5.574459   6.869519   9.065292
    46  C   13.400141  10.817985  10.042110  10.310887  12.616574
    47  H   13.268388  10.927126  10.045537  10.004384  12.226254
    48  H   13.884132  11.262768  10.557326  10.937794  13.215073
    49  H   14.155150  11.507952  10.737057  11.015623  13.348983
                   11         12         13         14         15
    11  H    0.000000
    12  H    2.479485   0.000000
    13  H    5.013522   2.844245   0.000000
    14  H    6.632981   5.000593   2.503030   0.000000
    15  N    4.637902   2.863342   1.005714   2.138064   0.000000
    16  C    6.450941   5.929781   4.644320   3.020122   3.723665
    17  H    6.431529   6.220241   5.262616   3.851330   4.309945
    18  H    6.619659   6.292524   5.195904   3.678795   4.270998
    19  C    7.791364   6.940215   5.096574   2.860506   4.351967
    20  H    7.918366   6.922063   4.952635   2.737966   4.299173
    21  H    8.024350   6.939988   4.842189   2.463543   4.218465
    22  N    8.934680   8.306694   6.568277   4.303516   5.802746
    23  C    9.292802   8.885451   7.361247   5.242606   6.555827
    24  H    9.577575   9.018089   7.362513   5.240837   6.635684
    25  H    8.552861   8.388796   7.189498   5.332237   6.309368
    26  H   10.204264   9.899289   8.401195   6.236739   7.588531
    27  S   10.386588   9.520239   7.450269   4.995373   6.830565
    28  O   10.186042   9.120889   6.910660   4.501226   6.393260
    29  O   11.162442  10.166926   7.946676   5.465168   7.413004
    30  C   11.397810  10.817746   8.977495   6.606391   8.276809
    31  C   11.145584  10.731400   9.103176   6.892624   8.359090
    32  C   12.599733  12.053575  10.184996   7.771106   9.493396
    33  C   12.151510  11.910580  10.415828   8.258120   9.645292
    34  C   13.459837  13.081109  11.347738   8.984910  10.616427
    35  C   13.282370  13.046077  11.482130   9.229223  10.715172
    36  H   12.145906  12.028365  10.699443   8.682247   9.915297
    37  H   14.405224  14.037759  12.280020   9.890865  11.556346
    38  C   13.209454  12.530430  10.518571   8.060316   9.889458
    39  H   13.451473  12.577337  10.384013   7.890208   9.840808
    40  H   12.638931  11.988198  10.037088   7.629751   9.394365
    41  H   14.167700  13.562023  11.590535   9.140590  10.949264
    42  C   10.046952   9.624945   8.112881   6.093827   7.372771
    43  H   10.238361  10.000203   8.712512   6.874467   7.952652
    44  H    9.048365   8.684036   7.279701   5.330261   6.481188
    45  H   10.175712   9.513227   7.794643   5.750022   7.155576
    46  C   14.421971  14.328707  12.879373  10.676927  12.091973
    47  H   14.141733  14.231382  12.983326  10.892800  12.150062
    48  H   14.946045  14.781378  13.273966  11.077713  12.524549
    49  H   15.187213  15.090407  13.595912  11.337554  12.809497
                   16         17         18         19         20
    16  C    0.000000
    17  H    1.095836   0.000000
    18  H    1.096581   1.751337   0.000000
    19  C    1.531745   2.167921   2.147245   0.000000
    20  H    2.172780   2.524814   3.064634   1.098589   0.000000
    21  H    2.154384   3.063127   2.490936   1.089647   1.769598
    22  N    2.488516   2.750182   2.680876   1.479439   2.127028
    23  C    3.153510   2.871830   3.507086   2.478302   2.652432
    24  H    3.646775   3.342865   4.242318   2.782609   2.504496
    25  H    2.827251   2.213251   3.172970   2.718811   2.936884
    26  H    4.073283   3.783617   4.222608   3.411222   3.680430
    27  S    3.984292   4.427409   4.059914   2.678456   3.130338
    28  O    4.114863   4.860199   4.057367   2.894543   3.489996
    29  O    4.845778   5.149101   5.175615   3.393853   3.371225
    30  C    5.036538   5.311499   4.803257   4.074880   4.691763
    31  C    5.095079   5.430767   4.563829   4.471299   5.319276
    32  C    6.205347   6.332335   6.063007   5.188432   5.624184
    33  C    6.298042   6.524623   5.682283   5.797760   6.638481
    34  C    7.200677   7.272032   6.908830   6.352836   6.881536
    35  C    7.272115   7.385445   6.779149   6.640921   7.345821
    36  H    6.655889   6.907918   5.894817   6.355483   7.284687
    37  H    8.131397   8.135598   7.899093   7.244068   7.678959
    38  C    6.788003   6.847366   6.873165   5.596481   5.748709
    39  H    7.025846   7.217734   7.162510   5.692011   5.776314
    40  H    6.309320   6.252134   6.534927   5.138823   5.141839
    41  H    7.776642   7.764584   7.834478   6.638929   6.778631
    42  C    4.378849   4.908533   3.643847   4.032814   5.048458
    43  H    5.038072   5.518002   4.147816   4.939324   5.993226
    44  H    3.337138   3.843860   2.575785   3.191644   4.251794
    45  H    4.592502   5.310653   3.937172   4.079037   5.059089
    46  C    8.614773   8.675735   8.049000   8.087483   8.813132
    47  H    8.619785   8.609155   7.981655   8.280918   9.057583
    48  H    9.183190   9.350543   8.561835   8.627385   9.396340
    49  H    9.278807   9.268262   8.800015   8.677384   9.310248
                   21         22         23         24         25
    21  H    0.000000
    22  N    2.082479   0.000000
    23  C    3.369466   1.468683   0.000000
    24  H    3.663621   2.141497   1.096780   0.000000
    25  H    3.737944   2.088827   1.090420   1.783990   0.000000
    26  H    4.172305   2.106385   1.090675   1.782697   1.758537
    27  S    2.645255   1.712906   2.655726   3.006445   3.592062
    28  O    2.290528   2.548445   3.855606   4.229051   4.631859
    29  O    3.476687   2.609987   2.978559   2.804835   4.047790
    30  C    4.154052   2.742675   3.245294   3.884030   4.061747
    31  C    4.461534   3.278583   3.959575   4.823296   4.505028
    32  C    5.369712   3.789483   3.842409   4.279391   4.710575
    33  C    5.840702   4.545021   4.979350   5.861767   5.434817
    34  C    6.541313   4.916962   4.893121   5.442148   5.604297
    35  C    6.771505   5.257414   5.405196   6.154901   5.947318
    36  H    6.351369   5.224300   5.734231   6.691262   6.048735
    37  H    7.475142   5.796744   5.600970   6.025073   6.320483
    38  C    5.836933   4.306790   4.097257   4.143823   5.076720
    39  H    5.767289   4.569230   4.597373   4.524312   5.651313
    40  H    5.540237   3.908231   3.417105   3.275171   4.386277
    41  H    6.914857   5.311518   4.958683   4.990119   5.866586
    42  C    3.844192   3.255866   4.289538   5.217906   4.632725
    43  H    4.766703   4.219844   5.146488   6.139138   5.345269
    44  H    3.159978   2.568545   3.619321   4.583130   3.800466
    45  H    3.604097   3.546805   4.795009   5.595310   5.249180
    46  C    8.229261   6.707220   6.769747   7.530952   7.218242
    47  H    8.490174   6.932369   6.936690   7.782389   7.226320
    48  H    8.642526   7.309334   7.543533   8.310044   8.033949
    49  H    8.880858   7.243706   7.137474   7.795624   7.623552
                   26         27         28         29         30
    26  H    0.000000
    27  S    2.783644   0.000000
    28  O    4.132754   1.464071   0.000000
    29  O    3.075143   1.465313   2.513201   0.000000
    30  C    2.748264   1.816533   2.685221   2.687500   0.000000
    31  C    3.514061   2.775269   3.133687   3.965871   1.417094
    32  C    3.060004   2.814823   3.849460   3.033591   1.412641
    33  C    4.317783   4.069124   4.469646   5.094629   2.408344
    34  C    3.971772   4.096784   4.982093   4.434586   2.403010
    35  C    4.540548   4.622646   5.266369   5.315832   2.806833
    36  H    5.142852   4.909125   5.115323   6.052917   3.389217
    37  H    4.617989   4.951017   5.902702   5.039348   3.382787
    38  C    3.387821   3.258525   4.426713   2.733141   2.612740
    39  H    4.089110   3.227269   4.168372   2.461185   2.971853
    40  H    2.779710   3.190132   4.536000   2.449789   2.958619
    41  H    4.131104   4.333429   5.475082   3.797275   3.469049
    42  C    4.188771   3.138521   2.952942   4.568945   2.591479
    43  H    4.978877   4.219687   3.996715   5.636911   3.464043
    44  H    3.726270   3.007459   2.959826   4.445712   2.897842
    45  H    4.821136   3.106426   2.426623   4.508769   2.944848
    46  C    5.849109   6.130476   6.725516   6.788031   4.314903
    47  H    6.032039   6.607035   7.210283   7.379191   4.821823
    48  H    6.684249   6.584701   6.977407   7.289916   4.808854
    49  H    6.139481   6.620479   7.353205   7.073582   4.824993
                   31         32         33         34         35
    31  C    0.000000
    32  C    2.468508   0.000000
    33  C    1.393971   2.806949   0.000000
    34  C    2.794797   1.401607   2.386514   0.000000
    35  C    2.444674   2.453150   1.394985   1.390210   0.000000
    36  H    2.133901   3.892396   1.085453   3.372327   2.146152
    37  H    3.879685   2.137383   3.370949   1.084892   2.138761
    38  C    3.898846   1.514638   4.317098   2.478837   3.792269
    39  H    4.292441   2.170268   4.849418   3.200772   4.441440
    40  H    4.298735   2.179649   4.875749   3.240634   4.482471
    41  H    4.600488   2.135610   4.726789   2.502962   3.892858
    42  C    1.510871   3.881150   2.485508   4.303463   3.796164
    43  H    2.140975   4.608172   2.534681   4.743281   3.929492
    44  H    2.161372   4.241019   3.242318   4.836000   4.473666
    45  H    2.159408   4.261315   3.189127   4.817218   4.424179
    46  C    3.821425   3.833867   2.523993   2.527376   1.508110
    47  H    4.134543   4.514416   2.790641   3.299847   2.159261
    48  H    4.199174   4.428628   2.894747   3.194730   2.155743
    49  H    4.602357   4.040964   3.427393   2.641242   2.160982
                   36         37         38         39         40
    36  H    0.000000
    37  H    4.269971   0.000000
    38  C    5.402160   2.614080   0.000000
    39  H    5.916928   3.356637   1.090404   0.000000
    40  H    5.945822   3.407851   1.090272   1.742372   0.000000
    41  H    5.783877   2.164749   1.091192   1.772235   1.771605
    42  C    2.635736   5.388118   5.203233   5.469277   5.470990
    43  H    2.214724   5.802110   6.029436   6.362478   6.353289
    44  H    3.438702   5.904679   5.427168   5.743950   5.478057
    45  H    3.358616   5.882680   5.460884   5.511653   5.787978
    46  C    2.719368   2.722526   4.997312   5.664929   5.721921
    47  H    2.676768   3.563721   5.741352   6.494789   6.336794
    48  H    2.877406   3.395869   5.601571   6.111899   6.433203
    49  H    3.771860   2.382469   4.934784   5.646775   5.665042
                   41         42         43         44         45
    41  H    0.000000
    42  C    6.010664   0.000000
    43  H    6.736510   1.090806   0.000000
    44  H    6.302385   1.091138   1.772553   0.000000
    45  H    6.329644   1.090574   1.775291   1.753250   0.000000
    46  C    4.834441   5.002604   4.874905   5.723236   5.646816
    47  H    5.625283   5.130976   4.830676   5.758676   5.907602
    48  H    5.460322   5.243457   5.020412   6.103662   5.738205
    49  H    4.537976   5.905088   5.877356   6.568621   6.538454
                   46         47         48         49
    46  C    0.000000
    47  H    1.093626   0.000000
    48  H    1.094767   1.761592   0.000000
    49  H    1.091442   1.769621   1.766586   0.000000
 Stoichiometry    C20H24N2O2S
 Framework group  C1[X(C20H24N2O2S)]
 Deg. of freedom   141
 Full point group                 C1      NOp   1
 Largest Abelian subgroup         C1      NOp   1
 Largest concise Abelian subgroup C1      NOp   1
                         Standard orientation:                         
 ---------------------------------------------------------------------
 Center     Atomic      Atomic             Coordinates (Angstroms)
 Number     Number       Type             X           Y           Z
 ---------------------------------------------------------------------
      1          6           0       -5.543374   -0.212681    0.381025
      2          6           0       -4.453722    0.469740   -0.221650
      3          6           0       -4.702790    1.665662   -0.914271
      4          6           0       -6.003438    2.142645   -0.991762
      5          6           0       -7.068807    1.448020   -0.386826
      6          6           0       -6.854231    0.264066    0.306080
      7          6           0       -3.660252   -1.380516    0.787212
      8          6           0       -3.260589   -0.294695    0.051068
      9          1           0       -3.891107    2.212155   -1.382351
     10          1           0       -6.207065    3.064674   -1.524307
     11          1           0       -8.074641    1.845039   -0.463140
     12          1           0       -7.676803   -0.268055    0.771528
     13          1           0       -5.560760   -2.025368    1.495368
     14          1           0       -3.081670   -2.194683    1.194365
     15          7           0       -5.029588   -1.337414    0.989367
     16          6           0       -1.871286    0.076694   -0.385811
     17          1           0       -1.898440    0.345246   -1.447883
     18          1           0       -1.540475    0.976897    0.145873
     19          6           0       -0.840481   -1.031419   -0.149654
     20          1           0       -1.122784   -1.938541   -0.701318
     21          1           0       -0.812253   -1.278948    0.911129
     22          7           0        0.519547   -0.596872   -0.537249
     23          6           0        0.764097   -0.587164   -1.985396
     24          1           0        0.649155   -1.581027   -2.434787
     25          1           0        0.059484    0.102614   -2.450951
     26          1           0        1.769084   -0.215866   -2.189625
     27         16           0        1.770579   -1.363974    0.346221
     28          8           0        1.319163   -1.421122    1.737789
     29          8           0        2.155918   -2.617214   -0.308033
     30          6           0        3.125326   -0.162684    0.200089
     31          6           0        2.968133    1.089500    0.844667
     32          6           0        4.307283   -0.487280   -0.502171
     33          6           0        4.014695    2.005815    0.753946
     34          6           0        5.316039    0.484849   -0.545521
     35          6           0        5.196602    1.726902    0.067442
     36          1           0        3.898411    2.968420    1.241878
     37          1           0        6.228378    0.248091   -1.082712
     38          6           0        4.601677   -1.794307   -1.208671
     39          1           0        4.608212   -2.636538   -0.516151
     40          1           0        3.859186   -2.035193   -1.969838
     41          1           0        5.580613   -1.727386   -1.686063
     42          6           0        1.745341    1.498988    1.631961
     43          1           0        1.848913    2.534084    1.960149
     44          1           0        0.839125    1.412555    1.030392
     45          1           0        1.608304    0.862235    2.506671
     46          6           0        6.311740    2.740558    0.009447
     47          1           0        5.941921    3.716708   -0.316716
     48          1           0        6.763961    2.878802    0.996817
     49          1           0        7.099850    2.428204   -0.677985
 ---------------------------------------------------------------------
 Rotational constants (GHZ):      0.4930943      0.0812943      0.0756080
 Standard basis: 6-311+G(d,p) (5D, 7F)
 There are   727 symmetry adapted cartesian basis functions of A   symmetry.
 There are   702 symmetry adapted basis functions of A   symmetry.
   702 basis functions,  1106 primitive gaussians,   727 cartesian basis functions
    95 alpha electrons       95 beta electrons
       nuclear repulsion energy      2313.8719263137 Hartrees.
 NAtoms=   49 NActive=   49 NUniq=   49 SFac= 1.00D+00 NAtFMM=   60 NAOKFM=F Big=F
 Integral buffers will be    131072 words long.
 Raffenetti 2 integral format.
 Two-electron integral symmetry is turned on.
 One-electron integrals computed using PRISM.
 NBasis=   702 RedAO= T EigKep=  1.12D-06  NBF=   702
 NBsUse=   696 1.00D-06 EigRej=  9.78D-07 NBFU=   696
 Initial guess from the checkpoint file:  "C3-alkylindoles1_Movassaghi.chk"
 B after Tr=     0.000000    0.000000    0.000000
         Rot=    1.000000    0.000000    0.000000    0.000000 Ang=   0.00 deg.
 Requested convergence on RMS density matrix=1.00D-08 within 128 cycles.
 Requested convergence on MAX density matrix=1.00D-06.
 Requested convergence on             energy=1.00D-06.
 No special actions if energy rises.
 SCF Done:  E(RB3LYP) =  -1434.96556917     A.U. after    1 cycles
            NFock=  1  Conv=0.50D-08     -V/T= 2.0036

 **********************************************************************

            Population analysis using the SCF density.

 **********************************************************************

 Orbital symmetries:
       Occupied  (A) (A) (A) (A) (A) (A) (A) (A) (A) (A) (A) (A)
                 (A) (A) (A) (A) (A) (A) (A) (A) (A) (A) (A) (A)
                 (A) (A) (A) (A) (A) (A) (A) (A) (A) (A) (A) (A)
                 (A) (A) (A) (A) (A) (A) (A) (A) (A) (A) (A) (A)
                 (A) (A) (A) (A) (A) (A) (A) (A) (A) (A) (A) (A)
                 (A) (A) (A) (A) (A) (A) (A) (A) (A) (A) (A) (A)
                 (A) (A) (A) (A) (A) (A) (A) (A) (A) (A) (A) (A)
                 (A) (A) (A) (A) (A) (A) (A) (A) (A) (A) (A)
       Virtual   (A) (A) (A) (A) (A) (A) (A) (A) (A) (A) (A) (A)
                 (A) (A) (A) (A) (A) (A) (A) (A) (A) (A) (A) (A)
                 (A) (A) (A) (A) (A) (A) (A) (A) (A) (A) (A) (A)
                 (A) (A) (A) (A) (A) (A) (A) (A) (A) (A) (A) (A)
                 (A) (A) (A) (A) (A) (A) (A) (A) (A) (A) (A) (A)
                 (A) (A) (A) (A) (A) (A) (A) (A) (A) (A) (A) (A)
                 (A) (A) (A) (A) (A) (A) (A) (A) (A) (A) (A) (A)
                 (A) (A) (A) (A) (A) (A) (A) (A) (A) (A) (A) (A)
                 (A) (A) (A) (A) (A) (A) (A) (A) (A) (A) (A) (A)
                 (A) (A) (A) (A) (A) (A) (A) (A) (A) (A) (A) (A)
                 (A) (A) (A) (A) (A) (A) (A) (A) (A) (A) (A) (A)
                 (A) (A) (A) (A) (A) (A) (A) (A) (A) (A) (A) (A)
                 (A) (A) (A) (A) (A) (A) (A) (A) (A) (A) (A) (A)
                 (A) (A) (A) (A) (A) (A) (A) (A) (A) (A) (A) (A)
                 (A) (A) (A) (A) (A) (A) (A) (A) (A) (A) (A) (A)
                 (A) (A) (A) (A) (A) (A) (A) (A) (A) (A) (A) (A)
                 (A) (A) (A) (A) (A) (A) (A) (A) (A) (A) (A) (A)
                 (A) (A) (A) (A) (A) (A) (A) (A) (A) (A) (A) (A)
                 (A) (A) (A) (A) (A) (A) (A) (A) (A) (A) (A) (A)
                 (A) (A) (A) (A) (A) (A) (A) (A) (A) (A) (A) (A)
                 (A) (A) (A) (A) (A) (A) (A) (A) (A) (A) (A) (A)
                 (A) (A) (A) (A) (A) (A) (A) (A) (A) (A) (A) (A)
                 (A) (A) (A) (A) (A) (A) (A) (A) (A) (A) (A) (A)
                 (A) (A) (A) (A) (A) (A) (A) (A) (A) (A) (A) (A)
                 (A) (A) (A) (A) (A) (A) (A) (A) (A) (A) (A) (A)
                 (A) (A) (A) (A) (A) (A) (A) (A) (A) (A) (A) (A)
                 (A) (A) (A) (A) (A) (A) (A) (A) (A) (A) (A) (A)
                 (A) (A) (A) (A) (A) (A) (A) (A) (A) (A) (A) (A)
                 (A) (A) (A) (A) (A) (A) (A) (A) (A) (A) (A) (A)
                 (A) (A) (A) (A) (A) (A) (A) (A) (A) (A) (A) (A)
                 (A) (A) (A) (A) (A) (A) (A) (A) (A) (A) (A) (A)
                 (A) (A) (A) (A) (A) (A) (A) (A) (A) (A) (A) (A)
                 (A) (A) (A) (A) (A) (A) (A) (A) (A) (A) (A) (A)
                 (A) (A) (A) (A) (A) (A) (A) (A) (A) (A) (A) (A)
                 (A) (A) (A) (A) (A) (A) (A) (A) (A) (A) (A) (A)
                 (A) (A) (A) (A) (A) (A) (A) (A) (A) (A) (A) (A)
                 (A) (A) (A) (A) (A) (A) (A) (A) (A) (A) (A) (A)
                 (A) (A) (A) (A) (A) (A) (A) (A) (A) (A) (A) (A)
                 (A) (A) (A) (A) (A) (A) (A) (A) (A) (A) (A) (A)
                 (A) (A) (A) (A) (A) (A) (A) (A) (A) (A) (A) (A)
                 (A) (A) (A) (A) (A) (A) (A) (A) (A) (A) (A) (A)
                 (A) (A) (A) (A) (A) (A) (A) (A) (A) (A) (A) (A)
                 (A) (A) (A) (A) (A) (A) (A) (A) (A) (A) (A) (A)
                 (A) (A) (A) (A) (A) (A) (A) (A) (A) (A) (A) (A)
                 (A) (A) (A) (A) (A) (A) (A) (A) (A) (A) (A) (A)
                 (A) (A) (A) (A) (A) (A) (A) (A) (A) (A) (A) (A)
                 (A) (A) (A) (A) (A) (A) (A) (A) (A) (A) (A) (A)
                 (A) (A) (A) (A) (A) (A) (A) (A) (A) (A) (A) (A)
                 (A) (A) (A) (A) (A) (A) (A) (A) (A) (A) (A) (A)
                 (A) (A) (A) (A) (A) (A) (A) (A) (A) (A) (A) (A)
                 (A)
 The electronic state is 1-A.
 Alpha  occ. eigenvalues --  -89.06080 -19.11392 -19.11339 -14.36065 -14.34760
 Alpha  occ. eigenvalues --  -10.21571 -10.21075 -10.21010 -10.20892 -10.20864
 Alpha  occ. eigenvalues --  -10.20800 -10.20684 -10.19989 -10.18357 -10.18122
 Alpha  occ. eigenvalues --  -10.18089 -10.18041 -10.17720 -10.17452 -10.17349
 Alpha  occ. eigenvalues --  -10.17255 -10.17195 -10.16745 -10.16734 -10.16551
 Alpha  occ. eigenvalues --   -8.12265  -6.08533  -6.08503  -6.08367  -1.11789
 Alpha  occ. eigenvalues --   -1.00638  -0.98589  -0.93920  -0.88403  -0.84598
 Alpha  occ. eigenvalues --   -0.81416  -0.80387  -0.79846  -0.76257  -0.74142
 Alpha  occ. eigenvalues --   -0.73084  -0.72168  -0.71204  -0.70225  -0.68877
 Alpha  occ. eigenvalues --   -0.66206  -0.62917  -0.61163  -0.59508  -0.59402
 Alpha  occ. eigenvalues --   -0.57419  -0.56405  -0.54749  -0.53476  -0.50817
 Alpha  occ. eigenvalues --   -0.50385  -0.49332  -0.48664  -0.47859  -0.46906
 Alpha  occ. eigenvalues --   -0.46024  -0.45130  -0.44262  -0.44001  -0.43936
 Alpha  occ. eigenvalues --   -0.43699  -0.43598  -0.42461  -0.42351  -0.41756
 Alpha  occ. eigenvalues --   -0.41732  -0.41572  -0.40810  -0.40577  -0.40371
 Alpha  occ. eigenvalues --   -0.39248  -0.38171  -0.37903  -0.37177  -0.36623
 Alpha  occ. eigenvalues --   -0.35869  -0.35660  -0.35244  -0.34558  -0.34140
 Alpha  occ. eigenvalues --   -0.33834  -0.32089  -0.30933  -0.30059  -0.27965
 Alpha  occ. eigenvalues --   -0.26742  -0.25711  -0.25538  -0.23083  -0.21171
 Alpha virt. eigenvalues --   -0.04522  -0.02559  -0.02451  -0.00563  -0.00391
 Alpha virt. eigenvalues --    0.00385   0.00931   0.01140   0.01387   0.02102
 Alpha virt. eigenvalues --    0.02413   0.02555   0.03166   0.03426   0.03562
 Alpha virt. eigenvalues --    0.04023   0.04298   0.04736   0.04765   0.04950
 Alpha virt. eigenvalues --    0.05300   0.05897   0.06089   0.06368   0.06990
 Alpha virt. eigenvalues --    0.07242   0.07322   0.07559   0.07671   0.08145
 Alpha virt. eigenvalues --    0.08241   0.08589   0.08800   0.09018   0.09551
 Alpha virt. eigenvalues --    0.09699   0.10017   0.10212   0.10318   0.10548
 Alpha virt. eigenvalues --    0.10945   0.11552   0.11678   0.11996   0.12286
 Alpha virt. eigenvalues --    0.12653   0.12796   0.13708   0.13816   0.14015
 Alpha virt. eigenvalues --    0.14096   0.14321   0.14393   0.14821   0.15015
 Alpha virt. eigenvalues --    0.15247   0.15409   0.15864   0.16258   0.16385
 Alpha virt. eigenvalues --    0.16454   0.16651   0.16796   0.16969   0.17428
 Alpha virt. eigenvalues --    0.17740   0.17939   0.18208   0.18330   0.18894
 Alpha virt. eigenvalues --    0.19132   0.19294   0.19645   0.19785   0.19994
 Alpha virt. eigenvalues --    0.20217   0.20355   0.20742   0.20981   0.21186
 Alpha virt. eigenvalues --    0.21432   0.21564   0.21803   0.21954   0.22050
 Alpha virt. eigenvalues --    0.22544   0.22709   0.22874   0.23315   0.23398
 Alpha virt. eigenvalues --    0.23651   0.23811   0.23993   0.24337   0.24474
 Alpha virt. eigenvalues --    0.24680   0.24943   0.25299   0.25450   0.25744
 Alpha virt. eigenvalues --    0.26089   0.26221   0.26608   0.26797   0.27018
 Alpha virt. eigenvalues --    0.27253   0.27706   0.27868   0.28326   0.28721
 Alpha virt. eigenvalues --    0.28777   0.29103   0.29355   0.29597   0.29868
 Alpha virt. eigenvalues --    0.30488   0.30622   0.30942   0.31175   0.31845
 Alpha virt. eigenvalues --    0.31992   0.32474   0.32896   0.33393   0.34018
 Alpha virt. eigenvalues --    0.34263   0.34626   0.34801   0.35040   0.35442
 Alpha virt. eigenvalues --    0.35661   0.36218   0.36778   0.37045   0.37442
 Alpha virt. eigenvalues --    0.38538   0.38669   0.38917   0.40157   0.40386
 Alpha virt. eigenvalues --    0.41234   0.42283   0.42419   0.42717   0.43495
 Alpha virt. eigenvalues --    0.43718   0.44109   0.45014   0.45217   0.46038
 Alpha virt. eigenvalues --    0.46373   0.47145   0.47752   0.48271   0.49473
 Alpha virt. eigenvalues --    0.49794   0.50272   0.51033   0.51497   0.51987
 Alpha virt. eigenvalues --    0.52223   0.53047   0.53399   0.54401   0.54823
 Alpha virt. eigenvalues --    0.55283   0.55725   0.55989   0.56340   0.56964
 Alpha virt. eigenvalues --    0.57427   0.57655   0.58102   0.58803   0.58990
 Alpha virt. eigenvalues --    0.59670   0.60063   0.60258   0.61036   0.61313
 Alpha virt. eigenvalues --    0.61589   0.62190   0.62340   0.63028   0.63705
 Alpha virt. eigenvalues --    0.64012   0.64699   0.64823   0.65110   0.65467
 Alpha virt. eigenvalues --    0.65871   0.66248   0.66612   0.66901   0.67261
 Alpha virt. eigenvalues --    0.67530   0.67951   0.68470   0.68640   0.69221
 Alpha virt. eigenvalues --    0.69609   0.70215   0.70549   0.70907   0.70980
 Alpha virt. eigenvalues --    0.71699   0.72122   0.72331   0.72514   0.73277
 Alpha virt. eigenvalues --    0.73387   0.74057   0.74371   0.74877   0.76010
 Alpha virt. eigenvalues --    0.76701   0.76840   0.77234   0.77968   0.78311
 Alpha virt. eigenvalues --    0.78985   0.79038   0.80249   0.80995   0.81945
 Alpha virt. eigenvalues --    0.82322   0.83378   0.84953   0.85268   0.85840
 Alpha virt. eigenvalues --    0.86332   0.87003   0.87812   0.88332   0.88467
 Alpha virt. eigenvalues --    0.88758   0.89340   0.90408   0.90938   0.91172
 Alpha virt. eigenvalues --    0.92176   0.92831   0.93157   0.93770   0.93842
 Alpha virt. eigenvalues --    0.94516   0.95288   0.95969   0.97175   0.97660
 Alpha virt. eigenvalues --    0.98372   0.99327   0.99377   1.00656   1.00720
 Alpha virt. eigenvalues --    1.01313   1.01659   1.01762   1.02822   1.03062
 Alpha virt. eigenvalues --    1.04135   1.04403   1.05702   1.07068   1.07191
 Alpha virt. eigenvalues --    1.07671   1.08758   1.09168   1.10395   1.11538
 Alpha virt. eigenvalues --    1.11711   1.12235   1.12449   1.13733   1.15209
 Alpha virt. eigenvalues --    1.16076   1.17300   1.18149   1.19310   1.20116
 Alpha virt. eigenvalues --    1.20381   1.21817   1.22503   1.23556   1.25390
 Alpha virt. eigenvalues --    1.26960   1.27674   1.28295   1.29707   1.32276
 Alpha virt. eigenvalues --    1.32756   1.33099   1.34006   1.35156   1.35871
 Alpha virt. eigenvalues --    1.36533   1.36623   1.38340   1.38471   1.38800
 Alpha virt. eigenvalues --    1.43770   1.44383   1.45047   1.45630   1.47252
 Alpha virt. eigenvalues --    1.48165   1.48757   1.49273   1.50209   1.50499
 Alpha virt. eigenvalues --    1.51005   1.51601   1.52358   1.52831   1.53886
 Alpha virt. eigenvalues --    1.54032   1.54825   1.55461   1.55815   1.56333
 Alpha virt. eigenvalues --    1.56646   1.57098   1.57131   1.57879   1.58234
 Alpha virt. eigenvalues --    1.58469   1.58686   1.59358   1.59866   1.60274
 Alpha virt. eigenvalues --    1.60844   1.61023   1.62870   1.63375   1.63924
 Alpha virt. eigenvalues --    1.64880   1.65524   1.66548   1.66762   1.68219
 Alpha virt. eigenvalues --    1.69231   1.69424   1.70215   1.70708   1.71319
 Alpha virt. eigenvalues --    1.71742   1.72853   1.73343   1.73519   1.73723
 Alpha virt. eigenvalues --    1.74451   1.75121   1.76708   1.76920   1.77680
 Alpha virt. eigenvalues --    1.78623   1.79852   1.80329   1.81360   1.81896
 Alpha virt. eigenvalues --    1.82982   1.83723   1.84650   1.85770   1.86041
 Alpha virt. eigenvalues --    1.87777   1.87881   1.88712   1.89285   1.89649
 Alpha virt. eigenvalues --    1.90299   1.90808   1.91504   1.91830   1.92924
 Alpha virt. eigenvalues --    1.93590   1.94380   1.94919   1.95381   1.96777
 Alpha virt. eigenvalues --    1.97943   1.98517   1.99059   2.00318   2.01423
 Alpha virt. eigenvalues --    2.02207   2.02539   2.03104   2.04374   2.05212
 Alpha virt. eigenvalues --    2.05746   2.06726   2.08206   2.09260   2.09696
 Alpha virt. eigenvalues --    2.10267   2.11244   2.11779   2.13802   2.14702
 Alpha virt. eigenvalues --    2.15511   2.17259   2.18152   2.19328   2.21031
 Alpha virt. eigenvalues --    2.22821   2.23892   2.24725   2.25627   2.25919
 Alpha virt. eigenvalues --    2.26876   2.27620   2.28069   2.28672   2.31542
 Alpha virt. eigenvalues --    2.32879   2.32959   2.34417   2.36842   2.38082
 Alpha virt. eigenvalues --    2.38172   2.40116   2.40904   2.41700   2.42704
 Alpha virt. eigenvalues --    2.42982   2.44555   2.45051   2.46545   2.46797
 Alpha virt. eigenvalues --    2.48246   2.49230   2.51057   2.51339   2.52152
 Alpha virt. eigenvalues --    2.52419   2.53040   2.53958   2.55476   2.55951
 Alpha virt. eigenvalues --    2.57269   2.57546   2.57784   2.58159   2.59252
 Alpha virt. eigenvalues --    2.60283   2.61147   2.62294   2.62600   2.63265
 Alpha virt. eigenvalues --    2.64715   2.65699   2.66285   2.67364   2.67889
 Alpha virt. eigenvalues --    2.68787   2.69615   2.70134   2.70427   2.71044
 Alpha virt. eigenvalues --    2.71681   2.72119   2.72309   2.72892   2.74191
 Alpha virt. eigenvalues --    2.75247   2.75857   2.76206   2.76598   2.77410
 Alpha virt. eigenvalues --    2.77870   2.78593   2.79812   2.80560   2.81005
 Alpha virt. eigenvalues --    2.82793   2.82976   2.84015   2.84701   2.84843
 Alpha virt. eigenvalues --    2.85238   2.85574   2.87072   2.87425   2.88714
 Alpha virt. eigenvalues --    2.89718   2.90796   2.91525   2.92120   2.93007
 Alpha virt. eigenvalues --    2.93362   2.93564   2.94201   2.95943   2.96469
 Alpha virt. eigenvalues --    2.97222   2.98616   2.99092   3.00490   3.02529
 Alpha virt. eigenvalues --    3.03940   3.04667   3.05339   3.08201   3.09516
 Alpha virt. eigenvalues --    3.10310   3.12651   3.12878   3.14789   3.17451
 Alpha virt. eigenvalues --    3.18768   3.19379   3.20581   3.22232   3.25918
 Alpha virt. eigenvalues --    3.28087   3.28826   3.33444   3.37237   3.40763
 Alpha virt. eigenvalues --    3.44696   3.45303   3.46847   3.49922   3.51282
 Alpha virt. eigenvalues --    3.53581   3.54949   3.57252   3.62811   3.64225
 Alpha virt. eigenvalues --    3.64734   3.65650   3.65935   3.68083   3.68772
 Alpha virt. eigenvalues --    3.75430   3.77589   3.78539   3.79277   3.79765
 Alpha virt. eigenvalues --    3.81328   3.82474   3.82916   3.84931   3.85817
 Alpha virt. eigenvalues --    3.89209   3.89577   3.95722   3.98294   4.03568
 Alpha virt. eigenvalues --    4.03996   4.09402   4.11855   4.13597   4.20659
 Alpha virt. eigenvalues --    4.28991   4.34564   4.36021   4.37341   4.44506
 Alpha virt. eigenvalues --    4.50419   4.82624   4.83090   4.84105   4.93756
 Alpha virt. eigenvalues --    5.08295   5.14641   5.15073   5.17298   5.19171
 Alpha virt. eigenvalues --    5.21902   5.35162   8.25355  17.41637  17.48054
 Alpha virt. eigenvalues --   17.59971  23.55461  23.60944  23.81813  23.87978
 Alpha virt. eigenvalues --   23.90285  23.90806  23.93095  23.94458  23.94884
 Alpha virt. eigenvalues --   23.95277  23.96807  23.98790  24.00086  24.04126
 Alpha virt. eigenvalues --   24.05098  24.08736  24.10636  24.15253  24.16181
 Alpha virt. eigenvalues --   24.19278  35.51435  35.65551  49.93390  49.97430
 Alpha virt. eigenvalues --  189.37099
          Condensed to atoms (all electrons):
               1          2          3          4          5          6
     1  C   13.907072   1.264193  -0.795829  -1.312108   0.404667  -0.640289
     2  C    1.264193  10.707291  -1.966997  -1.573999  -0.992217  -1.338434
     3  C   -0.795829  -1.966997  10.893960  -2.513914   0.012519   0.721777
     4  C   -1.312108  -1.573999  -2.513914  10.689399   0.714520  -0.232800
     5  C    0.404667  -0.992217   0.012519   0.714520   5.743896   0.806251
     6  C   -0.640289  -1.338434   0.721777  -0.232800   0.806251   7.477293
     7  C   -1.068825  -0.345979  -0.487493   0.627622  -0.127413  -0.337713
     8  C   -2.889295   0.804731  -0.254014   1.061947  -0.520532  -0.254476
     9  H   -0.008530  -0.017041   0.398987  -0.088405  -0.002036  -0.008797
    10  H   -0.019459   0.046529  -0.074730   0.395305  -0.019202   0.005364
    11  H    0.026201   0.055674  -0.045890  -0.013614   0.350566  -0.039849
    12  H   -0.109001   0.008812   0.007212  -0.011399   0.049367   0.411503
    13  H   -0.049658   0.040941  -0.010499   0.003805  -0.004894  -0.043718
    14  H   -0.057777   0.009226   0.013412   0.005389  -0.002206  -0.005654
    15  N    0.089219   0.054859  -0.079311   0.004324  -0.019001  -0.265456
    16  C   -3.014723  -3.648598   2.488771  -0.550886  -0.134612   0.302838
    17  H   -0.050188  -0.132397   0.132273   0.056861   0.001237  -0.003497
    18  H    0.043230   0.049332  -0.054472  -0.029296   0.000086   0.002406
    19  C    0.713095   1.569024  -1.694437  -0.833047  -0.015674   0.016442
    20  H   -0.013834  -0.006633   0.003001   0.001405  -0.000408  -0.001345
    21  H   -0.017392  -0.023140   0.015812   0.001819  -0.000170  -0.000721
    22  N    0.034092  -0.105098   0.049280  -0.006401   0.001790   0.008092
    23  C   -0.013734  -0.102544   0.009692  -0.005819  -0.000537   0.004070
    24  H   -0.001370  -0.003445   0.000535   0.000116  -0.000020  -0.000065
    25  H   -0.001772  -0.010515   0.006420   0.000806  -0.000004   0.000063
    26  H    0.000046   0.001125  -0.000474  -0.000025   0.000001  -0.000008
    27  S   -0.045376  -0.061779   0.059842   0.015107  -0.000697  -0.001993
    28  O   -0.002284  -0.027626   0.003749   0.000203  -0.000035   0.000445
    29  O   -0.000032   0.007707  -0.002145  -0.000131   0.000005  -0.000109
    30  C    0.021334   0.006944  -0.006408  -0.001100  -0.000065   0.002665
    31  C   -0.014424  -0.044520   0.030151   0.008926  -0.000140   0.000577
    32  C   -0.002948  -0.009360   0.001697   0.000034  -0.000033  -0.000097
    33  C    0.004548   0.025503  -0.005197  -0.000556   0.000088  -0.000108
    34  C   -0.000701   0.001284  -0.003853  -0.000523   0.000001  -0.000075
    35  C    0.000605   0.004711  -0.001386  -0.000151   0.000007  -0.000005
    36  H    0.000001  -0.000005   0.000001   0.000000   0.000000   0.000000
    37  H    0.000000   0.000000   0.000000   0.000000   0.000000   0.000000
    38  C   -0.000168  -0.005238   0.000359  -0.000030  -0.000008   0.000046
    39  H    0.000000  -0.000001   0.000001   0.000000   0.000000   0.000000
    40  H    0.000001  -0.000003   0.000016   0.000001   0.000000   0.000000
    41  H    0.000000   0.000000   0.000000   0.000000   0.000000   0.000000
    42  C    0.028323   0.108991  -0.066539  -0.017106   0.000500  -0.001689
    43  H    0.000049   0.000326  -0.000012   0.000010   0.000001  -0.000001
    44  H   -0.001690  -0.010052   0.004242   0.000481  -0.000026   0.000094
    45  H   -0.000102  -0.000422   0.000056   0.000000  -0.000001  -0.000004
    46  C    0.000014   0.000082  -0.000009   0.000002   0.000000   0.000000
    47  H    0.000000   0.000000   0.000000   0.000000   0.000000   0.000000
    48  H    0.000000   0.000000   0.000000   0.000000   0.000000   0.000000
    49  H    0.000000   0.000000   0.000000   0.000000   0.000000   0.000000
               7          8          9         10         11         12
     1  C   -1.068825  -2.889295  -0.008530  -0.019459   0.026201  -0.109001
     2  C   -0.345979   0.804731  -0.017041   0.046529   0.055674   0.008812
     3  C   -0.487493  -0.254014   0.398987  -0.074730  -0.045890   0.007212
     4  C    0.627622   1.061947  -0.088405   0.395305  -0.013614  -0.011399
     5  C   -0.127413  -0.520532  -0.002036  -0.019202   0.350566   0.049367
     6  C   -0.337713  -0.254476  -0.008797   0.005364  -0.039849   0.411503
     7  C    8.417381   0.130231   0.008769   0.001089   0.003344   0.004343
     8  C    0.130231   9.468710   0.009083   0.007166   0.010258  -0.010023
     9  H    0.008769   0.009083   0.555668  -0.007848  -0.000268   0.000068
    10  H    0.001089   0.007166  -0.007848   0.549514  -0.007660  -0.000273
    11  H    0.003344   0.010258  -0.000268  -0.007660   0.547282  -0.007773
    12  H    0.004343  -0.010023   0.000068  -0.000273  -0.007773   0.554761
    13  H   -0.020300   0.024971   0.000017  -0.000002   0.000016   0.002310
    14  H    0.492417  -0.068466  -0.000012   0.000000   0.000000   0.000007
    15  N    0.184712   0.050841  -0.000852   0.000774  -0.000944  -0.006401
    16  C    0.904335   0.466141   0.035929   0.003993   0.000979   0.000913
    17  H    0.012482  -0.026527  -0.000412   0.000003   0.000000   0.000000
    18  H   -0.029721  -0.015603  -0.000226   0.000001   0.000000   0.000000
    19  C   -2.058566  -3.012446   0.008984  -0.000121   0.000015  -0.000181
    20  H    0.053382  -0.034976   0.000005   0.000000   0.000000   0.000000
    21  H   -0.004148  -0.077393  -0.000010   0.000000   0.000000   0.000000
    22  N   -0.051061   0.503499   0.000013   0.000002   0.000000   0.000001
    23  C   -0.004401  -0.043529   0.000171   0.000007   0.000001   0.000000
    24  H    0.006701  -0.014933   0.000002   0.000000   0.000000   0.000000
    25  H    0.001048  -0.004730  -0.000016   0.000000   0.000000   0.000000
    26  H   -0.000451  -0.001752   0.000001   0.000000   0.000000   0.000000
    27  S    0.101914  -0.127901  -0.000109   0.000001   0.000000   0.000000
    28  O    0.002217  -0.034863  -0.000002   0.000000   0.000000   0.000000
    29  O   -0.004691   0.002434   0.000001   0.000000   0.000000   0.000000
    30  C   -0.028931   0.175438  -0.000070   0.000000   0.000000   0.000000
    31  C    0.017465  -0.034396  -0.000071   0.000000   0.000000   0.000000
    32  C    0.002192  -0.031609   0.000000   0.000000   0.000000   0.000000
    33  C   -0.009017   0.066898   0.000010   0.000000   0.000000   0.000000
    34  C   -0.002699  -0.078969   0.000004   0.000000   0.000000   0.000000
    35  C   -0.001909   0.015049   0.000001   0.000000   0.000000   0.000000
    36  H    0.000001   0.000101   0.000000   0.000000   0.000000   0.000000
    37  H    0.000000   0.000003   0.000000   0.000000   0.000000   0.000000
    38  C    0.002176  -0.005664  -0.000001   0.000000   0.000000   0.000000
    39  H   -0.000002   0.000061   0.000000   0.000000   0.000000   0.000000
    40  H    0.000016   0.000564   0.000000   0.000000   0.000000   0.000000
    41  H    0.000000  -0.000015   0.000000   0.000000   0.000000   0.000000
    42  C   -0.078420  -0.129869   0.000153   0.000000   0.000000   0.000000
    43  H    0.000157   0.002168   0.000000   0.000000   0.000000   0.000000
    44  H    0.003559  -0.009033  -0.000003   0.000000   0.000000   0.000000
    45  H   -0.000027  -0.003724   0.000000   0.000000   0.000000   0.000000
    46  C   -0.000037   0.000648   0.000000   0.000000   0.000000   0.000000
    47  H    0.000000  -0.000001   0.000000   0.000000   0.000000   0.000000
    48  H    0.000000   0.000000   0.000000   0.000000   0.000000   0.000000
    49  H    0.000000   0.000000   0.000000   0.000000   0.000000   0.000000
              13         14         15         16         17         18
     1  C   -0.049658  -0.057777   0.089219  -3.014723  -0.050188   0.043230
     2  C    0.040941   0.009226   0.054859  -3.648598  -0.132397   0.049332
     3  C   -0.010499   0.013412  -0.079311   2.488771   0.132273  -0.054472
     4  C    0.003805   0.005389   0.004324  -0.550886   0.056861  -0.029296
     5  C   -0.004894  -0.002206  -0.019001  -0.134612   0.001237   0.000086
     6  C   -0.043718  -0.005654  -0.265456   0.302838  -0.003497   0.002406
     7  C   -0.020300   0.492417   0.184712   0.904335   0.012482  -0.029721
     8  C    0.024971  -0.068466   0.050841   0.466141  -0.026527  -0.015603
     9  H    0.000017  -0.000012  -0.000852   0.035929  -0.000412  -0.000226
    10  H   -0.000002   0.000000   0.000774   0.003993   0.000003   0.000001
    11  H    0.000016   0.000000  -0.000944   0.000979   0.000000   0.000000
    12  H    0.002310   0.000007  -0.006401   0.000913   0.000000   0.000000
[...]
 -0.00000375,-0.00000062,0.00000225,0.00017167,0.00013725,-0.00003335,-
 0.00001974,0.00000954,-0.00002658,0.00000324,0.00000445,0.00000635,0.0
 0000784,-0.00000023,-0.00000177,-0.00001342,0.00001262,-0.00002087,0.0
 0028125,-0.00040859,-0.00000189,-0.00002389,-0.00003638,0.00004297,-0.
 00001846,0.00005978,-0.00002551,0.00038753,-0.00033889,-0.00083537,-0.
 00239989,0.00280922,0.00280248,-0.00354652,0.00341464,0.00029750,-0.01
 648575,-0.01761633,-0.00830155,-0.00655832,-0.00282472,-0.00732142,-0.
 05758797,-0.14794532,-0.03968068,0.00194169,0.00000079,-0.00089353,0.0
 0214514,-0.00077815,0.00220938,0.00038256,-0.00002575,0.00011147,-0.00
 003881,0.00002708,-0.00003706,-0.00004257,0.00001054,0.00010951,0.0000
 2687,-0.00005184,-0.00000012,0.00006119,-0.00037537,-0.00021495,0.0000
 2363,0.00000935,-0.00001182,-0.00002992,-0.00001336,0.00000758,-0.0001
 2363,-0.00005574,0.00005308,-0.01397483,0.51354021,-0.00000883,-0.0000
 1115,0.00000046,0.00000700,-0.00001146,-0.00000453,0.00000214,-0.00000
 182,0.00000130,-0.00000414,-0.00000080,0.00000001,-0.00000423,0.000003
 55,0.00000357,0.00000392,-0.00000115,-0.00000273,0.00001116,0.00001763
 ,0.00000044,-0.00000083,0.00001760,0.00001797,0.00000214,-0.00000141,-
 0.00000193,-0.00000059,0.00000068,0.00000064,-0.00000277,-0.00000040,0
 .00000123,-0.00000123,-0.00000194,-0.00000010,-0.00000039,0.00000353,0
 .00000028,0.00000142,0.00000727,0.00000002,-0.00002257,-0.00001242,0.0
 0000845,-0.00001414,-0.00003214,-0.00004656,0.00000233,0.00000150,0.00
 000524,-0.00000700,0.00000208,0.00000775,-0.00001442,0.00010843,-0.000
 05219,-0.00003023,-0.00002154,-0.00000450,0.00001436,0.00000665,-0.000
 00911,-0.00033757,-0.00021543,0.00005410,-0.00001431,-0.00002165,0.000
 05259,-0.00000032,-0.00001144,-0.00001110,-0.00002594,0.00000066,-0.00
 000349,0.00002834,-0.00003788,0.00001842,0.00086726,0.00123341,0.00039
 546,-0.00020512,-0.00037514,0.00013505,-0.00008103,-0.00012245,-0.0001
 0798,-0.00083666,-0.00136693,-0.00222708,0.00470724,0.00373849,-0.0010
 7534,0.00170210,0.00053274,-0.00327556,0.00741790,0.00988712,0.0129400
 1,-0.01891381,-0.02605065,-0.01358849,-0.02181388,-0.03375320,-0.10778
 477,-0.00027914,0.00089504,0.00071660,-0.00110864,-0.00080335,0.000721
 87,-0.00057895,-0.00059535,0.00005824,-0.00002248,-0.00003832,-0.00012
 665,0.00001698,-0.00006169,-0.00018014,0.00005676,0.00008040,0.0000121
 2,0.00031801,0.00072364,0.00060773,-0.00005777,-0.00005447,0.00000845,
 0.00015994,0.00014268,-0.00014460,0.00015304,0.00014429,-0.00017356,-0
 .03125544,-0.03015661,0.55287497,-0.00000071,0.00000152,0.00000056,0.0
 0000037,-0.00000020,0.00000003,-0.00000080,-0.00000162,-0.00000015,-0.
 00000025,0.00000094,-0.00000029,0.00000025,0.,-0.00000035,-0.00000024,
 0.00000005,-0.00000006,-0.00000042,-0.00000178,-0.00000035,-0.00000225
 ,0.00000120,0.00000341,-0.00000017,0.00000046,0.00000037,0.00000007,-0
 .00000051,0.00000017,0.00000052,0.00000017,0.00000003,0.00000010,0.000
 00025,0.00000017,-0.00000003,-0.00000042,0.00000016,0.00000009,0.00000
 003,0.00000008,0.00000228,0.00000171,-0.00000091,-0.00000099,-0.000005
 71,-0.00000526,-0.00000161,0.00000086,-0.00000121,0.00000049,-0.000000
 68,0.00000250,-0.00000955,0.00001144,-0.00000960,-0.00000374,-0.000002
 59,0.00000096,0.00000150,0.00000284,-0.00000103,-0.00003473,-0.0000109
 3,0.00000890,-0.00000873,-0.00001521,0.00000846,-0.00000044,0.00000395
 ,-0.00000121,-0.00000843,-0.00000271,-0.00000291,0.00001081,-0.0000091
 5,-0.00000240,0.00017978,0.00020415,0.00007670,-0.00003554,-0.00005440
 ,0.00001830,-0.00000858,-0.00002228,-0.00004353,0.00002622,-0.00015490
 ,-0.00064473,0.00026711,0.00068653,0.00026533,-0.00089142,0.00007789,-
 0.00068315,0.00026647,-0.00038646,-0.00031314,-0.00135209,-0.00142883,
 -0.00012779,0.01143731,-0.01209494,-0.01316842,0.00004215,0.00021517,0
 .00021649,0.00019948,-0.00015101,-0.00016093,-0.00002063,-0.00011083,0
 .00002399,-0.00001588,-0.00000930,-0.00003239,-0.00000422,-0.00000808,
 -0.00001675,0.00001496,0.00001198,-0.00000681,0.00005588,0.00000572,0.
 00004829,0.00000358,-0.00001073,0.00000465,0.00001146,0.00000699,-0.00
 002650,-0.00000815,0.00000347,-0.00000522,-0.13027108,0.08343544,0.091
 13453,0.14213041,-0.00000608,-0.00001422,-0.00000106,0.00001058,-0.000
 00478,-0.00000500,0.00000136,-0.00000431,0.00000096,-0.00000240,-0.000
 00126,0.00000234,-0.00000523,0.00000180,0.00000381,0.00000449,0.000000
 16,-0.00000177,0.00000638,0.00001273,0.00000079,0.00000047,0.00001205,
 0.00000938,0.00000171,-0.00000020,-0.00000345,-0.00000271,0.00000169,0
 .00000043,-0.00000186,-0.00000010,0.00000018,-0.00000115,-0.00000108,-
 0.00000030,-0.00000052,0.00000219,-0.00000045,0.00000094,0.00000539,0.
 00000009,-0.00001853,-0.00000507,0.00000841,-0.00000468,-0.00001736,-0
 .00002369,-0.00000170,0.00000125,0.,0.00000174,-0.00000133,0.00000349,
 0.00002069,0.00007037,-0.00003757,-0.00002145,-0.00001389,-0.00000379,
 0.00001130,0.00000484,-0.00000273,-0.00019946,-0.00008576,0.00002709,-
 0.00000066,-0.00002532,0.00003170,-0.00000070,0.00000070,-0.00000928,-
 0.00002123,0.00000064,-0.00000500,0.00001991,-0.00002393,0.00000435,0.
 00061065,0.00053908,0.00027001,-0.00014501,-0.00020746,0.00005377,-0.0
 0009331,-0.00008218,-0.00009776,-0.00021003,-0.00048500,-0.00022227,-0
 .00031595,0.00049114,0.00001744,-0.00037577,0.00078012,-0.00062112,-0.
 00037080,0.00141435,-0.00100416,-0.00181065,-0.00233954,0.00038157,0.0
 1295229,-0.01348224,-0.01433221,0.00002388,-0.00053547,0.00075734,0.00
 021236,-0.00007273,-0.00013719,-0.00004516,-0.00015921,0.00004231,-0.0
 0001827,-0.00001101,-0.00003592,-0.00001444,-0.00001143,-0.00003285,0.
 00001522,0.00001439,0.00001042,0.00007772,-0.00003616,-0.00001240,-0.0
 0001198,-0.00001858,0.00005912,0.00000641,0.00000996,-0.00002063,-0.00
 001601,-0.00000148,0.00001031,0.08335499,-0.12952370,-0.08664371,-0.09
 011189,0.13910700,-0.00000162,-0.00000719,-0.00000117,0.00000603,0.000
 00003,-0.00000195,-0.00000078,-0.00000328,-0.00000255,-0.00000097,0.00
 000002,0.00000038,-0.00000270,0.00000084,0.00000103,0.00000190,0.00000
 078,-0.00000116,0.00000084,0.00000408,-0.00000033,-0.00000191,0.000004
 52,0.00000033,0.00000165,-0.00000025,0.00000003,-0.00000131,0.00000053
 ,0.00000124,-0.00000055,-0.00000018,0.00000051,-0.00000008,-0.00000021
 ,0.00000030,0.00000069,0.00000029,0.00000080,0.00000070,0.00000178,0.0
 0000125,-0.00000670,0.00000147,0.00000285,0.00000464,-0.00000562,0.000
 00104,-0.00000399,0.00000212,-0.00000200,0.00000204,-0.00000265,-0.000
 00037,0.00001739,0.00002122,-0.00000680,-0.00000422,-0.00000345,-0.000
 00272,0.00000805,0.00000299,-0.00000076,-0.00005164,0.00003837,-0.0000
 0418,-0.00000360,-0.00001970,0.00001467,0.00000222,0.00000644,-0.00000
 509,-0.00001624,-0.00000236,-0.00000150,0.00001431,-0.00001342,-0.0000
 0878,0.00026754,-0.00012830,0.00006023,-0.00007055,-0.00009124,0.00000
 342,-0.00007556,-0.00000937,-0.00000942,0.00003268,0.00010111,0.000582
 34,-0.00102201,-0.00029544,-0.00075092,-0.00056055,0.00056325,-0.00065
 730,0.00107498,0.00223208,0.00051047,-0.00140630,-0.00211104,-0.000191
 77,0.00541285,-0.00847691,-0.01041055,0.00042264,-0.00040507,0.0003558
 2,0.00031797,-0.00036957,0.00035594,-0.00004057,-0.00015389,-0.0000050
 5,-0.00000018,0.00000104,-0.00005554,-0.00001784,-0.00001364,-0.000043
 90,0.00001696,0.00000142,0.00003189,0.00001974,-0.00001348,-0.00000660
 ,0.00000891,-0.00000596,0.00000823,-0.00001572,-0.00001567,-0.00000391
 ,-0.00001337,-0.00001224,0.00001940,0.09107533,-0.08613044,-0.13636572
 ,-0.09728583,0.09815347,0.14769631,-0.00000617,-0.00001253,-0.00000058
 ,0.00000791,-0.00000656,-0.00000432,0.00000159,-0.00000088,0.00000037,
 -0.00000219,-0.00000205,0.00000188,-0.00000455,0.00000206,0.00000355,0
 .00000393,-0.00000040,-0.00000152,0.00000825,0.00001649,0.00000029,0.0
 0000409,0.00001119,0.00000645,0.00000180,-0.00000134,-0.00000277,-0.00
 000164,0.00000157,0.00000019,-0.00000215,-0.00000022,0.00000031,-0.000
 00138,-0.00000166,-0.00000045,-0.00000111,0.00000318,-0.00000034,0.000
 00094,0.00000541,-0.00000041,-0.00002113,-0.00001145,0.00000862,-0.000
 00481,-0.00001337,-0.00001654,0.00000084,0.00000009,0.00000143,0.00000
 006,0.00000017,-0.00000073,0.00002263,0.00006555,-0.00002628,-0.000018
 31,-0.00001238,-0.00000456,0.00000865,0.00000280,-0.00000114,-0.000168
 76,-0.00010075,0.00001495,0.00000632,-0.00001155,0.00002571,-0.0000027
 2,-0.00000424,-0.00000851,-0.00001253,0.00000190,-0.00000183,0.0000104
 1,-0.00001941,0.00001160,0.00034800,0.00054250,0.00019172,-0.00008679,
 -0.00017915,0.00003233,-0.00004938,-0.00009203,-0.00009088,-0.00016688
 ,-0.00012326,-0.00037584,0.00061957,-0.00041261,0.00023589,0.00020276,
 -0.00062928,-0.00014275,0.00121347,-0.00074010,-0.00076339,-0.00086965
 ,-0.00056238,0.00101079,-0.01253953,0.00429466,-0.00983401,-0.00069833
 ,0.00014314,0.00037383,-0.00008303,0.00012166,-0.00009083,-0.00006192,
 -0.00003131,0.00003561,0.00000249,-0.00001327,-0.00001812,-0.00000105,
 -0.00001574,-0.00001497,0.00000646,0.00001619,0.00000457,-0.00005057,0
 .00002596,-0.00004948,-0.00002849,0.00001253,0.00003867,-0.00000208,-0
 .00001031,0.00002726,0.00000352,-0.00000369,-0.00001960,-0.18506606,0.
 07389177,-0.10556317,-0.01431759,0.00785153,-0.01057611,0.20054110,-0.
 00000457,-0.00000753,-0.00000113,0.00000670,-0.00000468,-0.00000183,-0
 .00000057,-0.00000183,-0.00000193,-0.00000114,-0.00000076,0.00000143,-
 0.00000357,0.00000138,0.00000136,0.00000275,-0.00000004,-0.00000068,0.
 00000410,0.00000883,-0.00000050,-0.00000107,0.00000969,0.00000544,0.00
 000161,-0.00000058,-0.00000103,-0.00000126,0.00000060,0.00000077,-0.00
 000096,-0.00000012,0.00000041,-0.00000068,-0.00000067,0.00000007,-0.00
 000053,0.00000145,0.00000035,0.00000066,0.00000360,0.00000012,-0.00001
 180,-0.00000485,0.00000493,-0.00000341,-0.00001606,-0.00001190,-0.0000
 0170,0.00000164,-0.00000022,0.00000043,-0.00000088,0.00000033,0.000001
 65,0.00005472,-0.00002272,-0.00001515,-0.00001230,-0.00000387,0.000008
 19,0.00000567,-0.00000211,-0.00016316,-0.00008976,0.00000710,0.0000021
 5,-0.00002779,0.00003237,-0.00000336,-0.00000046,-0.00000884,-0.000017
 15,-0.00000201,-0.00000374,0.00001897,-0.00002047,0.00000987,0.0004118
 9,0.00057362,0.00022827,-0.00008692,-0.00015614,0.00002085,-0.00005347
 ,-0.00007713,-0.00011409,-0.00024007,-0.00040564,-0.00075326,0.0009605
 9,0.00009987,0.00039415,0.00073718,-0.00101264,-0.00018165,-0.00007552
 ,-0.00024088,-0.00042610,-0.00087807,-0.00148157,0.00019365,-0.0199855
 7,0.00962026,-0.01565596,-0.00016517,0.00015449,0.00034475,-0.00017636
 ,0.00023816,-0.00024745,-0.00016201,0.00002882,0.00001591,-0.00000154,
 -0.00001310,0.00000699,0.00000883,-0.00002700,-0.00003695,0.00001005,0
 .00002611,-0.00000958,-0.00008656,0.00010523,-0.00000456,-0.00001351,0
 .00000570,0.00002068,0.00000679,-0.00001906,0.00001452,0.00001542,0.00
 000786,-0.00003874,0.07195955,-0.08299723,0.05656850,0.01296419,-0.007
 71329,0.01060977,-0.07900037,0.09101403,-0.00000336,-0.00000592,0.0000
 0029,0.00000346,-0.00000409,-0.00000207,0.00000035,0.00000028,-0.00000
 098,-0.00000113,-0.00000092,0.00000030,-0.00000220,0.00000123,0.000001
 19,0.00000177,-0.00000023,-0.00000107,0.00000510,0.00001135,-0.0000001
 5,0.00000263,0.00000575,0.00000140,0.00000118,-0.00000143,-0.00000049,
 -0.00000027,0.00000061,0.00000050,-0.00000107,-0.00000017,0.00000054,-
 0.00000071,-0.00000122,0.00000004,-0.00000059,0.00000230,0.00000090,0.
 00000058,0.00000278,0.00000037,-0.00001282,-0.00000891,0.00000393,0.00
 000002,-0.00000710,-0.00000456,0.00000024,-0.00000013,0.00000057,0.000
 00016,-0.00000061,-0.00000204,0.00001125,0.00003820,-0.00001637,-0.000
 01142,-0.00000770,-0.00000362,0.00000349,0.00000112,0.00000090,-0.0000
 9930,-0.00007981,0.00000305,0.00001157,-0.00000923,0.00001405,-0.00000
 116,-0.00000028,-0.00000557,-0.00000384,0.00000175,0.00000082,0.000003
 78,-0.00000369,0.00000177,-0.00008861,0.00024740,0.00006105,0.00001168
 ,-0.00005706,-0.00000019,0.00000127,-0.00006169,-0.00003385,-0.0001809
 0,-0.00003226,0.00081521,-0.00020908,-0.00126599,-0.00098253,0.0011599
 8,-0.00035154,-0.00024294,0.00176929,0.00165028,0.00032652,-0.00106612
 ,-0.00202149,-0.00031428,-0.01044102,0.00231468,-0.00917879,-0.0003133
 4,0.00030759,0.00004855,-0.00058095,0.00039847,-0.00000331,-0.00015283
 ,-0.00002846,-0.00002482,-0.00000505,-0.00002476,-0.00001441,0.0000185
 8,-0.00000424,-0.00005466,-0.00001159,0.00002969,0.00001423,0.00000447
 ,0.00003374,-0.00000896,0.00000017,0.00000732,0.00000347,-0.00001395,-
 0.00001614,0.00000258,-0.00000570,-0.00001284,0.00000247,-0.10532613,0
 .05808405,-0.12354486,0.01478577,-0.00763001,0.01186358,0.11802383,-0.
 05996696,0.13370594,-0.00000152,-0.00000588,-0.00000048,0.00000421,-0.
 00000137,-0.00000178,-0.00000024,-0.00000063,-0.00000160,-0.00000119,-
 0.00000057,-0.00000068,-0.00000226,0.00000095,0.00000091,0.00000137,0.
 00000018,-0.00000121,0.00000195,0.00000723,-0.00000098,0.00000051,0.00
 000405,-0.00000268,0.00000178,-0.00000109,0.00000059,-0.00000058,0.000
 00053,0.00000108,-0.00000069,-0.00000027,0.00000062,-0.00000024,-0.000
 00067,0.00000030,0.00000040,0.00000083,0.00000139,0.00000089,0.0000014
 7,0.00000141,-0.00000916,-0.00000346,0.00000262,0.00000308,-0.00000298
 ,0.00000691,-0.00000311,0.00000139,-0.00000154,0.00000213,-0.00000197,
 -0.00000564,0.00000882,0.00002137,0.00000338,-0.00000401,-0.00000359,-
 0.00000461,0.00000512,0.00000421,0.00000149,-0.00003182,0.00000439,-0.
 00002802,-0.00000397,-0.00002662,0.00001828,-0.00000212,0.00000043,-0.
 00000858,-0.00000711,0.00000017,0.00000020,0.00000925,-0.00000954,0.00
 000665,0.00015651,0.00008138,0.00009816,-0.00003884,-0.00002802,-0.000
 03419,-0.00001868,-0.00002468,-0.00009462,0.00006577,0.00006381,-0.000
 02890,-0.00018530,-0.00051613,0.00078779,-0.00017679,0.00017693,-0.000
 14160,-0.00041902,-0.00295529,-0.00246991,0.00036977,0.00105480,0.0013
 9708,-0.00922113,-0.01026044,0.01329013,-0.00005730,0.00020682,-0.0001
 2090,0.00055298,-0.00001498,-0.00066514,-0.00005037,0.00000980,-0.0000
 1334,0.00000946,0.00001520,-0.00000371,-0.00000258,-0.00001026,-0.0000
 1395,0.00003084,-0.00000781,-0.00003344,-0.00021467,-0.00004129,-0.000
 18142,0.00001634,0.00002553,-0.00000991,-0.00004916,-0.00006477,0.0000
 6224,-0.00000773,-0.00001849,-0.00000007,-0.08942544,-0.06192172,0.074
 59904,-0.00765302,-0.01135698,0.01247083,0.01125400,0.01403355,-0.0172
 8748,0.09509289,-0.00000342,-0.00000847,-0.00000022,0.00000520,-0.0000
 0400,-0.00000314,0.00000044,-0.00000042,-0.00000112,-0.00000159,-0.000
 00131,-0.00000006,-0.00000317,0.00000150,0.00000169,0.00000249,0.00000
 031,-0.00000150,0.00000504,0.00001387,-0.00000073,0.00000352,0.0000066
 7,-0.00000142,0.00000191,-0.00000165,-0.00000049,-0.00000075,0.0000009
 3,0.00000088,-0.00000135,-0.00000027,0.00000074,-0.00000074,-0.0000014
 6,0.00000020,-0.00000010,0.00000233,0.00000169,0.00000129,0.00000313,0
 .00000153,-0.00001608,-0.00000910,0.00000468,0.00000200,-0.00000469,0.
 00000204,-0.00000192,0.00000066,-0.00000092,0.00000217,-0.00000255,-0.
 00000593,0.00001569,0.00003672,-0.00000416,-0.00001065,-0.00000670,-0.
 00000680,0.00000553,0.00000542,0.00000196,-0.00007560,-0.00004200,-0.0
 0003500,0.00000250,-0.00002329,0.00002522,-0.00000492,-0.00000243,-0.0
 0001039,-0.00000651,0.00000191,-0.00000149,0.00000821,-0.00000915,0.00
 001159,0.00028767,0.00028195,0.00019491,-0.00005553,-0.00005944,-0.000
 02958,-0.00002600,-0.00004738,-0.00016450,0.00006586,-0.00001431,-0.00
 040371,-0.00063482,0.00026691,0.00134709,-0.00002085,-0.00002530,-0.00
 010266,-0.00255719,-0.00264657,-0.00356186,0.00031729,0.00108700,0.002
 02224,-0.00896764,-0.01435654,0.01796157,0.00021196,-0.00009118,0.0000
 4979,0.00032323,0.00029986,-0.00115072,0.00002927,-0.00004999,0.000012
 77,-0.00000409,0.00000300,-0.00001698,0.00001152,0.00000922,0.00000361
 ,0.00001065,0.00002428,-0.00006368,-0.00000560,-0.00027021,-0.00019186
 ,0.00002736,0.00002542,-0.00000868,-0.00003254,-0.00003496,0.00001751,
 -0.00006294,-0.00004687,0.00005094,-0.06237140,-0.13700410,0.10628861,
 0.00695820,0.01240824,-0.01345705,-0.00499806,-0.00762726,0.00846633,0
 .07156447,0.14791230,0.00000299,0.00000707,0.00000038,-0.00000393,0.00
 000298,0.00000223,-0.00000035,-0.00000062,0.00000149,0.00000181,0.0000
 0150,0.00000101,0.00000266,-0.00000188,-0.00000108,-0.00000206,0.00000
 013,0.00000156,-0.00000475,-0.00001169,0.00000075,-0.00000295,-0.00000
 507,0.00000137,-0.00000190,0.00000195,-0.00000042,0.00000014,-0.000000
 82,-0.00000121,0.00000121,0.00000036,-0.00000099,0.00000047,0.00000151
 ,-0.00000034,-0.00000046,-0.00000197,-0.00000186,-0.00000127,-0.000002
 51,-0.00000139,0.00001410,0.00000768,-0.00000352,-0.00000213,0.0000033
 2,-0.00000194,0.00000062,-0.00000058,-0.00000028,0.00000042,0.00000119
 ,0.00000408,-0.00001723,-0.00002738,-0.00000088,0.00000531,0.00000374,
 0.00000530,-0.00000521,-0.00000095,-0.00000135,0.00005645,0.00001432,0
 .00001510,-0.00000262,0.00000596,-0.00001383,0.00000078,0.00000217,0.0
 0000601,0.00000568,-0.00000147,-0.00000118,-0.00000575,0.00000766,-0.0
 0000283,-0.00013575,-0.00007092,-0.00004820,0.00003800,0.00006965,0.00
 000216,0.00003485,0.00003588,0.00004833,-0.00001652,-0.00002040,0.0001
 2193,-0.00052931,-0.00043822,0.00045971,0.00010825,-0.00001610,0.00033
 363,-0.00126849,-0.00174313,-0.00135427,-0.00094680,-0.00117175,0.0007
 6417,-0.00630888,-0.00937491,0.01059687,-0.00018515,-0.00021481,0.0002
 0967,0.00001926,0.00021489,0.00006703,0.00005016,0.00008208,0.00000343
 ,0.00000115,0.00000700,0.00003089,0.00000151,0.00000657,0.00003027,-0.
 00000112,-0.00001046,-0.00002194,-0.00005057,-0.00006897,-0.00008772,-
 0.00000219,0.00000132,0.00001761,-0.00001002,-0.00001465,0.00001122,-0
 .00001275,-0.00001285,0.00000309,0.07726666,0.10992725,-0.17991197,0.0
 0594109,0.01103556,-0.01297198,0.00755930,0.00901324,-0.01243369,-0.08
 159474,-0.11724290,0.19412360\\0.00000084,0.00000100,0.00000316,0.0000
 0063,-0.00000010,0.00000316,0.00000083,0.00000121,0.00000222,0.0000008
 3,0.00000168,0.00000308,0.00000081,0.00000089,0.00000387,-0.00000006,0
 .00000133,0.00000470,0.00000049,0.00000124,0.00000406,-0.00000025,0.00
 000094,0.00000357,0.00000056,0.00000121,0.00000122,0.00000074,0.000001
 73,0.00000250,0.00000083,0.00000191,0.00000462,0.00000051,0.00000076,0
 .00000549,0.00000044,-0.00000024,0.00000557,-0.00000048,-0.00000059,0.
 00000319,-0.00000139,-0.00000088,0.00000364,-0.00000022,-0.00000056,0.
 00000120,0.00000041,-0.00000013,0.00000041,0.00000005,0.00000013,0.000
 00062,-0.00000319,-0.00000202,0.00000289,-0.00000034,-0.00000060,0.000
 00205,-0.00000011,-0.00000037,0.00000113,0.00000378,-0.00000031,-0.000
 00421,-0.00000068,-0.00000142,-0.00000015,-0.00000054,-0.00000203,-0.0
 0000073,-0.00000084,-0.00000166,-0.00000098,-0.00000077,-0.00000103,-0
 .00000146,-0.00000580,0.00000059,0.00000282,0.00000140,-0.00000139,0.0
 0000017,-0.00000066,-0.00000238,-0.00000162,0.00000258,0.00000020,-0.0
 0000725,0.00000109,0.00000209,0.00000265,-0.00000296,-0.00000389,-0.00
 000030,-0.00000214,-0.00000263,-0.00000117,0.00000125,0.00000008,0.000
 00007,0.00000063,0.00000402,-0.00001170,0.00000090,0.00000198,-0.00000
 286,-0.00000038,-0.00000123,-0.00000455,-0.00000200,-0.00000170,-0.000
 00329,-0.00000065,-0.00000243,-0.00000149,-0.00000049,-0.00000217,-0.0
 0000182,-0.00000099,-0.00000236,-0.00000372,0.00000161,-0.00000005,-0.
 00000003,0.00000131,0.00000225,-0.00000139,-0.00000005,0.00000189,-0.0
 0000030,0.00000021,0.00000205,-0.00000024,-0.00000100,0.00000381,-0.00
 000506,0.00000072,-0.00000037,-0.00000466,0.00000198,0.00000047,-0.000
 00400,0.00000056,-0.00000092,-0.00000506\\\@


 THERE ARE TWO THINGS THAT EVERYBODY THINKS THEY CAN DO BETTER THAN
 ANYONE ELSE - PUNCH THE FIRE, AND EDIT A DAILY PAPER.
 -- UNCLE ESEK, "CENTURY MAGAZINE", 1885
 Job cpu time:       1 days  3 hours  2 minutes 44.4 seconds.
 File lengths (MBytes):  RWF=   2050 Int=      0 D2E=      0 Chk=     37 Scr=      1
 Normal termination of Gaussian 09 at Wed Jan 11 16:16:42 2023.
