 Entering Gaussian System, Link 0=g09
 Initial command:
 /cm/shared/apps/gaussian/g09revD.01/g09/l1.exe "//home/sweav003/CHB/CHActivation_Mkhalid/OtherCharges/G09-Table9_8.com.o9447160.tmp/Gau-99691.inp" -scrdir="//home/sweav003/CHB/CHActivation_Mkhalid/OtherCharges/G09-Table9_8.com.o9447160.tmp/"
 Entering Link 1 = /cm/shared/apps/gaussian/g09revD.01/g09/l1.exe PID=     99692.
  
 Copyright (c) 1988,1990,1992,1993,1995,1998,2003,2009,2013,
            Gaussian, Inc.  All Rights Reserved.
  
 This is part of the Gaussian(R) 09 program.  It is based on
 the Gaussian(R) 03 system (copyright 2003, Gaussian, Inc.),
 the Gaussian(R) 98 system (copyright 1998, Gaussian, Inc.),
 the Gaussian(R) 94 system (copyright 1995, Gaussian, Inc.),
 the Gaussian 92(TM) system (copyright 1992, Gaussian, Inc.),
 the Gaussian 90(TM) system (copyright 1990, Gaussian, Inc.),
 the Gaussian 88(TM) system (copyright 1988, Gaussian, Inc.),
 the Gaussian 86(TM) system (copyright 1986, Carnegie Mellon
 University), and the Gaussian 82(TM) system (copyright 1983,
 Carnegie Mellon University). Gaussian is a federally registered
 trademark of Gaussian, Inc.
  
 This software contains proprietary and confidential information,
 including trade secrets, belonging to Gaussian, Inc.
  
 This software is provided under written license and may be
 used, copied, transmitted, or stored only in accord with that
 written license.
  
 The following legend is applicable only to US Government
 contracts under FAR:
  
                    RESTRICTED RIGHTS LEGEND
  
 Use, reproduction and disclosure by the US Government is
 subject to restrictions as set forth in subparagraphs (a)
 and (c) of the Commercial Computer Software - Restricted
 Rights clause in FAR 52.227-19.
  
 Gaussian, Inc.
 340 Quinnipiac St., Bldg. 40, Wallingford CT 06492
  
  
 ---------------------------------------------------------------
 Warning -- This program may not be used in any manner that
 competes with the business of Gaussian, Inc. or will provide
 assistance to any competitor of Gaussian, Inc.  The licensee
 of this program is prohibited from giving any competitor of
 Gaussian, Inc. access to this program.  By using this program,
 the user acknowledges that Gaussian, Inc. is engaged in the
 business of creating and licensing software in the field of
 computational chemistry and represents and warrants to the
 licensee that it is not a competitor of Gaussian, Inc. and that
 it will not use this program in any manner prohibited above.
 ---------------------------------------------------------------
  

 Cite this work as:
 Gaussian 09, Revision D.01,
 M. J. Frisch, G. W. Trucks, H. B. Schlegel, G. E. Scuseria, 
 M. A. Robb, J. R. Cheeseman, G. Scalmani, V. Barone, B. Mennucci, 
 G. A. Petersson, H. Nakatsuji, M. Caricato, X. Li, H. P. Hratchian, 
 A. F. Izmaylov, J. Bloino, G. Zheng, J. L. Sonnenberg, M. Hada, 
 M. Ehara, K. Toyota, R. Fukuda, J. Hasegawa, M. Ishida, T. Nakajima, 
 Y. Honda, O. Kitao, H. Nakai, T. Vreven, J. A. Montgomery, Jr., 
 J. E. Peralta, F. Ogliaro, M. Bearpark, J. J. Heyd, E. Brothers, 
 K. N. Kudin, V. N. Staroverov, T. Keith, R. Kobayashi, J. Normand, 
 K. Raghavachari, A. Rendell, J. C. Burant, S. S. Iyengar, J. Tomasi, 
 M. Cossi, N. Rega, J. M. Millam, M. Klene, J. E. Knox, J. B. Cross, 
 V. Bakken, C. Adamo, J. Jaramillo, R. Gomperts, R. E. Stratmann, 
 O. Yazyev, A. J. Austin, R. Cammi, C. Pomelli, J. W. Ochterski, 
 R. L. Martin, K. Morokuma, V. G. Zakrzewski, G. A. Voth, 
 P. Salvador, J. J. Dannenberg, S. Dapprich, A. D. Daniels, 
 O. Farkas, J. B. Foresman, J. V. Ortiz, J. Cioslowski, 
 and D. J. Fox, Gaussian, Inc., Wallingford CT, 2013.
 
 ******************************************
 Gaussian 09:  ES64L-G09RevD.01 24-Apr-2013
                23-Jul-2021 
 ******************************************
 %mem=100MW
 %nprocshared=20
 Will use up to   20 processors via shared memory.
 ---------------------------------------------------------------------
 # b3lyp/6-311+g(d,p) geom=connectivity pop=(hirshfeld,chelpg,mbs,npa)
 ---------------------------------------------------------------------
 1/38=1,57=2/1;
 2/12=2,17=6,18=5,40=1/2;
 3/5=4,6=6,7=111,11=2,16=1,25=1,30=1,74=-5/1,2,3;
 4//1;
 5/5=2,38=5/2;
 6/7=2,8=2,9=2,10=2,15=8,20=3,27=100,28=1,40=-1,79=1/1,2,7;
 99/5=1,9=1/99;
 --------
 Table9_8
 --------
 Symbolic Z-matrix:
 Charge =  0 Multiplicity = 1
 6                     2.09856   0.81879   0. 
 6                     1.29419  -0.34375  -0.00001 
 6                     1.91847  -1.59998  -0.00002 
 6                     3.30641  -1.65316  -0.00001 
 6                     4.08649  -0.48258   0.00003 
 6                     3.49208   0.77341   0.00002 
 6                    -0.07007   1.49114   0. 
 6                    -0.08342   0.10179   0.00001 
 1                     1.31767  -2.49945  -0.00004 
 1                     3.80233  -2.61726  0. 
 1                     5.16766  -0.56045   0.00004 
 1                     4.08991   1.6783    0.00002 
 1                     1.52234   2.87293   0.00002 
 7                     1.23753   1.90664  -0.00001 
 6                    -1.17419   2.49831  -0.00001 
 1                    -1.81354   2.37843   0.87667 
 1                    -0.77124   3.51426  -0.00025 
 1                    -1.81379   2.37813  -0.87647 
 6                    -1.23727  -0.79048  -0.00003 
 8                    -1.17455  -2.00337  -0.00001 
 8                    -2.42575  -0.12317  -0.00002 
 6                    -3.61469  -0.94603   0.00004 
 6                    -4.81529  -0.02085   0.00001 
 1                    -3.59688  -1.59105   0.88167 
 1                    -3.5969   -1.59115  -0.88151 
 1                    -5.73531  -0.61169   0.00005 
 1                    -4.8201    0.61765   0.88666 
 1                    -4.82013   0.61756  -0.88671 
 
                          Input orientation:                          
 ---------------------------------------------------------------------
 Center     Atomic      Atomic             Coordinates (Angstroms)
 Number     Number       Type             X           Y           Z
 ---------------------------------------------------------------------
      1          6           0        2.098557    0.818794    0.000004
      2          6           0        1.294191   -0.343752   -0.000014
      3          6           0        1.918472   -1.599980   -0.000024
      4          6           0        3.306414   -1.653162   -0.000006
      5          6           0        4.086489   -0.482577    0.000027
      6          6           0        3.492075    0.773409    0.000018
      7          6           0       -0.070068    1.491142    0.000002
      8          6           0       -0.083422    0.101789    0.000007
      9          1           0        1.317668   -2.499445   -0.000035
     10          1           0        3.802327   -2.617264   -0.000002
     11          1           0        5.167663   -0.560453    0.000044
     12          1           0        4.089908    1.678295    0.000022
     13          1           0        1.522339    2.872925    0.000015
     14          7           0        1.237534    1.906639   -0.000007
     15          6           0       -1.174188    2.498307   -0.000014
     16          1           0       -1.813535    2.378427    0.876669
     17          1           0       -0.771236    3.514259   -0.000252
     18          1           0       -1.813794    2.378129   -0.876472
     19          6           0       -1.237265   -0.790484   -0.000027
     20          8           0       -1.174546   -2.003372   -0.000010
     21          8           0       -2.425753   -0.123167   -0.000017
     22          6           0       -3.614692   -0.946027    0.000040
     23          6           0       -4.815289   -0.020851    0.000005
     24          1           0       -3.596883   -1.591045    0.881670
     25          1           0       -3.596901   -1.591147   -0.881512
     26          1           0       -5.735313   -0.611694    0.000053
     27          1           0       -4.820105    0.617650    0.886656
     28          1           0       -4.820132    0.617558   -0.886710
 ---------------------------------------------------------------------
                    Distance matrix (angstroms):
                    1          2          3          4          5
     1  C    0.000000
     2  C    1.413689   0.000000
     3  C    2.425469   1.402796   0.000000
     4  C    2.751270   2.400749   1.388961   0.000000
     5  C    2.376013   2.795747   2.439034   1.406693   0.000000
     6  C    1.394257   2.465511   2.847666   2.433663   1.389543
     7  C    2.270459   2.286490   3.675504   4.613814   4.601362
     8  C    2.296765   1.447869   2.627470   3.817177   4.210658
     9  H    3.408885   2.155821   1.081667   2.161320   3.425511
    10  H    3.835274   3.385204   2.140976   1.084169   2.153517
    11  H    3.364778   3.879529   3.411431   2.158300   1.083975
    12  H    2.168922   3.450320   3.932203   3.422348   2.160875
    13  H    2.133420   3.224758   4.490412   4.865017   4.223063
    14  N    1.387360   2.251104   3.572122   4.117335   3.718185
    15  C    3.678536   3.764332   5.134248   6.108231   6.046519
    16  H    4.301797   4.223363   5.524870   6.575420   6.615446
    17  H    3.937162   4.376098   5.778405   6.582512   6.290643
    18  H    4.301886   4.223315   5.524792   6.575411   6.615529
    19  C    3.703712   2.570572   3.257907   4.624849   5.332651
    20  O    4.321785   2.974727   3.119212   4.494625   5.476432
    21  O    4.621328   3.726478   4.588384   5.932843   6.522152
    22  C    5.979616   4.945692   5.571675   6.957136   7.715113
    23  C    6.964644   6.118007   6.916443   8.284111   8.913745
    24  H    6.246815   5.124033   5.585392   6.959649   7.812823
    25  H    6.246849   5.124043   5.585377   6.959645   7.812843
    26  H    7.963405   7.034609   7.717327   9.101510   9.822651
    27  H    6.978144   6.252607   7.149301   8.484284   9.017984
    28  H    6.978181   6.252623   7.149299   8.484289   9.018010
                    6          7          8          9         10
     6  C    0.000000
     7  C    3.633731   0.000000
     8  C    3.638029   1.389417   0.000000
     9  H    3.929328   4.224997   2.954568   0.000000
    10  H    3.404838   5.645746   4.742604   2.487451   0.000000
    11  H    2.141678   5.625199   5.292680   4.310702   2.468727
    12  H    1.084538   4.164184   4.461172   5.013863   4.305175
    13  H    2.878859   2.108337   3.202759   5.376267   5.944789
    14  N    2.523324   1.372028   2.236606   4.406813   5.200371
    15  C    4.974865   1.494477   2.633072   5.584521   7.136860
    16  H    5.611960   2.143711   2.990804   5.862310   7.567258
    17  H    5.068341   2.141177   3.481097   6.366173   7.649383
    18  H    5.612095   2.143719   2.990673   5.862160   7.567230
    19  C    4.981206   2.562843   1.458597   3.073797   5.360468
    20  O    5.430273   3.664901   2.371129   2.541106   5.014592
    21  O    5.985360   2.855739   2.353109   4.433948   6.708912
    22  C    7.311812   4.301645   3.683448   5.171197   7.602973
    23  C    8.345247   4.980286   4.733456   6.614876   9.000259
    24  H    7.524711   4.766093   3.998428   5.074978   7.521887
    25  H    7.524746   4.766143   3.998455   5.074938   7.521872
    26  H    9.330766   6.042923   5.696747   7.301243   9.746224
    27  H    8.360785   4.910397   4.846486   6.940804   9.251874
    28  H    8.360823   4.910450   4.846515   6.940784   9.251871
                   11         12         13         14         15
    11  H    0.000000
    12  H    2.484663   0.000000
    13  H    5.007641   2.831881   0.000000
    14  N    4.640308   2.861499   1.007384   0.000000
    15  C    7.040958   5.327582   2.722425   2.483239   0.000000
    16  H    7.625130   6.009104   3.484409   3.209387   1.091654
    17  H    7.202347   5.196295   2.381553   2.572858   1.092945
    18  H    7.625240   6.009302   3.484657   3.209532   1.091658
    19  C    6.409057   5.871426   4.586500   3.660478   3.289396
    20  O    6.504278   6.424107   5.572384   4.594161   4.501679
    21  O    7.605997   6.760111   4.956208   4.188053   2.904917
    22  C    8.790815   8.139283   6.401053   5.628659   4.221315
    23  C    9.997525   9.065850   6.967027   6.352313   4.427615
    24  H    8.868858   8.399562   6.849144   6.031810   4.834213
    25  H    8.868881   8.399606   6.849208   6.031859   4.834275
    26  H   10.903096  10.088559   8.050844   7.413676   5.520504
    27  H   10.096015   9.016619   6.789624   6.256409   4.197114
    28  H   10.096043   9.016666   6.789691   6.256460   4.197184
                   16         17         18         19         20
    16  H    0.000000
    17  H    1.773553   0.000000
    18  H    1.753141   1.773550   0.000000
    19  C    3.338065   4.329896   3.337761   0.000000
    20  O    4.514093   5.532351   4.513798   1.214509   0.000000
    21  O    2.720544   3.996035   2.720138   1.363017   2.258471
    22  C    3.881319   5.289555   3.880917   2.382510   2.659378
    23  C    3.941523   5.371347   3.941103   3.659862   4.145528
    24  H    4.351674   5.901372   4.693060   2.643120   2.610573
    25  H    4.693518   5.901370   4.351396   2.643096   2.610513
    26  H    5.008954   6.454886   5.008558   4.501600   4.768371
    27  H    3.484236   5.056707   3.904589   3.950417   4.576684
    28  H    3.905098   5.056703   3.483932   3.950408   4.576659
                   21         22         23         24         25
    21  O    0.000000
    22  C    1.445917   0.000000
    23  C    2.391725   1.515712   0.000000
    24  H    2.074508   1.092537   2.174248   0.000000
    25  H    2.074509   1.092534   2.174252   1.763182   0.000000
    26  H    3.345422   2.146814   1.093407   2.511824   2.511830
    27  H    2.658556   2.164300   1.092638   2.524803   3.082439
    28  H    2.658561   2.164303   1.092636   3.082439   2.524817
                   26         27         28
    26  H    0.000000
    27  H    1.770581   0.000000
    28  H    1.770583   1.773366   0.000000
 Stoichiometry    C12H13NO2
 Framework group  C1[X(C12H13NO2)]
 Deg. of freedom    78
 Full point group                 C1      NOp   1
 Largest Abelian subgroup         C1      NOp   1
 Largest concise Abelian subgroup C1      NOp   1
                         Standard orientation:                         
 ---------------------------------------------------------------------
 Center     Atomic      Atomic             Coordinates (Angstroms)
 Number     Number       Type             X           Y           Z
 ---------------------------------------------------------------------
      1          6           0        2.098557    0.818794    0.000004
      2          6           0        1.294191   -0.343752   -0.000014
      3          6           0        1.918472   -1.599980   -0.000024
      4          6           0        3.306414   -1.653162   -0.000006
      5          6           0        4.086489   -0.482577    0.000027
      6          6           0        3.492075    0.773409    0.000018
      7          6           0       -0.070068    1.491142    0.000002
      8          6           0       -0.083422    0.101789    0.000007
      9          1           0        1.317668   -2.499445   -0.000035
     10          1           0        3.802327   -2.617264   -0.000002
     11          1           0        5.167663   -0.560453    0.000044
     12          1           0        4.089908    1.678295    0.000022
     13          1           0        1.522339    2.872925    0.000015
     14          7           0        1.237534    1.906639   -0.000007
     15          6           0       -1.174188    2.498307   -0.000014
     16          1           0       -1.813535    2.378427    0.876669
     17          1           0       -0.771236    3.514259   -0.000252
     18          1           0       -1.813794    2.378129   -0.876472
     19          6           0       -1.237265   -0.790484   -0.000027
     20          8           0       -1.174546   -2.003372   -0.000010
     21          8           0       -2.425753   -0.123167   -0.000017
     22          6           0       -3.614692   -0.946027    0.000040
     23          6           0       -4.815289   -0.020851    0.000005
     24          1           0       -3.596883   -1.591045    0.881670
     25          1           0       -3.596901   -1.591147   -0.881512
     26          1           0       -5.735313   -0.611694    0.000053
     27          1           0       -4.820105    0.617650    0.886656
     28          1           0       -4.820132    0.617558   -0.886710
 ---------------------------------------------------------------------
 Rotational constants (GHZ):      1.3385570      0.3655205      0.2886588
 Standard basis: 6-311+G(d,p) (5D, 7F)
 There are   423 symmetry adapted cartesian basis functions of A   symmetry.
 There are   408 symmetry adapted basis functions of A   symmetry.
   408 basis functions,   644 primitive gaussians,   423 cartesian basis functions
    54 alpha electrons       54 beta electrons
       nuclear repulsion energy       956.1707966024 Hartrees.
 NAtoms=   28 NActive=   28 NUniq=   28 SFac= 1.00D+00 NAtFMM=   60 NAOKFM=F Big=F
 Integral buffers will be    131072 words long.
 Raffenetti 2 integral format.
 Two-electron integral symmetry is turned on.
 One-electron integrals computed using PRISM.
 NBasis=   408 RedAO= T EigKep=  1.02D-06  NBF=   408
 NBsUse=   406 1.00D-06 EigRej=  3.00D-07 NBFU=   406
 ExpMin= 4.38D-02 ExpMax= 8.59D+03 ExpMxC= 1.30D+03 IAcc=2 IRadAn=         4 AccDes= 0.00D+00
 Harris functional with IExCor=  402 and IRadAn=       4 diagonalized for initial guess.
 HarFok:  IExCor=  402 AccDes= 0.00D+00 IRadAn=         4 IDoV= 1 UseB2=F ITyADJ=14
 ICtDFT=  3500011 ScaDFX=  1.000000  1.000000  1.000000  1.000000
 FoFCou: FMM=F IPFlag=           0 FMFlag=      100000 FMFlg1=           0
         NFxFlg=           0 DoJE=T BraDBF=F KetDBF=T FulRan=T
         wScrn=  0.000000 ICntrl=     500 IOpCl=  0 I1Cent=   200000004 NGrid=           0
         NMat0=    1 NMatS0=      1 NMatT0=    0 NMatD0=    1 NMtDS0=    0 NMtDT0=    0
 Petite list used in FoFCou.
 Requested convergence on RMS density matrix=1.00D-08 within 128 cycles.
 Requested convergence on MAX density matrix=1.00D-06.
 Requested convergence on             energy=1.00D-06.
 No special actions if energy rises.
 SCF Done:  E(RB3LYP) =  -670.524375440     A.U. after   15 cycles
            NFock= 15  Conv=0.79D-08     -V/T= 2.0042

 **********************************************************************

            Population analysis using the SCF density.

 **********************************************************************

 Orbital symmetries:
       Occupied  (A) (A) (A) (A) (A) (A) (A) (A) (A) (A) (A) (A)
                 (A) (A) (A) (A) (A) (A) (A) (A) (A) (A) (A) (A)
                 (A) (A) (A) (A) (A) (A) (A) (A) (A) (A) (A) (A)
                 (A) (A) (A) (A) (A) (A) (A) (A) (A) (A) (A) (A)
                 (A) (A) (A) (A) (A) (A)
       Virtual   (A) (A) (A) (A) (A) (A) (A) (A) (A) (A) (A) (A)
                 (A) (A) (A) (A) (A) (A) (A) (A) (A) (A) (A) (A)
                 (A) (A) (A) (A) (A) (A) (A) (A) (A) (A) (A) (A)
                 (A) (A) (A) (A) (A) (A) (A) (A) (A) (A) (A) (A)
                 (A) (A) (A) (A) (A) (A) (A) (A) (A) (A) (A) (A)
                 (A) (A) (A) (A) (A) (A) (A) (A) (A) (A) (A) (A)
                 (A) (A) (A) (A) (A) (A) (A) (A) (A) (A) (A) (A)
                 (A) (A) (A) (A) (A) (A) (A) (A) (A) (A) (A) (A)
                 (A) (A) (A) (A) (A) (A) (A) (A) (A) (A) (A) (A)
                 (A) (A) (A) (A) (A) (A) (A) (A) (A) (A) (A) (A)
                 (A) (A) (A) (A) (A) (A) (A) (A) (A) (A) (A) (A)
                 (A) (A) (A) (A) (A) (A) (A) (A) (A) (A) (A) (A)
                 (A) (A) (A) (A) (A) (A) (A) (A) (A) (A) (A) (A)
                 (A) (A) (A) (A) (A) (A) (A) (A) (A) (A) (A) (A)
                 (A) (A) (A) (A) (A) (A) (A) (A) (A) (A) (A) (A)
                 (A) (A) (A) (A) (A) (A) (A) (A) (A) (A) (A) (A)
                 (A) (A) (A) (A) (A) (A) (A) (A) (A) (A) (A) (A)
                 (A) (A) (A) (A) (A) (A) (A) (A) (A) (A) (A) (A)
                 (A) (A) (A) (A) (A) (A) (A) (A) (A) (A) (A) (A)
                 (A) (A) (A) (A) (A) (A) (A) (A) (A) (A) (A) (A)
                 (A) (A) (A) (A) (A) (A) (A) (A) (A) (A) (A) (A)
                 (A) (A) (A) (A) (A) (A) (A) (A) (A) (A) (A) (A)
                 (A) (A) (A) (A) (A) (A) (A) (A) (A) (A) (A) (A)
                 (A) (A) (A) (A) (A) (A) (A) (A) (A) (A) (A) (A)
                 (A) (A) (A) (A) (A) (A) (A) (A) (A) (A) (A) (A)
                 (A) (A) (A) (A) (A) (A) (A) (A) (A) (A) (A) (A)
                 (A) (A) (A) (A) (A) (A) (A) (A) (A) (A) (A) (A)
                 (A) (A) (A) (A) (A) (A) (A) (A) (A) (A) (A) (A)
                 (A) (A) (A) (A) (A) (A) (A) (A) (A) (A) (A) (A)
                 (A) (A) (A) (A)
 The electronic state is 1-A.
 Alpha  occ. eigenvalues --  -19.15810 -19.09727 -14.37373 -10.29385 -10.23558
 Alpha  occ. eigenvalues --  -10.22638 -10.21216 -10.18870 -10.17908 -10.17755
 Alpha  occ. eigenvalues --  -10.17667 -10.17209 -10.17094 -10.16710 -10.16603
 Alpha  occ. eigenvalues --   -1.09661  -1.00923  -0.99993  -0.84945  -0.81040
 Alpha  occ. eigenvalues --   -0.77372  -0.77120  -0.73864  -0.70425  -0.66843
 Alpha  occ. eigenvalues --   -0.62536  -0.60763  -0.59324  -0.56233  -0.53844
 Alpha  occ. eigenvalues --   -0.50116  -0.49445  -0.49272  -0.46655  -0.45831
 Alpha  occ. eigenvalues --   -0.45787  -0.43796  -0.43284  -0.42083  -0.41765
 Alpha  occ. eigenvalues --   -0.41044  -0.40560  -0.40117  -0.39112  -0.36544
 Alpha  occ. eigenvalues --   -0.36062  -0.35137  -0.34456  -0.34081  -0.30124
 Alpha  occ. eigenvalues --   -0.28426  -0.27340  -0.23388  -0.21799
 Alpha virt. eigenvalues --   -0.03518  -0.01261  -0.00755   0.00412   0.01011
 Alpha virt. eigenvalues --    0.01270   0.02455   0.02795   0.03427   0.03787
 Alpha virt. eigenvalues --    0.04341   0.05182   0.05371   0.06144   0.06647
 Alpha virt. eigenvalues --    0.06740   0.07498   0.08043   0.08081   0.08730
 Alpha virt. eigenvalues --    0.09135   0.09599   0.10086   0.10603   0.10974
 Alpha virt. eigenvalues --    0.11944   0.11977   0.12728   0.13412   0.14367
 Alpha virt. eigenvalues --    0.14723   0.15101   0.15710   0.15902   0.16198
 Alpha virt. eigenvalues --    0.16618   0.16799   0.16812   0.17006   0.17447
 Alpha virt. eigenvalues --    0.17810   0.19387   0.19704   0.20053   0.20121
 Alpha virt. eigenvalues --    0.20581   0.20839   0.21001   0.21287   0.21373
 Alpha virt. eigenvalues --    0.21638   0.21700   0.22452   0.23128   0.23441
 Alpha virt. eigenvalues --    0.24063   0.24519   0.24713   0.24922   0.25565
 Alpha virt. eigenvalues --    0.25871   0.26261   0.26669   0.27196   0.27381
 Alpha virt. eigenvalues --    0.28666   0.29164   0.29504   0.29520   0.30166
 Alpha virt. eigenvalues --    0.31137   0.31767   0.32202   0.33257   0.33361
 Alpha virt. eigenvalues --    0.34250   0.34370   0.35036   0.35708   0.37004
 Alpha virt. eigenvalues --    0.37332   0.38376   0.39303   0.40334   0.40702
 Alpha virt. eigenvalues --    0.40950   0.43003   0.43061   0.44233   0.46557
 Alpha virt. eigenvalues --    0.48773   0.49946   0.51058   0.52194   0.52700
 Alpha virt. eigenvalues --    0.53458   0.54782   0.54939   0.55564   0.55990
 Alpha virt. eigenvalues --    0.56833   0.57290   0.58492   0.58666   0.59728
 Alpha virt. eigenvalues --    0.60803   0.61274   0.61756   0.61970   0.63485
 Alpha virt. eigenvalues --    0.63821   0.65287   0.66586   0.66986   0.67188
 Alpha virt. eigenvalues --    0.67808   0.68517   0.68636   0.70026   0.70138
 Alpha virt. eigenvalues --    0.70691   0.71230   0.72751   0.73801   0.73831
 Alpha virt. eigenvalues --    0.74135   0.75644   0.77048   0.77835   0.78391
 Alpha virt. eigenvalues --    0.80555   0.81941   0.82671   0.84793   0.85089
 Alpha virt. eigenvalues --    0.85628   0.87636   0.88200   0.88538   0.90036
 Alpha virt. eigenvalues --    0.90972   0.91754   0.94226   0.94462   0.95708
 Alpha virt. eigenvalues --    0.97215   0.98817   0.99744   1.00449   1.01245
 Alpha virt. eigenvalues --    1.02078   1.03685   1.04662   1.05431   1.06867
 Alpha virt. eigenvalues --    1.08960   1.09184   1.10677   1.10782   1.12079
 Alpha virt. eigenvalues --    1.12287   1.14449   1.16415   1.16864   1.18496
 Alpha virt. eigenvalues --    1.19372   1.21396   1.24335   1.24483   1.27544
 Alpha virt. eigenvalues --    1.32336   1.33120   1.35537   1.36196   1.37070
 Alpha virt. eigenvalues --    1.38750   1.44248   1.44538   1.45414   1.47531
 Alpha virt. eigenvalues --    1.48266   1.50703   1.52075   1.52837   1.53281
 Alpha virt. eigenvalues --    1.54588   1.55997   1.56384   1.56848   1.57353
 Alpha virt. eigenvalues --    1.57991   1.59425   1.59881   1.60319   1.62621
 Alpha virt. eigenvalues --    1.63604   1.65806   1.65907   1.67357   1.67712
 Alpha virt. eigenvalues --    1.69565   1.70613   1.71002   1.72623   1.72756
 Alpha virt. eigenvalues --    1.74829   1.75231   1.76400   1.76755   1.81517
 Alpha virt. eigenvalues --    1.82273   1.82989   1.84845   1.85858   1.87556
 Alpha virt. eigenvalues --    1.87939   1.90348   1.91075   1.91134   1.93426
 Alpha virt. eigenvalues --    1.95133   1.96448   1.96702   1.98992   2.00000
 Alpha virt. eigenvalues --    2.02247   2.04712   2.06276   2.06683   2.09641
 Alpha virt. eigenvalues --    2.10941   2.11045   2.11319   2.12165   2.18116
 Alpha virt. eigenvalues --    2.18621   2.19118   2.19675   2.23742   2.24710
 Alpha virt. eigenvalues --    2.26520   2.33093   2.34896   2.36025   2.36196
 Alpha virt. eigenvalues --    2.38980   2.42958   2.44716   2.45361   2.45409
 Alpha virt. eigenvalues --    2.47343   2.47360   2.49150   2.50808   2.51539
 Alpha virt. eigenvalues --    2.54636   2.55041   2.57386   2.58788   2.60256
 Alpha virt. eigenvalues --    2.61754   2.63225   2.64911   2.65457   2.66407
 Alpha virt. eigenvalues --    2.67138   2.68653   2.71043   2.71061   2.72392
 Alpha virt. eigenvalues --    2.73812   2.76917   2.78251   2.78461   2.80384
 Alpha virt. eigenvalues --    2.82019   2.82661   2.82803   2.85345   2.85701
 Alpha virt. eigenvalues --    2.86872   2.87499   2.91862   2.92053   2.93571
 Alpha virt. eigenvalues --    2.93708   2.96060   3.00223   3.02590   3.03148
 Alpha virt. eigenvalues --    3.06334   3.07187   3.09617   3.10983   3.16765
 Alpha virt. eigenvalues --    3.21628   3.22115   3.24169   3.28259   3.29120
 Alpha virt. eigenvalues --    3.32960   3.38427   3.39436   3.43809   3.46444
 Alpha virt. eigenvalues --    3.50092   3.53053   3.55484   3.63321   3.66815
 Alpha virt. eigenvalues --    3.70975   3.76821   3.77447   3.79551   3.81111
 Alpha virt. eigenvalues --    3.81246   3.83688   3.87982   3.91888   4.02323
 Alpha virt. eigenvalues --    4.04215   4.09250   4.12227   4.14675   4.20378
 Alpha virt. eigenvalues --    4.27776   4.42430   4.48657   4.83423   4.92460
 Alpha virt. eigenvalues --    4.99643   5.07604   5.17635   5.26662   5.41432
 Alpha virt. eigenvalues --    5.70057   5.88602  23.60846  23.80454  23.86656
 Alpha virt. eigenvalues --   23.90916  23.94490  23.96162  23.97945  23.99712
 Alpha virt. eigenvalues --   24.05374  24.08299  24.11352  24.19639  35.65287
 Alpha virt. eigenvalues --   49.93728  50.06508
          Condensed to atoms (all electrons):
               1          2          3          4          5          6
     1  C   17.851701  -0.313237  -1.597398  -1.697481   0.750433  -5.054908
     2  C   -0.313237  14.588810  -6.623296   0.252764  -1.931042   1.233848
     3  C   -1.597398  -6.623296  19.530353  -4.168095   1.829137  -2.855980
     4  C   -1.697481   0.252764  -4.168095   9.670493  -0.159858   1.348614
     5  C    0.750433  -1.931042   1.829137  -0.159858   6.031992  -0.456646
     6  C   -5.054908   1.233848  -2.855980   1.348614  -0.456646  14.567386
     7  C    1.642796  -1.534793  -2.545098   0.267820  -0.157596  -0.353113
     8  C   -0.920329   3.130851  -0.884779  -0.107236  -0.142246  -1.767870
     9  H   -0.053263  -0.020434   0.368394  -0.033204  -0.007880   0.032525
    10  H    0.010665   0.028323  -0.080566   0.390022   0.012725  -0.027850
    11  H    0.005135   0.074441  -0.105706   0.052185   0.327257  -0.017205
    12  H   -0.030727  -0.009982   0.004474  -0.015583   0.055944   0.335137
    13  H   -0.005444   0.056831   0.008029  -0.001394   0.002439  -0.071037
    14  N    0.070512   0.345262   0.222202  -0.022066   0.021844  -0.679389
    15  C    0.447532  -0.604472  -0.604631   0.052994  -0.019951   0.191509
    16  H   -0.010771  -0.005144   0.002751  -0.000164  -0.000081  -0.005061
    17  H    0.031546  -0.000994  -0.003574   0.000219   0.001023   0.013552
    18  H   -0.010770  -0.005141   0.002752  -0.000163  -0.000080  -0.005060
    19  C   -4.600234  -4.449828   4.562881   0.320071   0.107353  -0.131373
    20  O    0.050369   0.150239  -0.088117   0.092803  -0.007018   0.027662
    21  O    0.031537  -0.177765   0.040779   0.008370  -0.000088   0.006455
    22  C   -0.110821  -0.325479   0.161075   0.000538   0.001750   0.012805
    23  C   -0.002750  -0.006913   0.007610   0.000333   0.000092   0.000079
    24  H    0.003395   0.009403  -0.005281  -0.001329   0.000027   0.000083
    25  H    0.003397   0.009401  -0.005282  -0.001330   0.000027   0.000084
    26  H   -0.000328  -0.000271   0.000122  -0.000001   0.000001  -0.000017
    27  H    0.001024   0.000853  -0.000474  -0.000054   0.000003   0.000053
    28  H    0.001024   0.000854  -0.000475  -0.000054   0.000003   0.000053
               7          8          9         10         11         12
     1  C    1.642796  -0.920329  -0.053263   0.010665   0.005135  -0.030727
     2  C   -1.534793   3.130851  -0.020434   0.028323   0.074441  -0.009982
     3  C   -2.545098  -0.884779   0.368394  -0.080566  -0.105706   0.004474
     4  C    0.267820  -0.107236  -0.033204   0.390022   0.052185  -0.015583
     5  C   -0.157596  -0.142246  -0.007880   0.012725   0.327257   0.055944
     6  C   -0.353113  -1.767870   0.032525  -0.027850  -0.017205   0.335137
     7  C   10.228820  -1.383991  -0.003539   0.002711   0.008818   0.018018
     8  C   -1.383991  11.446264  -0.011505   0.007128   0.002891  -0.006362
     9  H   -0.003539  -0.011505   0.502644  -0.006575  -0.000202   0.000043
    10  H    0.002711   0.007128  -0.006575   0.544158  -0.007753  -0.000253
    11  H    0.008818   0.002891  -0.000202  -0.007753   0.547496  -0.007839
    12  H    0.018018  -0.006362   0.000043  -0.000253  -0.007839   0.555801
    13  H   -0.044455   0.052312   0.000017   0.000000   0.000011   0.002436
    14  N   -0.039006   0.225807  -0.000446   0.000880  -0.001003  -0.006548
    15  C   -0.125629  -0.068444  -0.002130   0.000110   0.000420   0.001782
    16  H    0.035144  -0.059801   0.000001   0.000000   0.000000   0.000001
    17  H   -0.076774   0.041219   0.000001   0.000000   0.000000   0.000000
    18  H    0.035081  -0.059805   0.000001   0.000000   0.000000   0.000001
    19  C    0.384065  -3.398490   0.076981   0.003438  -0.000741  -0.001700
    20  O   -0.109964   0.087013   0.002234  -0.000052   0.000007   0.000002
    21  O   -0.134817  -0.158183   0.000715  -0.000005   0.000000  -0.000005
    22  C    0.042487  -0.645614   0.003330   0.000046   0.000001  -0.000004
    23  C    0.031533  -0.042925  -0.000091   0.000001   0.000000   0.000000
    24  H   -0.001331   0.019991  -0.000015   0.000000   0.000000   0.000000
    25  H   -0.001331   0.019978  -0.000015   0.000000   0.000000   0.000000
    26  H   -0.001146  -0.002789   0.000000   0.000000   0.000000   0.000000
    27  H    0.002329   0.006501   0.000000   0.000000   0.000000   0.000000
    28  H    0.002323   0.006510   0.000000   0.000000   0.000000   0.000000
              13         14         15         16         17         18
     1  C   -0.005444   0.070512   0.447532  -0.010771   0.031546  -0.010770
     2  C    0.056831   0.345262  -0.604472  -0.005144  -0.000994  -0.005141
     3  C    0.008029   0.222202  -0.604631   0.002751  -0.003574   0.002752
     4  C   -0.001394  -0.022066   0.052994  -0.000164   0.000219  -0.000163
     5  C    0.002439   0.021844  -0.019951  -0.000081   0.001023  -0.000080
     6  C   -0.071037  -0.679389   0.191509  -0.005061   0.013552  -0.005060
     7  C   -0.044455  -0.039006  -0.125629   0.035144  -0.076774   0.035081
     8  C    0.052312   0.225807  -0.068444  -0.059801   0.041219  -0.059805
     9  H    0.000017  -0.000446  -0.002130   0.000001   0.000001   0.000001
    10  H    0.000000   0.000880   0.000110   0.000000   0.000000   0.000000
    11  H    0.000011  -0.001003   0.000420   0.000000   0.000000   0.000000
    12  H    0.002436  -0.006548   0.001782   0.000001   0.000000   0.000001
    13  H    0.393553   0.369502  -0.049922  -0.000498   0.005684  -0.000498
    14  N    0.369502   6.911105  -0.407002   0.013937  -0.026703   0.013944
    15  C   -0.049922  -0.407002   7.611788   0.365520   0.416498   0.365603
    16  H   -0.000498   0.013937   0.365520   0.504051  -0.026728  -0.028749
    17  H    0.005684  -0.026703   0.416498  -0.026728   0.560331  -0.026731
    18  H   -0.000498   0.013944   0.365603  -0.028749  -0.026731   0.504040
    19  C   -0.003328   0.079237  -1.104349   0.037023  -0.040325   0.037015
    20  O    0.000014  -0.000427   0.019103  -0.000083   0.000088  -0.000083
    21  O    0.000122  -0.016565   0.091417  -0.006202   0.003262  -0.006208
    22  C    0.000055  -0.009306  -0.015684  -0.001249  -0.000931  -0.001255
    23  C   -0.000089   0.001684  -0.029886   0.003391  -0.000417   0.003391
    24  H    0.000000  -0.000018  -0.001526  -0.000073   0.000006  -0.000014
    25  H    0.000000  -0.000018  -0.001530  -0.000014   0.000006  -0.000073
    26  H    0.000000   0.000010   0.001752  -0.000011  -0.000001  -0.000011
    27  H    0.000000  -0.000025  -0.004540   0.000275   0.000007  -0.000141
    28  H    0.000000  -0.000025  -0.004535  -0.000141   0.000007   0.000275
              19         20         21         22         23         24
     1  C   -4.600234   0.050369   0.031537  -0.110821  -0.002750   0.003395
     2  C   -4.449828   0.150239  -0.177765  -0.325479  -0.006913   0.009403
     3  C    4.562881  -0.088117   0.040779   0.161075   0.007610  -0.005281
     4  C    0.320071   0.092803   0.008370   0.000538   0.000333  -0.001329
     5  C    0.107353  -0.007018  -0.000088   0.001750   0.000092   0.000027
     6  C   -0.131373   0.027662   0.006455   0.012805   0.000079   0.000083
     7  C    0.384065  -0.109964  -0.134817   0.042487   0.031533  -0.001331
     8  C   -3.398490   0.087013  -0.158183  -0.645614  -0.042925   0.019991
     9  H    0.076981   0.002234   0.000715   0.003330  -0.000091  -0.000015
    10  H    0.003438  -0.000052  -0.000005   0.000046   0.000001   0.000000
    11  H   -0.000741   0.000007   0.000000   0.000001   0.000000   0.000000
    12  H   -0.001700   0.000002  -0.000005  -0.000004   0.000000   0.000000
    13  H   -0.003328   0.000014   0.000122   0.000055  -0.000089   0.000000
    14  N    0.079237  -0.000427  -0.016565  -0.009306   0.001684  -0.000018
    15  C   -1.104349   0.019103   0.091417  -0.015684  -0.029886  -0.001526
    16  H    0.037023  -0.000083  -0.006202  -0.001249   0.003391  -0.000073
    17  H   -0.040325   0.000088   0.003262  -0.000931  -0.000417   0.000006
    18  H    0.037015  -0.000083  -0.006208  -0.001255   0.003391  -0.000014
    19  C   14.200206   0.168933  -0.029508   0.183643   0.238407  -0.030098
    20  O    0.168933   8.169031  -0.175982  -0.127794   0.027059  -0.001826
    21  O   -0.029508  -0.175982   8.577999   0.349050  -0.177465  -0.037062
    22  C    0.183643  -0.127794   0.349050   5.692629  -0.066312   0.430479
    23  C    0.238407   0.027059  -0.177465  -0.066312   5.444647  -0.041773
    24  H   -0.030098  -0.001826  -0.037062   0.430479  -0.041773   0.541907
    25  H   -0.030107  -0.001830  -0.037054   0.430488  -0.041754  -0.040441
    26  H    0.014820   0.000236   0.013531  -0.077199   0.430763  -0.003187
    27  H   -0.018487  -0.000449  -0.003160  -0.013846   0.403180  -0.008337
    28  H   -0.018483  -0.000449  -0.003159  -0.013848   0.403170   0.007293
              25         26         27         28
     1  C    0.003397  -0.000328   0.001024   0.001024
     2  C    0.009401  -0.000271   0.000853   0.000854
     3  C   -0.005282   0.000122  -0.000474  -0.000475
     4  C   -0.001330  -0.000001  -0.000054  -0.000054
     5  C    0.000027   0.000001   0.000003   0.000003
     6  C    0.000084  -0.000017   0.000053   0.000053
     7  C   -0.001331  -0.001146   0.002329   0.002323
     8  C    0.019978  -0.002789   0.006501   0.006510
     9  H   -0.000015   0.000000   0.000000   0.000000
    10  H    0.000000   0.000000   0.000000   0.000000
    11  H    0.000000   0.000000   0.000000   0.000000
    12  H    0.000000   0.000000   0.000000   0.000000
    13  H    0.000000   0.000000   0.000000   0.000000
    14  N   -0.000018   0.000010  -0.000025  -0.000025
    15  C   -0.001530   0.001752  -0.004540  -0.004535
    16  H   -0.000014  -0.000011   0.000275  -0.000141
    17  H    0.000006  -0.000001   0.000007   0.000007
    18  H   -0.000073  -0.000011  -0.000141   0.000275
    19  C   -0.030107   0.014820  -0.018487  -0.018483
    20  O   -0.001830   0.000236  -0.000449  -0.000449
    21  O   -0.037054   0.013531  -0.003160  -0.003159
    22  C    0.430488  -0.077199  -0.013846  -0.013848
    23  C   -0.041754   0.430763   0.403180   0.403170
    24  H   -0.040441  -0.003187  -0.008337   0.007293
    25  H    0.541902  -0.003187   0.007293  -0.008337
    26  H   -0.003187   0.529888  -0.025665  -0.025664
    27  H    0.007293  -0.025665   0.542504  -0.031866
    28  H   -0.008337  -0.025664  -0.031866   0.542502
 Mulliken charges:
               1
     1  C   -0.492606
     2  C    2.126912
     3  C   -1.171806
     4  C   -0.249216
     5  C   -0.259562
     6  C   -0.344337
     7  C   -0.189360
     8  C    0.613905
     9  H    0.152415
    10  H    0.122848
    11  H    0.121787
    12  H    0.105364
    13  H    0.285658
    14  N   -0.067378
    15  C   -0.521798
    16  H    0.182676
    17  H    0.129728
    18  H    0.182680
    19  C   -0.557023
    20  O   -0.280718
    21  O   -0.160010
    22  C    0.100965
    23  C   -0.584968
    24  H    0.159726
    25  H    0.159726
    26  H    0.148354
    27  H    0.143019
    28  H    0.143019
 Sum of Mulliken charges =   0.00000
 Mulliken charges with hydrogens summed into heavy atoms:
               1
     1  C   -0.492606
     2  C    2.126912
     3  C   -1.019391
     4  C   -0.126368
     5  C   -0.137775
     6  C   -0.238973
     7  C   -0.189360
     8  C    0.613905
    14  N    0.218281
    15  C   -0.026715
    19  C   -0.557023
    20  O   -0.280718
    21  O   -0.160010
    22  C    0.420418
    23  C   -0.150575
 Electronic spatial extent (au):  <R**2>=           3735.2627
 Charge=              0.0000 electrons
 Dipole moment (field-independent basis, Debye):
    X=             -0.8255    Y=              4.5208    Z=              0.0001  Tot=              4.5955
 Quadrupole moment (field-independent basis, Debye-Ang):
   XX=            -76.1801   YY=            -81.9252   ZZ=            -92.1479
   XY=              2.5361   XZ=              0.0000   YZ=              0.0001
 Traceless Quadrupole moment (field-independent basis, Debye-Ang):
   XX=              7.2376   YY=              1.4926   ZZ=             -8.7302
   XY=              2.5361   XZ=              0.0000   YZ=              0.0001
 Octapole moment (field-independent basis, Debye-Ang**2):
  XXX=            -40.8482  YYY=             40.2053  ZZZ=              0.0003  XYY=             15.2760
  XXY=             -4.3364  XXZ=              0.0012  XZZ=            -22.5031  YZZ=              0.0340
  YYZ=              0.0000  XYZ=              0.0001
 Hexadecapole moment (field-independent basis, Debye-Ang**3):
 XXXX=          -3599.9986 YYYY=          -1021.9918 ZZZZ=           -122.6676 XXXY=             79.2173
 XXXZ=              0.0011 YYYX=             22.8357 YYYZ=             -0.0010 ZZZX=             -0.0008
 ZZZY=              0.0009 XXYY=           -777.5176 XXZZ=           -709.7199 YYZZ=           -213.1914
 XXYZ=             -0.0007 YYXZ=             -0.0004 ZZXY=              9.8906
 N-N= 9.561707966024D+02 E-N=-3.475069550240D+03  KE= 6.677103489029D+02
 There are a total of      232276 grid points.
 ElSum from          density=      108.0002469352
 ElSum from atomic densities=      108.0007383769

 Hirshfeld populations at iteration   1 (CX, CA, CB, DipXYZ):
               1          2          3          4          5          6
     1  C    0.000001   2.983000   2.983000  -0.015804   0.081663   0.000001
     2  C    0.000000   3.009663   3.009663  -0.022864  -0.028300  -0.000002
     3  C    0.000000   3.022145   3.022145  -0.041812  -0.042081  -0.000001
     4  C    0.000000   3.029083   3.029083   0.031915  -0.044699  -0.000001
     5  C    0.000001   3.028381   3.028381   0.053900  -0.016589   0.000003
     6  C    0.000000   3.033423   3.033423   0.018846   0.061606  -0.000001
     7  C    0.000000   2.967033   2.967033  -0.016430   0.098508   0.000003
     8  C    0.000000   3.030250   3.030250  -0.036891  -0.060658   0.000001
     9  H    0.000002   0.476451   0.476451  -0.056072  -0.138077  -0.000001
    10  H    0.000002   0.477997   0.477997   0.071766  -0.142918   0.000001
    11  H    0.000002   0.477975   0.477975   0.159536  -0.013402   0.000003
    12  H    0.000003   0.477898   0.477898   0.091837   0.129759   0.000000
    13  H    0.000001   0.425710   0.425710   0.067010   0.200222   0.000005
    14  N    0.000000   3.541213   3.541213   0.035770   0.060176   0.000004
    15  C    0.000000   3.046283   3.046283   0.012702   0.002578   0.000000
    16  H    0.000001   0.474901   0.474901  -0.090518  -0.000808   0.126218
    17  H    0.000001   0.479778   0.479778   0.049675   0.140141  -0.000034
    18  H    0.000001   0.474902   0.474902  -0.090546  -0.000832  -0.126190
    19  C    0.000000   2.897571   2.897571  -0.081597   0.022109  -0.000010
    20  O    0.000001   4.145980   4.145980   0.010804   0.107558   0.000001
    21  O    0.000000   4.066371   4.066371  -0.013606  -0.116511   0.000001
    22  C    0.000000   2.988434   2.988434   0.036546   0.050484  -0.000003
    23  C    0.000000   3.050195   3.050195  -0.000461  -0.018752   0.000000
    24  H    0.000001   0.478582   0.478582  -0.020555  -0.084592   0.123510
    25  H    0.000001   0.478583   0.478583  -0.020561  -0.084605  -0.123500
    26  H    0.000000   0.477997   0.477997  -0.125260  -0.084503   0.000007
    27  H    0.000000   0.480162   0.480162  -0.004871   0.084619   0.122855
    28  H    0.000000   0.480162   0.480162  -0.004874   0.084607  -0.122863
       Tot   0.000019  54.000123  54.000123  -0.002415   0.246702   0.000007

 Dip from Atomic Chgs             -0.321778   1.531820   0.000024
         Total Dipole             -0.324193   1.778522   0.000030

 Hirshfeld charges, spin densities, dipoles, and CM5 charges using IRadAn=      4:
              Q-H        S-H        Dx         Dy         Dz        Q-CM5   
     1  C    0.034000   0.000000  -0.015804   0.081663   0.000001   0.093189
     2  C   -0.019326   0.000000  -0.022864  -0.028300  -0.000002  -0.015009
     3  C   -0.044289   0.000000  -0.041812  -0.042081  -0.000001  -0.096186
     4  C   -0.058167   0.000000   0.031915  -0.044699  -0.000001  -0.113475
     5  C   -0.056762   0.000000   0.053900  -0.016589   0.000003  -0.112033
     6  C   -0.066847   0.000000   0.018846   0.061606  -0.000001  -0.115583
     7  C    0.065934   0.000000  -0.016430   0.098508   0.000003   0.121254
     8  C   -0.060501   0.000000  -0.036891  -0.060658   0.000001  -0.049961
     9  H    0.047098   0.000000  -0.056072  -0.138077  -0.000001   0.107274
    10  H    0.044007   0.000000   0.071766  -0.142918   0.000001   0.099859
    11  H    0.044050   0.000000   0.159536  -0.013402   0.000003   0.099884
    12  H    0.044204   0.000000   0.091837   0.129759   0.000000   0.101568
    13  H    0.148579   0.000000   0.067010   0.200222   0.000005   0.342761
    14  N   -0.082427   0.000000   0.035770   0.060176   0.000004  -0.435523
    15  C   -0.092566   0.000000   0.012702   0.002578   0.000000  -0.231071
    16  H    0.050198   0.000000  -0.090518  -0.000808   0.126218   0.105014
    17  H    0.040445   0.000000   0.049675   0.140141  -0.000034   0.095562
    18  H    0.050196   0.000000  -0.090546  -0.000832  -0.126190   0.105014
    19  C    0.204858   0.000000  -0.081597   0.022109  -0.000010   0.263350
    20  O   -0.291961   0.000000   0.010804   0.107558   0.000001  -0.341181
    21  O   -0.132742   0.000000  -0.013606  -0.116511   0.000001  -0.214579
    22  C    0.023133   0.000000   0.036546   0.050484  -0.000003  -0.060727
    23  C   -0.100389   0.000000  -0.000461  -0.018752   0.000000  -0.247327
    24  H    0.042835   0.000000  -0.020555  -0.084592   0.123510   0.108075
    25  H    0.042835   0.000000  -0.020561  -0.084605  -0.123500   0.108075
    26  H    0.044006   0.000000  -0.125260  -0.084503   0.000007   0.095361
    27  H    0.039676   0.000000  -0.004871   0.084619   0.122855   0.093084
    28  H    0.039676   0.000000  -0.004874   0.084607  -0.122863   0.093084
       Tot  -0.000247   0.000000  -0.002415   0.246702   0.000007  -0.000247
 Hirshfeld charges with hydrogens summed into heavy atoms:
              Q-H       Q-CM5   
     1  C    0.034000   0.093189
     2  C   -0.019326  -0.015009
     3  C    0.002809   0.011088
     4  C   -0.014160  -0.013617
     5  C   -0.012712  -0.012149
     6  C   -0.022643  -0.014014
     7  C    0.065934   0.121254
     8  C   -0.060501  -0.049961
    14  N    0.066153  -0.092761
    15  C    0.048273   0.074520
    19  C    0.204858   0.263350
    20  O   -0.291961  -0.341181
    21  O   -0.132742  -0.214579
    22  C    0.108803   0.155423
    23  C    0.022969   0.034202
 
 EQQ= 0.000000000000E+00 EQD= 0.000000000000E+00 EDD= 0.608223983720E-02
 EQQ+QD+DD= 0.608223983720E-02
 
          MBS Condensed to atoms (all electrons):
               1          2          3          4          5          6
     1  C    4.744826   0.487448  -0.028501  -0.013135  -0.033332   0.498853
     2  C    0.487448   4.793142   0.491143  -0.032020  -0.011618  -0.025733
     3  C   -0.028501   0.491143   4.825233   0.516128  -0.029822  -0.009235
     4  C   -0.013135  -0.032020   0.516128   4.836884   0.495205  -0.030636
     5  C   -0.033332  -0.011618  -0.029822   0.495205   4.831400   0.515912
     6  C    0.498853  -0.025733  -0.009235  -0.030636   0.515912   4.837605
     7  C   -0.059447  -0.050039   0.000873  -0.000008  -0.000013   0.001170
     8  C   -0.050157   0.450890  -0.018105   0.000749   0.000054   0.001056
     9  H    0.001468  -0.025301   0.386165  -0.022908   0.001379   0.000020
    10  H    0.000077   0.001569  -0.026374   0.390683  -0.026158   0.001481
    11  H    0.001563   0.000060   0.001454  -0.025335   0.390790  -0.026451
    12  H   -0.025291   0.001302   0.000020   0.001425  -0.023353   0.388455
    13  H   -0.024729   0.002309  -0.000034   0.000000  -0.000013  -0.001120
    14  N    0.398387  -0.050538   0.000826   0.000033   0.000563  -0.020454
    15  C    0.001291   0.000883  -0.000004   0.000000   0.000000  -0.000007
    16  H   -0.000025   0.000010   0.000000   0.000000   0.000000   0.000000
    17  H    0.000062  -0.000032   0.000000   0.000000   0.000000  -0.000001
    18  H   -0.000025   0.000010   0.000000   0.000000   0.000000   0.000000
    19  C    0.000974  -0.020347  -0.001142   0.000002   0.000000  -0.000005
    20  O    0.000003  -0.000840  -0.001012   0.000006   0.000000   0.000000
    21  O   -0.000002   0.000264   0.000000   0.000000   0.000000   0.000000
    22  C    0.000000  -0.000012   0.000000   0.000000   0.000000   0.000000
    23  C    0.000000   0.000000   0.000000   0.000000   0.000000   0.000000
    24  H    0.000000   0.000001   0.000000   0.000000   0.000000   0.000000
    25  H    0.000000   0.000001   0.000000   0.000000   0.000000   0.000000
    26  H    0.000000   0.000000   0.000000   0.000000   0.000000   0.000000
    27  H    0.000000   0.000000   0.000000   0.000000   0.000000   0.000000
    28  H    0.000000   0.000000   0.000000   0.000000   0.000000   0.000000
               7          8          9         10         11         12
     1  C   -0.059447  -0.050157   0.001468   0.000077   0.001563  -0.025291
     2  C   -0.050039   0.450890  -0.025301   0.001569   0.000060   0.001302
     3  C    0.000873  -0.018105   0.386165  -0.026374   0.001454   0.000020
     4  C   -0.000008   0.000749  -0.022908   0.390683  -0.025335   0.001425
     5  C   -0.000013   0.000054   0.001379  -0.026158   0.390790  -0.023353
     6  C    0.001170   0.001056   0.000020   0.001481  -0.026451   0.388455
     7  C    4.738585   0.523430   0.000003   0.000000   0.000000  -0.000004
     8  C    0.523430   4.904675  -0.002316  -0.000016   0.000001  -0.000030
     9  H    0.000003  -0.002316   0.525954  -0.003782  -0.000036   0.000002
    10  H    0.000000  -0.000016  -0.003782   0.561723  -0.003753  -0.000038
    11  H    0.000000   0.000001  -0.000036  -0.003753   0.560981  -0.003903
    12  H   -0.000004  -0.000030   0.000002  -0.000038  -0.003903   0.560656
    13  H   -0.026940   0.002239   0.000001   0.000000   0.000000   0.000837
    14  N    0.421789  -0.052900  -0.000016   0.000000  -0.000010  -0.001722
    15  C    0.392630  -0.019906   0.000000   0.000000   0.000000   0.000000
    16  H   -0.021234  -0.001581   0.000000   0.000000   0.000000   0.000000
    17  H   -0.021780   0.001213   0.000000   0.000000   0.000000   0.000000
    18  H   -0.021233  -0.001582   0.000000   0.000000   0.000000   0.000000
    19  C   -0.019015   0.415604  -0.000006   0.000000   0.000000   0.000000
    20  O    0.000294  -0.027938   0.002753   0.000000   0.000000   0.000000
    21  O   -0.000735  -0.034249   0.000002   0.000000   0.000000   0.000000
    22  C    0.000013   0.001545   0.000001   0.000000   0.000000   0.000000
    23  C   -0.000001  -0.000011   0.000000   0.000000   0.000000   0.000000
    24  H    0.000000   0.000013   0.000000   0.000000   0.000000   0.000000
    25  H    0.000000   0.000013   0.000000   0.000000   0.000000   0.000000
    26  H    0.000000   0.000000   0.000000   0.000000   0.000000   0.000000
    27  H    0.000000  -0.000002   0.000000   0.000000   0.000000   0.000000
    28  H    0.000000  -0.000002   0.000000   0.000000   0.000000   0.000000
              13         14         15         16         17         18
     1  C   -0.024729   0.398387   0.001291  -0.000025   0.000062  -0.000025
     2  C    0.002309  -0.050538   0.000883   0.000010  -0.000032   0.000010
     3  C   -0.000034   0.000826  -0.000004   0.000000   0.000000   0.000000
     4  C    0.000000   0.000033   0.000000   0.000000   0.000000   0.000000
     5  C   -0.000013   0.000563   0.000000   0.000000   0.000000   0.000000
     6  C   -0.001120  -0.020454  -0.000007   0.000000  -0.000001   0.000000
     7  C   -0.026940   0.421789   0.392630  -0.021234  -0.021780  -0.021233
     8  C    0.002239  -0.052900  -0.019906  -0.001581   0.001213  -0.001582
     9  H    0.000001  -0.000016   0.000000   0.000000   0.000000   0.000000
    10  H    0.000000   0.000000   0.000000   0.000000   0.000000   0.000000
    11  H    0.000000  -0.000010   0.000000   0.000000   0.000000   0.000000
    12  H    0.000837  -0.001722   0.000000   0.000000   0.000000   0.000000
    13  H    0.414984   0.343698  -0.001825  -0.000005   0.001724  -0.000005
    14  N    0.343698   6.335827  -0.024941   0.000631  -0.004369   0.000631
    15  C   -0.001825  -0.024941   4.790214   0.374093   0.374008   0.374093
    16  H   -0.000005   0.000631   0.374093   0.564689  -0.020621  -0.021813
    17  H    0.001724  -0.004369   0.374008  -0.020621   0.602447  -0.020620
    18  H   -0.000005   0.000631   0.374093  -0.021813  -0.020620   0.564677
    19  C   -0.000023   0.000607  -0.001032  -0.000026   0.000001  -0.000026
    20  O    0.000000  -0.000001   0.000000   0.000001   0.000000   0.000001
    21  O    0.000000   0.000001  -0.000980   0.000664   0.000051   0.000665
    22  C    0.000000   0.000000   0.000018  -0.000009  -0.000001  -0.000009
    23  C    0.000000   0.000000  -0.000009   0.000002   0.000000   0.000002
    24  H    0.000000   0.000000  -0.000001  -0.000005   0.000000   0.000003
    25  H    0.000000   0.000000  -0.000001   0.000003   0.000000  -0.000005
    26  H    0.000000   0.000000   0.000000   0.000000   0.000000   0.000000
    27  H    0.000000   0.000000  -0.000006   0.000059   0.000000  -0.000004
    28  H    0.000000   0.000000  -0.000006  -0.000004   0.000000   0.000059
              19         20         21         22         23         24
     1  C    0.000974   0.000003  -0.000002   0.000000   0.000000   0.000000
     2  C   -0.020347  -0.000840   0.000264  -0.000012   0.000000   0.000001
     3  C   -0.001142  -0.001012   0.000000   0.000000   0.000000   0.000000
     4  C    0.000002   0.000006   0.000000   0.000000   0.000000   0.000000
     5  C    0.000000   0.000000   0.000000   0.000000   0.000000   0.000000
     6  C   -0.000005   0.000000   0.000000   0.000000   0.000000   0.000000
     7  C   -0.019015   0.000294  -0.000735   0.000013  -0.000001   0.000000
     8  C    0.415604  -0.027938  -0.034249   0.001545  -0.000011   0.000013
     9  H   -0.000006   0.002753   0.000002   0.000001   0.000000   0.000000
    10  H    0.000000   0.000000   0.000000   0.000000   0.000000   0.000000
    11  H    0.000000   0.000000   0.000000   0.000000   0.000000   0.000000
    12  H    0.000000   0.000000   0.000000   0.000000   0.000000   0.000000
    13  H   -0.000023   0.000000   0.000000   0.000000   0.000000   0.000000
    14  N    0.000607  -0.000001   0.000001   0.000000   0.000000   0.000000
    15  C   -0.001032   0.000000  -0.000980   0.000018  -0.000009  -0.000001
    16  H   -0.000026   0.000001   0.000664  -0.000009   0.000002  -0.000005
    17  H    0.000001   0.000000   0.000051  -0.000001   0.000000   0.000000
    18  H   -0.000026   0.000001   0.000665  -0.000009   0.000002   0.000003
    19  C    4.450885   0.453306   0.283258  -0.030299   0.001523  -0.003446
    20  O    0.453306   8.089436  -0.023743  -0.002320   0.000022   0.001482
    21  O    0.283258  -0.023743   7.975689   0.253885  -0.021194  -0.017702
    22  C   -0.030299  -0.002320   0.253885   4.693869   0.373458   0.372196
    23  C    0.001523   0.000022  -0.021194   0.373458   4.817678  -0.023048
    24  H   -0.003446   0.001482  -0.017702   0.372196  -0.023048   0.588926
    25  H   -0.003447   0.001482  -0.017702   0.372196  -0.023048  -0.027432
    26  H   -0.000040   0.000002   0.000787  -0.019706   0.374181  -0.001387
    27  H    0.000006  -0.000001  -0.000475  -0.022017   0.376774  -0.002921
    28  H    0.000006  -0.000001  -0.000475  -0.022017   0.376774   0.002166
              25         26         27         28
     1  C    0.000000   0.000000   0.000000   0.000000
     2  C    0.000001   0.000000   0.000000   0.000000
     3  C    0.000000   0.000000   0.000000   0.000000
     4  C    0.000000   0.000000   0.000000   0.000000
     5  C    0.000000   0.000000   0.000000   0.000000
     6  C    0.000000   0.000000   0.000000   0.000000
     7  C    0.000000   0.000000   0.000000   0.000000
     8  C    0.000013   0.000000  -0.000002  -0.000002
     9  H    0.000000   0.000000   0.000000   0.000000
    10  H    0.000000   0.000000   0.000000   0.000000
    11  H    0.000000   0.000000   0.000000   0.000000
    12  H    0.000000   0.000000   0.000000   0.000000
    13  H    0.000000   0.000000   0.000000   0.000000
    14  N    0.000000   0.000000   0.000000   0.000000
    15  C   -0.000001   0.000000  -0.000006  -0.000006
    16  H    0.000003   0.000000   0.000059  -0.000004
    17  H    0.000000   0.000000   0.000000   0.000000
    18  H   -0.000005   0.000000  -0.000004   0.000059
    19  C   -0.003447  -0.000040   0.000006   0.000006
    20  O    0.001482   0.000002  -0.000001  -0.000001
    21  O   -0.017702   0.000787  -0.000475  -0.000475
    22  C    0.372196  -0.019706  -0.022017  -0.022017
    23  C   -0.023048   0.374181   0.376774   0.376774
    24  H   -0.027432  -0.001387  -0.002921   0.002166
    25  H    0.588921  -0.001387   0.002166  -0.002921
    26  H   -0.001387   0.595889  -0.021130  -0.021130
    27  H    0.002166  -0.021130   0.596588  -0.023174
    28  H   -0.002921  -0.021130  -0.023174   0.596586
 MBS Mulliken charges:
               1
     1  C    0.099693
     2  C   -0.012552
     3  C   -0.107614
     4  C   -0.117074
     5  C   -0.110994
     6  C   -0.130908
     7  C    0.141662
     8  C   -0.092687
     9  H    0.136619
    10  H    0.104587
    11  H    0.104640
    12  H    0.101644
    13  H    0.288901
    14  N   -0.348041
    15  C   -0.258509
    16  H    0.125172
    17  H    0.087917
    18  H    0.125180
    19  C    0.472683
    20  O   -0.492932
    21  O   -0.398009
    22  C    0.029209
    23  C   -0.253104
    24  H    0.111157
    25  H    0.111160
    26  H    0.093921
    27  H    0.094139
    28  H    0.094139
 Sum of MBS Mulliken charges =   0.00000
 MBS Mulliken charges with hydrogens summed into heavy atoms:
               1
     1  C    0.099693
     2  C   -0.012552
     3  C    0.029005
     4  C   -0.012487
     5  C   -0.006354
     6  C   -0.029264
     7  C    0.141662
     8  C   -0.092687
    14  N   -0.059140
    15  C    0.079760
    19  C    0.472683
    20  O   -0.492932
    21  O   -0.398009
    22  C    0.251526
    23  C    0.029095
 Breneman (CHELPG) radii used.
 Generate Potential Derived Charges using the Breneman model, NDens= 1.
 Grid spacing= 0.300 Box extension= 2.800
 NStep X,Y,Z=   56     41     26   Total possible points=       59696
 Number of Points to Fit=   17239

 **********************************************************************

            Electrostatic Properties Using The SCF Density

 **********************************************************************

       Atomic Center    1 is at   2.098557  0.818794  0.000004
       Atomic Center    2 is at   1.294191 -0.343752 -0.000014
       Atomic Center    3 is at   1.918472 -1.599980 -0.000024
       Atomic Center    4 is at   3.306414 -1.653162 -0.000006
       Atomic Center    5 is at   4.086489 -0.482577  0.000027
       Atomic Center    6 is at   3.492075  0.773409  0.000018
       Atomic Center    7 is at  -0.070068  1.491142  0.000002
       Atomic Center    8 is at  -0.083422  0.101789  0.000007
       Atomic Center    9 is at   1.317668 -2.499445 -0.000035
       Atomic Center   10 is at   3.802327 -2.617264 -0.000002
       Atomic Center   11 is at   5.167663 -0.560453  0.000044
       Atomic Center   12 is at   4.089908  1.678295  0.000022
       Atomic Center   13 is at   1.522339  2.872925  0.000015
       Atomic Center   14 is at   1.237534  1.906639 -0.000007
       Atomic Center   15 is at  -1.174188  2.498307 -0.000014
       Atomic Center   16 is at  -1.813535  2.378427  0.876669
       Atomic Center   17 is at  -0.771236  3.514259 -0.000252
       Atomic Center   18 is at  -1.813794  2.378129 -0.876472
       Atomic Center   19 is at  -1.237265 -0.790484 -0.000027
       Atomic Center   20 is at  -1.174546 -2.003372 -0.000010
       Atomic Center   21 is at  -2.425753 -0.123167 -0.000017
       Atomic Center   22 is at  -3.614692 -0.946027  0.000040
       Atomic Center   23 is at  -4.815289 -0.020851  0.000005
       Atomic Center   24 is at  -3.596883 -1.591045  0.881670
       Atomic Center   25 is at  -3.596901 -1.591147 -0.881512
       Atomic Center   26 is at  -5.735313 -0.611694  0.000053
       Atomic Center   27 is at  -4.820105  0.617650  0.886656
       Atomic Center   28 is at  -4.820132  0.617558 -0.886710
   17239 points will be used for fitting atomic charges
 Fitting point charges to electrostatic potential
 Charges from ESP fit, RMS=   0.00387 RRMS=   0.23101:
 ESP charges:
               1
     1  C    0.245598
     2  C    0.219565
     3  C   -0.234276
     4  C   -0.068020
     5  C   -0.127227
     6  C   -0.247560
     7  C    0.354745
     8  C   -0.473486
     9  H    0.148896
    10  H    0.078808
    11  H    0.102390
    12  H    0.132611
    13  H    0.386031
    14  N   -0.587411
    15  C   -0.174948
    16  H    0.066332
    17  H    0.051413
    18  H    0.066348
    19  C    0.813577
    20  O   -0.587755
    21  O   -0.467059
    22  C    0.407823
    23  C   -0.248488
    24  H   -0.022957
    25  H   -0.022970
    26  H    0.044517
    27  H    0.071752
    28  H    0.071752
 Sum of ESP charges =   0.00000
 ESP charges with hydrogens summed into heavy atoms:
               1
     1  C    0.245598
     2  C    0.219565
     3  C   -0.085380
     4  C    0.010788
     5  C   -0.024837
     6  C   -0.114950
     7  C    0.354745
     8  C   -0.473486
    14  N   -0.201380
    15  C    0.009145
    19  C    0.813577
    20  O   -0.587755
    21  O   -0.467059
    22  C    0.361896
    23  C   -0.060467
 Charge=   0.00000 Dipole=    -0.6441     4.5358     0.0000 Tot=     4.5813
 -----------------------------------------------------------------

              Electrostatic Properties (Atomic Units)

 -----------------------------------------------------------------
    Center     Electric         -------- Electric Field --------
               Potential          X             Y             Z
 -----------------------------------------------------------------
    1 Atom    -14.738083
    2 Atom    -14.773424
    3 Atom    -14.783910
    4 Atom    -14.784593
    5 Atom    -14.778613
    6 Atom    -14.770960
    7 Atom    -14.714428
    8 Atom    -14.772142
    9 Atom     -1.124271
   10 Atom     -1.120321
   11 Atom     -1.114186
   12 Atom     -1.098131
   13 Atom     -0.986634
   14 Atom    -18.335973
   15 Atom    -14.756732
   16 Atom     -1.099303
   17 Atom     -1.095271
   18 Atom     -1.099306
   19 Atom    -14.656369
   20 Atom    -22.401837
   21 Atom    -22.338155
   22 Atom    -14.718769
   23 Atom    -14.775119
   24 Atom     -1.118182
   25 Atom     -1.118183
   26 Atom     -1.110490
   27 Atom     -1.116519
   28 Atom     -1.116519
 -----------------------------------------------------------------
 ******************************Gaussian NBO Version 3.1******************************
             N A T U R A L   A T O M I C   O R B I T A L   A N D
          N A T U R A L   B O N D   O R B I T A L   A N A L Y S I S
 ******************************Gaussian NBO Version 3.1******************************
       /RESON  / : Allow strongly delocalized NBO set

 Analyzing the SCF density

 Job title: Table9_8                                                        

 Storage needed:    502180 in NPA ( 104853400 available)
 Remove ICRem=   25 ICRemI=  158 L=0 PNAO number   25 atom    2 type  51 NPNAO=  408
   due to symmetric orthogonalization 2, value= 0.00D+00.
 Remove ICRem=  315 ICRemI=  271 L=0 PNAO number  315 atom   21 type  51 NPNAO=  407
   due to symmetric orthogonalization 2, value= 0.00D+00.
 Remove ICRem=  292 ICRemI=  271 L=0 PNAO number  292 atom   20 type  51 NPNAO=  406
   due to symmetric orthogonalization 2, value= 0.00D+00.
 Remove ICRem=  270 ICRemI=  271 L=0 PNAO number  270 atom   19 type  51 NPNAO=  405
   due to symmetric orthogonalization 2, value= 0.00D+00.

 Computed number of electrons  107.99960135 does not match expected value of   108.


 NATURAL POPULATIONS:  Natural atomic orbital occupancies 
                                                          
   NAO  Atom  No  lang   Type(AO)    Occupancy      Energy
 ----------------------------------------------------------
     1    C    1  S      Cor( 1S)     1.99897     -10.06742
     2    C    1  S      Val( 2S)     0.82208      -0.10955
     3    C    1  S      Ryd( 4S)     0.00181       0.83765
     4    C    1  S      Ryd( 3S)     0.00014       0.55801
     5    C    1  S      Ryd( 5S)     0.00002      22.94408
     6    C    1  px     Val( 2p)     1.05504      -0.05225
     7    C    1  px     Ryd( 4p)     0.00449       1.39661
     8    C    1  px     Ryd( 3p)     0.00033       0.59977
     9    C    1  px     Ryd( 5p)     0.00017       3.09984
    10    C    1  py     Val( 2p)     0.92245      -0.04418
    11    C    1  py     Ryd( 4p)     0.00688       1.07891
    12    C    1  py     Ryd( 3p)     0.00026       0.45910
    13    C    1  py     Ryd( 5p)     0.00016       3.04004
    14    C    1  pz     Val( 2p)     1.03553      -0.11352
    15    C    1  pz     Ryd( 4p)     0.00125       0.61176
    16    C    1  pz     Ryd( 3p)     0.00061       0.28797
    17    C    1  pz     Ryd( 5p)     0.00002       2.74111
    18    C    1  dxy    Ryd( 3d)     0.00124       2.70692
    19    C    1  dxz    Ryd( 3d)     0.00101       1.68551
    20    C    1  dyz    Ryd( 3d)     0.00087       1.61041
    21    C    1  dx2y2  Ryd( 3d)     0.00079       2.51788
    22    C    1  dz2    Ryd( 3d)     0.00048       2.09982

    23    C    2  S      Cor( 1S)     1.99876     -10.02823
    24    C    2  S      Val( 2S)     0.84617      -0.11670
    25    C    2  S      Ryd( 3S)     0.00056       0.98224
    26    C    2  S      Ryd( 4S)     0.00002      22.90856
    27    C    2  px     Val( 2p)     1.05289      -0.03802
    28    C    2  px     Ryd( 4p)     0.00534       1.45724
    29    C    2  px     Ryd( 3p)     0.00027       0.67021
    30    C    2  px     Ryd( 5p)     0.00012       3.31734
    31    C    2  py     Val( 2p)     1.09501      -0.04987
    32    C    2  py     Ryd( 4p)     0.00528       1.51993
    33    C    2  py     Ryd( 3p)     0.00030       0.66271
    34    C    2  py     Ryd( 5p)     0.00011       3.28464
    35    C    2  pz     Val( 2p)     1.03451      -0.09574
    36    C    2  pz     Ryd( 4p)     0.00049       0.61884
    37    C    2  pz     Ryd( 3p)     0.00044       0.42539
    38    C    2  pz     Ryd( 5p)     0.00001       2.69556
    39    C    2  dxy    Ryd( 3d)     0.00086       2.76559
    40    C    2  dxz    Ryd( 3d)     0.00073       1.66308
    41    C    2  dyz    Ryd( 3d)     0.00062       1.69554
    42    C    2  dx2y2  Ryd( 3d)     0.00061       2.50425
    43    C    2  dz2    Ryd( 3d)     0.00057       2.16156

    44    C    3  S      Cor( 1S)     1.99911     -10.01661
    45    C    3  S      Val( 2S)     0.94379      -0.14143
    46    C    3  S      Ryd( 3S)     0.00217       0.79098
    47    C    3  S      Ryd( 4S)     0.00007       0.80509
    48    C    3  S      Ryd( 5S)     0.00002      22.95360
    49    C    3  px     Val( 2p)     1.10279      -0.03469
    50    C    3  px     Ryd( 4p)     0.00452       1.01801
    51    C    3  px     Ryd( 3p)     0.00046       0.59351
    52    C    3  px     Ryd( 5p)     0.00012       3.14745
    53    C    3  py     Val( 2p)     1.14346      -0.03803
    54    C    3  py     Ryd( 4p)     0.00571       0.90716
    55    C    3  py     Ryd( 3p)     0.00041       0.37957
    56    C    3  py     Ryd( 5p)     0.00014       3.20144
    57    C    3  pz     Val( 2p)     0.97998      -0.09259
    58    C    3  pz     Ryd( 4p)     0.00119       0.52162
    59    C    3  pz     Ryd( 3p)     0.00040       0.32596
    60    C    3  pz     Ryd( 5p)     0.00001       2.74363
    61    C    3  dxy    Ryd( 3d)     0.00080       2.55279
    62    C    3  dxz    Ryd( 3d)     0.00052       1.67153
    63    C    3  dyz    Ryd( 3d)     0.00047       1.65845
    64    C    3  dx2y2  Ryd( 3d)     0.00063       2.61889
    65    C    3  dz2    Ryd( 3d)     0.00038       2.11214

    66    C    4  S      Cor( 1S)     1.99918     -10.02098
    67    C    4  S      Val( 2S)     0.95002      -0.15237
    68    C    4  S      Ryd( 3S)     0.00121       0.93221
    69    C    4  S      Ryd( 4S)     0.00015       1.13035
    70    C    4  S      Ryd( 5S)     0.00001      22.67807
    71    C    4  px     Val( 2p)     1.08321      -0.03445
    72    C    4  px     Ryd( 4p)     0.00492       0.84111
    73    C    4  px     Ryd( 3p)     0.00050       0.38720
    74    C    4  px     Ryd( 5p)     0.00015       3.14593
    75    C    4  py     Val( 2p)     1.14389      -0.04145
    76    C    4  py     Ryd( 4p)     0.00596       0.97281
    77    C    4  py     Ryd( 3p)     0.00030       0.36058
    78    C    4  py     Ryd( 5p)     0.00007       3.16959
    79    C    4  pz     Val( 2p)     1.02390      -0.09859
    80    C    4  pz     Ryd( 4p)     0.00135       0.51891
    81    C    4  pz     Ryd( 3p)     0.00023       0.32252
    82    C    4  pz     Ryd( 5p)     0.00002       2.70720
    83    C    4  dxy    Ryd( 3d)     0.00076       2.52809
    84    C    4  dxz    Ryd( 3d)     0.00052       1.67820
    85    C    4  dyz    Ryd( 3d)     0.00036       1.62891
    86    C    4  dx2y2  Ryd( 3d)     0.00068       2.56641
    87    C    4  dz2    Ryd( 3d)     0.00040       2.06259

    88    C    5  S      Cor( 1S)     1.99919     -10.02703
    89    C    5  S      Val( 2S)     0.94933      -0.15752
    90    C    5  S      Ryd( 3S)     0.00156       0.75527
    91    C    5  S      Ryd( 4S)     0.00009       1.14561
    92    C    5  S      Ryd( 5S)     0.00001      22.76140
    93    C    5  px     Val( 2p)     1.16788      -0.04652
    94    C    5  px     Ryd( 4p)     0.00677       1.04252
    95    C    5  px     Ryd( 3p)     0.00031       0.35058
    96    C    5  px     Ryd( 5p)     0.00006       3.18258
    97    C    5  py     Val( 2p)     1.05467      -0.03802
    98    C    5  py     Ryd( 4p)     0.00467       0.75440
    99    C    5  py     Ryd( 3p)     0.00046       0.40378
   100    C    5  py     Ryd( 5p)     0.00016       3.12337
   101    C    5  pz     Val( 2p)     1.01797      -0.10293
   102    C    5  pz     Ryd( 4p)     0.00161       0.51051
   103    C    5  pz     Ryd( 3p)     0.00029       0.31438
   104    C    5  pz     Ryd( 5p)     0.00002       2.70007
   105    C    5  dxy    Ryd( 3d)     0.00061       2.58191
   106    C    5  dxz    Ryd( 3d)     0.00035       1.61272
   107    C    5  dyz    Ryd( 3d)     0.00056       1.68464
   108    C    5  dx2y2  Ryd( 3d)     0.00080       2.50307
   109    C    5  dz2    Ryd( 3d)     0.00041       2.05632

   110    C    6  S      Cor( 1S)     1.99906     -10.02973
   111    C    6  S      Val( 2S)     0.93696      -0.15195
   112    C    6  S      Ryd( 4S)     0.00154       0.95320
   113    C    6  S      Ryd( 3S)     0.00011       0.68697
   114    C    6  S      Ryd( 5S)     0.00001      22.91164
   115    C    6  px     Val( 2p)     1.07978      -0.04769
   116    C    6  px     Ryd( 4p)     0.00420       0.89811
   117    C    6  px     Ryd( 3p)     0.00043       0.38584
   118    C    6  px     Ryd( 5p)     0.00014       3.05947
   119    C    6  py     Val( 2p)     1.15700      -0.06216
   120    C    6  py     Ryd( 4p)     0.00489       1.06059
   121    C    6  py     Ryd( 3p)     0.00027       0.40866
   122    C    6  py     Ryd( 5p)     0.00009       3.02137
   123    C    6  pz     Val( 2p)     1.04799      -0.11118
   124    C    6  pz     Ryd( 4p)     0.00130       0.52183
   125    C    6  pz     Ryd( 3p)     0.00044       0.28506
   126    C    6  pz     Ryd( 5p)     0.00002       2.69906
   127    C    6  dxy    Ryd( 3d)     0.00061       2.52130
   128    C    6  dxz    Ryd( 3d)     0.00055       1.66749
   129    C    6  dyz    Ryd( 3d)     0.00045       1.63634
   130    C    6  dx2y2  Ryd( 3d)     0.00077       2.61904
   131    C    6  dz2    Ryd( 3d)     0.00042       2.11315

   132    C    7  S      Cor( 1S)     1.99908     -10.09596
   133    C    7  S      Val( 2S)     0.84695      -0.14771
   134    C    7  S      Ryd( 4S)     0.00137       0.83459
   135    C    7  S      Ryd( 3S)     0.00010       0.54263
   136    C    7  S      Ryd( 5S)     0.00002      23.06501
   137    C    7  px     Val( 2p)     0.87542      -0.03771
   138    C    7  px     Ryd( 4p)     0.00479       1.08064
   139    C    7  px     Ryd( 3p)     0.00029       0.65598
   140    C    7  px     Ryd( 5p)     0.00012       3.01830
   141    C    7  py     Val( 2p)     1.04771      -0.06448
   142    C    7  py     Ryd( 4p)     0.00528       1.12121
   143    C    7  py     Ryd( 3p)     0.00032       0.61765
   144    C    7  py     Ryd( 5p)     0.00016       2.94863
   145    C    7  pz     Val( 2p)     0.95369      -0.12341
   146    C    7  pz     Ryd( 4p)     0.00229       0.61312
   147    C    7  pz     Ryd( 3p)     0.00056       0.47032
   148    C    7  pz     Ryd( 5p)     0.00007       2.51854
   149    C    7  dxy    Ryd( 3d)     0.00090       2.42562
   150    C    7  dxz    Ryd( 3d)     0.00133       1.60897
   151    C    7  dyz    Ryd( 3d)     0.00090       1.67399
   152    C    7  dx2y2  Ryd( 3d)     0.00117       2.66293
   153    C    7  dz2    Ryd( 3d)     0.00044       2.06618

   154    C    8  S      Cor( 1S)     1.99878     -10.02992
   155    C    8  S      Val( 2S)     0.88435      -0.12337
   156    C    8  S      Ryd( 3S)     0.00114       0.86998
   157    C    8  S      Ryd( 4S)     0.00019       0.91272
   158    C    8  S      Ryd( 5S)     0.00002      22.85841
   159    C    8  px     Val( 2p)     1.08848      -0.06792
   160    C    8  px     Ryd( 4p)     0.00642       1.42226
   161    C    8  px     Ryd( 3p)     0.00058       1.19725
   162    C    8  px     Ryd( 5p)     0.00012       3.06108
   163    C    8  py     Val( 2p)     1.08788      -0.07037
   164    C    8  py     Ryd( 4p)     0.00709       1.42381
   165    C    8  py     Ryd( 3p)     0.00037       1.05394
   166    C    8  py     Ryd( 5p)     0.00013       3.01883
   167    C    8  pz     Val( 2p)     1.16540      -0.10956
   168    C    8  pz     Ryd( 4p)     0.00140       0.59603
   169    C    8  pz     Ryd( 3p)     0.00035       0.57658
   170    C    8  pz     Ryd( 5p)     0.00004       2.62431
   171    C    8  dxy    Ryd( 3d)     0.00081       2.60010
   172    C    8  dxz    Ryd( 3d)     0.00049       1.66035
   173    C    8  dyz    Ryd( 3d)     0.00057       1.67564
   174    C    8  dx2y2  Ryd( 3d)     0.00075       2.70069
   175    C    8  dz2    Ryd( 3d)     0.00041       2.17129

   176    H    9  S      Val( 1S)     0.76422       0.08262
   177    H    9  S      Ryd( 2S)     0.00088       0.80486
   178    H    9  S      Ryd( 3S)     0.00021       1.96840
   179    H    9  px     Ryd( 2p)     0.00028       2.26375
   180    H    9  py     Ryd( 2p)     0.00032       2.54878
   181    H    9  pz     Ryd( 2p)     0.00017       1.63481

   182    H   10  S      Val( 1S)     0.79325       0.05930
   183    H   10  S      Ryd( 2S)     0.00051       0.63314
   184    H   10  S      Ryd( 3S)     0.00016       2.15818
   185    H   10  px     Ryd( 2p)     0.00016       2.16099
   186    H   10  py     Ryd( 2p)     0.00035       2.55846
   187    H   10  pz     Ryd( 2p)     0.00021       1.60765

   188    H   11  S      Val( 1S)     0.79392       0.05294
   189    H   11  S      Ryd( 2S)     0.00054       0.60599
   190    H   11  S      Ryd( 3S)     0.00017       2.15649
   191    H   11  px     Ryd( 2p)     0.00042       2.70212
   192    H   11  py     Ryd( 2p)     0.00012       1.99639
   193    H   11  pz     Ryd( 2p)     0.00022       1.60175

   194    H   12  S      Val( 1S)     0.79140       0.03672
   195    H   12  S      Ryd( 2S)     0.00076       0.72660
   196    H   12  S      Ryd( 3S)     0.00019       1.95770
   197    H   12  px     Ryd( 2p)     0.00020       2.22474
   198    H   12  py     Ryd( 2p)     0.00031       2.50650
   199    H   12  pz     Ryd( 2p)     0.00022       1.60074

   200    H   13  S      Val( 1S)     0.59441       0.05538
   201    H   13  S      Ryd( 2S)     0.00165       0.47503
   202    H   13  S      Ryd( 3S)     0.00046       2.09515
   203    H   13  px     Ryd( 2p)     0.00019       2.04794
   204    H   13  py     Ryd( 2p)     0.00046       2.66709
   205    H   13  pz     Ryd( 2p)     0.00061       1.55721

   206    N   14  S      Cor( 1S)     1.99925     -14.19106
   207    N   14  S      Val( 2S)     1.22226      -0.53720
   208    N   14  S      Ryd( 4S)     0.00026       1.55239
   209    N   14  S      Ryd( 3S)     0.00010       0.94906
   210    N   14  S      Ryd( 5S)     0.00000      35.26520
   211    N   14  px     Val( 2p)     1.30198      -0.25889
   212    N   14  px     Ryd( 4p)     0.00227       0.88439
   213    N   14  px     Ryd( 3p)     0.00019       0.86143
   214    N   14  px     Ryd( 5p)     0.00003       4.41553
   215    N   14  py     Val( 2p)     1.37976      -0.27015
   216    N   14  py     Ryd( 4p)     0.00254       1.24362
   217    N   14  py     Ryd( 3p)     0.00078       0.91578
   218    N   14  py     Ryd( 5p)     0.00002       4.36089
   219    N   14  pz     Val( 2p)     1.61543      -0.27428
   220    N   14  pz     Ryd( 3p)     0.00368       0.43962
   221    N   14  pz     Ryd( 4p)     0.00071       0.63327
   222    N   14  pz     Ryd( 5p)     0.00001       3.81152
   223    N   14  dxy    Ryd( 3d)     0.00083       2.94329
   224    N   14  dxz    Ryd( 3d)     0.00064       2.17729
   225    N   14  dyz    Ryd( 3d)     0.00032       2.20060
   226    N   14  dx2y2  Ryd( 3d)     0.00090       2.91609
   227    N   14  dz2    Ryd( 3d)     0.00060       2.63196

   228    C   15  S      Cor( 1S)     1.99928     -10.04373
   229    C   15  S      Val( 2S)     1.08138      -0.25963
   230    C   15  S      Ryd( 4S)     0.00085       0.97670
   231    C   15  S      Ryd( 3S)     0.00009       0.83698
   232    C   15  S      Ryd( 5S)     0.00000      23.10179
   233    C   15  px     Val( 2p)     1.14932      -0.10983
   234    C   15  px     Ryd( 4p)     0.00201       0.51089
   235    C   15  px     Ryd( 3p)     0.00019       0.38031
   236    C   15  px     Ryd( 5p)     0.00006       2.99342
   237    C   15  py     Val( 2p)     1.13722      -0.10613
   238    C   15  py     Ryd( 4p)     0.00161       0.63316
   239    C   15  py     Ryd( 3p)     0.00015       0.36478
   240    C   15  py     Ryd( 5p)     0.00007       2.98292
   241    C   15  pz     Val( 2p)     1.22977      -0.11728
   242    C   15  pz     Ryd( 4p)     0.00133       0.48866
   243    C   15  pz     Ryd( 3p)     0.00024       0.33112
   244    C   15  pz     Ryd( 5p)     0.00006       2.96391
   245    C   15  dxy    Ryd( 3d)     0.00078       2.29398
   246    C   15  dxz    Ryd( 3d)     0.00099       2.20616
   247    C   15  dyz    Ryd( 3d)     0.00023       1.75881
   248    C   15  dx2y2  Ryd( 3d)     0.00033       2.10444
   249    C   15  dz2    Ryd( 3d)     0.00067       2.12328

   250    H   16  S      Val( 1S)     0.76486       0.03046
   251    H   16  S      Ryd( 2S)     0.00103       0.89607
   252    H   16  S      Ryd( 3S)     0.00017       1.91179
   253    H   16  px     Ryd( 2p)     0.00019       2.10375
   254    H   16  py     Ryd( 2p)     0.00018       1.77288
   255    H   16  pz     Ryd( 2p)     0.00022       2.41470

   256    H   17  S      Val( 1S)     0.79943       0.00645
   257    H   17  S      Ryd( 2S)     0.00085       0.80192
   258    H   17  S      Ryd( 3S)     0.00011       1.91628
   259    H   17  px     Ryd( 2p)     0.00012       1.89029
   260    H   17  py     Ryd( 2p)     0.00031       2.57648
   261    H   17  pz     Ryd( 2p)     0.00009       1.71862

   262    H   18  S      Val( 1S)     0.76485       0.03047
   263    H   18  S      Ryd( 2S)     0.00103       0.89632
   264    H   18  S      Ryd( 3S)     0.00017       1.91151
   265    H   18  px     Ryd( 2p)     0.00019       2.10403
   266    H   18  py     Ryd( 2p)     0.00018       1.77284
   267    H   18  pz     Ryd( 2p)     0.00022       2.41438

   268    C   19  S      Cor( 1S)     1.99909     -10.17381
   269    C   19  S      Val( 2S)     0.73863      -0.12593
   270    C   19  S      Ryd( 3S)     0.00218       1.20317
   271    C   19  S      Ryd( 4S)     0.00007      22.00080
   272    C   19  px     Val( 2p)     0.82265      -0.03196
   273    C   19  px     Ryd( 4p)     0.00621       1.35765
   274    C   19  px     Ryd( 3p)     0.00043       0.95527
   275    C   19  px     Ryd( 5p)     0.00029       2.27733
   276    C   19  py     Val( 2p)     0.80441      -0.00756
   277    C   19  py     Ryd( 4p)     0.02059       1.07545
   278    C   19  py     Ryd( 3p)     0.00043       0.72491
   279    C   19  py     Ryd( 5p)     0.00015       2.33721
   280    C   19  pz     Val( 2p)     0.78438      -0.11694
   281    C   19  pz     Ryd( 4p)     0.00070       0.72675
   282    C   19  pz     Ryd( 3p)     0.00086       0.64671
   283    C   19  pz     Ryd( 5p)     0.00012       2.26791
   284    C   19  dxy    Ryd( 3d)     0.00538       2.58827
   285    C   19  dxz    Ryd( 3d)     0.00199       1.55283
   286    C   19  dyz    Ryd( 3d)     0.00445       1.65855
   287    C   19  dx2y2  Ryd( 3d)     0.00214       2.58257
   288    C   19  dz2    Ryd( 3d)     0.00071       2.03567

   289    O   20  S      Cor( 1S)     1.99975     -18.83174
   290    O   20  S      Val( 2S)     1.70218      -0.87854
   291    O   20  S      Ryd( 3S)     0.00025       1.78023
   292    O   20  S      Ryd( 4S)     0.00000      49.80252
   293    O   20  px     Val( 2p)     1.84692      -0.25446
   294    O   20  px     Ryd( 3p)     0.00169       0.87534
   295    O   20  px     Ryd( 4p)     0.00053       1.00418
   296    O   20  px     Ryd( 5p)     0.00001       5.13561
   297    O   20  py     Val( 2p)     1.56967      -0.28982
   298    O   20  py     Ryd( 3p)     0.00056       0.58824
   299    O   20  py     Ryd( 4p)     0.00033       1.18657
   300    O   20  py     Ryd( 5p)     0.00010       5.40765
   301    O   20  pz     Val( 2p)     1.48678      -0.24352
   302    O   20  pz     Ryd( 3p)     0.00152       0.57691
   303    O   20  pz     Ryd( 4p)     0.00014       0.90845
   304    O   20  pz     Ryd( 5p)     0.00001       5.00089
   305    O   20  dxy    Ryd( 3d)     0.00154       3.23347
   306    O   20  dxz    Ryd( 3d)     0.00002       2.85884
   307    O   20  dyz    Ryd( 3d)     0.00168       3.12097
   308    O   20  dx2y2  Ryd( 3d)     0.00191       3.55887
   309    O   20  dz2    Ryd( 3d)     0.00059       3.10401

   310    O   21  S      Cor( 1S)     1.99972     -18.95759
   311    O   21  S      Val( 2S)     1.62883      -0.88536
   312    O   21  S      Ryd( 3S)     0.00360       0.92808
   313    O   21  S      Ryd( 4S)     0.00000      49.53984
   314    O   21  px     Val( 2p)     1.38560      -0.31503
   315    O   21  px     Ryd( 4p)     0.00345       1.07257
   316    O   21  px     Ryd( 3p)     0.00077       1.01761
   317    O   21  px     Ryd( 5p)     0.00008       5.26853
   318    O   21  py     Val( 2p)     1.73754      -0.33779
   319    O   21  py     Ryd( 3p)     0.00314       0.86351
   320    O   21  py     Ryd( 4p)     0.00109       1.02219
   321    O   21  py     Ryd( 5p)     0.00012       5.16025
   322    O   21  pz     Val( 2p)     1.81068      -0.32015
   323    O   21  pz     Ryd( 3p)     0.00291       0.54345
   324    O   21  pz     Ryd( 4p)     0.00075       0.82784
   325    O   21  pz     Ryd( 5p)     0.00000       4.95078
   326    O   21  dxy    Ryd( 3d)     0.00137       3.56469
   327    O   21  dxz    Ryd( 3d)     0.00020       2.97237
   328    O   21  dyz    Ryd( 3d)     0.00075       2.91431
   329    O   21  dx2y2  Ryd( 3d)     0.00074       3.18506
   330    O   21  dz2    Ryd( 3d)     0.00077       3.12614

   331    C   22  S      Cor( 1S)     1.99922     -10.10167
   332    C   22  S      Val( 2S)     1.02365      -0.25457
   333    C   22  S      Ryd( 4S)     0.00537       0.94900
   334    C   22  S      Ryd( 3S)     0.00028       0.55173
   335    C   22  S      Ryd( 5S)     0.00001      23.51877
   336    C   22  px     Val( 2p)     0.79921      -0.07602
   337    C   22  px     Ryd( 3p)     0.00259       0.79808
   338    C   22  px     Ryd( 4p)     0.00060       0.88944
   339    C   22  px     Ryd( 5p)     0.00019       2.45963
   340    C   22  py     Val( 2p)     1.00058      -0.09028
   341    C   22  py     Ryd( 3p)     0.00244       0.60906
   342    C   22  py     Ryd( 4p)     0.00048       0.94586
   343    C   22  py     Ryd( 5p)     0.00021       2.42139
   344    C   22  pz     Val( 2p)     1.19447      -0.10011
   345    C   22  pz     Ryd( 3p)     0.00177       0.64399
   346    C   22  pz     Ryd( 4p)     0.00044       0.91942
   347    C   22  pz     Ryd( 5p)     0.00010       2.37743
   348    C   22  dxy    Ryd( 3d)     0.00174       2.23593
   349    C   22  dxz    Ryd( 3d)     0.00093       1.72975
   350    C   22  dyz    Ryd( 3d)     0.00138       2.25197
   351    C   22  dx2y2  Ryd( 3d)     0.00120       1.93179
   352    C   22  dz2    Ryd( 3d)     0.00097       2.12543

   353    C   23  S      Cor( 1S)     1.99936     -10.03103
   354    C   23  S      Val( 2S)     1.09597      -0.26433
   355    C   23  S      Ryd( 4S)     0.00096       0.76206
   356    C   23  S      Ryd( 3S)     0.00036       0.73069
   357    C   23  S      Ryd( 5S)     0.00000      23.31802
   358    C   23  px     Val( 2p)     1.11722      -0.09884
   359    C   23  px     Ryd( 4p)     0.00165       0.60190
   360    C   23  px     Ryd( 3p)     0.00025       0.21985
   361    C   23  px     Ryd( 5p)     0.00008       3.08115
   362    C   23  py     Val( 2p)     1.15885      -0.09721
   363    C   23  py     Ryd( 4p)     0.00125       0.55226
   364    C   23  py     Ryd( 3p)     0.00016       0.20283
   365    C   23  py     Ryd( 5p)     0.00007       3.08625
   366    C   23  pz     Val( 2p)     1.21111      -0.09854
   367    C   23  pz     Ryd( 4p)     0.00076       0.52665
   368    C   23  pz     Ryd( 3p)     0.00007       0.20128
   369    C   23  pz     Ryd( 5p)     0.00003       3.08990
   370    C   23  dxy    Ryd( 3d)     0.00088       2.30176
   371    C   23  dxz    Ryd( 3d)     0.00010       1.79864
   372    C   23  dyz    Ryd( 3d)     0.00104       2.24259
   373    C   23  dx2y2  Ryd( 3d)     0.00027       1.90118
   374    C   23  dz2    Ryd( 3d)     0.00067       2.12835

   375    H   24  S      Val( 1S)     0.81299       0.02283
   376    H   24  S      Ryd( 2S)     0.00130       0.63086
   377    H   24  S      Ryd( 3S)     0.00028       2.21417
   378    H   24  px     Ryd( 2p)     0.00016       1.76614
   379    H   24  py     Ryd( 2p)     0.00025       2.11030
   380    H   24  pz     Ryd( 2p)     0.00028       2.41951

   381    H   25  S      Val( 1S)     0.81299       0.02283
   382    H   25  S      Ryd( 2S)     0.00130       0.63086
   383    H   25  S      Ryd( 3S)     0.00028       2.21416
   384    H   25  px     Ryd( 2p)     0.00016       1.76613
   385    H   25  py     Ryd( 2p)     0.00025       2.11040
   386    H   25  pz     Ryd( 2p)     0.00028       2.41940

   387    H   26  S      Val( 1S)     0.79177       0.02337
   388    H   26  S      Ryd( 2S)     0.00056       0.63483
   389    H   26  S      Ryd( 3S)     0.00010       2.10467
   390    H   26  px     Ryd( 2p)     0.00030       2.39310
   391    H   26  py     Ryd( 2p)     0.00017       1.98443
   392    H   26  pz     Ryd( 2p)     0.00011       1.74628

   393    H   27  S      Val( 1S)     0.79616       0.02859
   394    H   27  S      Ryd( 2S)     0.00103       0.83837
   395    H   27  S      Ryd( 3S)     0.00016       1.93838
   396    H   27  px     Ryd( 2p)     0.00012       1.75003
   397    H   27  py     Ryd( 2p)     0.00017       2.05197
   398    H   27  pz     Ryd( 2p)     0.00025       2.37098

   399    H   28  S      Val( 1S)     0.79616       0.02859
   400    H   28  S      Ryd( 2S)     0.00103       0.83836
   401    H   28  S      Ryd( 3S)     0.00016       1.93839
   402    H   28  px     Ryd( 2p)     0.00012       1.75004
   403    H   28  py     Ryd( 2p)     0.00017       2.05187
   404    H   28  pz     Ryd( 2p)     0.00025       2.37107

 WARNING:  1 low occupancy (<1.9990e) core orbital  found on  C    1
           1 low occupancy (<1.9990e) core orbital  found on  C    2
           1 low occupancy (<1.9990e) core orbital  found on  C    8

 WARNING:  Population inversion found on atom  C    1
           Population inversion found on atom  C    2
           Population inversion found on atom  C    3
           Population inversion found on atom  C    4
           Population inversion found on atom  C    5
           Population inversion found on atom  C    6
           Population inversion found on atom  C    7
           Population inversion found on atom  C    8
           Population inversion found on atom  N   14
           Population inversion found on atom  C   15
           Population inversion found on atom  C   19
           Population inversion found on atom  O   21
           Population inversion found on atom  C   22
           Population inversion found on atom  C   23


 Summary of Natural Population Analysis:                  
                                                          
                                       Natural Population 
                Natural  -----------------------------------------------
    Atom  No    Charge         Core      Valence    Rydberg      Total
 -----------------------------------------------------------------------
      C    1    0.14540      1.99897     3.83510    0.02054     5.85460
      C    2   -0.04368      1.99876     4.02857    0.01634     6.04368
      C    3   -0.18715      1.99911     4.17002    0.01802     6.18715
      C    4   -0.21779      1.99918     4.20102    0.01760     6.21779
      C    5   -0.20779      1.99919     4.18986    0.01875     6.20779
      C    6   -0.23703      1.99906     4.22172    0.01625     6.23703
      C    7    0.25703      1.99908     3.72377    0.02012     5.74297
      C    8   -0.24577      1.99878     4.22610    0.02088     6.24577
      H    9    0.23391      0.00000     0.76422    0.00187     0.76609
      H   10    0.20535      0.00000     0.79325    0.00140     0.79465
      H   11    0.20460      0.00000     0.79392    0.00147     0.79540
      H   12    0.20691      0.00000     0.79140    0.00169     0.79309
      H   13    0.40221      0.00000     0.59441    0.00337     0.59779
      N   14   -0.53255      1.99925     5.51943    0.01388     7.53255
      C   15   -0.60665      1.99928     4.59769    0.00968     6.60665
      H   16    0.23336      0.00000     0.76486    0.00178     0.76664
      H   17    0.19910      0.00000     0.79943    0.00147     0.80090
      H   18    0.23337      0.00000     0.76485    0.00178     0.76663
      C   19    0.80415      1.99909     3.15006    0.04670     5.19585
      O   20   -0.61620      1.99975     6.60556    0.01089     8.61620
      O   21   -0.58211      1.99972     6.56265    0.01974     8.58211
      C   22   -0.03784      1.99922     4.01791    0.02071     6.03784
      C   23   -0.59111      1.99936     4.58316    0.00859     6.59111
      H   24    0.18474      0.00000     0.81299    0.00227     0.81526
      H   25    0.18474      0.00000     0.81299    0.00227     0.81526
      H   26    0.20701      0.00000     0.79177    0.00123     0.79299
      H   27    0.20210      0.00000     0.79616    0.00174     0.79790
      H   28    0.20210      0.00000     0.79616    0.00174     0.79790
 =======================================================================
   * Total *    0.00040     29.98780    77.70903    0.30278   107.99960

                                 Natural Population      
 --------------------------------------------------------
   Core                      29.98780 ( 99.9593% of  30)
   Valence                   77.70903 ( 99.6270% of  78)
   Natural Minimal Basis    107.69683 ( 99.7193% of 108)
   Natural Rydberg Basis      0.30278 (  0.2803% of 108)
 --------------------------------------------------------

    Atom  No          Natural Electron Configuration
 ----------------------------------------------------------------------------
      C    1      [core]2S( 0.82)2p( 3.01)4p( 0.01)
      C    2      [core]2S( 0.85)2p( 3.18)4p( 0.01)
      C    3      [core]2S( 0.94)2p( 3.23)4p( 0.01)
      C    4      [core]2S( 0.95)2p( 3.25)4p( 0.01)
      C    5      [core]2S( 0.95)2p( 3.24)4p( 0.01)
      C    6      [core]2S( 0.94)2p( 3.28)4p( 0.01)
      C    7      [core]2S( 0.85)2p( 2.88)4p( 0.01)
      C    8      [core]2S( 0.88)2p( 3.34)4p( 0.01)
      H    9            1S( 0.76)
      H   10            1S( 0.79)
      H   11            1S( 0.79)
      H   12            1S( 0.79)
      H   13            1S( 0.59)
      N   14      [core]2S( 1.22)2p( 4.30)4p( 0.01)
      C   15      [core]2S( 1.08)2p( 3.52)
      H   16            1S( 0.76)
      H   17            1S( 0.80)
      H   18            1S( 0.76)
      C   19      [core]2S( 0.74)2p( 2.41)3d( 0.01)4p( 0.03)
      O   20      [core]2S( 1.70)2p( 4.90)3d( 0.01)
      O   21      [core]2S( 1.63)2p( 4.93)3p( 0.01)4p( 0.01)
      C   22      [core]2S( 1.02)2p( 2.99)3p( 0.01)4S( 0.01)3d( 0.01)
      C   23      [core]2S( 1.10)2p( 3.49)
      H   24            1S( 0.81)
      H   25            1S( 0.81)
      H   26            1S( 0.79)
      H   27            1S( 0.80)
      H   28            1S( 0.80)


 NBO analysis skipped by request.
 1\1\GINC-COREV2-25-010\SP\RB3LYP\6-311+G(d,p)\C12H13N1O2\ROOT\23-Jul-2
 021\0\\# b3lyp/6-311+g(d,p) geom=connectivity pop=(hirshfeld,chelpg,mb
 s,npa)\\Table9_8\\0,1\C,0,2.098557,0.818794,0.000004\C,0,1.294191,-0.3
 43752,-0.000014\C,0,1.918472,-1.59998,-0.000024\C,0,3.306414,-1.653162
 ,-0.000006\C,0,4.086489,-0.482577,0.000027\C,0,3.492075,0.773409,0.000
 018\C,0,-0.070068,1.491142,0.000002\C,0,-0.083422,0.101789,0.000007\H,
 0,1.317668,-2.499445,-0.000035\H,0,3.802327,-2.617264,-0.000002\H,0,5.
 167663,-0.560453,0.000044\H,0,4.089908,1.678295,0.000022\H,0,1.522339,
 2.872925,0.000015\N,0,1.237534,1.906639,-0.000007\C,0,-1.174188,2.4983
 07,-0.000014\H,0,-1.813535,2.378427,0.876669\H,0,-0.771236,3.514259,-0
 .000252\H,0,-1.813794,2.378129,-0.876472\C,0,-1.237265,-0.790484,-0.00
 0027\O,0,-1.174546,-2.003372,-0.00001\O,0,-2.425753,-0.123167,-0.00001
 7\C,0,-3.614692,-0.946027,0.00004\C,0,-4.815289,-0.020851,0.000005\H,0
 ,-3.596883,-1.591045,0.88167\H,0,-3.596901,-1.591147,-0.881512\H,0,-5.
 735313,-0.611694,0.000053\H,0,-4.820105,0.61765,0.886656\H,0,-4.820132
 ,0.617558,-0.88671\\Version=ES64L-G09RevD.01\State=1-A\HF=-670.5243754
 \RMSD=7.906e-09\Dipole=-0.3247738,1.7786086,0.0000305\Quadrupole=5.380
 9916,1.1096753,-6.4906669,1.8855491,-0.0000339,0.0000555\PG=C01 [X(C12
 H13N1O2)]\\@


 IT IS UNWORTHY OF EXCELLENT MEN TO LOSE HOURS LIKE SLAVES IN THE LABOR
 OF CALCULATION WHICH COULD BE SAFELY RELEGATED TO ANYONE ELSE
 IF A MACHINE WERE USED.
    -- G.W. VON LEIBNIZ
 Job cpu time:       0 days  0 hours 17 minutes 48.5 seconds.
 File lengths (MBytes):  RWF=    130 Int=      0 D2E=      0 Chk=      7 Scr=      1
 Normal termination of Gaussian 09 at Fri Jul 23 17:41:12 2021.
