 Entering Gaussian System, Link 0=g09
 Initial command:
 /cm/shared/apps/gaussian/g09revD.01/g09/l1.exe "//home/sweav003/CHB/CHActivation_Mkhalid/OtherCharges/G09-Table9_9.com.o9447161.tmp/Gau-54040.inp" -scrdir="//home/sweav003/CHB/CHActivation_Mkhalid/OtherCharges/G09-Table9_9.com.o9447161.tmp/"
 Entering Link 1 = /cm/shared/apps/gaussian/g09revD.01/g09/l1.exe PID=     54041.
  
 Copyright (c) 1988,1990,1992,1993,1995,1998,2003,2009,2013,
            Gaussian, Inc.  All Rights Reserved.
  
 This is part of the Gaussian(R) 09 program.  It is based on
 the Gaussian(R) 03 system (copyright 2003, Gaussian, Inc.),
 the Gaussian(R) 98 system (copyright 1998, Gaussian, Inc.),
 the Gaussian(R) 94 system (copyright 1995, Gaussian, Inc.),
 the Gaussian 92(TM) system (copyright 1992, Gaussian, Inc.),
 the Gaussian 90(TM) system (copyright 1990, Gaussian, Inc.),
 the Gaussian 88(TM) system (copyright 1988, Gaussian, Inc.),
 the Gaussian 86(TM) system (copyright 1986, Carnegie Mellon
 University), and the Gaussian 82(TM) system (copyright 1983,
 Carnegie Mellon University). Gaussian is a federally registered
 trademark of Gaussian, Inc.
  
 This software contains proprietary and confidential information,
 including trade secrets, belonging to Gaussian, Inc.
  
 This software is provided under written license and may be
 used, copied, transmitted, or stored only in accord with that
 written license.
  
 The following legend is applicable only to US Government
 contracts under FAR:
  
                    RESTRICTED RIGHTS LEGEND
  
 Use, reproduction and disclosure by the US Government is
 subject to restrictions as set forth in subparagraphs (a)
 and (c) of the Commercial Computer Software - Restricted
 Rights clause in FAR 52.227-19.
  
 Gaussian, Inc.
 340 Quinnipiac St., Bldg. 40, Wallingford CT 06492
  
  
 ---------------------------------------------------------------
 Warning -- This program may not be used in any manner that
 competes with the business of Gaussian, Inc. or will provide
 assistance to any competitor of Gaussian, Inc.  The licensee
 of this program is prohibited from giving any competitor of
 Gaussian, Inc. access to this program.  By using this program,
 the user acknowledges that Gaussian, Inc. is engaged in the
 business of creating and licensing software in the field of
 computational chemistry and represents and warrants to the
 licensee that it is not a competitor of Gaussian, Inc. and that
 it will not use this program in any manner prohibited above.
 ---------------------------------------------------------------
  

 Cite this work as:
 Gaussian 09, Revision D.01,
 M. J. Frisch, G. W. Trucks, H. B. Schlegel, G. E. Scuseria, 
 M. A. Robb, J. R. Cheeseman, G. Scalmani, V. Barone, B. Mennucci, 
 G. A. Petersson, H. Nakatsuji, M. Caricato, X. Li, H. P. Hratchian, 
 A. F. Izmaylov, J. Bloino, G. Zheng, J. L. Sonnenberg, M. Hada, 
 M. Ehara, K. Toyota, R. Fukuda, J. Hasegawa, M. Ishida, T. Nakajima, 
 Y. Honda, O. Kitao, H. Nakai, T. Vreven, J. A. Montgomery, Jr., 
 J. E. Peralta, F. Ogliaro, M. Bearpark, J. J. Heyd, E. Brothers, 
 K. N. Kudin, V. N. Staroverov, T. Keith, R. Kobayashi, J. Normand, 
 K. Raghavachari, A. Rendell, J. C. Burant, S. S. Iyengar, J. Tomasi, 
 M. Cossi, N. Rega, J. M. Millam, M. Klene, J. E. Knox, J. B. Cross, 
 V. Bakken, C. Adamo, J. Jaramillo, R. Gomperts, R. E. Stratmann, 
 O. Yazyev, A. J. Austin, R. Cammi, C. Pomelli, J. W. Ochterski, 
 R. L. Martin, K. Morokuma, V. G. Zakrzewski, G. A. Voth, 
 P. Salvador, J. J. Dannenberg, S. Dapprich, A. D. Daniels, 
 O. Farkas, J. B. Foresman, J. V. Ortiz, J. Cioslowski, 
 and D. J. Fox, Gaussian, Inc., Wallingford CT, 2013.
 
 ******************************************
 Gaussian 09:  ES64L-G09RevD.01 24-Apr-2013
                23-Jul-2021 
 ******************************************
 %mem=100MW
 %nprocshared=20
 Will use up to   20 processors via shared memory.
 ---------------------------------------------------------------------
 # b3lyp/6-311+g(d,p) geom=connectivity pop=(hirshfeld,chelpg,mbs,npa)
 ---------------------------------------------------------------------
 1/38=1,57=2/1;
 2/12=2,17=6,18=5,40=1/2;
 3/5=4,6=6,7=111,11=2,16=1,25=1,30=1,74=-5/1,2,3;
 4//1;
 5/5=2,38=5/2;
 6/7=2,8=2,9=2,10=2,15=8,20=3,27=100,28=1,40=-1,79=1/1,2,7;
 99/5=1,9=1/99;
 --------
 Table9_9
 --------
 Symbolic Z-matrix:
 Charge =  0 Multiplicity = 1
 6                     0.42264   1.21588  -0.00001 
 6                     0.92608  -0.11197  -0.00002 
 6                     2.32533  -0.31643  -0.0001 
 6                     3.16216   0.79072   0.00001 
 6                     2.62347   2.09809   0.00001 
 6                     1.26273   2.33974  -0.00008 
 6                    -1.32105  -0.20885   0.00003 
 6                    -0.19045  -0.99526  -0.00004 
 1                     4.23682   0.67187   0.00019 
 1                     3.31115   2.93625   0.00007 
 1                     0.86724   3.3482   -0.00016 
 1                    -1.59996   1.89265  -0.00005 
 1                    -0.1791   -2.07234  -0.0001 
 6                    -2.72042  -0.63199  -0.00002 
 8                    -3.1088   -1.77711  -0.00008 
 8                    -3.55725   0.44304  -0.00001 
 6                    -4.96362   0.14009   0.00008 
 1                    -5.22957  -0.43436   0.88841 
 1                    -5.46932   1.10336   0.00145 
 1                    -5.23016  -0.43205  -0.88959 
 7                    -0.94569   1.12741   0.0001 
 8                     2.73283  -1.61361  -0.00002 
 6                     4.12881  -1.88586   0.00008 
 1                     4.61227  -1.47915   0.89456 
 1                     4.21967  -2.97067   0.0001 
 1                     4.61237  -1.47915  -0.89432 
 
                          Input orientation:                          
 ---------------------------------------------------------------------
 Center     Atomic      Atomic             Coordinates (Angstroms)
 Number     Number       Type             X           Y           Z
 ---------------------------------------------------------------------
      1          6           0        0.422641    1.215882   -0.000013
      2          6           0        0.926081   -0.111970   -0.000024
      3          6           0        2.325333   -0.316434   -0.000100
      4          6           0        3.162156    0.790716    0.000009
      5          6           0        2.623470    2.098094    0.000006
      6          6           0        1.262730    2.339742   -0.000082
      7          6           0       -1.321050   -0.208850    0.000031
      8          6           0       -0.190449   -0.995260   -0.000037
      9          1           0        4.236819    0.671870    0.000191
     10          1           0        3.311152    2.936252    0.000066
     11          1           0        0.867243    3.348199   -0.000158
     12          1           0       -1.599962    1.892650   -0.000045
     13          1           0       -0.179098   -2.072339   -0.000096
     14          6           0       -2.720417   -0.631994   -0.000018
     15          8           0       -3.108795   -1.777112   -0.000079
     16          8           0       -3.557250    0.443037   -0.000012
     17          6           0       -4.963624    0.140089    0.000082
     18          1           0       -5.229568   -0.434355    0.888411
     19          1           0       -5.469324    1.103362    0.001450
     20          1           0       -5.230156   -0.432054   -0.889585
     21          7           0       -0.945689    1.127412    0.000103
     22          8           0        2.732833   -1.613606   -0.000023
     23          6           0        4.128812   -1.885855    0.000081
     24          1           0        4.612273   -1.479154    0.894561
     25          1           0        4.219667   -2.970668    0.000096
     26          1           0        4.612374   -1.479153   -0.894319
 ---------------------------------------------------------------------
                    Distance matrix (angstroms):
                    1          2          3          4          5
     1  C    0.000000
     2  C    1.420085   0.000000
     3  C    2.442996   1.414112   0.000000
     4  C    2.772311   2.411405   1.387823   0.000000
     5  C    2.371064   2.786667   2.432865   1.414008   0.000000
     6  C    1.403143   2.474717   2.860838   2.450980   1.382030
     7  C    2.251737   2.249218   3.647970   4.593285   4.569598
     8  C    2.294565   1.423671   2.605756   3.798641   4.181744
     9  H    3.852779   3.402263   2.151865   1.081215   2.153372
    10  H    3.362019   3.870429   3.398795   2.150703   1.084166
    11  H    2.178175   3.460669   3.944054   3.436182   2.155712
    12  H    2.132824   3.224809   4.504219   4.887947   4.228426
    13  H    3.342826   2.250437   3.058656   4.400121   5.024629
    14  C    3.646020   3.683391   5.055608   6.052171   6.000876
    15  O    4.629153   4.364965   5.627018   6.776324   6.919255
    16  O    4.054235   4.517554   5.931406   6.728395   6.398477
    17  C    5.492648   5.895096   7.303240   8.151786   7.835673
    18  H    5.954834   6.227782   7.607883   8.527080   8.298962
    19  H    5.893039   6.509857   7.922910   8.637141   8.153699
    20  H    5.954926   6.228405   7.608546   8.527452   8.298943
    21  N    1.371187   2.244903   3.575511   4.121620   3.698800
    22  O    3.652806   2.349311   1.359673   2.442352   3.713311
    23  C    4.832854   3.661168   2.390736   2.845779   4.258862
    24  H    5.061274   4.032057   2.717063   2.838199   4.189543
    25  H    5.651956   4.361177   3.260899   3.907216   5.314150
    26  H    5.061310   4.032085   2.717002   2.838179   4.189541
                    6          7          8          9         10
     6  C    0.000000
     7  C    3.629220   0.000000
     8  C    3.637852   1.377207   0.000000
     9  H    3.409839   5.627217   4.730753   0.000000
    10  H    2.133508   5.599014   5.264788   2.446280   0.000000
    11  H    1.083234   4.176269   4.470386   4.303113   2.478385
    12  H    2.897395   2.119928   3.213526   5.963079   5.020771
    13  H    4.641694   2.185554   1.077139   5.199135   6.104738
    14  C    4.969575   1.461944   2.555915   7.078361   7.008010
    15  O    6.004891   2.378125   3.021264   7.743097   7.964391
    16  O    5.179739   2.329280   3.661154   7.797428   7.306919
    17  C    6.603481   3.659249   4.906345   9.215799   8.734440
    18  H    7.115825   4.014547   5.147492   9.572103   9.224643
    19  H    6.844647   4.350871   5.680734   9.715729   8.969741
    20  H    7.115591   4.015264   5.148509   9.572563   9.224473
    21  N    2.519297   1.387981   2.253025   5.202491   4.625213
    22  O    4.217839   4.290374   2.987964   2.735941   4.586465
    23  C    5.105888   5.702047   4.410122   2.560004   4.890939
    24  H    5.157886   6.133366   4.909236   2.359612   4.689227
    25  H    6.078152   6.190895   4.832324   3.642578   5.976379
    26  H    5.157881   6.133437   4.909277   2.359680   4.689233
                   11         12         13         14         15
    11  H    0.000000
    12  H    2.864563   0.000000
    13  H    5.520603   4.211887   0.000000
    14  C    5.358474   2.762109   2.921112   0.000000
    15  O    6.486732   3.967837   2.944535   1.209187   0.000000
    16  O    5.293024   2.435642   4.211772   1.362344   2.264989
    17  C    6.655147   3.792847   5.271293   2.372360   2.667593
    18  H    7.229687   4.402084   5.383278   2.669121   2.662722
    19  H    6.722453   3.949043   6.170216   3.250839   3.724142
    20  H    7.229085   4.401572   5.384692   2.670224   2.664690
    21  N    2.866813   1.006808   3.290299   2.499034   3.621503
    22  O    5.300937   5.573773   2.947843   5.540893   5.843916
    23  C    6.167103   6.862649   4.311944   6.963053   7.238424
    24  H    6.174877   7.124693   4.910144   7.435475   7.778435
    25  H    7.153099   7.584190   4.489558   7.323535   7.425021
    26  H    6.174857   7.124739   4.910164   7.435541   7.778489
                   16         17         18         19         20
    16  O    0.000000
    17  C    1.438633   0.000000
    18  H    2.087046   1.090798   0.000000
    19  H    2.022884   1.087947   1.791300   0.000000
    20  H    2.087041   1.090823   1.777998   1.791270   0.000000
    21  N    2.699744   4.137464   4.645409   4.523699   4.645443
    22  O    6.617773   7.893725   8.098134   8.640445   8.099172
    23  C    8.031145   9.315409   9.511848  10.052842   9.512903
    24  H    8.440153   9.752940   9.897145  10.445364  10.057485
    25  H    8.493163   9.695857   9.823952  10.510674   9.825235
    26  H    8.440222   9.753032  10.056518  10.445689   9.898072
                   21         22         23         24         25
    21  N    0.000000
    22  O    4.587451   0.000000
    23  C    5.901723   1.422279   0.000000
    24  H    6.203643   2.085822   1.095096   0.000000
    25  H    6.593570   2.013031   1.088611   1.782925   0.000000
    26  H    6.203728   2.085789   1.095075   1.788880   1.782923
                   26
    26  H    0.000000
 Stoichiometry    C11H11NO3
 Framework group  C1[X(C11H11NO3)]
 Deg. of freedom    72
 Full point group                 C1      NOp   1
 Largest Abelian subgroup         C1      NOp   1
 Largest concise Abelian subgroup C1      NOp   1
                         Standard orientation:                         
 ---------------------------------------------------------------------
 Center     Atomic      Atomic             Coordinates (Angstroms)
 Number     Number       Type             X           Y           Z
 ---------------------------------------------------------------------
      1          6           0       -0.422641    1.215882    0.000013
      2          6           0       -0.926081   -0.111970    0.000024
      3          6           0       -2.325333   -0.316434    0.000100
      4          6           0       -3.162156    0.790716   -0.000009
      5          6           0       -2.623470    2.098094   -0.000006
      6          6           0       -1.262730    2.339742    0.000082
      7          6           0        1.321050   -0.208850   -0.000031
      8          6           0        0.190449   -0.995260    0.000037
      9          1           0       -4.236819    0.671870   -0.000191
     10          1           0       -3.311152    2.936252   -0.000066
     11          1           0       -0.867243    3.348199    0.000158
     12          1           0        1.599962    1.892650    0.000045
     13          1           0        0.179098   -2.072339    0.000096
     14          6           0        2.720417   -0.631994    0.000018
     15          8           0        3.108795   -1.777112    0.000079
     16          8           0        3.557250    0.443037    0.000012
     17          6           0        4.963624    0.140089   -0.000082
     18          1           0        5.229568   -0.434355   -0.888411
     19          1           0        5.469324    1.103362   -0.001450
     20          1           0        5.230156   -0.432054    0.889585
     21          7           0        0.945689    1.127412   -0.000103
     22          8           0       -2.732833   -1.613606    0.000023
     23          6           0       -4.128812   -1.885855   -0.000081
     24          1           0       -4.612273   -1.479154   -0.894561
     25          1           0       -4.219667   -2.970668   -0.000096
     26          1           0       -4.612374   -1.479153    0.894319
 ---------------------------------------------------------------------
 Rotational constants (GHZ):      1.3859763      0.3197957      0.2607002
 Standard basis: 6-311+G(d,p) (5D, 7F)
 There are   411 symmetry adapted cartesian basis functions of A   symmetry.
 There are   396 symmetry adapted basis functions of A   symmetry.
   396 basis functions,   628 primitive gaussians,   411 cartesian basis functions
    54 alpha electrons       54 beta electrons
       nuclear repulsion energy       945.4652891555 Hartrees.
 NAtoms=   26 NActive=   26 NUniq=   26 SFac= 1.00D+00 NAtFMM=   60 NAOKFM=F Big=F
 Integral buffers will be    131072 words long.
 Raffenetti 2 integral format.
 Two-electron integral symmetry is turned on.
 One-electron integrals computed using PRISM.
 NBasis=   396 RedAO= T EigKep=  1.26D-06  NBF=   396
 NBsUse=   394 1.00D-06 EigRej=  5.71D-07 NBFU=   394
 ExpMin= 4.38D-02 ExpMax= 8.59D+03 ExpMxC= 1.30D+03 IAcc=2 IRadAn=         4 AccDes= 0.00D+00
 Harris functional with IExCor=  402 and IRadAn=       4 diagonalized for initial guess.
 HarFok:  IExCor=  402 AccDes= 0.00D+00 IRadAn=         4 IDoV= 1 UseB2=F ITyADJ=14
 ICtDFT=  3500011 ScaDFX=  1.000000  1.000000  1.000000  1.000000
 FoFCou: FMM=F IPFlag=           0 FMFlag=      100000 FMFlg1=           0
         NFxFlg=           0 DoJE=T BraDBF=F KetDBF=T FulRan=T
         wScrn=  0.000000 ICntrl=     500 IOpCl=  0 I1Cent=   200000004 NGrid=           0
         NMat0=    1 NMatS0=      1 NMatT0=    0 NMatD0=    1 NMtDS0=    0 NMtDT0=    0
 Petite list used in FoFCou.
 Requested convergence on RMS density matrix=1.00D-08 within 128 cycles.
 Requested convergence on MAX density matrix=1.00D-06.
 Requested convergence on             energy=1.00D-06.
 No special actions if energy rises.
 SCF Done:  E(RB3LYP) =  -706.421791500     A.U. after   15 cycles
            NFock= 15  Conv=0.62D-08     -V/T= 2.0040

 **********************************************************************

            Population analysis using the SCF density.

 **********************************************************************

 Orbital symmetries:
       Occupied  (A) (A) (A) (A) (A) (A) (A) (A) (A) (A) (A) (A)
                 (A) (A) (A) (A) (A) (A) (A) (A) (A) (A) (A) (A)
                 (A) (A) (A) (A) (A) (A) (A) (A) (A) (A) (A) (A)
                 (A) (A) (A) (A) (A) (A) (A) (A) (A) (A) (A) (A)
                 (A) (A) (A) (A) (A) (A)
       Virtual   (A) (A) (A) (A) (A) (A) (A) (A) (A) (A) (A) (A)
                 (A) (A) (A) (A) (A) (A) (A) (A) (A) (A) (A) (A)
                 (A) (A) (A) (A) (A) (A) (A) (A) (A) (A) (A) (A)
                 (A) (A) (A) (A) (A) (A) (A) (A) (A) (A) (A) (A)
                 (A) (A) (A) (A) (A) (A) (A) (A) (A) (A) (A) (A)
                 (A) (A) (A) (A) (A) (A) (A) (A) (A) (A) (A) (A)
                 (A) (A) (A) (A) (A) (A) (A) (A) (A) (A) (A) (A)
                 (A) (A) (A) (A) (A) (A) (A) (A) (A) (A) (A) (A)
                 (A) (A) (A) (A) (A) (A) (A) (A) (A) (A) (A) (A)
                 (A) (A) (A) (A) (A) (A) (A) (A) (A) (A) (A) (A)
                 (A) (A) (A) (A) (A) (A) (A) (A) (A) (A) (A) (A)
                 (A) (A) (A) (A) (A) (A) (A) (A) (A) (A) (A) (A)
                 (A) (A) (A) (A) (A) (A) (A) (A) (A) (A) (A) (A)
                 (A) (A) (A) (A) (A) (A) (A) (A) (A) (A) (A) (A)
                 (A) (A) (A) (A) (A) (A) (A) (A) (A) (A) (A) (A)
                 (A) (A) (A) (A) (A) (A) (A) (A) (A) (A) (A) (A)
                 (A) (A) (A) (A) (A) (A) (A) (A) (A) (A) (A) (A)
                 (A) (A) (A) (A) (A) (A) (A) (A) (A) (A) (A) (A)
                 (A) (A) (A) (A) (A) (A) (A) (A) (A) (A) (A) (A)
                 (A) (A) (A) (A) (A) (A) (A) (A) (A) (A) (A) (A)
                 (A) (A) (A) (A) (A) (A) (A) (A) (A) (A) (A) (A)
                 (A) (A) (A) (A) (A) (A) (A) (A) (A) (A) (A) (A)
                 (A) (A) (A) (A) (A) (A) (A) (A) (A) (A) (A) (A)
                 (A) (A) (A) (A) (A) (A) (A) (A) (A) (A) (A) (A)
                 (A) (A) (A) (A) (A) (A) (A) (A) (A) (A) (A) (A)
                 (A) (A) (A) (A) (A) (A) (A) (A) (A) (A) (A) (A)
                 (A) (A) (A) (A) (A) (A) (A) (A) (A) (A) (A) (A)
                 (A) (A) (A) (A) (A) (A) (A) (A) (A) (A) (A) (A)
                 (A) (A) (A) (A)
 The electronic state is 1-A.
 Alpha  occ. eigenvalues --  -19.17556 -19.16185 -19.11274 -14.36649 -10.30846
 Alpha  occ. eigenvalues --  -10.24258 -10.23126 -10.23008 -10.21935 -10.21844
 Alpha  occ. eigenvalues --  -10.18258 -10.17920 -10.17789 -10.17678 -10.17207
 Alpha  occ. eigenvalues --   -1.11288  -1.07713  -1.02562  -0.99460  -0.85243
 Alpha  occ. eigenvalues --   -0.80014  -0.77034  -0.75279  -0.72850  -0.70311
 Alpha  occ. eigenvalues --   -0.64389  -0.61977  -0.60006  -0.57301  -0.55876
 Alpha  occ. eigenvalues --   -0.53427  -0.49781  -0.49272  -0.48815  -0.48235
 Alpha  occ. eigenvalues --   -0.47831  -0.47460  -0.44453  -0.43973  -0.43518
 Alpha  occ. eigenvalues --   -0.41677  -0.41109  -0.40328  -0.38676  -0.37489
 Alpha  occ. eigenvalues --   -0.37022  -0.36873  -0.34092  -0.32383  -0.31636
 Alpha  occ. eigenvalues --   -0.29005  -0.27453  -0.23909  -0.21081
 Alpha virt. eigenvalues --   -0.05513  -0.00393   0.00246   0.00807   0.01114
 Alpha virt. eigenvalues --    0.01210   0.01796   0.02743   0.03451   0.04211
 Alpha virt. eigenvalues --    0.04474   0.04780   0.04861   0.05725   0.06872
 Alpha virt. eigenvalues --    0.07022   0.07148   0.07685   0.08741   0.09661
 Alpha virt. eigenvalues --    0.09733   0.10172   0.10789   0.11375   0.11583
 Alpha virt. eigenvalues --    0.12026   0.12660   0.13210   0.13878   0.14195
 Alpha virt. eigenvalues --    0.14754   0.15040   0.15447   0.16287   0.16311
 Alpha virt. eigenvalues --    0.16861   0.17131   0.17841   0.18437   0.18502
 Alpha virt. eigenvalues --    0.18929   0.19148   0.19542   0.19978   0.20071
 Alpha virt. eigenvalues --    0.20751   0.21027   0.22125   0.22255   0.22465
 Alpha virt. eigenvalues --    0.22524   0.22800   0.23508   0.24169   0.24272
 Alpha virt. eigenvalues --    0.24387   0.24589   0.25128   0.26242   0.27105
 Alpha virt. eigenvalues --    0.27603   0.27936   0.28379   0.28397   0.29338
 Alpha virt. eigenvalues --    0.29553   0.29727   0.30654   0.30914   0.31619
 Alpha virt. eigenvalues --    0.31780   0.32387   0.33648   0.33942   0.35102
 Alpha virt. eigenvalues --    0.35888   0.36430   0.36530   0.38763   0.39313
 Alpha virt. eigenvalues --    0.40444   0.42357   0.42813   0.42844   0.43398
 Alpha virt. eigenvalues --    0.45112   0.46106   0.47222   0.48248   0.48386
 Alpha virt. eigenvalues --    0.51690   0.52807   0.53343   0.53761   0.53973
 Alpha virt. eigenvalues --    0.55739   0.56427   0.57652   0.58099   0.58570
 Alpha virt. eigenvalues --    0.59198   0.59409   0.59747   0.61998   0.62770
 Alpha virt. eigenvalues --    0.63033   0.63512   0.64191   0.65750   0.65962
 Alpha virt. eigenvalues --    0.66618   0.67745   0.68482   0.68756   0.69878
 Alpha virt. eigenvalues --    0.71229   0.72024   0.72138   0.72935   0.74168
 Alpha virt. eigenvalues --    0.75035   0.75497   0.76300   0.79222   0.81128
 Alpha virt. eigenvalues --    0.82625   0.84668   0.85611   0.86131   0.86368
 Alpha virt. eigenvalues --    0.89069   0.89869   0.90393   0.91562   0.92475
 Alpha virt. eigenvalues --    0.93634   0.96080   0.96306   0.97737   0.98585
 Alpha virt. eigenvalues --    1.00050   1.00248   1.00951   1.01326   1.01683
 Alpha virt. eigenvalues --    1.04442   1.05675   1.06387   1.06448   1.07296
 Alpha virt. eigenvalues --    1.07717   1.08731   1.10315   1.13663   1.14343
 Alpha virt. eigenvalues --    1.15053   1.16654   1.18198   1.18244   1.19387
 Alpha virt. eigenvalues --    1.22177   1.23832   1.27872   1.28318   1.29972
 Alpha virt. eigenvalues --    1.33395   1.34723   1.36280   1.37054   1.37427
 Alpha virt. eigenvalues --    1.42725   1.42793   1.42902   1.46405   1.49570
 Alpha virt. eigenvalues --    1.50253   1.51884   1.52456   1.52822   1.53621
 Alpha virt. eigenvalues --    1.53760   1.54508   1.56708   1.59243   1.60461
 Alpha virt. eigenvalues --    1.61009   1.62247   1.63612   1.66087   1.68476
 Alpha virt. eigenvalues --    1.68665   1.68754   1.69666   1.70692   1.71165
 Alpha virt. eigenvalues --    1.73005   1.73743   1.73921   1.75579   1.77270
 Alpha virt. eigenvalues --    1.79140   1.81047   1.82074   1.85489   1.86674
 Alpha virt. eigenvalues --    1.87336   1.88227   1.89219   1.90979   1.91976
 Alpha virt. eigenvalues --    1.94216   1.94563   1.95558   1.98237   1.99819
 Alpha virt. eigenvalues --    2.01526   2.02831   2.05790   2.07098   2.09543
 Alpha virt. eigenvalues --    2.09769   2.10445   2.11366   2.11540   2.12331
 Alpha virt. eigenvalues --    2.17815   2.18604   2.18753   2.24241   2.27436
 Alpha virt. eigenvalues --    2.33346   2.33434   2.34943   2.40297   2.42139
 Alpha virt. eigenvalues --    2.43340   2.43495   2.44711   2.46409   2.47528
 Alpha virt. eigenvalues --    2.49394   2.50595   2.50879   2.51135   2.52349
 Alpha virt. eigenvalues --    2.53963   2.57378   2.60335   2.62306   2.64782
 Alpha virt. eigenvalues --    2.65090   2.66800   2.68851   2.70592   2.72626
 Alpha virt. eigenvalues --    2.73964   2.75016   2.76073   2.79605   2.80020
 Alpha virt. eigenvalues --    2.80200   2.81536   2.82972   2.84258   2.87366
 Alpha virt. eigenvalues --    2.87579   2.89140   2.90527   2.92836   2.93059
 Alpha virt. eigenvalues --    2.96317   2.99593   3.01012   3.04092   3.04701
 Alpha virt. eigenvalues --    3.06845   3.08398   3.09840   3.11156   3.13377
 Alpha virt. eigenvalues --    3.15886   3.20025   3.23246   3.24396   3.29080
 Alpha virt. eigenvalues --    3.31809   3.36477   3.37533   3.37797   3.41361
 Alpha virt. eigenvalues --    3.46714   3.48382   3.51826   3.55544   3.61801
 Alpha virt. eigenvalues --    3.65180   3.66097   3.73578   3.76818   3.76908
 Alpha virt. eigenvalues --    3.83026   3.84937   3.88690   3.88866   3.97664
 Alpha virt. eigenvalues --    4.03530   4.06401   4.11325   4.12734   4.14648
 Alpha virt. eigenvalues --    4.22686   4.31101   4.47828   4.82333   4.93215
 Alpha virt. eigenvalues --    4.96834   5.01885   5.05322   5.16051   5.23197
 Alpha virt. eigenvalues --    5.40029   5.40490   5.68732   5.79359   5.84756
 Alpha virt. eigenvalues --   23.61715  23.81139  23.89376  23.90948  23.91297
 Alpha virt. eigenvalues --   23.92142  23.99379  24.03700  24.08502  24.15237
 Alpha virt. eigenvalues --   24.18056  35.67908  49.89897  49.97261  50.04487
          Condensed to atoms (all electrons):
               1          2          3          4          5          6
     1  C   14.965437  -3.378256  -2.462031  -0.928801   0.121099   0.885121
     2  C   -3.378256  12.784331   0.944068  -1.282276  -0.806468  -1.863296
     3  C   -2.462031   0.944068   8.457529  -0.751811  -0.609013  -0.498195
     4  C   -0.928801  -1.282276  -0.751811  10.070395  -0.085104   0.180347
     5  C    0.121099  -0.806468  -0.609013  -0.085104   6.388375   0.191187
     6  C    0.885121  -1.863296  -0.498195   0.180347   0.191187  12.001455
     7  C    2.049386  -0.712011  -0.410779  -0.178834   0.112692  -0.192226
     8  C   -2.845621   0.762467   0.175823  -0.927836   0.356973  -2.127680
     9  H    0.023401   0.028707  -0.107286   0.387991   0.062136  -0.045471
    10  H    0.069181   0.011591  -0.017309   0.003607   0.375767  -0.105037
    11  H   -0.046786  -0.021903  -0.008066   0.004166   0.059457   0.350007
    12  H   -0.131118   0.137935   0.009959   0.002994  -0.008996  -0.043704
    13  H   -0.010234   0.001708   0.017093   0.007650   0.001153   0.005663
    14  C   -1.524358  -1.849495   0.728701  -0.093291   0.151317  -1.437911
    15  O   -0.059249   0.067892   0.009868   0.003263  -0.000669  -0.003368
    16  O    0.014359  -0.023929   0.007911  -0.003059   0.001191  -0.008797
    17  C   -0.006314  -0.051313   0.008295  -0.001011   0.001143  -0.018686
    18  H    0.001630  -0.001337  -0.000118  -0.000018   0.000004  -0.000045
    19  H   -0.002066   0.001172   0.000027   0.000024   0.000005   0.000542
    20  H    0.001611  -0.001334  -0.000117  -0.000018   0.000004  -0.000048
    21  N   -0.286137   0.421931   0.118978   0.026098   0.000482  -0.535466
    22  O    0.021490  -0.206957   0.245592  -0.030501   0.004086   0.055186
    23  C    0.069334   0.121308  -0.001997  -0.353200  -0.118754   0.076738
    24  H    0.003717   0.008782  -0.050693   0.025773  -0.001083   0.003544
    25  H   -0.001626  -0.011211   0.054540  -0.018841   0.003369  -0.002856
    26  H    0.003685   0.008671  -0.050839   0.026018  -0.001014   0.003536
               7          8          9         10         11         12
     1  C    2.049386  -2.845621   0.023401   0.069181  -0.046786  -0.131118
     2  C   -0.712011   0.762467   0.028707   0.011591  -0.021903   0.137935
     3  C   -0.410779   0.175823  -0.107286  -0.017309  -0.008066   0.009959
     4  C   -0.178834  -0.927836   0.387991   0.003607   0.004166   0.002994
     5  C    0.112692   0.356973   0.062136   0.375767   0.059457  -0.008996
     6  C   -0.192226  -2.127680  -0.045471  -0.105037   0.350007  -0.043704
     7  C   16.633963  -0.791545   0.007323   0.005540   0.010082   0.002513
     8  C   -0.791545  10.043208   0.012641   0.001602   0.008420  -0.005541
     9  H    0.007323   0.012641   0.542882  -0.007499  -0.000280   0.000002
    10  H    0.005540   0.001602  -0.007499   0.545690  -0.007452   0.000006
    11  H    0.010082   0.008420  -0.000280  -0.007452   0.550810   0.001405
    12  H    0.002513  -0.005541   0.000002   0.000006   0.001405   0.360188
    13  H   -0.025838   0.366815  -0.000002  -0.000001   0.000005  -0.000033
    14  C   -9.621043   0.956985   0.000969   0.000419  -0.000323  -0.030104
    15  O   -0.012297   0.100983   0.000000   0.000000   0.000005  -0.000068
    16  O   -0.643998  -0.048930   0.000001  -0.000002  -0.000110   0.003534
    17  C   -0.714113  -0.024002   0.000000  -0.000001   0.000027   0.000593
    18  H    0.017899  -0.004397   0.000000   0.000000   0.000000   0.000030
    19  H    0.021580   0.003722   0.000000   0.000000   0.000000  -0.000125
    20  H    0.017553  -0.004363   0.000000   0.000000   0.000000   0.000030
    21  N    0.546076  -0.000328   0.001316  -0.001334  -0.006427   0.383735
    22  O    0.008823  -0.146563  -0.022419  -0.000481   0.000204   0.000023
    23  C    0.009366  -0.082164  -0.005065   0.000819  -0.000001   0.000001
    24  H   -0.000426  -0.008724  -0.000325   0.000045   0.000000   0.000000
    25  H   -0.000179   0.016296   0.000479  -0.000003   0.000000   0.000000
    26  H   -0.000411  -0.008728  -0.000327   0.000045   0.000000   0.000000
              13         14         15         16         17         18
     1  C   -0.010234  -1.524358  -0.059249   0.014359  -0.006314   0.001630
     2  C    0.001708  -1.849495   0.067892  -0.023929  -0.051313  -0.001337
     3  C    0.017093   0.728701   0.009868   0.007911   0.008295  -0.000118
     4  C    0.007650  -0.093291   0.003263  -0.003059  -0.001011  -0.000018
     5  C    0.001153   0.151317  -0.000669   0.001191   0.001143   0.000004
     6  C    0.005663  -1.437911  -0.003368  -0.008797  -0.018686  -0.000045
     7  C   -0.025838  -9.621043  -0.012297  -0.643998  -0.714113   0.017899
     8  C    0.366815   0.956985   0.100983  -0.048930  -0.024002  -0.004397
     9  H   -0.000002   0.000969   0.000000   0.000001   0.000000   0.000000
    10  H   -0.000001   0.000419   0.000000  -0.000002  -0.000001   0.000000
    11  H    0.000005  -0.000323   0.000005  -0.000110   0.000027   0.000000
    12  H   -0.000033  -0.030104  -0.000068   0.003534   0.000593   0.000030
    13  H    0.501420  -0.026374   0.001637   0.000373   0.000079  -0.000002
    14  C   -0.026374  18.015912   0.262154   0.457908   0.441334  -0.020281
    15  O    0.001637   0.262154   8.172465  -0.190829  -0.070193  -0.002873
    16  O    0.000373   0.457908  -0.190829   8.395894   0.288163  -0.032020
    17  C    0.000079   0.441334  -0.070193   0.288163   5.065091   0.418910
    18  H   -0.000002  -0.020281  -0.002873  -0.032020   0.418910   0.522592
    19  H   -0.000002   0.011528   0.003406  -0.062356   0.386942  -0.028453
    20  H   -0.000002  -0.020021  -0.002867  -0.032054   0.418966  -0.033965
    21  N    0.014280  -0.381668   0.014699   0.053897  -0.016618   0.000028
    22  O    0.004131  -0.006286  -0.000053   0.000029   0.000005   0.000000
    23  C    0.000026   0.000254  -0.000072   0.000096   0.000031   0.000000
    24  H    0.000006  -0.000101   0.000000   0.000000   0.000000   0.000000
    25  H    0.000023   0.000306   0.000000   0.000000   0.000000   0.000000
    26  H    0.000006  -0.000099   0.000000   0.000000   0.000000   0.000000
              19         20         21         22         23         24
     1  C   -0.002066   0.001611  -0.286137   0.021490   0.069334   0.003717
     2  C    0.001172  -0.001334   0.421931  -0.206957   0.121308   0.008782
     3  C    0.000027  -0.000117   0.118978   0.245592  -0.001997  -0.050693
     4  C    0.000024  -0.000018   0.026098  -0.030501  -0.353200   0.025773
     5  C    0.000005   0.000004   0.000482   0.004086  -0.118754  -0.001083
     6  C    0.000542  -0.000048  -0.535466   0.055186   0.076738   0.003544
     7  C    0.021580   0.017553   0.546076   0.008823   0.009366  -0.000426
     8  C    0.003722  -0.004363  -0.000328  -0.146563  -0.082164  -0.008724
     9  H    0.000000   0.000000   0.001316  -0.022419  -0.005065  -0.000325
    10  H    0.000000   0.000000  -0.001334  -0.000481   0.000819   0.000045
    11  H    0.000000   0.000000  -0.006427   0.000204  -0.000001   0.000000
    12  H   -0.000125   0.000030   0.383735   0.000023   0.000001   0.000000
    13  H   -0.000002  -0.000002   0.014280   0.004131   0.000026   0.000006
    14  C    0.011528  -0.020021  -0.381668  -0.006286   0.000254  -0.000101
    15  O    0.003406  -0.002867   0.014699  -0.000053  -0.000072   0.000000
    16  O   -0.062356  -0.032054   0.053897   0.000029   0.000096   0.000000
    17  C    0.386942   0.418966  -0.016618   0.000005   0.000031   0.000000
    18  H   -0.028453  -0.033965   0.000028   0.000000   0.000000   0.000000
    19  H    0.540511  -0.028464   0.000697   0.000000   0.000000   0.000000
    20  H   -0.028464   0.522665   0.000023   0.000000   0.000000   0.000000
    21  N    0.000697   0.000023   6.835256  -0.002810  -0.000852   0.000047
    22  O    0.000000   0.000000  -0.002810   8.208810   0.188867  -0.030406
    23  C    0.000000   0.000000  -0.000852   0.188867   5.086473   0.420374
    24  H    0.000000   0.000000   0.000047  -0.030406   0.420374   0.561437
    25  H    0.000000   0.000000  -0.000036  -0.068536   0.395991  -0.027487
    26  H    0.000000   0.000000   0.000047  -0.030422   0.420348  -0.051813
              25         26
     1  C   -0.001626   0.003685
     2  C   -0.011211   0.008671
     3  C    0.054540  -0.050839
     4  C   -0.018841   0.026018
     5  C    0.003369  -0.001014
     6  C   -0.002856   0.003536
     7  C   -0.000179  -0.000411
     8  C    0.016296  -0.008728
     9  H    0.000479  -0.000327
    10  H   -0.000003   0.000045
    11  H    0.000000   0.000000
    12  H    0.000000   0.000000
    13  H    0.000023   0.000006
    14  C    0.000306  -0.000099
    15  O    0.000000   0.000000
    16  O    0.000000   0.000000
    17  C    0.000000   0.000000
    18  H    0.000000   0.000000
    19  H    0.000000   0.000000
    20  H    0.000000   0.000000
    21  N   -0.000036   0.000047
    22  O   -0.068536  -0.030422
    23  C    0.395991   0.420348
    24  H   -0.027487  -0.051813
    25  H    0.527110  -0.027481
    26  H   -0.027481   0.561453
 Mulliken charges:
               1
     1  C   -0.546856
     2  C    0.909224
     3  C    0.189871
     4  C   -0.083724
     5  C   -0.199335
     6  C   -0.870541
     7  C   -0.139095
     8  C    0.220486
     9  H    0.120826
    10  H    0.124806
    11  H    0.106761
    12  H    0.316740
    13  H    0.140419
    14  C   -0.016434
    15  O   -0.293833
    16  O   -0.177270
    17  C   -0.127330
    18  H    0.162417
    19  H    0.151310
    20  H    0.162402
    21  N   -0.185913
    22  O   -0.191810
    23  C   -0.227921
    24  H    0.147334
    25  H    0.160142
    26  H    0.147324
 Sum of Mulliken charges =   0.00000
 Mulliken charges with hydrogens summed into heavy atoms:
               1
     1  C   -0.546856
     2  C    0.909224
     3  C    0.189871
     4  C    0.037102
     5  C   -0.074529
     6  C   -0.763780
     7  C   -0.139095
     8  C    0.360905
    14  C   -0.016434
    15  O   -0.293833
    16  O   -0.177270
    17  C    0.348799
    21  N    0.130828
    22  O   -0.191810
    23  C    0.226878
 Electronic spatial extent (au):  <R**2>=           4042.9804
 Charge=              0.0000 electrons
 Dipole moment (field-independent basis, Debye):
    X=             -0.8938    Y=              2.6636    Z=             -0.0003  Tot=              2.8096
 Quadrupole moment (field-independent basis, Debye-Ang):
   XX=            -64.8417   YY=            -85.9911   ZZ=            -90.9432
   XY=             12.2536   XZ=              0.0001   YZ=              0.0008
 Traceless Quadrupole moment (field-independent basis, Debye-Ang):
   XX=             15.7503   YY=             -5.3991   ZZ=            -10.3512
   XY=             12.2536   XZ=              0.0001   YZ=              0.0008
 Octapole moment (field-independent basis, Debye-Ang**2):
  XXX=             23.0905  YYY=             13.3258  ZZZ=              0.0020  XYY=            -19.3474
  XXY=              5.3617  XXZ=             -0.0114  XZZ=             14.8707  YZZ=             -9.2735
  YYZ=             -0.0026  XYZ=              0.0016
 Hexadecapole moment (field-independent basis, Debye-Ang**3):
 XXXX=          -3428.9476 YYYY=           -982.7254 ZZZZ=           -112.8386 XXXY=            195.6496
 XXXZ=             -0.0053 YYYX=             88.2695 YYYZ=              0.0039 ZZZX=              0.0157
 ZZZY=             -0.0003 XXYY=           -859.9045 XXZZ=           -723.2022 YYZZ=           -209.3149
 XXYZ=             -0.0015 YYXZ=             -0.0127 ZZXY=             12.6195
 N-N= 9.454652891555D+02 E-N=-3.540257323369D+03  KE= 7.036171882354D+02
 There are a total of      216670 grid points.
 ElSum from          density=      108.0000606236
 ElSum from atomic densities=      108.0001775569

 Hirshfeld populations at iteration   1 (CX, CA, CB, DipXYZ):
               1          2          3          4          5          6
     1  C    0.000001   2.977417   2.977417   0.064899   0.037413  -0.000003
     2  C    0.000000   3.017537   3.017537  -0.030133  -0.021833  -0.000009
     3  C    0.000000   2.961747   2.961747  -0.037878  -0.139602   0.000024
     4  C    0.000000   3.044808   3.044808  -0.040989   0.008693  -0.000011
     5  C    0.000000   3.024854   3.024854  -0.052118   0.031704  -0.000010
     6  C    0.000001   3.039043   3.039043   0.051513   0.044960   0.000012
     7  C    0.000001   2.991319   2.991319   0.075481   0.056555  -0.000007
     8  C    0.000001   3.027577   3.027577  -0.034530  -0.088423   0.000001
     9  H    0.000001   0.479900   0.479900  -0.158505  -0.001474  -0.000033
    10  H    0.000003   0.476728   0.476728  -0.103056   0.123996  -0.000011
    11  H    0.000003   0.477662   0.477662   0.056075   0.151255   0.000014
    12  H    0.000002   0.427667   0.427667   0.105108   0.176071   0.000033
    13  H    0.000002   0.468537   0.468537  -0.007001  -0.170471   0.000012
    14  C    0.000000   2.896146   2.896146   0.059679   0.059722  -0.000002
    15  O    0.000003   4.145031   4.145031  -0.026284   0.108640  -0.000022
    16  O    0.000000   4.070857   4.070857   0.063408  -0.122829  -0.000003
    17  C    0.000000   3.004911   3.004911  -0.046022   0.020745  -0.000004
    18  H    0.000001   0.475107   0.475107   0.057475  -0.071168  -0.126726
    19  H    0.000000   0.474570   0.474570   0.084315   0.135402  -0.000196
    20  H    0.000001   0.475103   0.475103   0.057496  -0.070901   0.126881
    21  N    0.000001   3.542743   3.542743   0.032929   0.059747   0.000025
    22  O    0.000000   4.067972   4.067972  -0.108822   0.102737  -0.000007
    23  C    0.000000   3.003646   3.003646   0.060709   0.007288   0.000003
    24  H    0.000001   0.478198   0.478198  -0.073848   0.041183  -0.119671
    25  H    0.000000   0.472752   0.472752  -0.020739  -0.159604  -0.000003
    26  H    0.000001   0.478199   0.478199  -0.073864   0.041184   0.119664
       Tot   0.000022  54.000030  54.000030  -0.044701   0.360991  -0.000052

 Dip from Atomic Chgs             -0.306376   0.687059  -0.000060
         Total Dipole             -0.351076   1.048050  -0.000112

 Hirshfeld charges, spin densities, dipoles, and CM5 charges using IRadAn=      4:
              Q-H        S-H        Dx         Dy         Dz        Q-CM5   
     1  C    0.045165   0.000000   0.064899   0.037413  -0.000003   0.107285
     2  C   -0.035074   0.000000  -0.030133  -0.021833  -0.000009  -0.028265
     3  C    0.076507   0.000000  -0.037878  -0.139602   0.000024   0.096070
     4  C   -0.089615   0.000000  -0.040989   0.008693  -0.000011  -0.141567
     5  C   -0.049708   0.000000  -0.052118   0.031704  -0.000010  -0.104817
     6  C   -0.078086   0.000000   0.051513   0.044960   0.000012  -0.126927
     7  C    0.017362   0.000000   0.075481   0.056555  -0.000007   0.081121
     8  C   -0.055155   0.000000  -0.034530  -0.088423   0.000001  -0.095997
     9  H    0.040200   0.000000  -0.158505  -0.001474  -0.000033   0.099618
    10  H    0.046544   0.000000  -0.103056   0.123996  -0.000011   0.102525
    11  H    0.044676   0.000000   0.056075   0.151255   0.000014   0.102136
    12  H    0.144665   0.000000   0.105108   0.176071   0.000033   0.343376
    13  H    0.062926   0.000000  -0.007001  -0.170471   0.000012   0.122395
    14  C    0.207709   0.000000   0.059679   0.059722  -0.000002   0.270195
    15  O   -0.290062   0.000000  -0.026284   0.108640  -0.000022  -0.336444
    16  O   -0.141713   0.000000   0.063408  -0.122829  -0.000003  -0.225720
    17  C   -0.009822   0.000000  -0.046022   0.020745  -0.000004  -0.131452
    18  H    0.049787   0.000000   0.057475  -0.071168  -0.126726   0.111245
    19  H    0.050861   0.000000   0.084315   0.135402  -0.000196   0.111384
    20  H    0.049794   0.000000   0.057496  -0.070901   0.126881   0.111234
    21  N   -0.085485   0.000000   0.032929   0.059747   0.000025  -0.434944
    22  O   -0.135944   0.000000  -0.108822   0.102737  -0.000007  -0.223607
    23  C   -0.007292   0.000000   0.060709   0.007288   0.000003  -0.129266
    24  H    0.043604   0.000000  -0.073848   0.041183  -0.119671   0.102643
    25  H    0.054496   0.000000  -0.020739  -0.159604  -0.000003   0.115072
    26  H    0.043602   0.000000  -0.073864   0.041184   0.119664   0.102645
       Tot  -0.000061   0.000000  -0.044701   0.360991  -0.000052  -0.000061
 Hirshfeld charges with hydrogens summed into heavy atoms:
              Q-H       Q-CM5   
     1  C    0.045165   0.107285
     2  C   -0.035074  -0.028265
     3  C    0.076507   0.096070
     4  C   -0.049415  -0.041949
     5  C   -0.003164  -0.002293
     6  C   -0.033411  -0.024790
     7  C    0.017362   0.081121
     8  C    0.007772   0.026398
    14  C    0.207709   0.270195
    15  O   -0.290062  -0.336444
    16  O   -0.141713  -0.225720
    17  C    0.140619   0.202411
    21  N    0.059180  -0.091568
    22  O   -0.135944  -0.223607
    23  C    0.134409   0.191095
 
 EQQ= 0.000000000000E+00 EQD= 0.000000000000E+00 EDD= 0.495525812918E-02
 EQQ+QD+DD= 0.495525812918E-02
 
          MBS Condensed to atoms (all electrons):
               1          2          3          4          5          6
     1  C    4.718527   0.482890  -0.026159  -0.010751  -0.034577   0.485442
     2  C    0.482890   4.821927   0.473289  -0.034886  -0.010514  -0.026213
     3  C   -0.026159   0.473289   4.650563   0.511542  -0.026949  -0.008366
     4  C   -0.010751  -0.034886   0.511542   4.913108   0.485581  -0.030686
     5  C   -0.034577  -0.010514  -0.026949   0.485581   4.811997   0.525519
     6  C    0.485442  -0.026213  -0.008366  -0.030686   0.525519   4.855853
     7  C   -0.063180  -0.053827   0.001057  -0.000010  -0.000014   0.001283
     8  C   -0.048006   0.473485  -0.018698   0.000651   0.000070   0.001045
     9  H    0.000089   0.001351  -0.025770   0.390369  -0.024239   0.001399
    10  H    0.001645   0.000043   0.001387  -0.025972   0.390621  -0.026310
    11  H   -0.024591   0.001274   0.000032   0.001403  -0.023203   0.389712
    12  H   -0.023505   0.002269  -0.000027   0.000001  -0.000009  -0.001203
    13  H    0.001553  -0.017787  -0.001298   0.000005  -0.000001  -0.000017
    14  C    0.001118   0.001040  -0.000006   0.000000   0.000000  -0.000007
    15  O   -0.000003   0.000005   0.000000   0.000000   0.000000   0.000000
    16  O    0.000019  -0.000004   0.000000   0.000000   0.000000   0.000000
    17  C    0.000000   0.000000   0.000000   0.000000   0.000000   0.000000
    18  H    0.000000   0.000000   0.000000   0.000000   0.000000   0.000000
    19  H    0.000000   0.000000   0.000000   0.000000   0.000000   0.000000
    20  H    0.000000   0.000000   0.000000   0.000000   0.000000   0.000000
    21  N    0.419036  -0.051556   0.000767   0.000029   0.000576  -0.020465
    22  O    0.000345  -0.027475   0.315295  -0.019400   0.000306   0.000004
    23  C   -0.000017   0.001605  -0.035688  -0.007017   0.000042   0.000000
    24  H    0.000001  -0.000008  -0.002759   0.000556  -0.000002  -0.000001
    25  H    0.000000  -0.000034   0.002311   0.000091   0.000000   0.000000
    26  H    0.000001  -0.000008  -0.002760   0.000556  -0.000002  -0.000001
               7          8          9         10         11         12
     1  C   -0.063180  -0.048006   0.000089   0.001645  -0.024591  -0.023505
     2  C   -0.053827   0.473485   0.001351   0.000043   0.001274   0.002269
     3  C    0.001057  -0.018698  -0.025770   0.001387   0.000032  -0.000027
     4  C   -0.000010   0.000651   0.390369  -0.025972   0.001403   0.000001
     5  C   -0.000014   0.000070  -0.024239   0.390621  -0.023203  -0.000009
     6  C    0.001283   0.001045   0.001399  -0.026310   0.389712  -0.001203
     7  C    4.805096   0.535245   0.000000   0.000000  -0.000008  -0.025290
     8  C    0.535245   4.857576  -0.000019   0.000000  -0.000028   0.002079
     9  H    0.000000  -0.000019   0.558019  -0.004073  -0.000034   0.000000
    10  H    0.000000   0.000000  -0.004073   0.558798  -0.004004   0.000000
    11  H   -0.000008  -0.000028  -0.000034  -0.004004   0.555166   0.000717
    12  H   -0.025290   0.002079   0.000000   0.000000   0.000717   0.397411
    13  H   -0.020558   0.390313   0.000000   0.000000   0.000001  -0.000045
    14  C    0.410383  -0.019551   0.000000   0.000000   0.000000  -0.002377
    15  O   -0.026291  -0.000959   0.000000   0.000000   0.000000   0.000012
    16  O   -0.036842   0.000288   0.000000   0.000000   0.000000   0.003859
    17  C    0.001737  -0.000013   0.000000   0.000000   0.000000  -0.000123
    18  H    0.000013   0.000001   0.000000   0.000000   0.000000   0.000006
    19  H   -0.000029   0.000000   0.000000   0.000000   0.000000  -0.000007
    20  H    0.000013   0.000001   0.000000   0.000000   0.000000   0.000006
    21  N    0.399334  -0.051253   0.000000  -0.000011  -0.001556   0.340912
    22  O    0.000005  -0.000745  -0.001566  -0.000005   0.000000   0.000000
    23  C    0.000000   0.000015  -0.000500   0.000000   0.000000   0.000000
    24  H    0.000000   0.000000  -0.000164   0.000002   0.000000   0.000000
    25  H    0.000000  -0.000001   0.000004   0.000000   0.000000   0.000000
    26  H    0.000000   0.000000  -0.000164   0.000002   0.000000   0.000000
              13         14         15         16         17         18
     1  C    0.001553   0.001118  -0.000003   0.000019   0.000000   0.000000
     2  C   -0.017787   0.001040   0.000005  -0.000004   0.000000   0.000000
     3  C   -0.001298  -0.000006   0.000000   0.000000   0.000000   0.000000
     4  C    0.000005   0.000000   0.000000   0.000000   0.000000   0.000000
     5  C   -0.000001   0.000000   0.000000   0.000000   0.000000   0.000000
     6  C   -0.000017  -0.000007   0.000000   0.000000   0.000000   0.000000
     7  C   -0.020558   0.410383  -0.026291  -0.036842   0.001737   0.000013
     8  C    0.390313  -0.019551  -0.000959   0.000288  -0.000013   0.000001
     9  H    0.000000   0.000000   0.000000   0.000000   0.000000   0.000000
    10  H    0.000000   0.000000   0.000000   0.000000   0.000000   0.000000
    11  H    0.000001   0.000000   0.000000   0.000000   0.000000   0.000000
    12  H   -0.000045  -0.002377   0.000012   0.003859  -0.000123   0.000006
    13  H    0.500711  -0.001408   0.000579   0.000008   0.000000   0.000000
    14  C   -0.001408   4.449198   0.460015   0.281880  -0.032321  -0.003527
    15  O    0.000579   0.460015   8.058958  -0.023209  -0.001465   0.001233
    16  O    0.000008   0.281880  -0.023209   7.962934   0.258277  -0.016340
    17  C    0.000000  -0.032321  -0.001465   0.258277   4.728628   0.373266
    18  H    0.000000  -0.003527   0.001233  -0.016340   0.373266   0.571505
    19  H    0.000000   0.002388   0.000073  -0.019637   0.378720  -0.021970
    20  H    0.000000  -0.003509   0.001222  -0.016347   0.373268  -0.024836
    21  N    0.001161  -0.020161   0.000148  -0.001901   0.000028  -0.000002
    22  O    0.000453   0.000000   0.000000   0.000000   0.000000   0.000000
    23  C   -0.000017   0.000000   0.000000   0.000000   0.000000   0.000000
    24  H    0.000000   0.000000   0.000000   0.000000   0.000000   0.000000
    25  H    0.000001   0.000000   0.000000   0.000000   0.000000   0.000000
    26  H    0.000000   0.000000   0.000000   0.000000   0.000000   0.000000
              19         20         21         22         23         24
     1  C    0.000000   0.000000   0.419036   0.000345  -0.000017   0.000001
     2  C    0.000000   0.000000  -0.051556  -0.027475   0.001605  -0.000008
     3  C    0.000000   0.000000   0.000767   0.315295  -0.035688  -0.002759
     4  C    0.000000   0.000000   0.000029  -0.019400  -0.007017   0.000556
     5  C    0.000000   0.000000   0.000576   0.000306   0.000042  -0.000002
     6  C    0.000000   0.000000  -0.020465   0.000004   0.000000  -0.000001
     7  C   -0.000029   0.000013   0.399334   0.000005   0.000000   0.000000
     8  C    0.000000   0.000001  -0.051253  -0.000745   0.000015   0.000000
     9  H    0.000000   0.000000   0.000000  -0.001566  -0.000500  -0.000164
    10  H    0.000000   0.000000  -0.000011  -0.000005   0.000000   0.000002
    11  H    0.000000   0.000000  -0.001556   0.000000   0.000000   0.000000
    12  H   -0.000007   0.000006   0.340912   0.000000   0.000000   0.000000
    13  H    0.000000   0.000000   0.001161   0.000453  -0.000017   0.000000
    14  C    0.002388  -0.003509  -0.020161   0.000000   0.000000   0.000000
    15  O    0.000073   0.001222   0.000148   0.000000   0.000000   0.000000
    16  O   -0.019637  -0.016347  -0.001901   0.000000   0.000000   0.000000
    17  C    0.378720   0.373268   0.000028   0.000000   0.000000   0.000000
    18  H   -0.021970  -0.024836  -0.000002   0.000000   0.000000   0.000000
    19  H    0.565646  -0.021981   0.000000   0.000000   0.000000   0.000000
    20  H   -0.021981   0.571575  -0.000002   0.000000   0.000000   0.000000
    21  N    0.000000  -0.000002   6.338046  -0.000001   0.000000   0.000000
    22  O    0.000000   0.000000  -0.000001   7.880185   0.275307  -0.017211
    23  C    0.000000   0.000000   0.000000   0.275307   4.719896   0.368883
    24  H    0.000000   0.000000   0.000000  -0.017211   0.368883   0.599962
    25  H    0.000000   0.000000   0.000000  -0.020388   0.380114  -0.022676
    26  H    0.000000   0.000000   0.000000  -0.017212   0.368888  -0.026984
              25         26
     1  C    0.000000   0.000001
     2  C   -0.000034  -0.000008
     3  C    0.002311  -0.002760
     4  C    0.000091   0.000556
     5  C    0.000000  -0.000002
     6  C    0.000000  -0.000001
     7  C    0.000000   0.000000
     8  C   -0.000001   0.000000
     9  H    0.000004  -0.000164
    10  H    0.000000   0.000002
    11  H    0.000000   0.000000
    12  H    0.000000   0.000000
    13  H    0.000001   0.000000
    14  C    0.000000   0.000000
    15  O    0.000000   0.000000
    16  O    0.000000   0.000000
    17  C    0.000000   0.000000
    18  H    0.000000   0.000000
    19  H    0.000000   0.000000
    20  H    0.000000   0.000000
    21  N    0.000000   0.000000
    22  O   -0.020388  -0.017212
    23  C    0.380114   0.368888
    24  H   -0.022676  -0.026984
    25  H    0.561574  -0.022675
    26  H   -0.022675   0.599948
 MBS Mulliken charges:
               1
     1  C    0.120124
     2  C   -0.036867
     3  C    0.192238
     4  C   -0.175171
     5  C   -0.095204
     6  C   -0.146989
     7  C    0.071880
     8  C   -0.121498
     9  H    0.105296
    10  H    0.107877
    11  H    0.105119
    12  H    0.305314
    13  H    0.146345
    14  C    0.476844
    15  O   -0.470317
    16  O   -0.392984
    17  C   -0.080002
    18  H    0.120651
    19  H    0.116798
    20  H    0.120590
    21  N   -0.353130
    22  O   -0.367897
    23  C   -0.071510
    24  H    0.100402
    25  H    0.121679
    26  H    0.100412
 Sum of MBS Mulliken charges =   0.00000
 MBS Mulliken charges with hydrogens summed into heavy atoms:
               1
     1  C    0.120124
     2  C   -0.036867
     3  C    0.192238
     4  C   -0.069875
     5  C    0.012673
     6  C   -0.041870
     7  C    0.071880
     8  C    0.024847
    14  C    0.476844
    15  O   -0.470317
    16  O   -0.392984
    17  C    0.278037
    21  N   -0.047816
    22  O   -0.367897
    23  C    0.250983
 Breneman (CHELPG) radii used.
 Generate Potential Derived Charges using the Breneman model, NDens= 1.
 Grid spacing= 0.300 Box extension= 2.800
 NStep X,Y,Z=   54     41     26   Total possible points=       57564
 Number of Points to Fit=   16707

 **********************************************************************

            Electrostatic Properties Using The SCF Density

 **********************************************************************

       Atomic Center    1 is at  -0.422641  1.215882  0.000013
       Atomic Center    2 is at  -0.926081 -0.111970  0.000024
       Atomic Center    3 is at  -2.325333 -0.316434  0.000100
       Atomic Center    4 is at  -3.162156  0.790716 -0.000009
       Atomic Center    5 is at  -2.623470  2.098094 -0.000006
       Atomic Center    6 is at  -1.262730  2.339742  0.000082
       Atomic Center    7 is at   1.321050 -0.208850 -0.000031
       Atomic Center    8 is at   0.190449 -0.995260  0.000037
       Atomic Center    9 is at  -4.236819  0.671870 -0.000191
       Atomic Center   10 is at  -3.311152  2.936252 -0.000066
       Atomic Center   11 is at  -0.867243  3.348199  0.000158
       Atomic Center   12 is at   1.599962  1.892650  0.000045
       Atomic Center   13 is at   0.179098 -2.072339  0.000096
       Atomic Center   14 is at   2.720417 -0.631994  0.000018
       Atomic Center   15 is at   3.108795 -1.777112  0.000079
       Atomic Center   16 is at   3.557250  0.443037  0.000012
       Atomic Center   17 is at   4.963624  0.140089 -0.000082
       Atomic Center   18 is at   5.229568 -0.434355 -0.888411
       Atomic Center   19 is at   5.469324  1.103362 -0.001450
       Atomic Center   20 is at   5.230156 -0.432054  0.889585
       Atomic Center   21 is at   0.945689  1.127412 -0.000103
       Atomic Center   22 is at  -2.732833 -1.613606  0.000023
       Atomic Center   23 is at  -4.128812 -1.885855 -0.000081
       Atomic Center   24 is at  -4.612273 -1.479154 -0.894561
       Atomic Center   25 is at  -4.219667 -2.970668 -0.000096
       Atomic Center   26 is at  -4.612374 -1.479153  0.894319
   16707 points will be used for fitting atomic charges
 Fitting point charges to electrostatic potential
 Charges from ESP fit, RMS=   0.00389 RRMS=   0.25691:
 ESP charges:
               1
     1  C    0.413666
     2  C   -0.102612
     3  C    0.314332
     4  C   -0.299343
     5  C   -0.032026
     6  C   -0.394212
     7  C   -0.084876
     8  C   -0.121594
     9  H    0.135100
    10  H    0.100094
    11  H    0.165058
    12  H    0.332809
    13  H    0.110134
    14  C    0.766272
    15  O   -0.558932
    16  O   -0.374375
    17  C    0.009601
    18  H    0.071179
    19  H    0.068020
    20  H    0.071044
    21  N   -0.476352
    22  O   -0.330188
    23  C    0.139863
    24  H    0.015804
    25  H    0.045729
    26  H    0.015802
 Sum of ESP charges =   0.00000
 ESP charges with hydrogens summed into heavy atoms:
               1
     1  C    0.413666
     2  C   -0.102612
     3  C    0.314332
     4  C   -0.164243
     5  C    0.068068
     6  C   -0.229154
     7  C   -0.084876
     8  C   -0.011460
    14  C    0.766272
    15  O   -0.558932
    16  O   -0.374375
    17  C    0.219844
    21  N   -0.143542
    22  O   -0.330188
    23  C    0.217199
 Charge=   0.00000 Dipole=    -0.9512     2.7560    -0.0006 Tot=     2.9155
 -----------------------------------------------------------------

              Electrostatic Properties (Atomic Units)

 -----------------------------------------------------------------
    Center     Electric         -------- Electric Field --------
               Potential          X             Y             Z
 -----------------------------------------------------------------
    1 Atom    -14.730885
    2 Atom    -14.771417
    3 Atom    -14.706516
    4 Atom    -14.777354
    5 Atom    -14.768225
    6 Atom    -14.772702
    7 Atom    -14.731239
    8 Atom    -14.772522
    9 Atom     -1.102186
   10 Atom     -1.107032
   11 Atom     -1.098461
   12 Atom     -0.995093
   13 Atom     -1.099667
   14 Atom    -14.641843
   15 Atom    -22.386795
   16 Atom    -22.320200
   17 Atom    -14.714291
   18 Atom     -1.101627
   19 Atom     -1.097434
   20 Atom     -1.101625
   21 Atom    -18.342399
   22 Atom    -22.331750
   23 Atom    -14.715208
   24 Atom     -1.101435
   25 Atom     -1.100765
   26 Atom     -1.101437
 -----------------------------------------------------------------
 ******************************Gaussian NBO Version 3.1******************************
             N A T U R A L   A T O M I C   O R B I T A L   A N D
          N A T U R A L   B O N D   O R B I T A L   A N A L Y S I S
 ******************************Gaussian NBO Version 3.1******************************
       /RESON  / : Allow strongly delocalized NBO set

 Analyzing the SCF density

 Job title: Table9_9                                                        

 Storage needed:    472898 in NPA ( 104853960 available)
 Remove ICRem=  338 ICRemI=   48 L=0 PNAO number  338 atom   22 type  51 NPNAO=  396
   due to symmetric orthogonalization 2, value= 0.00D+00.
 Remove ICRem=   69 ICRemI=   48 L=0 PNAO number   69 atom    4 type  51 NPNAO=  395
   due to symmetric orthogonalization 2, value= 0.00D+00.
 Remove ICRem=   47 ICRemI=   48 L=0 PNAO number   47 atom    3 type  51 NPNAO=  394
   due to symmetric orthogonalization 2, value= 0.00D+00.

 Computed number of electrons  107.99989672 does not match expected value of   108.


 NATURAL POPULATIONS:  Natural atomic orbital occupancies 
                                                          
   NAO  Atom  No  lang   Type(AO)    Occupancy      Energy
 ----------------------------------------------------------
     1    C    1  S      Cor( 1S)     1.99901     -10.07543
     2    C    1  S      Val( 2S)     0.82150      -0.11182
     3    C    1  S      Ryd( 4S)     0.00168       0.85389
     4    C    1  S      Ryd( 3S)     0.00019       0.79635
     5    C    1  S      Ryd( 5S)     0.00002      22.77253
     6    C    1  px     Val( 2p)     0.87879      -0.02585
     7    C    1  px     Ryd( 4p)     0.00509       1.19576
     8    C    1  px     Ryd( 3p)     0.00040       0.60017
     9    C    1  px     Ryd( 5p)     0.00011       3.12071
    10    C    1  py     Val( 2p)     1.09217      -0.06528
    11    C    1  py     Ryd( 4p)     0.00628       1.31415
    12    C    1  py     Ryd( 3p)     0.00038       0.51081
    13    C    1  py     Ryd( 5p)     0.00014       2.97411
    14    C    1  pz     Val( 2p)     1.00347      -0.11514
    15    C    1  pz     Ryd( 4p)     0.00120       0.62411
    16    C    1  pz     Ryd( 3p)     0.00064       0.32504
    17    C    1  pz     Ryd( 5p)     0.00005       2.68968
    18    C    1  dxy    Ryd( 3d)     0.00073       2.58647
    19    C    1  dxz    Ryd( 3d)     0.00142       1.63030
    20    C    1  dyz    Ryd( 3d)     0.00080       1.65549
    21    C    1  dx2y2  Ryd( 3d)     0.00123       2.62337
    22    C    1  dz2    Ryd( 3d)     0.00049       2.11028

    23    C    2  S      Cor( 1S)     1.99894     -10.02955
    24    C    2  S      Val( 2S)     0.86763      -0.11726
    25    C    2  S      Ryd( 3S)     0.00131       0.84018
    26    C    2  S      Ryd( 4S)     0.00011       1.05705
    27    C    2  S      Ryd( 5S)     0.00002      22.91088
    28    C    2  px     Val( 2p)     1.10043      -0.07187
    29    C    2  px     Ryd( 4p)     0.00522       1.38331
    30    C    2  px     Ryd( 3p)     0.00040       1.01998
    31    C    2  px     Ryd( 5p)     0.00015       3.27394
    32    C    2  py     Val( 2p)     1.06928      -0.06055
    33    C    2  py     Ryd( 4p)     0.00664       1.18789
    34    C    2  py     Ryd( 3p)     0.00014       0.76230
    35    C    2  py     Ryd( 5p)     0.00018       3.13312
    36    C    2  pz     Val( 2p)     1.09028      -0.10603
    37    C    2  pz     Ryd( 4p)     0.00066       0.58070
    38    C    2  pz     Ryd( 3p)     0.00028       0.42666
    39    C    2  pz     Ryd( 5p)     0.00003       2.73899
    40    C    2  dxy    Ryd( 3d)     0.00060       2.60193
    41    C    2  dxz    Ryd( 3d)     0.00078       1.71476
    42    C    2  dyz    Ryd( 3d)     0.00052       1.62775
    43    C    2  dx2y2  Ryd( 3d)     0.00089       2.69225
    44    C    2  dz2    Ryd( 3d)     0.00044       2.18145

    45    C    3  S      Cor( 1S)     1.99855     -10.10675
    46    C    3  S      Val( 2S)     0.79917      -0.12541
    47    C    3  S      Ryd( 3S)     0.00124       0.97431
    48    C    3  S      Ryd( 4S)     0.00002      22.49311
    49    C    3  px     Val( 2p)     1.04396      -0.05726
    50    C    3  px     Ryd( 4p)     0.00380       1.18463
    51    C    3  px     Ryd( 3p)     0.00025       0.75909
    52    C    3  px     Ryd( 5p)     0.00022       2.73055
    53    C    3  py     Val( 2p)     0.80333      -0.03785
    54    C    3  py     Ryd( 4p)     0.00920       1.09994
    55    C    3  py     Ryd( 3p)     0.00042       1.01517
    56    C    3  py     Ryd( 5p)     0.00024       2.73052
    57    C    3  pz     Val( 2p)     0.96621      -0.11572
    58    C    3  pz     Ryd( 4p)     0.00073       0.61857
    59    C    3  pz     Ryd( 3p)     0.00052       0.60891
    60    C    3  pz     Ryd( 5p)     0.00004       2.47778
    61    C    3  dxy    Ryd( 3d)     0.00148       2.54251
    62    C    3  dxz    Ryd( 3d)     0.00087       1.62823
    63    C    3  dyz    Ryd( 3d)     0.00248       1.63378
    64    C    3  dx2y2  Ryd( 3d)     0.00169       2.61753
    65    C    3  dz2    Ryd( 3d)     0.00077       2.10749

    66    C    4  S      Cor( 1S)     1.99895     -10.02896
    67    C    4  S      Val( 2S)     0.93641      -0.16532
    68    C    4  S      Ryd( 3S)     0.00051       1.04901
    69    C    4  S      Ryd( 4S)     0.00002      23.17449
    70    C    4  px     Val( 2p)     1.17585      -0.06227
    71    C    4  px     Ryd( 4p)     0.00495       0.99914
    72    C    4  px     Ryd( 3p)     0.00038       0.50898
    73    C    4  px     Ryd( 5p)     0.00008       3.17257
    74    C    4  py     Val( 2p)     1.07080      -0.05541
    75    C    4  py     Ryd( 4p)     0.00328       0.90223
    76    C    4  py     Ryd( 3p)     0.00046       0.57856
    77    C    4  py     Ryd( 5p)     0.00016       3.13989
    78    C    4  pz     Val( 2p)     1.11877      -0.11531
    79    C    4  pz     Ryd( 4p)     0.00261       0.48901
    80    C    4  pz     Ryd( 3p)     0.00042       0.33153
    81    C    4  pz     Ryd( 5p)     0.00003       2.73437
    82    C    4  dxy    Ryd( 3d)     0.00068       2.64463
    83    C    4  dxz    Ryd( 3d)     0.00042       1.62101
    84    C    4  dyz    Ryd( 3d)     0.00050       1.67599
    85    C    4  dx2y2  Ryd( 3d)     0.00064       2.50220
    86    C    4  dz2    Ryd( 3d)     0.00056       2.08392

    87    C    5  S      Cor( 1S)     1.99924     -10.03688
    88    C    5  S      Val( 2S)     0.94756      -0.16658
    89    C    5  S      Ryd( 4S)     0.00212       0.72669
    90    C    5  S      Ryd( 3S)     0.00021       0.68779
    91    C    5  S      Ryd( 5S)     0.00001      23.25415
    92    C    5  px     Val( 2p)     1.10003      -0.04616
    93    C    5  px     Ryd( 4p)     0.00552       0.89384
    94    C    5  px     Ryd( 3p)     0.00040       0.47182
    95    C    5  px     Ryd( 5p)     0.00013       3.11789
    96    C    5  py     Val( 2p)     1.11833      -0.05059
    97    C    5  py     Ryd( 4p)     0.00576       0.90065
    98    C    5  py     Ryd( 3p)     0.00041       0.45183
    99    C    5  py     Ryd( 5p)     0.00010       3.08068
   100    C    5  pz     Val( 2p)     0.99530      -0.10859
   101    C    5  pz     Ryd( 4p)     0.00150       0.49413
   102    C    5  pz     Ryd( 3p)     0.00025       0.32399
   103    C    5  pz     Ryd( 5p)     0.00003       2.69888
   104    C    5  dxy    Ryd( 3d)     0.00078       2.50387
   105    C    5  dxz    Ryd( 3d)     0.00058       1.65812
   106    C    5  dyz    Ryd( 3d)     0.00042       1.62637
   107    C    5  dx2y2  Ryd( 3d)     0.00058       2.56920
   108    C    5  dz2    Ryd( 3d)     0.00042       2.04670

   109    C    6  S      Cor( 1S)     1.99907     -10.02800
   110    C    6  S      Val( 2S)     0.93499      -0.15133
   111    C    6  S      Ryd( 4S)     0.00169       0.86823
   112    C    6  S      Ryd( 3S)     0.00014       0.61301
   113    C    6  S      Ryd( 5S)     0.00001      23.10154
   114    C    6  px     Val( 2p)     1.08539      -0.05636
   115    C    6  px     Ryd( 4p)     0.00454       0.88225
   116    C    6  px     Ryd( 3p)     0.00059       0.44216
   117    C    6  px     Ryd( 5p)     0.00012       3.00401
   118    C    6  py     Val( 2p)     1.14970      -0.05594
   119    C    6  py     Ryd( 4p)     0.00460       1.07542
   120    C    6  py     Ryd( 3p)     0.00034       0.44620
   121    C    6  py     Ryd( 5p)     0.00009       2.95859
   122    C    6  pz     Val( 2p)     1.08192      -0.11265
   123    C    6  pz     Ryd( 4p)     0.00180       0.52068
   124    C    6  pz     Ryd( 3p)     0.00041       0.30119
   125    C    6  pz     Ryd( 5p)     0.00002       2.68674
   126    C    6  dxy    Ryd( 3d)     0.00079       2.58127
   127    C    6  dxz    Ryd( 3d)     0.00054       1.66210
   128    C    6  dyz    Ryd( 3d)     0.00043       1.64272
   129    C    6  dx2y2  Ryd( 3d)     0.00059       2.56387
   130    C    6  dz2    Ryd( 3d)     0.00042       2.12345

   131    C    7  S      Cor( 1S)     1.99897     -10.08372
   132    C    7  S      Val( 2S)     0.86950      -0.14834
   133    C    7  S      Ryd( 3S)     0.00176       0.81245
   134    C    7  S      Ryd( 4S)     0.00025       1.04788
   135    C    7  S      Ryd( 5S)     0.00002      22.83230
   136    C    7  px     Val( 2p)     1.08735      -0.08315
   137    C    7  px     Ryd( 4p)     0.00576       1.54079
   138    C    7  px     Ryd( 3p)     0.00030       0.75298
   139    C    7  px     Ryd( 5p)     0.00017       2.97618
   140    C    7  py     Val( 2p)     0.88097      -0.04339
   141    C    7  py     Ryd( 4p)     0.00773       1.14644
   142    C    7  py     Ryd( 3p)     0.00028       0.55925
   143    C    7  py     Ryd( 5p)     0.00015       2.95045
   144    C    7  pz     Val( 2p)     1.09886      -0.12839
   145    C    7  pz     Ryd( 4p)     0.00188       0.61733
   146    C    7  pz     Ryd( 3p)     0.00030       0.55291
   147    C    7  pz     Ryd( 5p)     0.00007       2.50497
   148    C    7  dxy    Ryd( 3d)     0.00073       2.65133
   149    C    7  dxz    Ryd( 3d)     0.00059       1.66556
   150    C    7  dyz    Ryd( 3d)     0.00124       1.60026
   151    C    7  dx2y2  Ryd( 3d)     0.00140       2.57096
   152    C    7  dz2    Ryd( 3d)     0.00049       2.06007

   153    C    8  S      Cor( 1S)     1.99900     -10.02890
   154    C    8  S      Val( 2S)     0.94299      -0.15161
   155    C    8  S      Ryd( 4S)     0.00128       0.83328
   156    C    8  S      Ryd( 3S)     0.00009       0.81691
   157    C    8  S      Ryd( 5S)     0.00002      23.10925
   158    C    8  px     Val( 2p)     1.01868      -0.04422
   159    C    8  px     Ryd( 4p)     0.00460       0.83929
   160    C    8  px     Ryd( 3p)     0.00044       0.65276
   161    C    8  px     Ryd( 5p)     0.00018       3.13188
   162    C    8  py     Val( 2p)     1.19653      -0.06067
   163    C    8  py     Ryd( 4p)     0.00424       1.12322
   164    C    8  py     Ryd( 3p)     0.00047       0.38234
   165    C    8  py     Ryd( 5p)     0.00010       3.16759
   166    C    8  pz     Val( 2p)     1.01677      -0.10802
   167    C    8  pz     Ryd( 4p)     0.00182       0.53614
   168    C    8  pz     Ryd( 3p)     0.00050       0.30516
   169    C    8  pz     Ryd( 5p)     0.00003       2.72448
   170    C    8  dxy    Ryd( 3d)     0.00075       2.72269
   171    C    8  dxz    Ryd( 3d)     0.00056       1.64748
   172    C    8  dyz    Ryd( 3d)     0.00064       1.68203
   173    C    8  dx2y2  Ryd( 3d)     0.00059       2.49040
   174    C    8  dz2    Ryd( 3d)     0.00043       2.17344

   175    H    9  S      Val( 1S)     0.78734       0.04688
   176    H    9  S      Ryd( 2S)     0.00136       0.58906
   177    H    9  S      Ryd( 3S)     0.00020       2.12846
   178    H    9  px     Ryd( 2p)     0.00040       2.73728
   179    H    9  py     Ryd( 2p)     0.00011       2.04880
   180    H    9  pz     Ryd( 2p)     0.00026       1.60560

   181    H   10  S      Val( 1S)     0.79304       0.04640
   182    H   10  S      Ryd( 2S)     0.00064       0.53467
   183    H   10  S      Ryd( 3S)     0.00017       2.20859
   184    H   10  px     Ryd( 2p)     0.00026       2.27959
   185    H   10  py     Ryd( 2p)     0.00031       2.41242
   186    H   10  pz     Ryd( 2p)     0.00022       1.59576

   187    H   11  S      Val( 1S)     0.78729       0.03912
   188    H   11  S      Ryd( 2S)     0.00081       0.67637
   189    H   11  S      Ryd( 3S)     0.00019       2.00614
   190    H   11  px     Ryd( 2p)     0.00015       2.10951
   191    H   11  py     Ryd( 2p)     0.00038       2.64069
   192    H   11  pz     Ryd( 2p)     0.00024       1.60432

   193    H   12  S      Val( 1S)     0.57653       0.08290
   194    H   12  S      Ryd( 3S)     0.00082       1.77668
   195    H   12  S      Ryd( 2S)     0.00021       1.29174
   196    H   12  px     Ryd( 2p)     0.00034       2.33885
   197    H   12  py     Ryd( 2p)     0.00029       2.43866
   198    H   12  pz     Ryd( 2p)     0.00058       1.57307

   199    H   13  S      Val( 1S)     0.75664       0.06781
   200    H   13  S      Ryd( 3S)     0.00088       1.38966
   201    H   13  S      Ryd( 2S)     0.00021       1.26709
   202    H   13  px     Ryd( 2p)     0.00011       2.05856
   203    H   13  py     Ryd( 2p)     0.00045       2.80669
   204    H   13  pz     Ryd( 2p)     0.00019       1.62260

   205    C   14  S      Cor( 1S)     1.99924     -10.18825
   206    C   14  S      Val( 2S)     0.75372      -0.13316
   207    C   14  S      Ryd( 4S)     0.00326       1.29336
   208    C   14  S      Ryd( 3S)     0.00023       0.70376
   209    C   14  S      Ryd( 5S)     0.00006      22.25012
   210    C   14  px     Val( 2p)     0.89946      -0.05744
   211    C   14  px     Ryd( 4p)     0.00517       1.43836
   212    C   14  px     Ryd( 3p)     0.00056       0.55875
   213    C   14  px     Ryd( 5p)     0.00022       2.17447
   214    C   14  py     Val( 2p)     0.74109      -0.01380
   215    C   14  py     Ryd( 4p)     0.01935       1.18681
   216    C   14  py     Ryd( 3p)     0.00026       0.51433
   217    C   14  py     Ryd( 5p)     0.00017       2.41221
   218    C   14  pz     Val( 2p)     0.79160      -0.13303
   219    C   14  pz     Ryd( 4p)     0.00078       0.76469
   220    C   14  pz     Ryd( 3p)     0.00059       0.40995
   221    C   14  pz     Ryd( 5p)     0.00015       2.35453
   222    C   14  dxy    Ryd( 3d)     0.00466       2.56039
   223    C   14  dxz    Ryd( 3d)     0.00174       1.54319
   224    C   14  dyz    Ryd( 3d)     0.00479       1.62519
   225    C   14  dx2y2  Ryd( 3d)     0.00302       2.61139
   226    C   14  dz2    Ryd( 3d)     0.00069       2.05788

   227    O   15  S      Cor( 1S)     1.99975     -18.84519
   228    O   15  S      Val( 2S)     1.70147      -0.89139
   229    O   15  S      Ryd( 3S)     0.00160       1.36719
   230    O   15  S      Ryd( 4S)     0.00007       1.39672
   231    O   15  S      Ryd( 5S)     0.00000      49.70775
   232    O   15  px     Val( 2p)     1.80789      -0.26948
   233    O   15  px     Ryd( 3p)     0.00210       0.77154
   234    O   15  px     Ryd( 4p)     0.00015       0.97479
   235    O   15  px     Ryd( 5p)     0.00002       5.11362
   236    O   15  py     Val( 2p)     1.59677      -0.29914
   237    O   15  py     Ryd( 3p)     0.00079       0.70130
   238    O   15  py     Ryd( 4p)     0.00017       0.89846
   239    O   15  py     Ryd( 5p)     0.00012       5.29766
   240    O   15  pz     Val( 2p)     1.47269      -0.25504
   241    O   15  pz     Ryd( 3p)     0.00106       0.62316
   242    O   15  pz     Ryd( 4p)     0.00011       0.86108
   243    O   15  pz     Ryd( 5p)     0.00002       4.95287
   244    O   15  dxy    Ryd( 3d)     0.00155       3.39979
   245    O   15  dxz    Ryd( 3d)     0.00017       2.87137
   246    O   15  dyz    Ryd( 3d)     0.00156       3.08621
   247    O   15  dx2y2  Ryd( 3d)     0.00161       3.45351
   248    O   15  dz2    Ryd( 3d)     0.00047       3.10284

   249    O   16  S      Cor( 1S)     1.99974     -18.97996
   250    O   16  S      Val( 2S)     1.62872      -0.90110
   251    O   16  S      Ryd( 4S)     0.00145       1.13734
   252    O   16  S      Ryd( 3S)     0.00017       1.07864
   253    O   16  S      Ryd( 5S)     0.00000      49.62798
   254    O   16  px     Val( 2p)     1.41275      -0.33155
   255    O   16  px     Ryd( 4p)     0.00136       1.01807
   256    O   16  px     Ryd( 3p)     0.00050       1.00004
   257    O   16  px     Ryd( 5p)     0.00002       5.20209
   258    O   16  py     Val( 2p)     1.70803      -0.35483
   259    O   16  py     Ryd( 3p)     0.00295       0.53973
   260    O   16  py     Ryd( 4p)     0.00111       0.89574
   261    O   16  py     Ryd( 5p)     0.00016       5.05116
   262    O   16  pz     Val( 2p)     1.80856      -0.33576
   263    O   16  pz     Ryd( 3p)     0.00302       0.47586
   264    O   16  pz     Ryd( 4p)     0.00079       0.82535
   265    O   16  pz     Ryd( 5p)     0.00000       4.89440
   266    O   16  dxy    Ryd( 3d)     0.00116       3.44705
   267    O   16  dxz    Ryd( 3d)     0.00013       2.93922
   268    O   16  dyz    Ryd( 3d)     0.00083       2.89860
   269    O   16  dx2y2  Ryd( 3d)     0.00090       3.32135
   270    O   16  dz2    Ryd( 3d)     0.00062       3.23107

   271    C   17  S      Cor( 1S)     1.99925     -10.10801
   272    C   17  S      Val( 2S)     1.09234      -0.28844
   273    C   17  S      Ryd( 4S)     0.00229       0.88218
   274    C   17  S      Ryd( 3S)     0.00011       0.75029
   275    C   17  S      Ryd( 5S)     0.00000      23.24823
   276    C   17  px     Val( 2p)     0.72488      -0.09142
   277    C   17  px     Ryd( 3p)     0.00309       0.57466
   278    C   17  px     Ryd( 4p)     0.00019       1.38259
   279    C   17  px     Ryd( 5p)     0.00006       1.83452
   280    C   17  py     Val( 2p)     1.17940      -0.11453
   281    C   17  py     Ryd( 3p)     0.00303       0.64092
   282    C   17  py     Ryd( 4p)     0.00026       1.43060
   283    C   17  py     Ryd( 5p)     0.00006       1.81201
   284    C   17  pz     Val( 2p)     1.20115      -0.12045
   285    C   17  pz     Ryd( 3p)     0.00064       0.54813
   286    C   17  pz     Ryd( 4p)     0.00037       1.37353
   287    C   17  pz     Ryd( 5p)     0.00004       1.86301
   288    C   17  dxy    Ryd( 3d)     0.00141       2.02337
   289    C   17  dxz    Ryd( 3d)     0.00127       1.76836
   290    C   17  dyz    Ryd( 3d)     0.00081       2.12238
   291    C   17  dx2y2  Ryd( 3d)     0.00172       2.11060
   292    C   17  dz2    Ryd( 3d)     0.00103       2.11511

   293    H   18  S      Val( 1S)     0.81030       0.00796
   294    H   18  S      Ryd( 2S)     0.00109       0.58345
   295    H   18  S      Ryd( 3S)     0.00017       2.13969
   296    H   18  px     Ryd( 2p)     0.00008       1.75537
   297    H   18  py     Ryd( 2p)     0.00025       2.01600
   298    H   18  pz     Ryd( 2p)     0.00033       2.38581

   299    H   19  S      Val( 1S)     0.81382       0.00405
   300    H   19  S      Ryd( 2S)     0.00032       0.55370
   301    H   19  S      Ryd( 3S)     0.00015       2.11253
   302    H   19  px     Ryd( 2p)     0.00012       1.89274
   303    H   19  py     Ryd( 2p)     0.00039       2.46403
   304    H   19  pz     Ryd( 2p)     0.00013       1.71614

   305    H   20  S      Val( 1S)     0.81036       0.00792
   306    H   20  S      Ryd( 2S)     0.00108       0.58302
   307    H   20  S      Ryd( 3S)     0.00017       2.14009
   308    H   20  px     Ryd( 2p)     0.00008       1.75578
   309    H   20  py     Ryd( 2p)     0.00025       2.01417
   310    H   20  pz     Ryd( 2p)     0.00033       2.38759

   311    N   21  S      Cor( 1S)     1.99926     -14.18557
   312    N   21  S      Val( 2S)     1.21886      -0.52770
   313    N   21  S      Ryd( 4S)     0.00035       1.36906
   314    N   21  S      Ryd( 3S)     0.00015       1.08377
   315    N   21  S      Ryd( 5S)     0.00000      35.39879
   316    N   21  px     Val( 2p)     1.33092      -0.25464
   317    N   21  px     Ryd( 4p)     0.00252       1.13039
   318    N   21  px     Ryd( 3p)     0.00060       0.96538
   319    N   21  px     Ryd( 5p)     0.00004       4.45380
   320    N   21  py     Val( 2p)     1.34564      -0.25717
   321    N   21  py     Ryd( 4p)     0.00258       1.03069
   322    N   21  py     Ryd( 3p)     0.00031       0.79585
   323    N   21  py     Ryd( 5p)     0.00002       4.40188
   324    N   21  pz     Val( 2p)     1.61755      -0.26624
   325    N   21  pz     Ryd( 3p)     0.00359       0.48151
   326    N   21  pz     Ryd( 4p)     0.00045       0.65270
   327    N   21  pz     Ryd( 5p)     0.00000       3.82104
   328    N   21  dxy    Ryd( 3d)     0.00084       2.91132
   329    N   21  dxz    Ryd( 3d)     0.00049       2.20056
   330    N   21  dyz    Ryd( 3d)     0.00042       2.19267
   331    N   21  dx2y2  Ryd( 3d)     0.00077       2.99979
   332    N   21  dz2    Ryd( 3d)     0.00059       2.64838

   333    O   22  S      Cor( 1S)     1.99970     -18.95955
   334    O   22  S      Val( 2S)     1.58843      -0.87037
   335    O   22  S      Ryd( 3S)     0.00336       0.96922
   336    O   22  S      Ryd( 4S)     0.00000      49.56134
   337    O   22  px     Val( 2p)     1.51654      -0.31877
   338    O   22  px     Ryd( 4p)     0.00201       1.06499
   339    O   22  px     Ryd( 3p)     0.00029       1.04769
   340    O   22  px     Ryd( 5p)     0.00002       5.18363
   341    O   22  py     Val( 2p)     1.57560      -0.33063
   342    O   22  py     Ryd( 3p)     0.00397       0.64053
   343    O   22  py     Ryd( 4p)     0.00149       0.83651
   344    O   22  py     Ryd( 5p)     0.00006       5.21153
   345    O   22  pz     Val( 2p)     1.83434      -0.31769
   346    O   22  pz     Ryd( 3p)     0.00382       0.54351
   347    O   22  pz     Ryd( 4p)     0.00046       0.74320
   348    O   22  pz     Ryd( 5p)     0.00001       4.95809
   349    O   22  dxy    Ryd( 3d)     0.00075       3.22372
   350    O   22  dxz    Ryd( 3d)     0.00035       2.94286
   351    O   22  dyz    Ryd( 3d)     0.00070       2.93879
   352    O   22  dx2y2  Ryd( 3d)     0.00137       3.54881
   353    O   22  dz2    Ryd( 3d)     0.00073       3.17503

   354    C   23  S      Cor( 1S)     1.99926     -10.10664
   355    C   23  S      Val( 2S)     1.08296      -0.28081
   356    C   23  S      Ryd( 4S)     0.00195       0.93904
   357    C   23  S      Ryd( 3S)     0.00016       0.57389
   358    C   23  S      Ryd( 5S)     0.00001      23.37196
   359    C   23  px     Val( 2p)     0.74265      -0.08254
   360    C   23  px     Ryd( 3p)     0.00323       0.62875
   361    C   23  px     Ryd( 4p)     0.00038       1.18979
   362    C   23  px     Ryd( 5p)     0.00006       2.05294
   363    C   23  py     Val( 2p)     1.18263      -0.12023
   364    C   23  py     Ryd( 3p)     0.00207       0.79570
   365    C   23  py     Ryd( 4p)     0.00038       1.19155
   366    C   23  py     Ryd( 5p)     0.00003       2.01382
   367    C   23  pz     Val( 2p)     1.18477      -0.11728
   368    C   23  pz     Ryd( 3p)     0.00029       0.60761
   369    C   23  pz     Ryd( 4p)     0.00060       1.11516
   370    C   23  pz     Ryd( 5p)     0.00005       2.06963
   371    C   23  dxy    Ryd( 3d)     0.00131       1.87880
   372    C   23  dxz    Ryd( 3d)     0.00176       1.99831
   373    C   23  dyz    Ryd( 3d)     0.00056       1.89513
   374    C   23  dx2y2  Ryd( 3d)     0.00183       2.20928
   375    C   23  dz2    Ryd( 3d)     0.00094       2.12641

   376    H   24  S      Val( 1S)     0.82618      -0.00344
   377    H   24  S      Ryd( 2S)     0.00151       0.49411
   378    H   24  S      Ryd( 3S)     0.00016       2.24982
   379    H   24  px     Ryd( 2p)     0.00011       1.87904
   380    H   24  py     Ryd( 2p)     0.00021       1.88453
   381    H   24  pz     Ryd( 2p)     0.00035       2.39778

   382    H   25  S      Val( 1S)     0.80668       0.01185
   383    H   25  S      Ryd( 2S)     0.00038       0.50402
   384    H   25  S      Ryd( 3S)     0.00013       2.17089
   385    H   25  px     Ryd( 2p)     0.00007       1.67019
   386    H   25  py     Ryd( 2p)     0.00041       2.67784
   387    H   25  pz     Ryd( 2p)     0.00015       1.72098

   388    H   26  S      Val( 1S)     0.82617      -0.00343
   389    H   26  S      Ryd( 2S)     0.00151       0.49413
   390    H   26  S      Ryd( 3S)     0.00016       2.24978
   391    H   26  px     Ryd( 2p)     0.00011       1.87913
   392    H   26  py     Ryd( 2p)     0.00021       1.88453
   393    H   26  pz     Ryd( 2p)     0.00035       2.39771

 WARNING:  1 low occupancy (<1.9990e) core orbital  found on  C    2
           1 low occupancy (<1.9990e) core orbital  found on  C    3
           1 low occupancy (<1.9990e) core orbital  found on  C    4
           1 low occupancy (<1.9990e) core orbital  found on  C    7

 WARNING:  Population inversion found on atom  C    1
           Population inversion found on atom  C    2
           Population inversion found on atom  C    3
           Population inversion found on atom  C    4
           Population inversion found on atom  C    5
           Population inversion found on atom  C    6
           Population inversion found on atom  C    7
           Population inversion found on atom  C    8
           Population inversion found on atom  H   12
           Population inversion found on atom  H   13
           Population inversion found on atom  C   14
           Population inversion found on atom  O   16
           Population inversion found on atom  C   17
           Population inversion found on atom  N   21
           Population inversion found on atom  O   22
           Population inversion found on atom  C   23


 Summary of Natural Population Analysis:                  
                                                          
                                       Natural Population 
                Natural  -----------------------------------------------
    Atom  No    Charge         Core      Valence    Rydberg      Total
 -----------------------------------------------------------------------
      C    1    0.18423      1.99901     3.79594    0.02083     5.81577
      C    2   -0.14495      1.99894     4.12762    0.01838     6.14495
      C    3    0.36481      1.99855     3.61267    0.02397     5.63519
      C    4   -0.31649      1.99895     4.30183    0.01571     6.31649
      C    5   -0.17970      1.99924     4.16122    0.01924     6.17970
      C    6   -0.26819      1.99907     4.25200    0.01712     6.26819
      C    7    0.04121      1.99897     3.93668    0.02313     5.95879
      C    8   -0.19072      1.99900     4.17497    0.01674     6.19072
      H    9    0.21034      0.00000     0.78734    0.00233     0.78966
      H   10    0.20535      0.00000     0.79304    0.00161     0.79465
      H   11    0.21093      0.00000     0.78729    0.00178     0.78907
      H   12    0.42122      0.00000     0.57653    0.00224     0.57878
      H   13    0.24153      0.00000     0.75664    0.00184     0.75847
      C   14    0.76921      1.99924     3.18588    0.04568     5.23079
      O   15   -0.59012      1.99975     6.57881    0.01156     8.59012
      O   16   -0.57299      1.99974     6.55807    0.01518     8.57299
      C   17   -0.21341      1.99925     4.19776    0.01640     6.21341
      H   18    0.18779      0.00000     0.81030    0.00191     0.81221
      H   19    0.18506      0.00000     0.81382    0.00112     0.81494
      H   20    0.18773      0.00000     0.81036    0.00191     0.81227
      N   21   -0.52594      1.99926     5.51297    0.01371     7.52594
      O   22   -0.53400      1.99970     6.51492    0.01938     8.53400
      C   23   -0.20790      1.99926     4.19301    0.01563     6.20790
      H   24    0.17147      0.00000     0.82618    0.00235     0.82853
      H   25    0.19217      0.00000     0.80668    0.00115     0.80783
      H   26    0.17147      0.00000     0.82617    0.00235     0.82853
 =======================================================================
   * Total *    0.00010     29.98793    77.69870    0.31326   107.99990

                                 Natural Population      
 --------------------------------------------------------
   Core                      29.98793 ( 99.9598% of  30)
   Valence                   77.69870 ( 99.6137% of  78)
   Natural Minimal Basis    107.68664 ( 99.7099% of 108)
   Natural Rydberg Basis      0.31326 (  0.2901% of 108)
 --------------------------------------------------------

    Atom  No          Natural Electron Configuration
 ----------------------------------------------------------------------------
      C    1      [core]2S( 0.82)2p( 2.97)4p( 0.01)
      C    2      [core]2S( 0.87)2p( 3.26)4p( 0.01)
      C    3      [core]2S( 0.80)2p( 2.81)3d( 0.01)4p( 0.01)
      C    4      [core]2S( 0.94)2p( 3.37)4p( 0.01)
      C    5      [core]2S( 0.95)2p( 3.21)4p( 0.01)
      C    6      [core]2S( 0.93)2p( 3.32)4p( 0.01)
      C    7      [core]2S( 0.87)2p( 3.07)4p( 0.02)
      C    8      [core]2S( 0.94)2p( 3.23)4p( 0.01)
      H    9            1S( 0.79)
      H   10            1S( 0.79)
      H   11            1S( 0.79)
      H   12            1S( 0.58)
      H   13            1S( 0.76)
      C   14      [core]2S( 0.75)2p( 2.43)3d( 0.01)4p( 0.03)
      O   15      [core]2S( 1.70)2p( 4.88)3d( 0.01)
      O   16      [core]2S( 1.63)2p( 4.93)3p( 0.01)
      C   17      [core]2S( 1.09)2p( 3.11)3p( 0.01)3d( 0.01)
      H   18            1S( 0.81)
      H   19            1S( 0.81)
      H   20            1S( 0.81)
      N   21      [core]2S( 1.22)2p( 4.29)4p( 0.01)
      O   22      [core]2S( 1.59)2p( 4.93)3p( 0.01)
      C   23      [core]2S( 1.08)2p( 3.11)3p( 0.01)3d( 0.01)
      H   24            1S( 0.83)
      H   25            1S( 0.81)
      H   26            1S( 0.83)


 NBO analysis skipped by request.
 1\1\GINC-COREV4-21-006\SP\RB3LYP\6-311+G(d,p)\C11H11N1O3\ROOT\23-Jul-2
 021\0\\# b3lyp/6-311+g(d,p) geom=connectivity pop=(hirshfeld,chelpg,mb
 s,npa)\\Table9_9\\0,1\C,0,0.422641,1.215882,-0.000013\C,0,0.926081,-0.
 11197,-0.000024\C,0,2.325333,-0.316434,-0.0001\C,0,3.162156,0.790716,0
 .000009\C,0,2.62347,2.098094,0.000006\C,0,1.26273,2.339742,-0.000082\C
 ,0,-1.32105,-0.20885,0.000031\C,0,-0.190449,-0.99526,-0.000037\H,0,4.2
 36819,0.67187,0.000191\H,0,3.311152,2.936252,0.000066\H,0,0.867243,3.3
 48199,-0.000158\H,0,-1.599962,1.89265,-0.000045\H,0,-0.179098,-2.07233
 9,-0.000096\C,0,-2.720417,-0.631994,-0.000018\O,0,-3.108795,-1.777112,
 -0.000079\O,0,-3.55725,0.443037,-0.000012\C,0,-4.963624,0.140089,0.000
 082\H,0,-5.229568,-0.434355,0.888411\H,0,-5.469324,1.103362,0.00145\H,
 0,-5.230156,-0.432054,-0.889585\N,0,-0.945689,1.127412,0.000103\O,0,2.
 732833,-1.613606,-0.000023\C,0,4.128812,-1.885855,0.000081\H,0,4.61227
 3,-1.479154,0.894561\H,0,4.219667,-2.970668,0.000096\H,0,4.612374,-1.4
 79153,-0.894319\\Version=ES64L-G09RevD.01\State=1-A\HF=-706.4217915\RM
 SD=6.226e-09\Dipole=0.3516573,1.0479489,0.0001117\Quadrupole=11.709946
 ,-4.014087,-7.695859,-9.1102449,0.0000439,-0.0005825\PG=C01 [X(C11H11N
 1O3)]\\@


 ALTHOUGH J.J. COULD DIAGNOSE THE FAULTS OF AN
 APPARATUS WITH UNCANNY ACCURACY, IT WAS JUST AS
 WELL NOT TO LET HIM HANDLE IT.
   -- GEORGE THOMPSON, ABOUT HIS FATHER
 Job cpu time:       0 days  0 hours 17 minutes 32.2 seconds.
 File lengths (MBytes):  RWF=    126 Int=      0 D2E=      0 Chk=      7 Scr=      1
 Normal termination of Gaussian 09 at Fri Jul 23 17:41:25 2021.
