	You are loading a legacy vmd module, please load an up to date module instead.


	 module load container_env vmd

	Please run vmd command with crun.vmd prepend to it:
	
	 crun.vmd vmd

	 
module: Command not found.
module: Command not found.
 Entering Gaussian System, Link 0=g09
 Initial command:
 /opt/gaussian/g09/l1.exe "/tmp/G09-comp94.com.o10577672.tmp/Gau-1708467.inp" -scrdir="/tmp/G09-comp94.com.o10577672.tmp/"
 Entering Link 1 = /opt/gaussian/g09/l1.exe PID=   1708468.
  
 Copyright (c) 1988,1990,1992,1993,1995,1998,2003,2009,2013,
            Gaussian, Inc.  All Rights Reserved.
  
 This is part of the Gaussian(R) 09 program.  It is based on
 the Gaussian(R) 03 system (copyright 2003, Gaussian, Inc.),
 the Gaussian(R) 98 system (copyright 1998, Gaussian, Inc.),
 the Gaussian(R) 94 system (copyright 1995, Gaussian, Inc.),
 the Gaussian 92(TM) system (copyright 1992, Gaussian, Inc.),
 the Gaussian 90(TM) system (copyright 1990, Gaussian, Inc.),
 the Gaussian 88(TM) system (copyright 1988, Gaussian, Inc.),
 the Gaussian 86(TM) system (copyright 1986, Carnegie Mellon
 University), and the Gaussian 82(TM) system (copyright 1983,
 Carnegie Mellon University). Gaussian is a federally registered
 trademark of Gaussian, Inc.
  
 This software contains proprietary and confidential information,
 including trade secrets, belonging to Gaussian, Inc.
  
 This software is provided under written license and may be
 used, copied, transmitted, or stored only in accord with that
 written license.
  
 The following legend is applicable only to US Government
 contracts under FAR:
  
                    RESTRICTED RIGHTS LEGEND
  
 Use, reproduction and disclosure by the US Government is
 subject to restrictions as set forth in subparagraphs (a)
 and (c) of the Commercial Computer Software - Restricted
 Rights clause in FAR 52.227-19.
  
 Gaussian, Inc.
 340 Quinnipiac St., Bldg. 40, Wallingford CT 06492
  
  
 ---------------------------------------------------------------
 Warning -- This program may not be used in any manner that
 competes with the business of Gaussian, Inc. or will provide
 assistance to any competitor of Gaussian, Inc.  The licensee
 of this program is prohibited from giving any competitor of
 Gaussian, Inc. access to this program.  By using this program,
 the user acknowledges that Gaussian, Inc. is engaged in the
 business of creating and licensing software in the field of
 computational chemistry and represents and warrants to the
 licensee that it is not a competitor of Gaussian, Inc. and that
 it will not use this program in any manner prohibited above.
 ---------------------------------------------------------------
  

 Cite this work as:
 Gaussian 09, Revision D.01,
 M. J. Frisch, G. W. Trucks, H. B. Schlegel, G. E. Scuseria, 
 M. A. Robb, J. R. Cheeseman, G. Scalmani, V. Barone, B. Mennucci, 
 G. A. Petersson, H. Nakatsuji, M. Caricato, X. Li, H. P. Hratchian, 
 A. F. Izmaylov, J. Bloino, G. Zheng, J. L. Sonnenberg, M. Hada, 
 M. Ehara, K. Toyota, R. Fukuda, J. Hasegawa, M. Ishida, T. Nakajima, 
 Y. Honda, O. Kitao, H. Nakai, T. Vreven, J. A. Montgomery, Jr., 
 J. E. Peralta, F. Ogliaro, M. Bearpark, J. J. Heyd, E. Brothers, 
 K. N. Kudin, V. N. Staroverov, T. Keith, R. Kobayashi, J. Normand, 
 K. Raghavachari, A. Rendell, J. C. Burant, S. S. Iyengar, J. Tomasi, 
 M. Cossi, N. Rega, J. M. Millam, M. Klene, J. E. Knox, J. B. Cross, 
 V. Bakken, C. Adamo, J. Jaramillo, R. Gomperts, R. E. Stratmann, 
 O. Yazyev, A. J. Austin, R. Cammi, C. Pomelli, J. W. Ochterski, 
 R. L. Martin, K. Morokuma, V. G. Zakrzewski, G. A. Voth, 
 P. Salvador, J. J. Dannenberg, S. Dapprich, A. D. Daniels, 
 O. Farkas, J. B. Foresman, J. V. Ortiz, J. Cioslowski, 
 and D. J. Fox, Gaussian, Inc., Wallingford CT, 2013.
 
 ******************************************
 Gaussian 09:  ES64L-G09RevD.01 24-Apr-2013
                26-Apr-2024 
 ******************************************
 %nprocshared=20
 Will use up to   20 processors via shared memory.
 %mem=4GB
 %chk=comp94.chk
 ----------------------------------------------------------------------
 # opt freq=noraman b3lyp/6-311+g(d,p) pop=(npa,hirshfeld,chelpg,mbs) g
 eom=connectivity
 ----------------------------------------------------------------------
 1/14=-1,18=20,19=15,26=3,38=1,57=2/1,3;
 2/9=110,12=2,17=6,18=5,40=1/2;
 3/5=4,6=6,7=111,11=2,16=1,25=1,30=1,71=1,74=-5/1,2,3;
 4//1;
 5/5=2,38=5/2;
 6/7=2,8=2,9=2,10=2,15=8,20=3,27=100,28=1,40=-1,79=1/1,2,7;
 7//1,2,3,16;
 1/14=-1,18=20,19=15,26=3/3(2);
 2/9=110/2;
 99//99;
 2/9=110/2;
 3/5=4,6=6,7=111,11=2,16=1,25=1,30=1,71=1,74=-5/1,2,3;
 4/5=5,16=3,69=1/1;
 5/5=2,38=5/2;
 7//1,2,3,16;
 1/14=-1,18=20,19=15,26=3/3(-5);
 2/9=110/2;
 6/7=2,8=2,9=2,10=2,15=8,19=2,20=3,27=100,28=1,40=-1,79=1/1,2,7;
 99/9=1/99;
 -------------------
 Title Card Required
 -------------------
 Symbolic Z-matrix:
 Charge =  0 Multiplicity = 1
 C                    -0.01273  -0.70079   0. 
 C                     0.02228   0.70258   0. 
 C                    -1.18925   1.38449   0. 
 C                    -2.37572   0.65775   0. 
 H                    -3.19239  -1.34389   0. 
 H                    -1.1921    2.46725   0. 
 H                    -3.3351    1.15987   0. 
 N                    -1.1355   -1.38878   0. 
 Cl                    1.4721   -1.6282    0. 
 Cl                    1.51543   1.60197   0. 
 C                    -2.29789  -0.72998   0. 
 

 GradGradGradGradGradGradGradGradGradGradGradGradGradGradGradGradGradGrad
 Berny optimization.
 Initialization pass.
                           ----------------------------
                           !    Initial Parameters    !
                           ! (Angstroms and Degrees)  !
 --------------------------                            --------------------------
 ! Name  Definition              Value          Derivative Info.                !
 --------------------------------------------------------------------------------
 ! R1    R(1,2)                  1.4038         estimate D2E/DX2                !
 ! R2    R(1,8)                  1.3168         estimate D2E/DX2                !
 ! R3    R(1,9)                  1.7507         estimate D2E/DX2                !
 ! R4    R(2,3)                  1.3903         estimate D2E/DX2                !
 ! R5    R(2,10)                 1.7431         estimate D2E/DX2                !
 ! R6    R(3,4)                  1.3914         estimate D2E/DX2                !
 ! R7    R(3,6)                  1.0828         estimate D2E/DX2                !
 ! R8    R(4,7)                  1.0828         estimate D2E/DX2                !
 ! R9    R(4,11)                 1.3899         estimate D2E/DX2                !
 ! R10   R(5,11)                 1.0849         estimate D2E/DX2                !
 ! R11   R(8,11)                 1.3361         estimate D2E/DX2                !
 ! A1    A(2,1,8)              122.9275         estimate D2E/DX2                !
 ! A2    A(2,1,9)              120.5593         estimate D2E/DX2                !
 ! A3    A(8,1,9)              116.5132         estimate D2E/DX2                !
 ! A4    A(1,2,3)              117.9441         estimate D2E/DX2                !
 ! A5    A(1,2,10)             122.4917         estimate D2E/DX2                !
 ! A6    A(3,2,10)             119.5641         estimate D2E/DX2                !
 ! A7    A(2,3,4)              119.1379         estimate D2E/DX2                !
 ! A8    A(2,3,6)              119.5239         estimate D2E/DX2                !
 ! A9    A(4,3,6)              121.3383         estimate D2E/DX2                !
 ! A10   A(3,4,7)              120.8844         estimate D2E/DX2                !
 ! A11   A(3,4,11)             118.2788         estimate D2E/DX2                !
 ! A12   A(7,4,11)             120.8368         estimate D2E/DX2                !
 ! A13   A(1,8,11)             118.9586         estimate D2E/DX2                !
 ! A14   A(4,11,5)             121.2522         estimate D2E/DX2                !
 ! A15   A(4,11,8)             122.7531         estimate D2E/DX2                !
 ! A16   A(5,11,8)             115.9947         estimate D2E/DX2                !
 ! D1    D(8,1,2,3)              0.0            estimate D2E/DX2                !
 ! D2    D(8,1,2,10)           180.0            estimate D2E/DX2                !
 ! D3    D(9,1,2,3)            180.0            estimate D2E/DX2                !
 ! D4    D(9,1,2,10)             0.0            estimate D2E/DX2                !
 ! D5    D(2,1,8,11)             0.0            estimate D2E/DX2                !
 ! D6    D(9,1,8,11)           180.0            estimate D2E/DX2                !
 ! D7    D(1,2,3,4)              0.0            estimate D2E/DX2                !
 ! D8    D(1,2,3,6)            180.0            estimate D2E/DX2                !
 ! D9    D(10,2,3,4)           180.0            estimate D2E/DX2                !
 ! D10   D(10,2,3,6)             0.0            estimate D2E/DX2                !
 ! D11   D(2,3,4,7)            180.0            estimate D2E/DX2                !
 ! D12   D(2,3,4,11)             0.0            estimate D2E/DX2                !
 ! D13   D(6,3,4,7)              0.0            estimate D2E/DX2                !
 ! D14   D(6,3,4,11)           180.0            estimate D2E/DX2                !
 ! D15   D(3,4,11,5)           180.0            estimate D2E/DX2                !
 ! D16   D(3,4,11,8)             0.0            estimate D2E/DX2                !
 ! D17   D(7,4,11,5)             0.0            estimate D2E/DX2                !
 ! D18   D(7,4,11,8)           180.0            estimate D2E/DX2                !
 ! D19   D(1,8,11,4)             0.0            estimate D2E/DX2                !
 ! D20   D(1,8,11,5)           180.0            estimate D2E/DX2                !
 --------------------------------------------------------------------------------
 Trust Radius=3.00D-01 FncErr=1.00D-07 GrdErr=1.00D-06
 Number of steps in this run=     57 maximum allowed number of steps=    100.
 GradGradGradGradGradGradGradGradGradGradGradGradGradGradGradGradGradGrad

                          Input orientation:                          
 ---------------------------------------------------------------------
 Center     Atomic      Atomic             Coordinates (Angstroms)
 Number     Number       Type             X           Y           Z
 ---------------------------------------------------------------------
      1          6           0       -0.012733   -0.700793    0.000000
      2          6           0        0.022279    0.702575    0.000000
      3          6           0       -1.189254    1.384494    0.000000
      4          6           0       -2.375718    0.657745    0.000000
      5          1           0       -3.192387   -1.343889    0.000000
      6          1           0       -1.192100    2.467254    0.000000
      7          1           0       -3.335097    1.159866    0.000000
      8          7           0       -1.135501   -1.388782    0.000000
      9         17           0        1.472101   -1.628204    0.000000
     10         17           0        1.515426    1.601970    0.000000
     11          6           0       -2.297887   -0.729983    0.000000
 ---------------------------------------------------------------------
                    Distance matrix (angstroms):
                    1          2          3          4          5
     1  C    0.000000
     2  C    1.403805   0.000000
     3  C    2.394290   1.390261   0.000000
     4  C    2.725679   2.398416   1.391352   0.000000
     5  H    3.244036   3.810786   3.384762   2.161825   0.000000
     6  H    3.380448   2.142150   1.082764   2.162238   4.304179
     7  H    3.807907   3.388376   2.157568   1.082836   2.507819
     8  N    1.316790   2.390445   2.773797   2.392992   2.057376
     9  Cl   1.750664   2.744907   4.019846   4.475631   4.673145
    10  Cl   2.763691   1.743100   2.713409   4.004068   5.553520
    11  C    2.285340   2.726792   2.387484   1.389909   1.084901
                    6          7          8          9         10
     6  H    0.000000
     7  H    2.510319   0.000000
     8  N    3.856451   3.366575   0.000000
     9  Cl   4.885769   5.557201   2.618570   0.000000
    10  Cl   2.842431   4.870629   3.996500   3.230465   0.000000
    11  C    3.383059   2.155768   1.336098   3.875514   4.469828
                   11
    11  C    0.000000
 Stoichiometry    C5H3Cl2N
 Framework group  CS[SG(C5H3Cl2N)]
 Deg. of freedom    19
 Full point group                 CS      NOp   2
 Largest Abelian subgroup         CS      NOp   2
 Largest concise Abelian subgroup C1      NOp   1
                         Standard orientation:                         
 ---------------------------------------------------------------------
 Center     Atomic      Atomic             Coordinates (Angstroms)
 Number     Number       Type             X           Y           Z
 ---------------------------------------------------------------------
      1          6           0        0.000000    0.700909    0.000000
      2          6           0       -0.009512   -0.702864    0.000000
      3          6           0        1.214209   -1.362661    0.000000
      4          6           0        2.387275   -0.614479    0.000000
      5          1           0        3.167447    1.401661    0.000000
      6          1           0        1.236724   -2.445191    0.000000
      7          1           0        3.355617   -1.099088    0.000000
      8          7           0        1.110085    1.409181    0.000000
      9         17           0       -1.501437    1.601193    0.000000
     10         17           0       -1.486074   -1.629235    0.000000
     11          6           0        2.284247    0.771607    0.000000
 ---------------------------------------------------------------------
 Rotational constants (GHZ):      1.9067971      1.4671578      0.8291670
 Standard basis: 6-311+G(d,p) (5D, 7F)
 There are   163 symmetry adapted cartesian basis functions of A'  symmetry.
 There are    55 symmetry adapted cartesian basis functions of A"  symmetry.
 There are   155 symmetry adapted basis functions of A'  symmetry.
 There are    55 symmetry adapted basis functions of A"  symmetry.
   210 basis functions,   346 primitive gaussians,   218 cartesian basis functions
    37 alpha electrons       37 beta electrons
       nuclear repulsion energy       472.9498723899 Hartrees.
 NAtoms=   11 NActive=   11 NUniq=   11 SFac= 1.00D+00 NAtFMM=   60 NAOKFM=F Big=F
 Integral buffers will be    131072 words long.
 Raffenetti 2 integral format.
 Two-electron integral symmetry is turned on.
 One-electron integrals computed using PRISM.
 NBasis=   210 RedAO= T EigKep=  1.06D-05  NBF=   155    55
 NBsUse=   210 1.00D-06 EigRej= -1.00D+00 NBFU=   155    55
 ExpMin= 4.38D-02 ExpMax= 1.06D+05 ExpMxC= 3.62D+03 IAcc=2 IRadAn=         4 AccDes= 0.00D+00
 Harris functional with IExCor=  402 and IRadAn=       4 diagonalized for initial guess.
 HarFok:  IExCor=  402 AccDes= 0.00D+00 IRadAn=         4 IDoV= 1 UseB2=F ITyADJ=14
 ICtDFT=  3500011 ScaDFX=  1.000000  1.000000  1.000000  1.000000
 FoFCou: FMM=F IPFlag=           0 FMFlag=      100000 FMFlg1=           0
         NFxFlg=           0 DoJE=T BraDBF=F KetDBF=T FulRan=T
         wScrn=  0.000000 ICntrl=     500 IOpCl=  0 I1Cent=   200000004 NGrid=           0
         NMat0=    1 NMatS0=      1 NMatT0=    0 NMatD0=    1 NMtDS0=    0 NMtDT0=    0
 Petite list used in FoFCou.
 Initial guess orbital symmetries:
       Occupied  (A') (A') (A') (A') (A') (A') (A') (A') (A') (A')
                 (A') (A') (A') (A") (A") (A') (A') (A') (A') (A')
                 (A') (A') (A') (A') (A') (A') (A') (A") (A') (A')
                 (A") (A") (A') (A') (A") (A') (A")
       Virtual   (A") (A") (A') (A') (A') (A') (A') (A") (A') (A")
                 (A') (A') (A") (A") (A') (A') (A') (A') (A") (A")
                 (A') (A') (A') (A") (A') (A') (A') (A") (A') (A')
                 (A') (A') (A') (A') (A') (A') (A') (A") (A') (A')
                 (A') (A') (A') (A') (A') (A') (A') (A') (A") (A')
                 (A') (A") (A') (A") (A') (A') (A") (A") (A') (A")
                 (A") (A') (A') (A') (A') (A') (A') (A") (A') (A')
                 (A') (A') (A') (A") (A") (A') (A") (A') (A') (A")
                 (A') (A") (A') (A") (A') (A') (A') (A") (A') (A')
                 (A') (A") (A') (A") (A') (A") (A') (A') (A') (A')
                 (A") (A') (A') (A') (A") (A') (A") (A') (A') (A")
                 (A') (A') (A") (A') (A") (A') (A') (A") (A') (A")
                 (A") (A') (A') (A") (A') (A') (A') (A') (A") (A')
                 (A") (A') (A') (A') (A') (A') (A') (A") (A") (A")
                 (A') (A') (A") (A') (A') (A') (A') (A') (A') (A')
                 (A') (A") (A') (A') (A') (A') (A') (A') (A') (A')
                 (A') (A') (A') (A') (A") (A") (A') (A') (A') (A')
                 (A') (A') (A')
 The electronic state of the initial guess is 1-A'.
 Keep R1 ints in memory in symmetry-blocked form, NReq=374884854.
 Requested convergence on RMS density matrix=1.00D-08 within 128 cycles.
 Requested convergence on MAX density matrix=1.00D-06.
 Requested convergence on             energy=1.00D-06.
 No special actions if energy rises.
 SCF Done:  E(RB3LYP) =  -1167.59320301     A.U. after   15 cycles
            NFock= 15  Conv=0.46D-08     -V/T= 2.0027

 **********************************************************************

            Population analysis using the SCF density.

 **********************************************************************

 Orbital symmetries:
       Occupied  (A') (A') (A') (A') (A') (A') (A') (A') (A') (A')
                 (A') (A") (A') (A') (A") (A') (A') (A') (A') (A')
                 (A') (A') (A') (A') (A') (A') (A') (A") (A') (A')
                 (A") (A") (A') (A') (A") (A') (A")
       Virtual   (A") (A") (A') (A') (A') (A') (A') (A") (A') (A')
                 (A') (A") (A") (A') (A") (A') (A') (A') (A") (A")
                 (A') (A') (A") (A') (A') (A') (A") (A') (A') (A')
                 (A') (A') (A') (A') (A') (A") (A') (A') (A') (A')
                 (A') (A') (A') (A') (A') (A') (A") (A') (A') (A")
                 (A') (A') (A') (A") (A') (A") (A") (A') (A") (A')
                 (A") (A') (A') (A') (A') (A') (A") (A') (A') (A')
                 (A') (A') (A') (A") (A') (A") (A") (A') (A') (A')
                 (A") (A') (A') (A") (A') (A") (A') (A') (A") (A')
                 (A') (A") (A') (A') (A") (A") (A') (A') (A') (A')
                 (A") (A') (A') (A') (A") (A') (A") (A') (A') (A")
                 (A') (A') (A") (A') (A") (A') (A') (A") (A') (A")
                 (A") (A') (A') (A') (A") (A') (A') (A') (A') (A")
                 (A') (A') (A") (A') (A') (A') (A') (A") (A") (A")
                 (A') (A') (A") (A') (A') (A') (A') (A') (A') (A')
                 (A') (A") (A') (A') (A') (A') (A') (A') (A') (A')
                 (A') (A') (A') (A') (A") (A") (A') (A') (A') (A')
                 (A') (A') (A')
 The electronic state is 1-A'.
 Alpha  occ. eigenvalues -- -101.57543-101.56342 -14.34453 -10.29261 -10.27086
 Alpha  occ. eigenvalues --  -10.23799 -10.22594 -10.21284  -9.48992  -9.47819
 Alpha  occ. eigenvalues --   -7.25480  -7.24472  -7.24414  -7.24290  -7.23322
 Alpha  occ. eigenvalues --   -7.23227  -0.99620  -0.90324  -0.87139  -0.82094
 Alpha  occ. eigenvalues --   -0.76491  -0.66427  -0.65092  -0.54796  -0.53538
 Alpha  occ. eigenvalues --   -0.49149  -0.46250  -0.45670  -0.44259  -0.41369
 Alpha  occ. eigenvalues --   -0.37594  -0.35818  -0.34754  -0.32303  -0.30722
 Alpha  occ. eigenvalues --   -0.29423  -0.27225
 Alpha virt. eigenvalues --   -0.06384  -0.05008  -0.01707  -0.00198   0.01790
 Alpha virt. eigenvalues --    0.02241   0.02467   0.04297   0.04735   0.05742
 Alpha virt. eigenvalues --    0.05894   0.07758   0.08117   0.08554   0.08997
 Alpha virt. eigenvalues --    0.09497   0.10977   0.11683   0.11861   0.12832
 Alpha virt. eigenvalues --    0.13417   0.13724   0.14258   0.15639   0.16417
 Alpha virt. eigenvalues --    0.17086   0.17092   0.18087   0.18346   0.19108
 Alpha virt. eigenvalues --    0.19664   0.21145   0.22384   0.23483   0.23937
 Alpha virt. eigenvalues --    0.24983   0.25050   0.25693   0.27959   0.28481
 Alpha virt. eigenvalues --    0.29189   0.30108   0.30888   0.32987   0.40576
 Alpha virt. eigenvalues --    0.42646   0.44282   0.44464   0.46381   0.47518
 Alpha virt. eigenvalues --    0.48091   0.49231   0.51176   0.52912   0.53970
 Alpha virt. eigenvalues --    0.55235   0.55843   0.57410   0.59016   0.59395
 Alpha virt. eigenvalues --    0.60882   0.63002   0.65900   0.68594   0.70373
 Alpha virt. eigenvalues --    0.75447   0.76288   0.77713   0.80076   0.81358
 Alpha virt. eigenvalues --    0.82238   0.82737   0.84028   0.84233   0.85664
 Alpha virt. eigenvalues --    0.85666   0.86599   0.90402   0.90883   0.93503
 Alpha virt. eigenvalues --    0.93898   0.95088   0.95596   0.98851   0.99879
 Alpha virt. eigenvalues --    1.00211   1.01189   1.07939   1.09422   1.13228
 Alpha virt. eigenvalues --    1.18278   1.23415   1.24801   1.28246   1.28427
 Alpha virt. eigenvalues --    1.36054   1.38941   1.45473   1.50991   1.52403
 Alpha virt. eigenvalues --    1.55109   1.57911   1.61893   1.64438   1.66348
 Alpha virt. eigenvalues --    1.68558   1.71649   1.77911   1.85318   1.87351
 Alpha virt. eigenvalues --    1.87738   1.90425   1.91801   1.95332   2.03472
 Alpha virt. eigenvalues --    2.06139   2.06907   2.12592   2.22609   2.23514
 Alpha virt. eigenvalues --    2.25844   2.30356   2.35564   2.36932   2.37039
 Alpha virt. eigenvalues --    2.41325   2.44866   2.48877   2.52893   2.53647
 Alpha virt. eigenvalues --    2.64195   2.66082   2.66681   2.68469   2.71889
 Alpha virt. eigenvalues --    2.74064   2.75572   2.78759   2.79868   2.86770
 Alpha virt. eigenvalues --    2.88199   2.96094   2.98035   3.12976   3.16910
 Alpha virt. eigenvalues --    3.24703   3.35349   3.43214   3.48374   3.65752
 Alpha virt. eigenvalues --    3.73933   3.90770   3.98724   4.01321   4.32726
 Alpha virt. eigenvalues --    4.39887   5.19265   9.75243   9.79494  23.53366
 Alpha virt. eigenvalues --   23.83511  23.91425  24.00848  24.10354  25.77913
 Alpha virt. eigenvalues --   25.84426  26.05149  26.06873  26.52072  26.67803
 Alpha virt. eigenvalues --   35.63132 215.74236 215.78888
          Condensed to atoms (all electrons):
               1          2          3          4          5          6
     1  C   12.699744  -4.705075  -0.542521  -1.410130   0.047093   0.002910
     2  C   -4.705075  13.524840  -2.196434  -0.266737  -0.011306   0.028803
     3  C   -0.542521  -2.196434   8.545419   1.197220  -0.007605   0.328867
     4  C   -1.410130  -0.266737   1.197220   6.312752  -0.085310  -0.005386
     5  H    0.047093  -0.011306  -0.007605  -0.085310   0.538776  -0.000173
     6  H    0.002910   0.028803   0.328867  -0.005386  -0.000173   0.495517
     7  H   -0.012847   0.003582  -0.025155   0.382472  -0.002994  -0.006805
     8  N   -0.286952   0.215597  -0.145644   0.237692  -0.088408   0.002556
     9  Cl   0.747358  -0.451550   0.092905   0.006761   0.002444  -0.000053
    10  Cl  -0.212838  -0.055462  -0.266718  -0.058240   0.000579  -0.004715
    11  C    0.627084  -0.711622  -0.103070  -0.206690   0.460300  -0.006687
               7          8          9         10         11
     1  C   -0.012847  -0.286952   0.747358  -0.212838   0.627084
     2  C    0.003582   0.215597  -0.451550  -0.055462  -0.711622
     3  C   -0.025155  -0.145644   0.092905  -0.266718  -0.103070
     4  C    0.382472   0.237692   0.006761  -0.058240  -0.206690
     5  H   -0.002994  -0.088408   0.002444   0.000579   0.460300
     6  H   -0.006805   0.002556  -0.000053  -0.004715  -0.006687
     7  H    0.514122   0.005846   0.000689   0.001044  -0.003471
     8  N    0.005846   6.999450  -0.185360  -0.033030   0.155118
     9  Cl   0.000689  -0.185360  16.600427  -0.116488  -0.077260
    10  Cl   0.001044  -0.033030  -0.116488  17.177835   0.102104
    11  C   -0.003471   0.155118  -0.077260   0.102104   5.878544
 Mulliken charges:
               1
     1  C   -0.953826
     2  C    0.625363
     3  C   -0.877264
     4  C   -0.104403
     5  H    0.146604
     6  H    0.165166
     7  H    0.143519
     8  N    0.123134
     9  Cl   0.380127
    10  Cl   0.465929
    11  C   -0.114349
 Sum of Mulliken charges =   0.00000
 Mulliken charges with hydrogens summed into heavy atoms:
               1
     1  C   -0.953826
     2  C    0.625363
     3  C   -0.712098
     4  C    0.039116
     8  N    0.123134
     9  Cl   0.380127
    10  Cl   0.465929
    11  C    0.032255
 Electronic spatial extent (au):  <R**2>=           1259.8152
 Charge=              0.0000 electrons
 Dipole moment (field-independent basis, Debye):
    X=              2.6443    Y=             -2.2229    Z=              0.0000  Tot=              3.4546
 Quadrupole moment (field-independent basis, Debye-Ang):
   XX=            -52.5592   YY=            -61.1746   ZZ=            -61.4359
   XY=             -2.3739   XZ=              0.0000   YZ=              0.0000
 Traceless Quadrupole moment (field-independent basis, Debye-Ang):
   XX=              5.8307   YY=             -2.7847   ZZ=             -3.0460
   XY=             -2.3739   XZ=              0.0000   YZ=              0.0000
 Octapole moment (field-independent basis, Debye-Ang**2):
  XXX=             10.1832  YYY=            -15.2515  ZZZ=              0.0000  XYY=             -1.6346
  XXY=             -0.5863  XXZ=              0.0000  XZZ=             -6.7208  YZZ=              1.1720
  YYZ=              0.0000  XYZ=              0.0000
 Hexadecapole moment (field-independent basis, Debye-Ang**3):
 XXXX=           -817.8060 YYYY=           -693.5132 ZZZZ=            -70.3908 XXXY=              2.7927
 XXXZ=              0.0000 YYYX=            -19.1559 YYYZ=              0.0000 ZZZX=              0.0000
 ZZZY=              0.0000 XXYY=           -240.8138 XXZZ=           -176.8016 YYZZ=           -131.3390
 XXYZ=              0.0000 YYXZ=              0.0000 ZZXY=              0.7693
 N-N= 4.729498723899D+02 E-N=-3.707810009478D+03  KE= 1.164404422703D+03
 Symmetry A'   KE= 1.065647765945D+03
 Symmetry A"   KE= 9.875665675793D+01
 There are a total of       89260 grid points.
 ElSum from          density=       74.0000655100
 ElSum from atomic densities=       74.0001122919

 Hirshfeld populations at iteration   1 (CX, CA, CB, DipXYZ):
               1          2          3          4          5          6
     1  C    0.000001   2.951314   2.951314  -0.043312   0.040754   0.000000
     2  C    0.000001   2.985856   2.985856  -0.075426  -0.038354   0.000000
     3  C    0.000000   3.011672   3.011672   0.018560  -0.076865   0.000000
     4  C    0.000000   3.020199   3.020199   0.065964  -0.035088   0.000000
     5  H    0.000004   0.469865   0.469865   0.134712   0.093121   0.000000
     6  H    0.000003   0.467173   0.467173   0.021181  -0.166849   0.000000
     7  H    0.000001   0.469604   0.469604   0.150979  -0.075459   0.000000
     8  N    0.000007   3.585979   3.585979   0.012456  -0.154074   0.000000
     9  Cl   0.000014   8.531313   8.531313  -0.027534   0.017961   0.000000
    10  Cl   0.000012   8.525664   8.525664  -0.028608  -0.017925   0.000000
    11  C    0.000001   2.981393   2.981393   0.026544   0.045073   0.000000
       Tot   0.000043  37.000033  37.000033   0.255514  -0.367705   0.000000

 Dip from Atomic Chgs              0.785114  -0.506697   0.000000
         Total Dipole              1.040628  -0.874402   0.000000

 Hirshfeld charges, spin densities, dipoles, and CM5 charges using IRadAn=      4:
              Q-H        S-H        Dx         Dy         Dz        Q-CM5   
     1  C    0.097372   0.000000  -0.043312   0.040754   0.000000   0.176373
     2  C    0.028288   0.000000  -0.075426  -0.038354   0.000000   0.030316
     3  C   -0.023344   0.000000   0.018560  -0.076865   0.000000  -0.073378
     4  C   -0.040398   0.000000   0.065964  -0.035088   0.000000  -0.090235
     5  H    0.060269   0.000000   0.134712   0.093121   0.000000   0.126214
     6  H    0.065654   0.000000   0.021181  -0.166849   0.000000   0.120524
     7  H    0.060793   0.000000   0.150979  -0.075459   0.000000   0.116999
     8  N   -0.171959   0.000000   0.012456  -0.154074   0.000000  -0.347592
     9  Cl  -0.062626   0.000000  -0.027534   0.017961   0.000000  -0.069455
    10  Cl  -0.051329   0.000000  -0.028608  -0.017925   0.000000  -0.050621
    11  C    0.037215   0.000000   0.026544   0.045073   0.000000   0.060790
       Tot  -0.000066   0.000000   0.255514  -0.367705   0.000000  -0.000066
 Hirshfeld charges with hydrogens summed into heavy atoms:
              Q-H       Q-CM5   
     1  C    0.097372   0.176373
     2  C    0.028288   0.030316
     3  C    0.042310   0.047145
     4  C    0.020395   0.026765
     8  N   -0.171959  -0.347592
     9  Cl  -0.062626  -0.069455
    10  Cl  -0.051329  -0.050621
    11  C    0.097484   0.187004
 
 EQQ= 0.000000000000E+00 EQD= 0.000000000000E+00 EDD= 0.399376190450E-02
 EQQ+QD+DD= 0.399376190450E-02
 
          MBS Condensed to atoms (all electrons):
               1          2          3          4          5          6
     1  C    4.625354   0.489397  -0.031406  -0.014503   0.002653   0.001346
     2  C    0.489397   4.743188   0.505700  -0.029657   0.000008  -0.025409
     3  C   -0.031406   0.505700   4.796712   0.500734   0.001478   0.388376
     4  C   -0.014503  -0.029657   0.500734   4.844305  -0.030082  -0.022564
     5  H    0.002653   0.000008   0.001478  -0.030082   0.538729  -0.000039
     6  H    0.001346  -0.025409   0.388376  -0.022564  -0.000039   0.524436
     7  H    0.000100   0.001438  -0.023972   0.388506  -0.002458  -0.003605
     8  N    0.463646  -0.025605  -0.007347  -0.028013  -0.031602   0.000022
     9  Cl   0.262006  -0.033737   0.000572  -0.000013  -0.000012  -0.000015
    10  Cl  -0.026262   0.267953  -0.030234   0.000693   0.000001  -0.002137
    11  C   -0.045112  -0.013686  -0.032532   0.501292   0.391244   0.001525
               7          8          9         10         11
     1  C    0.000100   0.463646   0.262006  -0.026262  -0.045112
     2  C    0.001438  -0.025605  -0.033737   0.267953  -0.013686
     3  C   -0.023972  -0.007347   0.000572  -0.030234  -0.032532
     4  C    0.388506  -0.028013  -0.000013   0.000693   0.501292
     5  H   -0.002458  -0.031602  -0.000012   0.000001   0.391244
     6  H   -0.003605   0.000022  -0.000015  -0.002137   0.001525
     7  H    0.537116   0.001079   0.000001  -0.000011  -0.023313
     8  N    0.001079   6.544827  -0.034437   0.000347   0.443842
     9  Cl   0.000001  -0.034437  16.969950   0.001042   0.001326
    10  Cl  -0.000011   0.000347   0.001042  16.961702   0.000029
    11  C   -0.023313   0.443842   0.001326   0.000029   4.716495
 MBS Mulliken charges:
               1
     1  C    0.272782
     2  C    0.120412
     3  C   -0.068082
     4  C   -0.110697
     5  H    0.130080
     6  H    0.138063
     7  H    0.125119
     8  N   -0.326758
     9  Cl  -0.166684
    10  Cl  -0.173123
    11  C    0.058889
 Sum of MBS Mulliken charges =   0.00000
 MBS Mulliken charges with hydrogens summed into heavy atoms:
               1
     1  C    0.272782
     2  C    0.120412
     3  C    0.069981
     4  C    0.014422
     8  N   -0.326758
     9  Cl  -0.166684
    10  Cl  -0.173123
    11  C    0.188968
 Breneman (CHELPG) radii used.
 Generate Potential Derived Charges using the Breneman model, NDens= 1.
 Grid spacing= 0.300 Box extension= 2.800
 NStep X,Y,Z=   36     34     20   Total possible points=       24480
 Number of Points to Fit=    8520

 **********************************************************************

            Electrostatic Properties Using The SCF Density

 **********************************************************************

       Atomic Center    1 is at   0.000000  0.700909  0.000000
       Atomic Center    2 is at  -0.009512 -0.702864  0.000000
       Atomic Center    3 is at   1.214209 -1.362661  0.000000
       Atomic Center    4 is at   2.387275 -0.614479  0.000000
       Atomic Center    5 is at   3.167447  1.401661  0.000000
       Atomic Center    6 is at   1.236724 -2.445191  0.000000
       Atomic Center    7 is at   3.355617 -1.099088  0.000000
       Atomic Center    8 is at   1.110085  1.409181  0.000000
       Atomic Center    9 is at  -1.501437  1.601193  0.000000
       Atomic Center   10 is at  -1.486074 -1.629235  0.000000
       Atomic Center   11 is at   2.284247  0.771607  0.000000
    8520 points will be used for fitting atomic charges
 Fitting point charges to electrostatic potential
 Charges from ESP fit, RMS=   0.00491 RRMS=   0.30250:
 ESP charges:
               1
     1  C    0.542227
     2  C   -0.175006
     3  C    0.210949
     4  C   -0.401667
     5  H    0.024152
     6  H    0.062862
     7  H    0.154030
     8  N   -0.601020
     9  Cl  -0.147866
    10  Cl  -0.084639
    11  C    0.415979
 Sum of ESP charges =   0.00000
 ESP charges with hydrogens summed into heavy atoms:
               1
     1  C    0.542227
     2  C   -0.175006
     3  C    0.273810
     4  C   -0.247637
     8  N   -0.601020
     9  Cl  -0.147866
    10  Cl  -0.084639
    11  C    0.440131
 Charge=   0.00000 Dipole=     2.8859    -2.1690     0.0000 Tot=     3.6101
 -----------------------------------------------------------------

              Electrostatic Properties (Atomic Units)

 -----------------------------------------------------------------
    Center     Electric         -------- Electric Field --------
               Potential          X             Y             Z
 -----------------------------------------------------------------
    1 Atom    -14.656360
    2 Atom    -14.679253
    3 Atom    -14.726419
    4 Atom    -14.739023
    5 Atom     -1.082875
    6 Atom     -1.063270
    7 Atom     -1.070217
    8 Atom    -18.376671
    9 Atom    -64.387604
   10 Atom    -64.375469
   11 Atom    -14.713107
 -----------------------------------------------------------------
 ******************************Gaussian NBO Version 3.1******************************
             N A T U R A L   A T O M I C   O R B I T A L   A N D
          N A T U R A L   B O N D   O R B I T A L   A N A L Y S I S
 ******************************Gaussian NBO Version 3.1******************************
       /RESON  / : Allow strongly delocalized NBO set

 Analyzing the SCF density

 Job title: Title Card Required                                             

 Storage needed:    133350 in NPA ( 536870219 available)


 NATURAL POPULATIONS:  Natural atomic orbital occupancies 
                                                          
   NAO  Atom  No  lang   Type(AO)    Occupancy      Energy
 ----------------------------------------------------------
     1    C    1  S      Cor( 1S)     1.99852     -10.16682
     2    C    1  S      Val( 2S)     0.88179      -0.22709
     3    C    1  S      Ryd( 4S)     0.00197       0.70627
     4    C    1  S      Ryd( 3S)     0.00059       0.49182
     5    C    1  S      Ryd( 5S)     0.00002      23.08889
     6    C    1  px     Val( 2p)     0.90165      -0.14642
     7    C    1  px     Ryd( 4p)     0.00852       0.89125
     8    C    1  px     Ryd( 3p)     0.00040       0.37626
     9    C    1  px     Ryd( 5p)     0.00024       2.94640
    10    C    1  py     Val( 2p)     1.00784      -0.12675
    11    C    1  py     Ryd( 4p)     0.01115       0.80726
    12    C    1  py     Ryd( 3p)     0.00101       0.35610
    13    C    1  py     Ryd( 5p)     0.00028       3.06311
    14    C    1  pz     Val( 2p)     1.00267      -0.17418
    15    C    1  pz     Ryd( 4p)     0.00188       0.58381
    16    C    1  pz     Ryd( 3p)     0.00050       0.30248
    17    C    1  pz     Ryd( 5p)     0.00005       2.58258
    18    C    1  dxy    Ryd( 3d)     0.00276       2.23473
    19    C    1  dxz    Ryd( 3d)     0.00211       1.47273
    20    C    1  dyz    Ryd( 3d)     0.00103       1.56463
    21    C    1  dx2y2  Ryd( 3d)     0.00251       2.30137
    22    C    1  dz2    Ryd( 3d)     0.00092       1.89547

    23    C    2  S      Cor( 1S)     1.99838     -10.13955
    24    C    2  S      Val( 2S)     0.94082      -0.25132
    25    C    2  S      Ryd( 3S)     0.00110       0.58129
    26    C    2  S      Ryd( 4S)     0.00046       0.62438
    27    C    2  S      Ryd( 5S)     0.00001      23.35090
    28    C    2  px     Val( 2p)     0.99535      -0.17548
    29    C    2  px     Ryd( 4p)     0.00714       0.86975
    30    C    2  px     Ryd( 3p)     0.00018       0.50734
    31    C    2  px     Ryd( 5p)     0.00036       2.95471
    32    C    2  py     Val( 2p)     1.06302      -0.15132
    33    C    2  py     Ryd( 4p)     0.00720       0.81258
    34    C    2  py     Ryd( 3p)     0.00043       0.53839
    35    C    2  py     Ryd( 5p)     0.00027       3.03113
    36    C    2  pz     Val( 2p)     1.08210      -0.17884
    37    C    2  pz     Ryd( 4p)     0.00120       0.56850
    38    C    2  pz     Ryd( 3p)     0.00026       0.51706
    39    C    2  pz     Ryd( 5p)     0.00003       2.41807
    40    C    2  dxy    Ryd( 3d)     0.00166       2.21889
    41    C    2  dxz    Ryd( 3d)     0.00137       1.49836
    42    C    2  dyz    Ryd( 3d)     0.00070       1.56160
    43    C    2  dx2y2  Ryd( 3d)     0.00154       2.34113
    44    C    2  dz2    Ryd( 3d)     0.00088       1.93910

    45    C    3  S      Cor( 1S)     1.99899     -10.07477
    46    C    3  S      Val( 2S)     0.95355      -0.20177
    47    C    3  S      Ryd( 3S)     0.00231       0.67606
    48    C    3  S      Ryd( 4S)     0.00046       0.93837
    49    C    3  S      Ryd( 5S)     0.00001      22.88364
    50    C    3  px     Val( 2p)     1.06333      -0.09797
    51    C    3  px     Ryd( 4p)     0.00522       0.71707
    52    C    3  px     Ryd( 3p)     0.00042       0.39758
    53    C    3  px     Ryd( 5p)     0.00017       3.04952
    54    C    3  py     Val( 2p)     1.18919      -0.10671
    55    C    3  py     Ryd( 4p)     0.00694       1.00568
    56    C    3  py     Ryd( 3p)     0.00038       0.28738
    57    C    3  py     Ryd( 5p)     0.00008       3.17844
    58    C    3  pz     Val( 2p)     0.95052      -0.14923
    59    C    3  pz     Ryd( 4p)     0.00048       0.49739
    60    C    3  pz     Ryd( 3p)     0.00036       0.30888
    61    C    3  pz     Ryd( 5p)     0.00001       2.61440
    62    C    3  dxy    Ryd( 3d)     0.00072       2.55505
    63    C    3  dxz    Ryd( 3d)     0.00053       1.62874
    64    C    3  dyz    Ryd( 3d)     0.00052       1.57170
    65    C    3  dx2y2  Ryd( 3d)     0.00073       2.43719
    66    C    3  dz2    Ryd( 3d)     0.00042       1.98992

    67    C    4  S      Cor( 1S)     1.99915     -10.06775
    68    C    4  S      Val( 2S)     0.96598      -0.20529
    69    C    4  S      Ryd( 3S)     0.00166       0.59599
    70    C    4  S      Ryd( 4S)     0.00015       0.94425
    71    C    4  S      Ryd( 5S)     0.00001      22.98917
    72    C    4  px     Val( 2p)     1.15300      -0.09005
    73    C    4  px     Ryd( 4p)     0.00494       1.01733
    74    C    4  px     Ryd( 3p)     0.00049       0.29976
    75    C    4  px     Ryd( 5p)     0.00008       3.06980
    76    C    4  py     Val( 2p)     1.09133      -0.09017
    77    C    4  py     Ryd( 4p)     0.00482       0.84956
    78    C    4  py     Ryd( 3p)     0.00042       0.36542
    79    C    4  py     Ryd( 5p)     0.00012       2.99488
    80    C    4  pz     Val( 2p)     1.00861      -0.14598
    81    C    4  pz     Ryd( 4p)     0.00095       0.51027
    82    C    4  pz     Ryd( 3p)     0.00015       0.32140
    83    C    4  pz     Ryd( 5p)     0.00002       2.59138
    84    C    4  dxy    Ryd( 3d)     0.00065       2.49211
    85    C    4  dxz    Ryd( 3d)     0.00049       1.59120
    86    C    4  dyz    Ryd( 3d)     0.00038       1.62630
    87    C    4  dx2y2  Ryd( 3d)     0.00074       2.53818
    88    C    4  dz2    Ryd( 3d)     0.00042       2.01232

    89    H    5  S      Val( 1S)     0.80016       0.01355
    90    H    5  S      Ryd( 2S)     0.00050       0.58479
    91    H    5  S      Ryd( 3S)     0.00015       2.13328
    92    H    5  px     Ryd( 2p)     0.00041       2.42383
    93    H    5  py     Ryd( 2p)     0.00022       2.18802
    94    H    5  pz     Ryd( 2p)     0.00015       1.57034

    95    H    6  S      Val( 1S)     0.76816       0.01706
    96    H    6  S      Ryd( 2S)     0.00082       0.80774
    97    H    6  S      Ryd( 3S)     0.00020       1.87075
    98    H    6  px     Ryd( 2p)     0.00014       1.92630
    99    H    6  py     Ryd( 2p)     0.00044       2.67073
   100    H    6  pz     Ryd( 2p)     0.00015       1.56448

   101    H    7  S      Val( 1S)     0.77671       0.01927
   102    H    7  S      Ryd( 2S)     0.00070       0.56875
   103    H    7  S      Ryd( 3S)     0.00019       2.07365
   104    H    7  px     Ryd( 2p)     0.00037       2.52988
   105    H    7  py     Ryd( 2p)     0.00017       2.09932
   106    H    7  pz     Ryd( 2p)     0.00017       1.56711

   107    N    8  S      Cor( 1S)     1.99926     -14.14916
   108    N    8  S      Val( 2S)     1.35560      -0.53534
   109    N    8  S      Ryd( 4S)     0.00343       1.13261
   110    N    8  S      Ryd( 3S)     0.00018       1.13022
   111    N    8  S      Ryd( 5S)     0.00000      35.35536
   112    N    8  px     Val( 2p)     1.22207      -0.20520
   113    N    8  px     Ryd( 4p)     0.00425       0.99987
   114    N    8  px     Ryd( 3p)     0.00044       0.83676
   115    N    8  px     Ryd( 5p)     0.00009       4.46489
   116    N    8  py     Val( 2p)     1.67162      -0.25193
   117    N    8  py     Ryd( 3p)     0.00824       0.62681
   118    N    8  py     Ryd( 4p)     0.00022       0.82254
   119    N    8  py     Ryd( 5p)     0.00006       3.91842
   120    N    8  pz     Val( 2p)     1.17346      -0.20959
   121    N    8  pz     Ryd( 3p)     0.00094       0.58125
   122    N    8  pz     Ryd( 4p)     0.00011       0.72965
   123    N    8  pz     Ryd( 5p)     0.00003       3.66843
   124    N    8  dxy    Ryd( 3d)     0.00168       3.04005
   125    N    8  dxz    Ryd( 3d)     0.00038       2.26645
   126    N    8  dyz    Ryd( 3d)     0.00166       2.12564
   127    N    8  dx2y2  Ryd( 3d)     0.00144       2.62163
   128    N    8  dz2    Ryd( 3d)     0.00099       2.57318

   129   Cl    9  S      Cor( 1S)     2.00000    -100.25077
   130   Cl    9  S      Cor( 2S)     1.99971     -10.47940
   131   Cl    9  S      Val( 3S)     1.84559      -1.00564
   132   Cl    9  S      Ryd( 4S)     0.00294       0.57750
   133   Cl    9  S      Ryd( 5S)     0.00027       1.30050
   134   Cl    9  S      Ryd( 6S)     0.00000      16.91886
   135   Cl    9  S      Ryd( 7S)     0.00000     208.03864
   136   Cl    9  px     Cor( 2p)     1.99993      -7.23365
   137   Cl    9  px     Val( 3p)     1.42778      -0.29085
   138   Cl    9  px     Ryd( 4p)     0.00286       0.36774
   139   Cl    9  px     Ryd( 5p)     0.00040       0.37340
   140   Cl    9  px     Ryd( 6p)     0.00002       3.36206
   141   Cl    9  px     Ryd( 7p)     0.00000      25.14216
   142   Cl    9  py     Cor( 2p)     1.99998      -7.23011
   143   Cl    9  py     Val( 3p)     1.76491      -0.31494
   144   Cl    9  py     Ryd( 4p)     0.00199       0.39761
   145   Cl    9  py     Ryd( 5p)     0.00014       0.42272
   146   Cl    9  py     Ryd( 6p)     0.00002       3.11436
   147   Cl    9  py     Ryd( 7p)     0.00000      25.08222
   148   Cl    9  pz     Cor( 2p)     1.99999      -7.22851
   149   Cl    9  pz     Val( 3p)     1.90790      -0.32776
   150   Cl    9  pz     Ryd( 4p)     0.00194       0.38415
   151   Cl    9  pz     Ryd( 5p)     0.00014       0.42347
   152   Cl    9  pz     Ryd( 6p)     0.00001       2.83166
   153   Cl    9  pz     Ryd( 7p)     0.00000      24.99301
   154   Cl    9  dxy    Ryd( 3d)     0.00375       1.20872
   155   Cl    9  dxz    Ryd( 3d)     0.00162       0.91301
   156   Cl    9  dyz    Ryd( 3d)     0.00065       0.87854
   157   Cl    9  dx2y2  Ryd( 3d)     0.00180       1.13459
   158   Cl    9  dz2    Ryd( 3d)     0.00136       0.98079

   159   Cl   10  S      Cor( 1S)     2.00000    -100.24882
   160   Cl   10  S      Cor( 2S)     1.99971     -10.49338
   161   Cl   10  S      Val( 3S)     1.83516      -1.01923
   162   Cl   10  S      Ryd( 4S)     0.00284       0.60431
   163   Cl   10  S      Ryd( 5S)     0.00017       1.32817
   164   Cl   10  S      Ryd( 6S)     0.00000      16.93844
   165   Cl   10  S      Ryd( 7S)     0.00000     207.96402
   166   Cl   10  px     Cor( 2p)     1.99994      -7.24516
   167   Cl   10  px     Val( 3p)     1.43567      -0.30209
   168   Cl   10  px     Ryd( 5p)     0.00321       0.36956
   169   Cl   10  px     Ryd( 4p)     0.00026       0.35436
   170   Cl   10  px     Ryd( 6p)     0.00002       3.79185
   171   Cl   10  px     Ryd( 7p)     0.00000      24.78659
   172   Cl   10  py     Cor( 2p)     1.99997      -7.24179
   173   Cl   10  py     Val( 3p)     1.74581      -0.32491
   174   Cl   10  py     Ryd( 5p)     0.00221       0.38256
   175   Cl   10  py     Ryd( 4p)     0.00015       0.36109
   176   Cl   10  py     Ryd( 6p)     0.00002       3.49701
   177   Cl   10  py     Ryd( 7p)     0.00000      24.78244
   178   Cl   10  pz     Cor( 2p)     1.99999      -7.23975
   179   Cl   10  pz     Val( 3p)     1.91767      -0.33803
   180   Cl   10  pz     Ryd( 5p)     0.00220       0.37804
   181   Cl   10  pz     Ryd( 4p)     0.00016       0.33811
   182   Cl   10  pz     Ryd( 6p)     0.00001       3.14201
   183   Cl   10  pz     Ryd( 7p)     0.00000      24.74321
   184   Cl   10  dxy    Ryd( 3d)     0.00392       1.20273
   185   Cl   10  dxz    Ryd( 3d)     0.00187       0.90256
   186   Cl   10  dyz    Ryd( 3d)     0.00066       0.87028
   187   Cl   10  dx2y2  Ryd( 3d)     0.00174       1.12740
   188   Cl   10  dz2    Ryd( 3d)     0.00144       0.96915

   189    C   11  S      Cor( 1S)     1.99920     -10.10093
   190    C   11  S      Val( 2S)     0.92185      -0.19112
   191    C   11  S      Ryd( 3S)     0.00222       0.71187
   192    C   11  S      Ryd( 4S)     0.00023       0.82649
   193    C   11  S      Ryd( 5S)     0.00001      22.74978
   194    C   11  px     Val( 2p)     1.00879      -0.06622
   195    C   11  px     Ryd( 4p)     0.00789       0.93286
   196    C   11  px     Ryd( 3p)     0.00052       0.27055
   197    C   11  px     Ryd( 5p)     0.00009       2.97241
   198    C   11  py     Val( 2p)     1.05505      -0.07192
   199    C   11  py     Ryd( 4p)     0.00942       0.83885
   200    C   11  py     Ryd( 3p)     0.00082       0.30554
   201    C   11  py     Ryd( 5p)     0.00016       2.94296
   202    C   11  pz     Val( 2p)     0.92802      -0.14320
   203    C   11  pz     Ryd( 4p)     0.00119       0.52080
   204    C   11  pz     Ryd( 3p)     0.00026       0.26924
   205    C   11  pz     Ryd( 5p)     0.00003       2.60506
   206    C   11  dxy    Ryd( 3d)     0.00158       2.47285
   207    C   11  dxz    Ryd( 3d)     0.00112       1.56086
   208    C   11  dyz    Ryd( 3d)     0.00060       1.61948
   209    C   11  dx2y2  Ryd( 3d)     0.00131       2.50878
   210    C   11  dz2    Ryd( 3d)     0.00045       1.97736

 WARNING:  1 low occupancy (<1.9990e) core orbital  found on  C    1
           1 low occupancy (<1.9990e) core orbital  found on  C    2
           1 low occupancy (<1.9990e) core orbital  found on  C    3

 WARNING:  Population inversion found on atom  C    1
           Population inversion found on atom  C    2
           Population inversion found on atom  C    3
           Population inversion found on atom  C    4
           Population inversion found on atom  N    8
           Population inversion found on atom Cl   10
           Population inversion found on atom  C   11


 Summary of Natural Population Analysis:                  
                                                          
                                       Natural Population 
                Natural  -----------------------------------------------
    Atom  No    Charge         Core      Valence    Rydberg      Total
 -----------------------------------------------------------------------
      C    1    0.17159      1.99852     3.79395    0.03595     5.82841
      C    2   -0.10447      1.99838     4.08129    0.02480     6.10447
      C    3   -0.17532      1.99899     4.15659    0.01974     6.17532
      C    4   -0.23455      1.99915     4.21892    0.01649     6.23455
      H    5    0.19840      0.00000     0.80016    0.00144     0.80160
      H    6    0.23009      0.00000     0.76816    0.00175     0.76991
      H    7    0.22169      0.00000     0.77671    0.00160     0.77831
      N    8   -0.44614      1.99926     5.42275    0.02413     7.44614
     Cl    9    0.03431      9.99962     6.94617    0.01990    16.96569
     Cl   10    0.04521      9.99961     6.93430    0.02087    16.95479
      C   11    0.05918      1.99920     3.91371    0.02791     5.94082
 =======================================================================
   * Total *    0.00000     31.99271    41.81271    0.19457    74.00000

                                 Natural Population      
 --------------------------------------------------------
   Core                      31.99271 ( 99.9772% of  32)
   Valence                   41.81271 ( 99.5541% of  42)
   Natural Minimal Basis     73.80543 ( 99.7371% of  74)
   Natural Rydberg Basis      0.19457 (  0.2629% of  74)
 --------------------------------------------------------

    Atom  No          Natural Electron Configuration
 ----------------------------------------------------------------------------
      C    1      [core]2S( 0.88)2p( 2.91)3d( 0.01)4p( 0.02)
      C    2      [core]2S( 0.94)2p( 3.14)3d( 0.01)4p( 0.02)
      C    3      [core]2S( 0.95)2p( 3.20)4p( 0.01)
      C    4      [core]2S( 0.97)2p( 3.25)4p( 0.01)
      H    5            1S( 0.80)
      H    6            1S( 0.77)
      H    7            1S( 0.78)
      N    8      [core]2S( 1.36)2p( 4.07)3p( 0.01)3d( 0.01)
     Cl    9      [core]3S( 1.85)3p( 5.10)3d( 0.01)4p( 0.01)
     Cl   10      [core]3S( 1.84)3p( 5.10)3d( 0.01)5p( 0.01)
      C   11      [core]2S( 0.92)2p( 2.99)3d( 0.01)4p( 0.02)


 NBO analysis skipped by request.
 Calling FoFJK, ICntrl=      2127 FMM=F ISym2X=1 I1Cent= 0 IOpClX= 0 NMat=1 NMatS=1 NMatT=0.
 ***** Axes restored to original set *****
 -------------------------------------------------------------------
 Center     Atomic                   Forces (Hartrees/Bohr)
 Number     Number              X              Y              Z
 -------------------------------------------------------------------
      1        6          -0.000025954   -0.000003649    0.000000000
      2        6           0.000032708    0.000000398    0.000000000
      3        6          -0.000006302   -0.000001391    0.000000000
      4        6           0.000001857   -0.000000125    0.000000000
      5        1          -0.000000466   -0.000000179    0.000000000
      6        1           0.000002299    0.000012131    0.000000000
      7        1           0.000000697   -0.000000273    0.000000000
      8        7          -0.000008309   -0.000003852    0.000000000
      9       17           0.000021110    0.000000114    0.000000000
     10       17          -0.000015840   -0.000011221    0.000000000
     11        6          -0.000001801    0.000008046    0.000000000
 -------------------------------------------------------------------
 Cartesian Forces:  Max     0.000032708 RMS     0.000009422

 GradGradGradGradGradGradGradGradGradGradGradGradGradGradGradGradGradGrad
 Berny optimization.
 FormGI is forming the generalized inverse of G from B-inverse, IUseBI=4.
 Internal  Forces:  Max     0.000023893 RMS     0.000006645
 Search for a local minimum.
 Step number   1 out of a maximum of   57
 All quantities printed in internal units (Hartrees-Bohrs-Radians)
 Mixed Optimization -- En-DIIS/RFO-DIIS
 Second derivative matrix not updated -- first step.
 ITU=  0
     Eigenvalues ---    0.02114   0.02164   0.02209   0.02215   0.02236
     Eigenvalues ---    0.02277   0.02330   0.02564   0.16000   0.16000
     Eigenvalues ---    0.16000   0.22083   0.23333   0.24914   0.25000
     Eigenvalues ---    0.25000   0.30423   0.31165   0.35409   0.35654
     Eigenvalues ---    0.35662   0.42272   0.44880   0.46180   0.47240
     Eigenvalues ---    0.56426   0.61012
 RFO step:  Lambda= 0.00000000D+00 EMin= 2.11358260D-02
 Linear search not attempted -- first point.
 Iteration  1 RMS(Cart)=  0.00004062 RMS(Int)=  0.00000000
 Iteration  2 RMS(Cart)=  0.00000000 RMS(Int)=  0.00000000
 ClnCor:  largest displacement from symmetrization is 4.81D-15 for atom     7.
 Variable       Old X    -DE/DX   Delta X   Delta X   Delta X     New X
                                 (Linear)    (Quad)   (Total)
    R1        2.65281   0.00000   0.00000   0.00000   0.00000   2.65281
    R2        2.48837   0.00001   0.00000   0.00001   0.00001   2.48838
    R3        3.30827   0.00002   0.00000   0.00006   0.00006   3.30833
    R4        2.62721   0.00001   0.00000   0.00002   0.00002   2.62723
    R5        3.29398  -0.00002   0.00000  -0.00006  -0.00006   3.29392
    R6        2.62927   0.00000   0.00000   0.00000   0.00000   2.62928
    R7        2.04613   0.00001   0.00000   0.00003   0.00003   2.04616
    R8        2.04626   0.00000   0.00000   0.00000   0.00000   2.04626
    R9        2.62655   0.00000   0.00000   0.00000   0.00000   2.62655
   R10        2.05017   0.00000   0.00000   0.00000   0.00000   2.05017
   R11        2.52486   0.00000   0.00000   0.00000   0.00000   2.52486
    A1        2.14549   0.00000   0.00000   0.00001   0.00001   2.14550
    A2        2.10416  -0.00002   0.00000  -0.00010  -0.00010   2.10406
    A3        2.03354   0.00002   0.00000   0.00008   0.00008   2.03362
    A4        2.05851   0.00000   0.00000   0.00001   0.00001   2.05852
    A5        2.13788   0.00000   0.00000   0.00000   0.00000   2.13789
    A6        2.08679   0.00000   0.00000  -0.00001  -0.00001   2.08678
    A7        2.07935   0.00000   0.00000  -0.00002  -0.00002   2.07933
    A8        2.08608   0.00000   0.00000   0.00001   0.00001   2.08609
    A9        2.11775   0.00000   0.00000   0.00001   0.00001   2.11777
   A10        2.10983   0.00000   0.00000   0.00001   0.00001   2.10984
   A11        2.06435   0.00000   0.00000   0.00001   0.00001   2.06436
   A12        2.10900   0.00000   0.00000  -0.00002  -0.00002   2.10898
   A13        2.07622  -0.00001   0.00000  -0.00002  -0.00002   2.07620
   A14        2.11625   0.00000   0.00000   0.00000   0.00000   2.11625
   A15        2.14245   0.00000   0.00000   0.00001   0.00001   2.14246
   A16        2.02449   0.00000   0.00000  -0.00002  -0.00002   2.02447
    D1        0.00000   0.00000   0.00000   0.00000   0.00000   0.00000
    D2        3.14159   0.00000   0.00000   0.00000   0.00000   3.14159
    D3        3.14159   0.00000   0.00000   0.00000   0.00000   3.14159
    D4        0.00000   0.00000   0.00000   0.00000   0.00000   0.00000
    D5        0.00000   0.00000   0.00000   0.00000   0.00000   0.00000
    D6        3.14159   0.00000   0.00000   0.00000   0.00000   3.14159
    D7        0.00000   0.00000   0.00000   0.00000   0.00000   0.00000
    D8        3.14159   0.00000   0.00000   0.00000   0.00000   3.14159
    D9        3.14159   0.00000   0.00000   0.00000   0.00000   3.14159
   D10        0.00000   0.00000   0.00000   0.00000   0.00000   0.00000
   D11        3.14159   0.00000   0.00000   0.00000   0.00000   3.14159
   D12        0.00000   0.00000   0.00000   0.00000   0.00000   0.00000
   D13        0.00000   0.00000   0.00000   0.00000   0.00000   0.00000
   D14        3.14159   0.00000   0.00000   0.00000   0.00000   3.14159
   D15        3.14159   0.00000   0.00000   0.00000   0.00000   3.14159
   D16        0.00000   0.00000   0.00000   0.00000   0.00000   0.00000
   D17        0.00000   0.00000   0.00000   0.00000   0.00000   0.00000
   D18        3.14159   0.00000   0.00000   0.00000   0.00000   3.14159
   D19        0.00000   0.00000   0.00000   0.00000   0.00000   0.00000
   D20        3.14159   0.00000   0.00000   0.00000   0.00000   3.14159
         Item               Value     Threshold  Converged?
 Maximum Force            0.000024     0.000450     YES
 RMS     Force            0.000007     0.000300     YES
 Maximum Displacement     0.000156     0.001800     YES
 RMS     Displacement     0.000041     0.001200     YES
 Predicted change in Energy=-3.723034D-09
 Optimization completed.
    -- Stationary point found.
                           ----------------------------
                           !   Optimized Parameters   !
                           ! (Angstroms and Degrees)  !
 --------------------------                            --------------------------
 ! Name  Definition              Value          Derivative Info.                !
 --------------------------------------------------------------------------------
 ! R1    R(1,2)                  1.4038         -DE/DX =    0.0                 !
 ! R2    R(1,8)                  1.3168         -DE/DX =    0.0                 !
 ! R3    R(1,9)                  1.7507         -DE/DX =    0.0                 !
 ! R4    R(2,3)                  1.3903         -DE/DX =    0.0                 !
 ! R5    R(2,10)                 1.7431         -DE/DX =    0.0                 !
 ! R6    R(3,4)                  1.3914         -DE/DX =    0.0                 !
 ! R7    R(3,6)                  1.0828         -DE/DX =    0.0                 !
 ! R8    R(4,7)                  1.0828         -DE/DX =    0.0                 !
 ! R9    R(4,11)                 1.3899         -DE/DX =    0.0                 !
 ! R10   R(5,11)                 1.0849         -DE/DX =    0.0                 !
 ! R11   R(8,11)                 1.3361         -DE/DX =    0.0                 !
 ! A1    A(2,1,8)              122.9275         -DE/DX =    0.0                 !
 ! A2    A(2,1,9)              120.5593         -DE/DX =    0.0                 !
 ! A3    A(8,1,9)              116.5132         -DE/DX =    0.0                 !
 ! A4    A(1,2,3)              117.9441         -DE/DX =    0.0                 !
 ! A5    A(1,2,10)             122.4917         -DE/DX =    0.0                 !
 ! A6    A(3,2,10)             119.5641         -DE/DX =    0.0                 !
 ! A7    A(2,3,4)              119.1379         -DE/DX =    0.0                 !
 ! A8    A(2,3,6)              119.5239         -DE/DX =    0.0                 !
 ! A9    A(4,3,6)              121.3383         -DE/DX =    0.0                 !
 ! A10   A(3,4,7)              120.8844         -DE/DX =    0.0                 !
 ! A11   A(3,4,11)             118.2788         -DE/DX =    0.0                 !
 ! A12   A(7,4,11)             120.8368         -DE/DX =    0.0                 !
 ! A13   A(1,8,11)             118.9586         -DE/DX =    0.0                 !
 ! A14   A(4,11,5)             121.2522         -DE/DX =    0.0                 !
 ! A15   A(4,11,8)             122.7531         -DE/DX =    0.0                 !
 ! A16   A(5,11,8)             115.9947         -DE/DX =    0.0                 !
 ! D1    D(8,1,2,3)              0.0            -DE/DX =    0.0                 !
 ! D2    D(8,1,2,10)           180.0            -DE/DX =    0.0                 !
 ! D3    D(9,1,2,3)            180.0            -DE/DX =    0.0                 !
 ! D4    D(9,1,2,10)             0.0            -DE/DX =    0.0                 !
 ! D5    D(2,1,8,11)             0.0            -DE/DX =    0.0                 !
 ! D6    D(9,1,8,11)           180.0            -DE/DX =    0.0                 !
 ! D7    D(1,2,3,4)              0.0            -DE/DX =    0.0                 !
 ! D8    D(1,2,3,6)            180.0            -DE/DX =    0.0                 !
 ! D9    D(10,2,3,4)           180.0            -DE/DX =    0.0                 !
 ! D10   D(10,2,3,6)             0.0            -DE/DX =    0.0                 !
 ! D11   D(2,3,4,7)            180.0            -DE/DX =    0.0                 !
 ! D12   D(2,3,4,11)             0.0            -DE/DX =    0.0                 !
 ! D13   D(6,3,4,7)              0.0            -DE/DX =    0.0                 !
 ! D14   D(6,3,4,11)           180.0            -DE/DX =    0.0                 !
 ! D15   D(3,4,11,5)           180.0            -DE/DX =    0.0                 !
 ! D16   D(3,4,11,8)             0.0            -DE/DX =    0.0                 !
 ! D17   D(7,4,11,5)             0.0            -DE/DX =    0.0                 !
 ! D18   D(7,4,11,8)           180.0            -DE/DX =    0.0                 !
 ! D19   D(1,8,11,4)             0.0            -DE/DX =    0.0                 !
 ! D20   D(1,8,11,5)           180.0            -DE/DX =    0.0                 !
 --------------------------------------------------------------------------------
 GradGradGradGradGradGradGradGradGradGradGradGradGradGradGradGradGradGrad

                          Input orientation:                          
 ---------------------------------------------------------------------
 Center     Atomic      Atomic             Coordinates (Angstroms)
 Number     Number       Type             X           Y           Z
 ---------------------------------------------------------------------
      1          6           0       -0.012733   -0.700793    0.000000
      2          6           0        0.022279    0.702575    0.000000
      3          6           0       -1.189254    1.384494    0.000000
      4          6           0       -2.375718    0.657745    0.000000
      5          1           0       -3.192387   -1.343889    0.000000
      6          1           0       -1.192100    2.467254    0.000000
      7          1           0       -3.335097    1.159866    0.000000
      8          7           0       -1.135501   -1.388782    0.000000
      9         17           0        1.472101   -1.628204    0.000000
     10         17           0        1.515426    1.601970    0.000000
     11          6           0       -2.297887   -0.729983    0.000000
 ---------------------------------------------------------------------
                    Distance matrix (angstroms):
                    1          2          3          4          5
     1  C    0.000000
     2  C    1.403805   0.000000
     3  C    2.394290   1.390261   0.000000
     4  C    2.725679   2.398416   1.391352   0.000000
     5  H    3.244036   3.810786   3.384762   2.161825   0.000000
     6  H    3.380448   2.142150   1.082764   2.162238   4.304179
     7  H    3.807907   3.388376   2.157568   1.082836   2.507819
     8  N    1.316790   2.390445   2.773797   2.392992   2.057376
     9  Cl   1.750664   2.744907   4.019846   4.475631   4.673145
    10  Cl   2.763691   1.743100   2.713409   4.004068   5.553520
    11  C    2.285340   2.726792   2.387484   1.389909   1.084901
                    6          7          8          9         10
     6  H    0.000000
     7  H    2.510319   0.000000
     8  N    3.856451   3.366575   0.000000
     9  Cl   4.885769   5.557201   2.618570   0.000000
    10  Cl   2.842431   4.870629   3.996500   3.230465   0.000000
    11  C    3.383059   2.155768   1.336098   3.875514   4.469828
                   11
    11  C    0.000000
 Stoichiometry    C5H3Cl2N
 Framework group  CS[SG(C5H3Cl2N)]
 Deg. of freedom    19
 Full point group                 CS      NOp   2
 Largest Abelian subgroup         CS      NOp   2
 Largest concise Abelian subgroup C1      NOp   1
                         Standard orientation:                         
 ---------------------------------------------------------------------
 Center     Atomic      Atomic             Coordinates (Angstroms)
 Number     Number       Type             X           Y           Z
 ---------------------------------------------------------------------
      1          6           0        0.000000    0.700909    0.000000
      2          6           0       -0.009512   -0.702864    0.000000
      3          6           0        1.214209   -1.362661    0.000000
      4          6           0        2.387275   -0.614479    0.000000
      5          1           0        3.167447    1.401661    0.000000
      6          1           0        1.236724   -2.445191    0.000000
      7          1           0        3.355617   -1.099088    0.000000
      8          7           0        1.110085    1.409181    0.000000
      9         17           0       -1.501437    1.601193    0.000000
     10         17           0       -1.486074   -1.629235    0.000000
     11          6           0        2.284247    0.771607    0.000000
 ---------------------------------------------------------------------
 Rotational constants (GHZ):      1.9067971      1.4671578      0.8291670
 1\1\GINC-COREV4-21-006\FOpt\RB3LYP\6-311+G(d,p)\C5H3Cl2N1\SWEAV003\26-
 Apr-2024\0\\# opt freq=noraman b3lyp/6-311+g(d,p) pop=(npa,hirshfeld,c
 helpg,mbs) geom=connectivity\\Title Card Required\\0,1\C,-0.012733,-0.
 700793,0.\C,0.022279,0.702575,0.\C,-1.189254,1.384494,0.\C,-2.375718,0
 .657745,0.\H,-3.192387,-1.343889,0.\H,-1.1921,2.467254,0.\H,-3.335097,
 1.159866,0.\N,-1.135501,-1.388782,0.\Cl,1.472101,-1.628204,0.\Cl,1.515
 426,1.60197,0.\C,-2.297887,-0.729983,0.\\Version=ES64L-G09RevD.01\Stat
 e=1-A'\HF=-1167.593203\RMSD=4.580e-09\RMSF=9.422e-06\Dipole=-1.0243049
 ,0.8933236,0.\Quadrupole=4.2687401,-2.0041335,-2.2646066,-1.8801033,0.
 ,0.\PG=CS [SG(C5H3Cl2N1)]\\@


 COLLEGE PROFESSOR: SOMEONE WHO TALKS IN OTHER PEOPLE'S SLEEP.
 Job cpu time:       0 days  0 hours  2 minutes 59.2 seconds.
 File lengths (MBytes):  RWF=     19 Int=      0 D2E=      0 Chk=      5 Scr=      1
 Normal termination of Gaussian 09 at Fri Apr 26 11:29:00 2024.
 Link1:  Proceeding to internal job step number  2.
 ----------------------------------------------------------------------
 #N Geom=AllCheck Guess=TCheck SCRF=Check GenChk RB3LYP/6-311+G(d,p) Fr
 eq
 ----------------------------------------------------------------------
 1/10=4,29=7,30=1,38=1,40=1/1,3;
 2/12=2,40=1/2;
 3/5=4,6=6,7=111,11=2,14=-4,16=1,25=1,30=1,70=2,71=2,74=-5,116=1,140=1/1,2,3;
 4/5=101/1;
 5/5=2,98=1/2;
 8/6=4,10=90,11=11/1;
 11/6=1,8=1,9=11,15=111,16=1/1,2,10;
 10/6=1/2;
 6/7=2,8=2,9=2,10=2,15=8,18=1,20=3,27=100,28=1,40=-1,79=1/1,2,7;
 7/8=1,10=1,25=1/1,2,3,16;
 1/10=4,30=1/3;
 99//99;
 Structure from the checkpoint file:  "comp94.chk"
 -------------------
 Title Card Required
 -------------------
 Charge =  0 Multiplicity = 1
 Redundant internal coordinates found in file.
 C,0,-0.012733,-0.700793,0.
 C,0,0.022279,0.702575,0.
 C,0,-1.189254,1.384494,0.
 C,0,-2.375718,0.657745,0.
 H,0,-3.192387,-1.343889,0.
 H,0,-1.1921,2.467254,0.
 H,0,-3.335097,1.159866,0.
 N,0,-1.135501,-1.388782,0.
 Cl,0,1.472101,-1.628204,0.
 Cl,0,1.515426,1.60197,0.
 C,0,-2.297887,-0.729983,0.
 Recover connectivity data from disk.

 GradGradGradGradGradGradGradGradGradGradGradGradGradGradGradGradGradGrad
 Berny optimization.
 Initialization pass.
                           ----------------------------
                           !    Initial Parameters    !
                           ! (Angstroms and Degrees)  !
 --------------------------                            --------------------------
 ! Name  Definition              Value          Derivative Info.                !
 --------------------------------------------------------------------------------
 ! R1    R(1,2)                  1.4038         calculate D2E/DX2 analytically  !
 ! R2    R(1,8)                  1.3168         calculate D2E/DX2 analytically  !
 ! R3    R(1,9)                  1.7507         calculate D2E/DX2 analytically  !
 ! R4    R(2,3)                  1.3903         calculate D2E/DX2 analytically  !
 ! R5    R(2,10)                 1.7431         calculate D2E/DX2 analytically  !
 ! R6    R(3,4)                  1.3914         calculate D2E/DX2 analytically  !
 ! R7    R(3,6)                  1.0828         calculate D2E/DX2 analytically  !
 ! R8    R(4,7)                  1.0828         calculate D2E/DX2 analytically  !
 ! R9    R(4,11)                 1.3899         calculate D2E/DX2 analytically  !
 ! R10   R(5,11)                 1.0849         calculate D2E/DX2 analytically  !
 ! R11   R(8,11)                 1.3361         calculate D2E/DX2 analytically  !
 ! A1    A(2,1,8)              122.9275         calculate D2E/DX2 analytically  !
 ! A2    A(2,1,9)              120.5593         calculate D2E/DX2 analytically  !
 ! A3    A(8,1,9)              116.5132         calculate D2E/DX2 analytically  !
 ! A4    A(1,2,3)              117.9441         calculate D2E/DX2 analytically  !
 ! A5    A(1,2,10)             122.4917         calculate D2E/DX2 analytically  !
 ! A6    A(3,2,10)             119.5641         calculate D2E/DX2 analytically  !
 ! A7    A(2,3,4)              119.1379         calculate D2E/DX2 analytically  !
 ! A8    A(2,3,6)              119.5239         calculate D2E/DX2 analytically  !
 ! A9    A(4,3,6)              121.3383         calculate D2E/DX2 analytically  !
 ! A10   A(3,4,7)              120.8844         calculate D2E/DX2 analytically  !
 ! A11   A(3,4,11)             118.2788         calculate D2E/DX2 analytically  !
 ! A12   A(7,4,11)             120.8368         calculate D2E/DX2 analytically  !
 ! A13   A(1,8,11)             118.9586         calculate D2E/DX2 analytically  !
 ! A14   A(4,11,5)             121.2522         calculate D2E/DX2 analytically  !
 ! A15   A(4,11,8)             122.7531         calculate D2E/DX2 analytically  !
 ! A16   A(5,11,8)             115.9947         calculate D2E/DX2 analytically  !
 ! D1    D(8,1,2,3)              0.0            calculate D2E/DX2 analytically  !
 ! D2    D(8,1,2,10)           180.0            calculate D2E/DX2 analytically  !
 ! D3    D(9,1,2,3)            180.0            calculate D2E/DX2 analytically  !
 ! D4    D(9,1,2,10)             0.0            calculate D2E/DX2 analytically  !
 ! D5    D(2,1,8,11)             0.0            calculate D2E/DX2 analytically  !
 ! D6    D(9,1,8,11)           180.0            calculate D2E/DX2 analytically  !
 ! D7    D(1,2,3,4)              0.0            calculate D2E/DX2 analytically  !
 ! D8    D(1,2,3,6)            180.0            calculate D2E/DX2 analytically  !
 ! D9    D(10,2,3,4)           180.0            calculate D2E/DX2 analytically  !
 ! D10   D(10,2,3,6)             0.0            calculate D2E/DX2 analytically  !
 ! D11   D(2,3,4,7)            180.0            calculate D2E/DX2 analytically  !
 ! D12   D(2,3,4,11)             0.0            calculate D2E/DX2 analytically  !
 ! D13   D(6,3,4,7)              0.0            calculate D2E/DX2 analytically  !
 ! D14   D(6,3,4,11)           180.0            calculate D2E/DX2 analytically  !
 ! D15   D(3,4,11,5)           180.0            calculate D2E/DX2 analytically  !
 ! D16   D(3,4,11,8)             0.0            calculate D2E/DX2 analytically  !
 ! D17   D(7,4,11,5)             0.0            calculate D2E/DX2 analytically  !
 ! D18   D(7,4,11,8)           180.0            calculate D2E/DX2 analytically  !
 ! D19   D(1,8,11,4)             0.0            calculate D2E/DX2 analytically  !
 ! D20   D(1,8,11,5)           180.0            calculate D2E/DX2 analytically  !
 --------------------------------------------------------------------------------
 Trust Radius=3.00D-01 FncErr=1.00D-07 GrdErr=1.00D-07
 Number of steps in this run=      2 maximum allowed number of steps=      2.
 GradGradGradGradGradGradGradGradGradGradGradGradGradGradGradGradGradGrad

                          Input orientation:                          
 ---------------------------------------------------------------------
 Center     Atomic      Atomic             Coordinates (Angstroms)
 Number     Number       Type             X           Y           Z
 ---------------------------------------------------------------------
      1          6           0       -0.012733   -0.700793    0.000000
      2          6           0        0.022279    0.702575    0.000000
      3          6           0       -1.189254    1.384494    0.000000
      4          6           0       -2.375718    0.657745    0.000000
      5          1           0       -3.192387   -1.343889    0.000000
      6          1           0       -1.192100    2.467254    0.000000
      7          1           0       -3.335097    1.159866    0.000000
      8          7           0       -1.135501   -1.388782    0.000000
      9         17           0        1.472101   -1.628204    0.000000
     10         17           0        1.515426    1.601970    0.000000
     11          6           0       -2.297887   -0.729983    0.000000
 ---------------------------------------------------------------------
                    Distance matrix (angstroms):
                    1          2          3          4          5
     1  C    0.000000
     2  C    1.403805   0.000000
     3  C    2.394290   1.390261   0.000000
     4  C    2.725679   2.398416   1.391352   0.000000
     5  H    3.244036   3.810786   3.384762   2.161825   0.000000
     6  H    3.380448   2.142150   1.082764   2.162238   4.304179
     7  H    3.807907   3.388376   2.157568   1.082836   2.507819
     8  N    1.316790   2.390445   2.773797   2.392992   2.057376
     9  Cl   1.750664   2.744907   4.019846   4.475631   4.673145
    10  Cl   2.763691   1.743100   2.713409   4.004068   5.553520
    11  C    2.285340   2.726792   2.387484   1.389909   1.084901
                    6          7          8          9         10
     6  H    0.000000
     7  H    2.510319   0.000000
     8  N    3.856451   3.366575   0.000000
     9  Cl   4.885769   5.557201   2.618570   0.000000
    10  Cl   2.842431   4.870629   3.996500   3.230465   0.000000
    11  C    3.383059   2.155768   1.336098   3.875514   4.469828
                   11
    11  C    0.000000
 Stoichiometry    C5H3Cl2N
 Framework group  CS[SG(C5H3Cl2N)]
 Deg. of freedom    19
 Full point group                 CS      NOp   2
 Largest Abelian subgroup         CS      NOp   2
 Largest concise Abelian subgroup C1      NOp   1
                         Standard orientation:                         
 ---------------------------------------------------------------------
 Center     Atomic      Atomic             Coordinates (Angstroms)
 Number     Number       Type             X           Y           Z
 ---------------------------------------------------------------------
      1          6           0        0.000000    0.700909    0.000000
      2          6           0       -0.009512   -0.702864    0.000000
      3          6           0        1.214209   -1.362661    0.000000
      4          6           0        2.387275   -0.614479    0.000000
      5          1           0        3.167447    1.401661    0.000000
      6          1           0        1.236724   -2.445191    0.000000
      7          1           0        3.355617   -1.099088    0.000000
      8          7           0        1.110085    1.409181    0.000000
      9         17           0       -1.501437    1.601193    0.000000
     10         17           0       -1.486074   -1.629235    0.000000
     11          6           0        2.284247    0.771607    0.000000
 ---------------------------------------------------------------------
 Rotational constants (GHZ):      1.9067971      1.4671578      0.8291670
 Standard basis: 6-311+G(d,p) (5D, 7F)
 There are   163 symmetry adapted cartesian basis functions of A'  symmetry.
 There are    55 symmetry adapted cartesian basis functions of A"  symmetry.
 There are   155 symmetry adapted basis functions of A'  symmetry.
 There are    55 symmetry adapted basis functions of A"  symmetry.
   210 basis functions,   346 primitive gaussians,   218 cartesian basis functions
    37 alpha electrons       37 beta electrons
       nuclear repulsion energy       472.9498723899 Hartrees.
 NAtoms=   11 NActive=   11 NUniq=   11 SFac= 1.00D+00 NAtFMM=   60 NAOKFM=F Big=F
 Integral buffers will be    131072 words long.
 Raffenetti 2 integral format.
 Two-electron integral symmetry is turned on.
 One-electron integrals computed using PRISM.
 NBasis=   210 RedAO= T EigKep=  1.06D-05  NBF=   155    55
 NBsUse=   210 1.00D-06 EigRej= -1.00D+00 NBFU=   155    55
 Initial guess from the checkpoint file:  "comp94.chk"
 B after Tr=     0.000000    0.000000    0.000000
         Rot=    1.000000    0.000000    0.000000    0.000000 Ang=   0.00 deg.
 Initial guess orbital symmetries:
       Occupied  (A') (A') (A') (A') (A') (A') (A') (A') (A') (A')
                 (A') (A") (A') (A') (A") (A') (A') (A') (A') (A')
                 (A') (A') (A') (A') (A') (A') (A') (A") (A') (A')
                 (A") (A") (A') (A') (A") (A') (A")
       Virtual   (A") (A") (A') (A') (A') (A') (A') (A") (A') (A')
                 (A') (A") (A") (A') (A") (A') (A') (A') (A") (A")
                 (A') (A') (A") (A') (A') (A') (A") (A') (A') (A')
                 (A') (A') (A') (A') (A') (A") (A') (A') (A') (A')
                 (A') (A') (A') (A') (A') (A') (A") (A') (A') (A")
                 (A') (A') (A') (A") (A') (A") (A") (A') (A") (A')
                 (A") (A') (A') (A') (A') (A') (A") (A') (A') (A')
                 (A') (A') (A') (A") (A') (A") (A") (A') (A') (A')
                 (A") (A') (A') (A") (A') (A") (A') (A') (A") (A')
                 (A') (A") (A') (A') (A") (A") (A') (A') (A') (A')
                 (A") (A') (A') (A') (A") (A') (A") (A') (A') (A")
                 (A') (A') (A") (A') (A") (A') (A') (A") (A') (A")
                 (A") (A') (A') (A') (A") (A') (A') (A') (A') (A")
                 (A') (A') (A") (A') (A') (A') (A') (A") (A") (A")
                 (A') (A') (A") (A') (A') (A') (A') (A') (A') (A')
                 (A') (A") (A') (A') (A') (A') (A') (A') (A') (A')
                 (A') (A') (A') (A') (A") (A") (A') (A') (A') (A')
                 (A') (A') (A')
 Keep R1 ints in memory in symmetry-blocked form, NReq=374884854.
 Requested convergence on RMS density matrix=1.00D-08 within 128 cycles.
 Requested convergence on MAX density matrix=1.00D-06.
 Requested convergence on             energy=1.00D-06.
 No special actions if energy rises.
 SCF Done:  E(RB3LYP) =  -1167.59320301     A.U. after    1 cycles
            NFock=  1  Conv=0.11D-08     -V/T= 2.0027
 DoSCS=F DFT=T ScalE2(SS,OS)=  1.000000  1.000000
 Range of M.O.s used for correlation:     1   210
 NBasis=   210 NAE=    37 NBE=    37 NFC=     0 NFV=     0
 NROrb=    210 NOA=    37 NOB=    37 NVA=   173 NVB=   173

 **** Warning!!: The largest alpha MO coefficient is  0.12276059D+03

 Symmetrizing basis deriv contribution to polar:
 IMax=3 JMax=2 DiffMx= 0.00D+00
 G2DrvN: will do    12 centers at a time, making    1 passes.
 Calling FoFCou, ICntrl=  3107 FMM=F I1Cent=   0 AccDes= 0.00D+00.
 End of G2Drv F.D. properties file   721 does not exist.
 End of G2Drv F.D. properties file   722 does not exist.
 End of G2Drv F.D. properties file   788 does not exist.
          IDoAtm=11111111111
          Differentiating once with respect to electric field.
                with respect to dipole field.
          Differentiating once with respect to nuclear coordinates.
 Keep R1 ints in memory in symmetry-blocked form, NReq=374722158.
          There are    36 degrees of freedom in the 1st order CPHF.  IDoFFX=6 NUNeed=     3.
     33 vectors produced by pass  0 Test12= 1.78D-14 2.78D-09 XBig12= 1.43D+02 7.24D+00.
[...]
 Sum of electronic and thermal Enthalpies=           -1167.516501
 Sum of electronic and thermal Free Energies=        -1167.555856
 
                     E (Thermal)             CV                S
                      KCal/Mol        Cal/Mol-Kelvin    Cal/Mol-Kelvin
 Total                   47.539             23.808             82.828
 Electronic               0.000              0.000              0.000
 Translational            0.889              2.981             40.866
 Rotational               0.889              2.981             29.317
 Vibrational             45.761             17.846             12.645
 Vibration     1          0.609              1.932              3.092
 Vibration     2          0.639              1.837              2.112
 Vibration     3          0.660              1.770              1.760
 Vibration     4          0.732              1.561              1.136
 Vibration     5          0.787              1.416              0.876
 Vibration     6          0.818              1.339              0.767
 Vibration     7          0.835              1.298              0.715
 Vibration     8          0.887              1.179              0.582
                       Q            Log10(Q)             Ln(Q)
 Total Bot       0.662884D-17        -17.178562        -39.555102
 Total V=0       0.462434D+15         14.665049         33.767524
 Vib (Bot)       0.166115D-30        -30.779592        -70.872631
 Vib (Bot)    1  0.169576D+01          0.229363          0.528128
 Vib (Bot)    2  0.984663D+00         -0.006712         -0.015456
 Vib (Bot)    3  0.795387D+00         -0.099422         -0.228927
 Vib (Bot)    4  0.514711D+00         -0.288436         -0.664149
 Vib (Bot)    5  0.411703D+00         -0.385416         -0.887454
 Vib (Bot)    6  0.369953D+00         -0.431854         -0.994381
 Vib (Bot)    7  0.350296D+00         -0.455565         -1.048977
 Vib (Bot)    8  0.299808D+00         -0.523157         -1.204614
 Vib (V=0)       0.115883D+02          1.064019          2.449995
 Vib (V=0)    1  0.226793D+01          0.355630          0.818869
 Vib (V=0)    2  0.160434D+01          0.205296          0.472711
 Vib (V=0)    3  0.143949D+01          0.158208          0.364288
 Vib (V=0)    4  0.121758D+01          0.085499          0.196869
 Vib (V=0)    5  0.114769D+01          0.059824          0.137749
 Vib (V=0)    6  0.112198D+01          0.049987          0.115099
 Vib (V=0)    7  0.111050D+01          0.045518          0.104808
 Vib (V=0)    8  0.108300D+01          0.034627          0.079731
 Electronic      0.100000D+01          0.000000          0.000000
 Translational   0.700282D+08          7.845273         18.064408
 Rotational      0.569846D+06          5.755757         13.253121
 ***** Axes restored to original set *****
 -------------------------------------------------------------------
 Center     Atomic                   Forces (Hartrees/Bohr)
 Number     Number              X              Y              Z
 -------------------------------------------------------------------
      1        6          -0.000025967   -0.000003638    0.000000000
      2        6           0.000032709    0.000000397    0.000000000
      3        6          -0.000006293   -0.000001391    0.000000000
      4        6           0.000001858   -0.000000133    0.000000000
      5        1          -0.000000460   -0.000000174    0.000000000
      6        1           0.000002299    0.000012133    0.000000000
      7        1           0.000000693   -0.000000270    0.000000000
      8        7          -0.000008323   -0.000003847    0.000000000
      9       17           0.000021116    0.000000110    0.000000000
     10       17          -0.000015840   -0.000011221    0.000000000
     11        6          -0.000001792    0.000008035    0.000000000
 -------------------------------------------------------------------
 Cartesian Forces:  Max     0.000032709 RMS     0.000009423
 FormGI is forming the generalized inverse of G from B-inverse, IUseBI=4.

 GradGradGradGradGradGradGradGradGradGradGradGradGradGradGradGradGradGrad
 Berny optimization.
 Internal  Forces:  Max     0.000023896 RMS     0.000006645
 Search for a local minimum.
 Step number   1 out of a maximum of    2
 All quantities printed in internal units (Hartrees-Bohrs-Radians)
 Second derivative matrix not updated -- analytic derivatives used.
 ITU=  0
     Eigenvalues ---    0.01344   0.01761   0.02231   0.02724   0.02851
     Eigenvalues ---    0.02994   0.03594   0.04410   0.10740   0.11845
     Eigenvalues ---    0.12916   0.15264   0.18633   0.19437   0.20291
     Eigenvalues ---    0.22235   0.22594   0.27776   0.32222   0.35400
     Eigenvalues ---    0.36048   0.36204   0.43244   0.43843   0.46937
     Eigenvalues ---    0.50522   0.55919
 Angle between quadratic step and forces=  19.83 degrees.
 Linear search not attempted -- first point.
 Iteration  1 RMS(Cart)=  0.00003993 RMS(Int)=  0.00000000
 Iteration  2 RMS(Cart)=  0.00000000 RMS(Int)=  0.00000000
 ClnCor:  largest displacement from symmetrization is 4.37D-11 for atom     7.
 Variable       Old X    -DE/DX   Delta X   Delta X   Delta X     New X
                                 (Linear)    (Quad)   (Total)
    R1        2.65281   0.00000   0.00000   0.00001   0.00001   2.65282
    R2        2.48837   0.00001   0.00000  -0.00001  -0.00001   2.48836
    R3        3.30827   0.00002   0.00000   0.00010   0.00010   3.30837
    R4        2.62721   0.00001   0.00000   0.00003   0.00003   2.62724
    R5        3.29398  -0.00002   0.00000  -0.00009  -0.00009   3.29389
    R6        2.62927   0.00000   0.00000   0.00000   0.00000   2.62928
    R7        2.04613   0.00001   0.00000   0.00003   0.00003   2.04616
    R8        2.04626   0.00000   0.00000   0.00000   0.00000   2.04626
    R9        2.62655   0.00000   0.00000  -0.00001  -0.00001   2.62654
   R10        2.05017   0.00000   0.00000   0.00000   0.00000   2.05017
   R11        2.52486   0.00000   0.00000   0.00001   0.00001   2.52487
    A1        2.14549   0.00000   0.00000   0.00004   0.00004   2.14553
    A2        2.10416  -0.00002   0.00000  -0.00011  -0.00011   2.10404
    A3        2.03354   0.00002   0.00000   0.00008   0.00008   2.03362
    A4        2.05851   0.00000   0.00000  -0.00002  -0.00002   2.05849
    A5        2.13788   0.00000   0.00000   0.00003   0.00003   2.13791
    A6        2.08679   0.00000   0.00000  -0.00001  -0.00001   2.08678
    A7        2.07935   0.00000   0.00000  -0.00001  -0.00001   2.07933
    A8        2.08608   0.00000   0.00000   0.00000   0.00000   2.08609
    A9        2.11775   0.00000   0.00000   0.00001   0.00001   2.11777
   A10        2.10983   0.00000   0.00000   0.00001   0.00001   2.10984
   A11        2.06435   0.00000   0.00000   0.00001   0.00001   2.06437
   A12        2.10900   0.00000   0.00000  -0.00003  -0.00003   2.10897
   A13        2.07622  -0.00001   0.00000  -0.00003  -0.00003   2.07619
   A14        2.11625   0.00000   0.00000   0.00001   0.00001   2.11626
   A15        2.14245   0.00000   0.00000   0.00001   0.00001   2.14246
   A16        2.02449   0.00000   0.00000  -0.00002  -0.00002   2.02447
    D1        0.00000   0.00000   0.00000   0.00000   0.00000   0.00000
    D2        3.14159   0.00000   0.00000   0.00000   0.00000   3.14159
    D3        3.14159   0.00000   0.00000   0.00000   0.00000   3.14159
    D4        0.00000   0.00000   0.00000   0.00000   0.00000   0.00000
    D5        0.00000   0.00000   0.00000   0.00000   0.00000   0.00000
    D6        3.14159   0.00000   0.00000   0.00000   0.00000   3.14159
    D7        0.00000   0.00000   0.00000   0.00000   0.00000   0.00000
    D8        3.14159   0.00000   0.00000   0.00000   0.00000   3.14159
    D9        3.14159   0.00000   0.00000   0.00000   0.00000   3.14159
   D10        0.00000   0.00000   0.00000   0.00000   0.00000   0.00000
   D11        3.14159   0.00000   0.00000   0.00000   0.00000   3.14159
   D12        0.00000   0.00000   0.00000   0.00000   0.00000   0.00000
   D13        0.00000   0.00000   0.00000   0.00000   0.00000   0.00000
   D14        3.14159   0.00000   0.00000   0.00000   0.00000   3.14159
   D15        3.14159   0.00000   0.00000   0.00000   0.00000   3.14159
   D16        0.00000   0.00000   0.00000   0.00000   0.00000   0.00000
   D17        0.00000   0.00000   0.00000   0.00000   0.00000   0.00000
   D18        3.14159   0.00000   0.00000   0.00000   0.00000   3.14159
   D19        0.00000   0.00000   0.00000   0.00000   0.00000   0.00000
   D20        3.14159   0.00000   0.00000   0.00000   0.00000   3.14159
         Item               Value     Threshold  Converged?
 Maximum Force            0.000024     0.000450     YES
 RMS     Force            0.000007     0.000300     YES
 Maximum Displacement     0.000158     0.001800     YES
 RMS     Displacement     0.000040     0.001200     YES
 Predicted change in Energy=-4.559703D-09
 Optimization completed.
    -- Stationary point found.
                           ----------------------------
                           !   Optimized Parameters   !
                           ! (Angstroms and Degrees)  !
 --------------------------                            --------------------------
 ! Name  Definition              Value          Derivative Info.                !
 --------------------------------------------------------------------------------
 ! R1    R(1,2)                  1.4038         -DE/DX =    0.0                 !
 ! R2    R(1,8)                  1.3168         -DE/DX =    0.0                 !
 ! R3    R(1,9)                  1.7507         -DE/DX =    0.0                 !
 ! R4    R(2,3)                  1.3903         -DE/DX =    0.0                 !
 ! R5    R(2,10)                 1.7431         -DE/DX =    0.0                 !
 ! R6    R(3,4)                  1.3914         -DE/DX =    0.0                 !
 ! R7    R(3,6)                  1.0828         -DE/DX =    0.0                 !
 ! R8    R(4,7)                  1.0828         -DE/DX =    0.0                 !
 ! R9    R(4,11)                 1.3899         -DE/DX =    0.0                 !
 ! R10   R(5,11)                 1.0849         -DE/DX =    0.0                 !
 ! R11   R(8,11)                 1.3361         -DE/DX =    0.0                 !
 ! A1    A(2,1,8)              122.9275         -DE/DX =    0.0                 !
 ! A2    A(2,1,9)              120.5593         -DE/DX =    0.0                 !
 ! A3    A(8,1,9)              116.5132         -DE/DX =    0.0                 !
 ! A4    A(1,2,3)              117.9441         -DE/DX =    0.0                 !
 ! A5    A(1,2,10)             122.4917         -DE/DX =    0.0                 !
 ! A6    A(3,2,10)             119.5641         -DE/DX =    0.0                 !
 ! A7    A(2,3,4)              119.1379         -DE/DX =    0.0                 !
 ! A8    A(2,3,6)              119.5239         -DE/DX =    0.0                 !
 ! A9    A(4,3,6)              121.3383         -DE/DX =    0.0                 !
 ! A10   A(3,4,7)              120.8844         -DE/DX =    0.0                 !
 ! A11   A(3,4,11)             118.2788         -DE/DX =    0.0                 !
 ! A12   A(7,4,11)             120.8368         -DE/DX =    0.0                 !
 ! A13   A(1,8,11)             118.9586         -DE/DX =    0.0                 !
 ! A14   A(4,11,5)             121.2522         -DE/DX =    0.0                 !
 ! A15   A(4,11,8)             122.7531         -DE/DX =    0.0                 !
 ! A16   A(5,11,8)             115.9947         -DE/DX =    0.0                 !
 ! D1    D(8,1,2,3)              0.0            -DE/DX =    0.0                 !
 ! D2    D(8,1,2,10)           180.0            -DE/DX =    0.0                 !
 ! D3    D(9,1,2,3)            180.0            -DE/DX =    0.0                 !
 ! D4    D(9,1,2,10)             0.0            -DE/DX =    0.0                 !
 ! D5    D(2,1,8,11)             0.0            -DE/DX =    0.0                 !
 ! D6    D(9,1,8,11)           180.0            -DE/DX =    0.0                 !
 ! D7    D(1,2,3,4)              0.0            -DE/DX =    0.0                 !
 ! D8    D(1,2,3,6)            180.0            -DE/DX =    0.0                 !
 ! D9    D(10,2,3,4)           180.0            -DE/DX =    0.0                 !
 ! D10   D(10,2,3,6)             0.0            -DE/DX =    0.0                 !
 ! D11   D(2,3,4,7)            180.0            -DE/DX =    0.0                 !
 ! D12   D(2,3,4,11)             0.0            -DE/DX =    0.0                 !
 ! D13   D(6,3,4,7)              0.0            -DE/DX =    0.0                 !
 ! D14   D(6,3,4,11)           180.0            -DE/DX =    0.0                 !
 ! D15   D(3,4,11,5)           180.0            -DE/DX =    0.0                 !
 ! D16   D(3,4,11,8)             0.0            -DE/DX =    0.0                 !
 ! D17   D(7,4,11,5)             0.0            -DE/DX =    0.0                 !
 ! D18   D(7,4,11,8)           180.0            -DE/DX =    0.0                 !
 ! D19   D(1,8,11,4)             0.0            -DE/DX =    0.0                 !
 ! D20   D(1,8,11,5)           180.0            -DE/DX =    0.0                 !
 --------------------------------------------------------------------------------
 GradGradGradGradGradGradGradGradGradGradGradGradGradGradGradGradGradGrad

 1\1\GINC-COREV4-21-006\Freq\RB3LYP\6-311+G(d,p)\C5H3Cl2N1\SWEAV003\26-
 Apr-2024\0\\#N Geom=AllCheck Guess=TCheck SCRF=Check GenChk RB3LYP/6-3
 11+G(d,p) Freq\\Title Card Required\\0,1\C,-0.012733,-0.700793,0.\C,0.
 022279,0.702575,0.\C,-1.189254,1.384494,0.\C,-2.375718,0.657745,0.\H,-
 3.192387,-1.343889,0.\H,-1.1921,2.467254,0.\H,-3.335097,1.159866,0.\N,
 -1.135501,-1.388782,0.\Cl,1.472101,-1.628204,0.\Cl,1.515426,1.60197,0.
 \C,-2.297887,-0.729983,0.\\Version=ES64L-G09RevD.01\State=1-A'\HF=-116
 7.593203\RMSD=1.081e-09\RMSF=9.423e-06\ZeroPoint=0.0692302\Thermal=0.0
 757577\Dipole=-1.024305,0.8933234,0.\DipoleDeriv=1.0721221,-0.7269589,
 0.,-0.7030218,0.5635793,0.,0.,0.,0.0842038,0.5475219,0.7056333,0.,0.83
 19146,0.1180475,0.,0.,0.,0.020155,0.0698352,-0.1383818,0.,-0.0176769,0
 .0792968,0.,0.,0.,-0.0756441,-0.0879509,-0.0395185,0.,-0.2124393,-0.12
 80986,0.,0.,0.,-0.1031893,-0.0584724,-0.0400956,0.,-0.0708431,0.041741
 4,0.,0.,0.,0.1163562,0.0831121,-0.0038266,0.,-0.0015587,-0.0098885,0.,
 0.,0.,0.1336233,-0.0412294,0.0490053,0.,0.0546579,0.0505798,0.,0.,0.,0
 .1422658,-0.7059529,0.1813685,0.,-0.1622113,-0.4797412,0.,0.,0.,-0.221
 5631,-0.6285318,0.3930608,0.,0.426188,-0.2825772,0.,0.,0.,-0.0579993,-
 0.5435107,-0.3453635,0.,-0.3641024,-0.2644931,0.,0.,0.,-0.0329827,0.29
 30568,-0.034923,0.,0.2190928,0.3115539,0.,0.,0.,-0.0052256\Polar=117.4
 325032,-0.5036674,95.735655,0.,0.,48.8270474\PG=CS [SG(C5H3Cl2N1)]\NIm
 ag=0\\0.55431138,0.04789705,0.57993890,0.,0.,0.13674897,-0.09411414,-0
 .03234845,0.,0.56089731,0.03813721,-0.27711790,0.,-0.04655709,0.576683
 71,0.,0.,-0.06604541,0.,0.,0.11567608,0.03689358,0.08350998,0.,-0.2647
 9612,0.06510800,0.,0.65700391,0.02583090,-0.02248364,0.,0.13057285,-0.
 17815836,0.,0.00978059,0.75250432,0.,0.,0.00587876,0.,0.,-0.05978152,0
 .,0.,0.13425685,-0.01271584,-0.02434752,0.,-0.05838848,0.02192693,0.,-
 0.28079541,-0.12651234,0.,0.73538845,-0.04124250,-0.06245665,0.,-0.027
 46487,0.06857873,0.,-0.06100310,-0.18821308,0.,-0.03952132,0.67475552,
 0.,0.,-0.00652319,0.,0.,0.00403649,0.,0.,-0.05980811,0.,0.,0.12702804,
 -0.00190406,0.00097981,0.,-0.00002552,0.00043882,0.,0.00106001,0.00087
 505,0.,0.00569568,0.00316691,0.,0.26079009,0.00491629,0.00155214,0.,0.
 00113988,-0.00052817,0.,0.00133729,-0.00561626,0.,-0.02582140,-0.01092
 720,0.,0.13567385,0.15842846,0.,0.,0.01018853,0.,0.,0.00004751,0.,0.,0
 .00681404,0.,0.,0.00623161,0.,0.,0.02644197,-0.00369324,0.00179216,0.,
 0.00193813,0.02776717,0.,-0.05681859,0.00047060,0.,0.00565577,-0.02717
 560,0.,0.00018751,-0.00132682,0.,0.05724923,0.00221051,0.00053965,0.,-
 0.00298696,-0.01174309,0.,0.00348540,-0.34192942,0.,0.00230318,-0.0098
 9421,0.,0.00025063,-0.00052627,0.,-0.00177187,0.36068207,0.,0.,0.00706
 362,0.,0.,0.00418692,0.,0.,-0.03953292,0.,0.,0.00488253,0.,0.,-0.00036
 428,0.,0.,0.02570362,0.00028043,-0.00098681,0.,-0.00148026,-0.00308582
 ,0.,-0.01802884,0.01396667,0.,-0.27982378,0.11647929,0.,0.00028251,0.0
 0043407,0.,0.00088945,-0.00011939,0.,0.29437098,-0.00274917,-0.0016621
 9,0.,-0.00271072,-0.00080946,0.,-0.01693676,0.01161757,0.,0.11649052,-
 0.12036247,0.,-0.00054357,0.00058080,0.,0.00060266,0.00072833,0.,-0.12
 483493,0.12142797,0.,0.,0.00017394,0.,0.,0.00742026,0.,0.,0.00249646,0
 .,0.,-0.03553058,0.,0.,-0.00299783,0.,0.,-0.00395299,0.,0.,0.02516647,
 -0.26665004,-0.09611927,0.,0.02512318,-0.09958436,0.,-0.07796493,-0.00
 167368,0.,0.02028288,0.10099081,0.,-0.03379722,0.01811200,0.,-0.000955
 16,0.00014274,0.,0.00188633,0.00183843,0.,0.68070029,-0.10276009,-0.18
 032646,0.,-0.02919759,-0.02682931,0.,-0.00113976,0.00286244,0.,0.03719
 931,-0.02650978,0.,-0.00737248,0.01250263,0.,0.00008944,0.00083664,0.,
 -0.00001141,-0.00622645,0.,-0.00957061,0.37743011,0.,0.,-0.06528018,0.
 ,0.,0.01813751,0.,0.,-0.00624461,0.,0.,0.02112673,0.,0.,-0.00454669,0.
 ,0.,-0.00254109,0.,0.,0.00742920,0.,0.,0.08999828,-0.09123551,0.064806
 13,0.,-0.01904432,0.01043793,0.,0.00422731,0.00119230,0.,-0.00363849,0
 .00106338,0.,-0.00066952,0.00023631,0.,-0.00063307,0.00019696,0.,0.000
 05225,0.00058442,0.,-0.06924255,0.00109959,0.,0.17190895,0.04443806,-0
 .08107685,0.,0.03410157,-0.02033393,0.,-0.00617403,-0.00482651,0.,0.00
 202196,0.00184445,0.,-0.00002782,0.00013741,0.,0.00149132,-0.00034990,
 0.,0.00005767,0.00003955,0.,0.00289104,0.01729968,0.,-0.07833973,0.095
 77076,0.,0.,-0.02560234,0.,0.,0.00514773,0.,0.,0.00404068,0.,0.,-0.000
 41170,0.,0.,0.00023670,0.,0.,-0.00035945,0.,0.,-0.00122282,0.,0.,0.000
 09275,0.,0.,0.01134317,-0.01881577,-0.00648671,0.,-0.13165773,-0.05637
 088,0.,-0.04245913,-0.02413989,0.,0.00135424,0.00757432,0.,0.00001023,
 -0.00004602,0.,0.00096457,-0.00065430,0.,-0.00102956,-0.00111687,0.,0.
 00195403,-0.00237197,0.,0.00394417,0.00224006,0.,0.18635371,-0.0347864
 7,-0.01487740,0.,-0.05302270,-0.07142472,0.,0.00013216,0.00523098,0.,0
 .00207517,0.00053343,0.,-0.00022122,0.00019813,0.,0.00077418,0.0011162
 1,0.,0.00015018,0.00003570,0.,0.00257712,-0.00580289,0.,-0.00174688,-0
 .00635040,0.,0.08421163,0.09158106,0.,0.,0.00200584,0.,0.,-0.02315176,
 0.,0.,0.00425795,0.,0.,0.00573704,0.,0.,-0.00133808,0.,0.,-0.00266446,
 0.,0.,0.00017694,0.,0.,0.00450848,0.,0.,-0.00036165,0.,0.,0.01128048,-
 0.10235679,-0.03869638,0.,-0.01845205,0.04178209,0.,0.04167820,-0.0303
 6305,0.,-0.13301502,-0.03286731,0.,-0.23162971,-0.13465546,0.,-0.00478
 458,-0.00305688,0.,0.00260049,0.02937599,0.,-0.28133682,0.11403556,0.,
 0.00433078,-0.00270009,0.,-0.00061876,-0.00014318,0.,0.72358427,0.0181
 0821,0.05797041,0.,0.02847408,-0.05831750,0.,-0.07809978,-0.03098804,0
 .,0.03418550,-0.32734873,0.,-0.13322000,-0.15580167,0.,-0.00271324,0.0
 0053999,0.,-0.00204952,-0.00536935,0.,0.08039579,-0.16523661,0.,0.0004
 6961,-0.00215426,0.,-0.00283936,-0.00024009,0.,0.05728871,0.68694585,0
 .,0.,0.00139146,0.,0.,-0.00567381,0.,0.,0.00762243,0.,0.,-0.06676886,0
 .,0.,-0.04071349,0.,0.,0.00757850,0.,0.,0.00084094,0.,0.,-0.06268038,0
 .,0.,0.00709694,0.,0.,-0.00045078,0.,0.,0.15175704\\0.00002597,0.00000
 364,0.,-0.00003271,-0.00000040,0.,0.00000629,0.00000139,0.,-0.00000186
 ,0.00000013,0.,0.00000046,0.00000017,0.,-0.00000230,-0.00001213,0.,-0.
 00000069,0.00000027,0.,0.00000832,0.00000385,0.,-0.00002112,-0.0000001
 1,0.,0.00001584,0.00001122,0.,0.00000179,-0.00000803,0.\\\@


 THE MORE POWERFUL THE METHOD, THE MORE CATASTROPHIC THE ERRORS.
     -- M.D. KAMEN
 Job cpu time:       0 days  0 hours 11 minutes 18.2 seconds.
 File lengths (MBytes):  RWF=     60 Int=      0 D2E=      0 Chk=      5 Scr=      1
 Normal termination of Gaussian 09 at Fri Apr 26 11:29:37 2024.
