 Entering Gaussian System, Link 0=g09
 Initial command:
 /cm/shared/apps/gaussian/g09revD.01/g09/l1.exe "//home/sweav003/HartwigDocs/IrCatHeteroarenes/G09-Chart2_1.com.o9624831.tmp/Gau-66727.inp" -scrdir="//home/sweav003/HartwigDocs/IrCatHeteroarenes/G09-Chart2_1.com.o9624831.tmp/"
 Entering Link 1 = /cm/shared/apps/gaussian/g09revD.01/g09/l1.exe PID=     66728.
  
 Copyright (c) 1988,1990,1992,1993,1995,1998,2003,2009,2013,
            Gaussian, Inc.  All Rights Reserved.
  
 This is part of the Gaussian(R) 09 program.  It is based on
 the Gaussian(R) 03 system (copyright 2003, Gaussian, Inc.),
 the Gaussian(R) 98 system (copyright 1998, Gaussian, Inc.),
 the Gaussian(R) 94 system (copyright 1995, Gaussian, Inc.),
 the Gaussian 92(TM) system (copyright 1992, Gaussian, Inc.),
 the Gaussian 90(TM) system (copyright 1990, Gaussian, Inc.),
 the Gaussian 88(TM) system (copyright 1988, Gaussian, Inc.),
 the Gaussian 86(TM) system (copyright 1986, Carnegie Mellon
 University), and the Gaussian 82(TM) system (copyright 1983,
 Carnegie Mellon University). Gaussian is a federally registered
 trademark of Gaussian, Inc.
  
 This software contains proprietary and confidential information,
 including trade secrets, belonging to Gaussian, Inc.
  
 This software is provided under written license and may be
 used, copied, transmitted, or stored only in accord with that
 written license.
  
 The following legend is applicable only to US Government
 contracts under FAR:
  
                    RESTRICTED RIGHTS LEGEND
  
 Use, reproduction and disclosure by the US Government is
 subject to restrictions as set forth in subparagraphs (a)
 and (c) of the Commercial Computer Software - Restricted
 Rights clause in FAR 52.227-19.
  
 Gaussian, Inc.
 340 Quinnipiac St., Bldg. 40, Wallingford CT 06492
  
  
 ---------------------------------------------------------------
 Warning -- This program may not be used in any manner that
 competes with the business of Gaussian, Inc. or will provide
 assistance to any competitor of Gaussian, Inc.  The licensee
 of this program is prohibited from giving any competitor of
 Gaussian, Inc. access to this program.  By using this program,
 the user acknowledges that Gaussian, Inc. is engaged in the
 business of creating and licensing software in the field of
 computational chemistry and represents and warrants to the
 licensee that it is not a competitor of Gaussian, Inc. and that
 it will not use this program in any manner prohibited above.
 ---------------------------------------------------------------
  

 Cite this work as:
 Gaussian 09, Revision D.01,
 M. J. Frisch, G. W. Trucks, H. B. Schlegel, G. E. Scuseria, 
 M. A. Robb, J. R. Cheeseman, G. Scalmani, V. Barone, B. Mennucci, 
 G. A. Petersson, H. Nakatsuji, M. Caricato, X. Li, H. P. Hratchian, 
 A. F. Izmaylov, J. Bloino, G. Zheng, J. L. Sonnenberg, M. Hada, 
 M. Ehara, K. Toyota, R. Fukuda, J. Hasegawa, M. Ishida, T. Nakajima, 
 Y. Honda, O. Kitao, H. Nakai, T. Vreven, J. A. Montgomery, Jr., 
 J. E. Peralta, F. Ogliaro, M. Bearpark, J. J. Heyd, E. Brothers, 
 K. N. Kudin, V. N. Staroverov, T. Keith, R. Kobayashi, J. Normand, 
 K. Raghavachari, A. Rendell, J. C. Burant, S. S. Iyengar, J. Tomasi, 
 M. Cossi, N. Rega, J. M. Millam, M. Klene, J. E. Knox, J. B. Cross, 
 V. Bakken, C. Adamo, J. Jaramillo, R. Gomperts, R. E. Stratmann, 
 O. Yazyev, A. J. Austin, R. Cammi, C. Pomelli, J. W. Ochterski, 
 R. L. Martin, K. Morokuma, V. G. Zakrzewski, G. A. Voth, 
 P. Salvador, J. J. Dannenberg, S. Dapprich, A. D. Daniels, 
 O. Farkas, J. B. Foresman, J. V. Ortiz, J. Cioslowski, 
 and D. J. Fox, Gaussian, Inc., Wallingford CT, 2013.
 
 ******************************************
 Gaussian 09:  ES64L-G09RevD.01 24-Apr-2013
                 1-Nov-2021 
 ******************************************
 %mem=100MW
 %nprocshared=20
 Will use up to   20 processors via shared memory.
 %chk=Chart2_1.chk
 ----------------------------------------------------------------------
 # opt freq b3lyp/6-311+g(d,p) geom=connectivity pop=(hirshfeld,chelpg,
 mbs,npa)
 ----------------------------------------------------------------------
 1/14=-1,18=20,19=15,26=3,38=1,57=2/1,3;
 2/9=110,12=2,17=6,18=5,40=1/2;
 3/5=4,6=6,7=111,11=2,16=1,25=1,30=1,71=1,74=-5/1,2,3;
 4//1;
 5/5=2,38=5/2;
 6/7=2,8=2,9=2,10=2,15=8,20=3,27=100,28=1,40=-1,79=1/1,2,7;
 7//1,2,3,16;
 1/14=-1,18=20,19=15,26=3/3(2);
 2/9=110/2;
 99//99;
 2/9=110/2;
 3/5=4,6=6,7=111,11=2,16=1,25=1,30=1,71=1,74=-5/1,2,3;
 4/5=5,16=3,69=1/1;
 5/5=2,38=5/2;
 7//1,2,3,16;
 1/14=-1,18=20,19=15,26=3/3(-5);
 2/9=110/2;
 6/7=2,8=2,9=2,10=2,15=8,19=2,20=3,27=100,28=1,40=-1,79=1/1,2,7;
 99/9=1/99;
 -------------------
 Title Card Required
 -------------------
 Symbolic Z-matrix:
 Charge =  0 Multiplicity = 1
 C                    -1.97735  -0.07194  -0.00039 
 C                     0.09645   1.15794   0.00026 
 C                    -0.55572   2.33881  -0.00076 
 C                    -2.08927   2.3338   -0.0017 
 H                    -2.51814  -0.99522  -0.00024 
 H                     1.16612   1.13138   0.00093 
 H                    -0.01344   3.26121  -0.0009 
 H                    -2.63254   3.25562  -0.0025 
 N                    -2.71956   1.20421  -0.0015 
 N                    -0.67741  -0.09234   0.00043 
 

 GradGradGradGradGradGradGradGradGradGradGradGradGradGradGradGradGradGrad
 Berny optimization.
 Initialization pass.
                           ----------------------------
                           !    Initial Parameters    !
                           ! (Angstroms and Degrees)  !
 --------------------------                            --------------------------
 ! Name  Definition              Value          Derivative Info.                !
 --------------------------------------------------------------------------------
 ! R1    R(1,5)                  1.07           estimate D2E/DX2                !
 ! R2    R(1,9)                  1.4763         estimate D2E/DX2                !
 ! R3    R(1,10)                 1.3001         estimate D2E/DX2                !
 ! R4    R(2,3)                  1.349          estimate D2E/DX2                !
 ! R5    R(2,6)                  1.07           estimate D2E/DX2                !
 ! R6    R(2,10)                 1.4704         estimate D2E/DX2                !
 ! R7    R(3,4)                  1.5336         estimate D2E/DX2                !
 ! R8    R(3,7)                  1.07           estimate D2E/DX2                !
 ! R9    R(4,8)                  1.07           estimate D2E/DX2                !
 ! R10   R(4,9)                  1.2935         estimate D2E/DX2                !
 ! A1    A(5,1,9)              119.4593         estimate D2E/DX2                !
 ! A2    A(5,1,10)             119.4593         estimate D2E/DX2                !
 ! A3    A(9,1,10)             121.0814         estimate D2E/DX2                !
 ! A4    A(3,2,6)              120.3332         estimate D2E/DX2                !
 ! A5    A(3,2,10)             119.3335         estimate D2E/DX2                !
 ! A6    A(6,2,10)             120.3333         estimate D2E/DX2                !
 ! A7    A(2,3,4)              118.7241         estimate D2E/DX2                !
 ! A8    A(2,3,7)              120.638          estimate D2E/DX2                !
 ! A9    A(4,3,7)              120.638          estimate D2E/DX2                !
 ! A10   A(3,4,8)              120.3261         estimate D2E/DX2                !
 ! A11   A(3,4,9)              119.3479         estimate D2E/DX2                !
 ! A12   A(8,4,9)              120.3261         estimate D2E/DX2                !
 ! A13   A(1,9,4)              120.6569         estimate D2E/DX2                !
 ! A14   A(1,10,2)             120.8563         estimate D2E/DX2                !
 ! D1    D(5,1,9,4)           -179.9997         estimate D2E/DX2                !
 ! D2    D(10,1,9,4)             0.0003         estimate D2E/DX2                !
 ! D3    D(5,1,10,2)           179.9997         estimate D2E/DX2                !
 ! D4    D(9,1,10,2)            -0.0003         estimate D2E/DX2                !
 ! D5    D(6,2,3,4)           -179.9998         estimate D2E/DX2                !
 ! D6    D(6,2,3,7)             -0.0001         estimate D2E/DX2                !
 ! D7    D(10,2,3,4)             0.0            estimate D2E/DX2                !
 ! D8    D(10,2,3,7)           179.9997         estimate D2E/DX2                !
 ! D9    D(3,2,10,1)             0.0001         estimate D2E/DX2                !
 ! D10   D(6,2,10,1)           179.9999         estimate D2E/DX2                !
 ! D11   D(2,3,4,8)            179.9998         estimate D2E/DX2                !
 ! D12   D(2,3,4,9)              0.0            estimate D2E/DX2                !
 ! D13   D(7,3,4,8)              0.0            estimate D2E/DX2                !
 ! D14   D(7,3,4,9)           -179.9997         estimate D2E/DX2                !
 ! D15   D(3,4,9,1)             -0.0001         estimate D2E/DX2                !
 ! D16   D(8,4,9,1)           -179.9999         estimate D2E/DX2                !
 --------------------------------------------------------------------------------
 Trust Radius=3.00D-01 FncErr=1.00D-07 GrdErr=1.00D-06
 Number of steps in this run=     50 maximum allowed number of steps=    100.
 GradGradGradGradGradGradGradGradGradGradGradGradGradGradGradGradGradGrad

                          Input orientation:                          
 ---------------------------------------------------------------------
 Center     Atomic      Atomic             Coordinates (Angstroms)
 Number     Number       Type             X           Y           Z
 ---------------------------------------------------------------------
      1          6           0       -1.977355   -0.071940   -0.000385
      2          6           0        0.096454    1.157937    0.000256
      3          6           0       -0.555718    2.338806   -0.000756
      4          6           0       -2.089268    2.333802   -0.001696
      5          1           0       -2.518143   -0.995221   -0.000244
      6          1           0        1.166124    1.131380    0.000930
      7          1           0       -0.013440    3.261213   -0.000895
      8          1           0       -2.632543    3.255622   -0.002503
      9          7           0       -2.719563    1.204215   -0.001499
     10          7           0       -0.677408   -0.092343    0.000427
 ---------------------------------------------------------------------
                    Distance matrix (angstroms):
                    1          2          3          4          5
     1  C    0.000000
     2  C    2.411074   0.000000
     3  C    2.798705   1.348992   0.000000
     4  C    2.408344   2.481943   1.533559   0.000000
     5  H    1.070000   3.387064   3.868701   3.356536   0.000000
     6  H    3.365923   1.070000   2.103002   3.470361   4.253969
     7  H    3.868704   2.106145   1.070000   2.273578   4.938701
     8  H    3.391451   3.442050   2.270189   1.070000   4.252383
     9  N    1.476294   2.816397   2.443261   1.293537   2.208640
    10  N    1.300107   1.470395   2.434193   2.807050   2.050242
                    6          7          8          9         10
     6  H    0.000000
     7  H    2.434658   0.000000
     8  H    4.352274   2.619110   0.000000
     9  N    3.886370   3.399168   2.053252   0.000000
    10  N    2.212715   3.418654   3.877039   2.418979   0.000000
 Stoichiometry    C4H4N2
 Framework group  C1[X(C4H4N2)]
 Deg. of freedom    24
 Full point group                 C1      NOp   1
 Largest Abelian subgroup         C1      NOp   1
 Largest concise Abelian subgroup C1      NOp   1
                         Standard orientation:                         
 ---------------------------------------------------------------------
 Center     Atomic      Atomic             Coordinates (Angstroms)
 Number     Number       Type             X           Y           Z
 ---------------------------------------------------------------------
      1          6           0       -1.395408   -0.185522   -0.000001
      2          6           0        0.818026   -1.141549    0.000000
      3          6           0        1.390686    0.079859   -0.000001
      4          6           0        0.485902    1.318071   -0.000001
      5          1           0       -2.460282   -0.290138   -0.000004
      6          1           0        1.424806   -2.022866    0.000002
      7          1           0        2.455727    0.182755    0.000002
      8          1           0        0.912865    2.299194    0.000003
      9          7           0       -0.798514    1.164723    0.000001
     10          7           0       -0.648394   -1.249594    0.000001
 ---------------------------------------------------------------------
 Rotational constants (GHZ):      5.8130510      5.7614245      2.8935613
 Standard basis: 6-311+G(d,p) (5D, 7F)
 There are   162 symmetry adapted cartesian basis functions of A   symmetry.
 There are   156 symmetry adapted basis functions of A   symmetry.
   156 basis functions,   248 primitive gaussians,   162 cartesian basis functions
    21 alpha electrons       21 beta electrons
       nuclear repulsion energy       202.9050716458 Hartrees.
 NAtoms=   10 NActive=   10 NUniq=   10 SFac= 1.00D+00 NAtFMM=   60 NAOKFM=F Big=F
 Integral buffers will be    131072 words long.
 Raffenetti 2 integral format.
 Two-electron integral symmetry is turned on.
 One-electron integrals computed using PRISM.
 NBasis=   156 RedAO= T EigKep=  3.80D-05  NBF=   156
 NBsUse=   156 1.00D-06 EigRej= -1.00D+00 NBFU=   156
 ExpMin= 4.38D-02 ExpMax= 6.29D+03 ExpMxC= 9.49D+02 IAcc=2 IRadAn=         4 AccDes= 0.00D+00
 Harris functional with IExCor=  402 and IRadAn=       4 diagonalized for initial guess.
 HarFok:  IExCor=  402 AccDes= 0.00D+00 IRadAn=         4 IDoV= 1 UseB2=F ITyADJ=14
 ICtDFT=  3500011 ScaDFX=  1.000000  1.000000  1.000000  1.000000
 FoFCou: FMM=F IPFlag=           0 FMFlag=      100000 FMFlg1=           0
         NFxFlg=           0 DoJE=T BraDBF=F KetDBF=T FulRan=T
         wScrn=  0.000000 ICntrl=     500 IOpCl=  0 I1Cent=   200000004 NGrid=           0
         NMat0=    1 NMatS0=      1 NMatT0=    0 NMatD0=    1 NMtDS0=    0 NMtDT0=    0
 Petite list used in FoFCou.
 Keep R1 ints in memory in canonical form, NReq=77255395.
 Requested convergence on RMS density matrix=1.00D-08 within 128 cycles.
 Requested convergence on MAX density matrix=1.00D-06.
 Requested convergence on             energy=1.00D-06.
 No special actions if energy rises.
 SCF Done:  E(RB3LYP) =  -264.360479431     A.U. after   13 cycles
            NFock= 13  Conv=0.49D-08     -V/T= 2.0058

 **********************************************************************

            Population analysis using the SCF density.

 **********************************************************************

 Orbital symmetries:
       Occupied  (A) (A) (A) (A) (A) (A) (A) (A) (A) (A) (A) (A)
                 (A) (A) (A) (A) (A) (A) (A) (A) (A)
       Virtual   (A) (A) (A) (A) (A) (A) (A) (A) (A) (A) (A) (A)
                 (A) (A) (A) (A) (A) (A) (A) (A) (A) (A) (A) (A)
                 (A) (A) (A) (A) (A) (A) (A) (A) (A) (A) (A) (A)
                 (A) (A) (A) (A) (A) (A) (A) (A) (A) (A) (A) (A)
                 (A) (A) (A) (A) (A) (A) (A) (A) (A) (A) (A) (A)
                 (A) (A) (A) (A) (A) (A) (A) (A) (A) (A) (A) (A)
                 (A) (A) (A) (A) (A) (A) (A) (A) (A) (A) (A) (A)
                 (A) (A) (A) (A) (A) (A) (A) (A) (A) (A) (A) (A)
                 (A) (A) (A) (A) (A) (A) (A) (A) (A) (A) (A) (A)
                 (A) (A) (A) (A) (A) (A) (A) (A) (A) (A) (A) (A)
                 (A) (A) (A) (A) (A) (A) (A) (A) (A) (A) (A) (A)
                 (A) (A) (A)
 The electronic state is 1-A.
 Alpha  occ. eigenvalues --  -14.33736 -14.33375 -10.26120 -10.24728 -10.23843
 Alpha  occ. eigenvalues --  -10.20951  -0.97288  -0.88767  -0.80034  -0.66196
 Alpha  occ. eigenvalues --   -0.65379  -0.55138  -0.51386  -0.48716  -0.44337
 Alpha  occ. eigenvalues --   -0.43327  -0.42046  -0.32575  -0.30980  -0.29832
 Alpha  occ. eigenvalues --   -0.25371
 Alpha virt. eigenvalues --   -0.06130  -0.05255   0.00020   0.02300   0.02635
 Alpha virt. eigenvalues --    0.04499   0.04572   0.05685   0.05837   0.07631
 Alpha virt. eigenvalues --    0.09009   0.09692   0.09978   0.10098   0.12921
 Alpha virt. eigenvalues --    0.13394   0.13902   0.14801   0.16227   0.17610
 Alpha virt. eigenvalues --    0.17844   0.19517   0.19557   0.20314   0.21419
 Alpha virt. eigenvalues --    0.22009   0.23092   0.23611   0.25577   0.27491
 Alpha virt. eigenvalues --    0.27782   0.28787   0.29926   0.32485   0.36260
 Alpha virt. eigenvalues --    0.40110   0.43907   0.47923   0.51825   0.53753
 Alpha virt. eigenvalues --    0.54841   0.55480   0.56976   0.58703   0.60501
 Alpha virt. eigenvalues --    0.62863   0.66787   0.67809   0.70420   0.74554
 Alpha virt. eigenvalues --    0.77424   0.78420   0.79033   0.80831   0.83543
 Alpha virt. eigenvalues --    0.84919   0.86926   0.87713   0.93902   0.95013
 Alpha virt. eigenvalues --    0.97163   0.97606   1.03317   1.04405   1.05650
 Alpha virt. eigenvalues --    1.11513   1.11995   1.25278   1.25523   1.31557
 Alpha virt. eigenvalues --    1.38115   1.39441   1.45048   1.50315   1.52660
 Alpha virt. eigenvalues --    1.56185   1.58758   1.60567   1.65363   1.71722
 Alpha virt. eigenvalues --    1.72758   1.76869   1.78223   1.79981   1.84729
 Alpha virt. eigenvalues --    1.89763   1.93508   1.93863   2.08260   2.09367
 Alpha virt. eigenvalues --    2.10812   2.20191   2.22822   2.26013   2.32869
 Alpha virt. eigenvalues --    2.33299   2.38419   2.38474   2.51208   2.54255
 Alpha virt. eigenvalues --    2.58580   2.62050   2.67586   2.69480   2.71132
 Alpha virt. eigenvalues --    2.71527   2.76976   2.81163   2.81183   2.84146
 Alpha virt. eigenvalues --    2.85242   2.88821   2.91418   2.92449   3.08246
 Alpha virt. eigenvalues --    3.33614   3.44255   3.51048   3.57127   3.66753
 Alpha virt. eigenvalues --    3.74569   3.86366   3.89610   3.99025   4.10669
 Alpha virt. eigenvalues --    4.27770   4.32995   4.79085   5.19336  23.65975
 Alpha virt. eigenvalues --   23.83417  23.87670  24.15627  35.54942  35.57696
          Condensed to atoms (all electrons):
               1          2          3          4          5          6
     1  C    5.374570  -0.050659  -0.168231  -0.009025   0.483685   0.010071
     2  C   -0.050659   5.310835   0.390391  -0.104882   0.021450   0.439424
     3  C   -0.168231   0.390391   5.169177   0.257145  -0.015766  -0.054012
     4  C   -0.009025  -0.104882   0.257145   5.203628   0.013624   0.002141
     5  H    0.483685   0.021450  -0.015766   0.013624   0.519694   0.000159
     6  H    0.010071   0.439424  -0.054012   0.002141   0.000159   0.513810
     7  H    0.001980  -0.002012   0.349900  -0.011809   0.000164  -0.004654
     8  H    0.017369  -0.003028  -0.079609   0.451266   0.000141  -0.000351
     9  N    0.114586  -0.104675   0.082516   0.390441  -0.093477  -0.002956
    10  N    0.264864   0.262082   0.075044  -0.081361  -0.097829  -0.057201
               7          8          9         10
     1  C    0.001980   0.017369   0.114586   0.264864
     2  C   -0.002012  -0.003028  -0.104675   0.262082
     3  C    0.349900  -0.079609   0.082516   0.075044
     4  C   -0.011809   0.451266   0.390441  -0.081361
     5  H    0.000164   0.000141  -0.093477  -0.097829
     6  H   -0.004654  -0.000351  -0.002956  -0.057201
     7  H    0.519666   0.000046   0.003263   0.003327
     8  H    0.000046   0.535347  -0.071945  -0.003417
     9  N    0.003263  -0.071945   6.766981   0.075383
    10  N    0.003327  -0.003417   0.075383   6.699160
 Mulliken charges:
               1
     1  C   -0.039211
     2  C   -0.158927
     3  C   -0.006556
     4  C   -0.111169
     5  H    0.168155
     6  H    0.153567
     7  H    0.140129
     8  H    0.154180
     9  N   -0.160116
    10  N   -0.140052
 Sum of Mulliken charges =   0.00000
 Mulliken charges with hydrogens summed into heavy atoms:
               1
     1  C    0.128944
     2  C   -0.005360
     3  C    0.133572
     4  C    0.043011
     9  N   -0.160116
    10  N   -0.140052
 Electronic spatial extent (au):  <R**2>=            433.0001
 Charge=              0.0000 electrons
 Dipole moment (field-independent basis, Debye):
    X=              2.3237    Y=              0.2662    Z=              0.0000  Tot=              2.3389
 Quadrupole moment (field-independent basis, Debye-Ang):
   XX=            -29.9966   YY=            -37.8145   ZZ=            -36.7582
   XY=              0.8819   XZ=              0.0000   YZ=              0.0000
 Traceless Quadrupole moment (field-independent basis, Debye-Ang):
   XX=              4.8598   YY=             -2.9581   ZZ=             -1.9018
   XY=              0.8819   XZ=              0.0000   YZ=              0.0000
 Octapole moment (field-independent basis, Debye-Ang**2):
  XXX=             -2.0406  YYY=              4.6712  ZZZ=              0.0000  XYY=             16.2436
  XXY=             -3.7821  XXZ=              0.0000  XZZ=             -1.3582  YZZ=              0.1936
  YYZ=              0.0000  XYZ=              0.0000
 Hexadecapole moment (field-independent basis, Debye-Ang**3):
 XXXX=           -241.0128 YYYY=           -276.5583 ZZZZ=            -40.7782 XXXY=              5.5106
 XXXZ=              0.0001 YYYX=             -0.4776 YYYZ=              0.0000 ZZZX=              0.0000
 ZZZY=              0.0000 XXYY=            -97.0783 XXZZ=            -58.2629 YYZZ=            -55.6971
 XXYZ=              0.0000 YYXZ=              0.0000 ZZXY=              0.3917
 N-N= 2.029050716458D+02 E-N=-1.020601893001D+03  KE= 2.628316808245D+02
 There are a total of       81678 grid points.
 ElSum from          density=       41.9999231257
 ElSum from atomic densities=       41.9999065293

 Hirshfeld populations at iteration   1 (CX, CA, CB, DipXYZ):
               1          2          3          4          5          6
     1  C    0.000000   2.947774   2.947774  -0.052189   0.066181   0.000000
     2  C    0.000000   2.983969   2.983969  -0.031789  -0.103770   0.000000
     3  C    0.000000   3.024104   3.024104   0.058041   0.068064   0.000000
     4  C    0.000000   2.971459   2.971459   0.076352   0.041166   0.000000
     5  H    0.000003   0.463458   0.463458  -0.172799  -0.021739  -0.000001
     6  H    0.000002   0.467047   0.467047   0.108751  -0.135578   0.000000
     7  H    0.000001   0.473296   0.473296   0.168014   0.014236   0.000001
     8  H    0.000002   0.467755   0.467755   0.072865   0.151358   0.000001
     9  N    0.000003   3.602394   3.602394   0.102423  -0.210382   0.000000
    10  N    0.000005   3.598706   3.598706   0.136999   0.183992   0.000000
       Tot   0.000019  20.999962  20.999962   0.466667   0.053527   0.000000

 Dip from Atomic Chgs              0.447523   0.051184  -0.000001
         Total Dipole              0.914190   0.104711  -0.000001

 Hirshfeld charges, spin densities, dipoles, and CM5 charges using IRadAn=      4:
              Q-H        S-H        Dx         Dy         Dz        Q-CM5   
     1  C    0.104452   0.000000  -0.052189   0.066181   0.000000   0.189853
     2  C    0.032063   0.000000  -0.031789  -0.103770   0.000000   0.033818
     3  C   -0.048208   0.000000   0.058041   0.068064   0.000000  -0.095057
     4  C    0.057082   0.000000   0.076352   0.041166   0.000000   0.089935
     5  H    0.073083   0.000000  -0.172799  -0.021739  -0.000001   0.147130
     6  H    0.065907   0.000000   0.108751  -0.135578   0.000000   0.129823
     7  H    0.053407   0.000000   0.168014   0.014236   0.000001   0.111051
     8  H    0.064491   0.000000   0.072865   0.151358   0.000001   0.131619
     9  N   -0.204788   0.000000   0.102423  -0.210382   0.000000  -0.372947
    10  N   -0.197412   0.000000   0.136999   0.183992   0.000000  -0.365149
       Tot   0.000077   0.000000   0.466667   0.053527   0.000000   0.000077
 Hirshfeld charges with hydrogens summed into heavy atoms:
              Q-H       Q-CM5   
     1  C    0.177536   0.336984
     2  C    0.097970   0.163641
     3  C    0.005199   0.015994
     4  C    0.121572   0.221554
     9  N   -0.204788  -0.372947
    10  N   -0.197412  -0.365149
 
 EQQ= 0.000000000000E+00 EQD= 0.000000000000E+00 EDD= 0.230691407673E-02
 EQQ+QD+DD= 0.230691407673E-02
 
          MBS Condensed to atoms (all electrons):
               1          2          3          4          5          6
     1  C    4.666330  -0.034903  -0.013085  -0.034163   0.392528   0.001471
     2  C   -0.034903   4.753972   0.548692  -0.025093   0.001955   0.393039
     3  C   -0.013085   0.548692   4.906544   0.412761  -0.000057  -0.031093
     4  C   -0.034163  -0.025093   0.412761   4.706848   0.001453   0.001273
     5  H    0.392528   0.001955  -0.000057   0.001453   0.501522  -0.000027
     6  H    0.001471   0.393039  -0.031093   0.001273  -0.000027   0.517359
     7  H    0.000120  -0.025203   0.384626  -0.020388   0.000005  -0.003321
     8  H    0.002093   0.000924  -0.028030   0.388101  -0.000032  -0.000036
     9  N    0.352502  -0.008207  -0.026726   0.495446  -0.024762  -0.000042
    10  N    0.488840   0.367585  -0.024183  -0.007607  -0.031167  -0.021204
               7          8          9         10
     1  C    0.000120   0.002093   0.352502   0.488840
     2  C   -0.025203   0.000924  -0.008207   0.367585
     3  C    0.384626  -0.028030  -0.026726  -0.024183
     4  C   -0.020388   0.388101   0.495446  -0.007607
     5  H    0.000005  -0.000032  -0.024762  -0.031167
     6  H   -0.003321  -0.000036  -0.000042  -0.021204
     7  H    0.540346  -0.000881   0.000777   0.001058
     8  H   -0.000881   0.527523  -0.029347  -0.000050
     9  N    0.000777  -0.029347   6.632858  -0.025183
    10  N    0.001058  -0.000050  -0.025183   6.605782
 MBS Mulliken charges:
               1
     1  C    0.178267
     2  C    0.027240
     3  C   -0.129450
     4  C    0.081370
     5  H    0.158582
     6  H    0.142582
     7  H    0.122861
     8  H    0.139734
     9  N   -0.367315
    10  N   -0.353871
 Sum of MBS Mulliken charges =   0.00000
 MBS Mulliken charges with hydrogens summed into heavy atoms:
               1
     1  C    0.336849
     2  C    0.169822
     3  C   -0.006589
     4  C    0.221104
     9  N   -0.367315
    10  N   -0.353871
 Breneman (CHELPG) radii used.
 Generate Potential Derived Charges using the Breneman model, NDens= 1.
 Grid spacing= 0.300 Box extension= 2.800
 NStep X,Y,Z=   37     35     20   Total possible points=       25900
 Number of Points to Fit=    8308

 **********************************************************************

            Electrostatic Properties Using The SCF Density

 **********************************************************************

       Atomic Center    1 is at  -1.395408 -0.185522 -0.000001
       Atomic Center    2 is at   0.818026 -1.141549  0.000000
       Atomic Center    3 is at   1.390686  0.079859 -0.000001
       Atomic Center    4 is at   0.485902  1.318071 -0.000001
       Atomic Center    5 is at  -2.460282 -0.290138 -0.000004
       Atomic Center    6 is at   1.424806 -2.022866  0.000002
       Atomic Center    7 is at   2.455727  0.182755  0.000002
       Atomic Center    8 is at   0.912865  2.299194  0.000003
       Atomic Center    9 is at  -0.798514  1.164723  0.000001
       Atomic Center   10 is at  -0.648394 -1.249594  0.000001
    8308 points will be used for fitting atomic charges
 Fitting point charges to electrostatic potential
 Charges from ESP fit, RMS=   0.00455 RRMS=   0.27576:
 ESP charges:
               1
     1  C    0.860904
     2  C    0.547227
     3  C   -0.554294
     4  C    0.664761
     5  H   -0.042807
     6  H    0.013351
     7  H    0.157214
     8  H   -0.017795
     9  N   -0.829092
    10  N   -0.799469
 Sum of ESP charges =   0.00000
 ESP charges with hydrogens summed into heavy atoms:
               1
     1  C    0.818097
     2  C    0.560578
     3  C   -0.397079
     4  C    0.646966
     9  N   -0.829092
    10  N   -0.799469
 Charge=   0.00000 Dipole=     2.2723     0.2599     0.0000 Tot=     2.2871
 -----------------------------------------------------------------

              Electrostatic Properties (Atomic Units)

 -----------------------------------------------------------------
    Center     Electric         -------- Electric Field --------
               Potential          X             Y             Z
 -----------------------------------------------------------------
    1 Atom    -14.689609
    2 Atom    -14.712034
    3 Atom    -14.742166
    4 Atom    -14.704021
    5 Atom     -1.075298
    6 Atom     -1.075404
    7 Atom     -1.077478
    8 Atom     -1.076285
    9 Atom    -18.387664
   10 Atom    -18.383808
 -----------------------------------------------------------------
 ******************************Gaussian NBO Version 3.1******************************
             N A T U R A L   A T O M I C   O R B I T A L   A N D
          N A T U R A L   B O N D   O R B I T A L   A N A L Y S I S
 ******************************Gaussian NBO Version 3.1******************************
       /RESON  / : Allow strongly delocalized NBO set

 Analyzing the SCF density

 Job title: Title Card Required                                             

 Storage needed:     73752 in NPA ( 104857020 available)


 NATURAL POPULATIONS:  Natural atomic orbital occupancies 
                                                          
   NAO  Atom  No  lang   Type(AO)    Occupancy      Energy
 ----------------------------------------------------------
     1    C    1  S      Cor( 1S)     1.99929     -10.13836
     2    C    1  S      Val( 2S)     0.92764      -0.21258
     3    C    1  S      Ryd( 3S)     0.00369       0.62150
     4    C    1  S      Ryd( 4S)     0.00018       0.78288
     5    C    1  S      Ryd( 5S)     0.00002      22.86645
     6    C    1  px     Val( 2p)     1.07914      -0.07471
     7    C    1  px     Ryd( 4p)     0.00650       0.90502
     8    C    1  px     Ryd( 3p)     0.00055       0.24385
     9    C    1  px     Ryd( 5p)     0.00009       3.06052
    10    C    1  py     Val( 2p)     0.81426      -0.03575
    11    C    1  py     Ryd( 4p)     0.01468       0.71120
    12    C    1  py     Ryd( 3p)     0.00119       0.23123
    13    C    1  py     Ryd( 5p)     0.00017       2.93225
    14    C    1  pz     Val( 2p)     0.86707      -0.14052
    15    C    1  pz     Ryd( 4p)     0.00161       0.53500
    16    C    1  pz     Ryd( 3p)     0.00007       0.25333
    17    C    1  pz     Ryd( 5p)     0.00005       2.58190
    18    C    1  dxy    Ryd( 3d)     0.00157       2.41937
    19    C    1  dxz    Ryd( 3d)     0.00084       1.53502
    20    C    1  dyz    Ryd( 3d)     0.00135       1.57492
    21    C    1  dx2y2  Ryd( 3d)     0.00279       2.32717
    22    C    1  dz2    Ryd( 3d)     0.00045       1.91195

    23    C    2  S      Cor( 1S)     1.99898     -10.10552
    24    C    2  S      Val( 2S)     0.95802      -0.21671
    25    C    2  S      Ryd( 3S)     0.00237       0.62279
    26    C    2  S      Ryd( 4S)     0.00013       0.86351
    27    C    2  S      Ryd( 5S)     0.00001      22.89213
    28    C    2  px     Val( 2p)     0.91134      -0.06034
    29    C    2  px     Ryd( 4p)     0.00738       0.77515
    30    C    2  px     Ryd( 3p)     0.00059       0.26679
    31    C    2  px     Ryd( 5p)     0.00013       3.02428
    32    C    2  py     Val( 2p)     1.13871      -0.08487
    33    C    2  py     Ryd( 4p)     0.00789       0.77658
    34    C    2  py     Ryd( 3p)     0.00067       0.25211
    35    C    2  py     Ryd( 5p)     0.00018       3.15092
    36    C    2  pz     Val( 2p)     0.93418      -0.14185
    37    C    2  pz     Ryd( 4p)     0.00107       0.49908
    38    C    2  pz     Ryd( 3p)     0.00011       0.30208
    39    C    2  pz     Ryd( 5p)     0.00001       2.59252
    40    C    2  dxy    Ryd( 3d)     0.00160       2.42387
    41    C    2  dxz    Ryd( 3d)     0.00073       1.54656
    42    C    2  dyz    Ryd( 3d)     0.00060       1.60560
    43    C    2  dx2y2  Ryd( 3d)     0.00107       2.39792
    44    C    2  dz2    Ryd( 3d)     0.00046       1.94459

    45    C    3  S      Cor( 1S)     1.99910     -10.07237
    46    C    3  S      Val( 2S)     1.00693      -0.23156
    47    C    3  S      Ryd( 3S)     0.00179       0.53710
    48    C    3  S      Ryd( 4S)     0.00021       1.10126
    49    C    3  S      Ryd( 5S)     0.00000      22.89073
    50    C    3  px     Val( 2p)     1.16652      -0.08149
    51    C    3  px     Ryd( 4p)     0.00442       0.95470
    52    C    3  px     Ryd( 3p)     0.00039       0.29239
    53    C    3  px     Ryd( 5p)     0.00004       3.13473
    54    C    3  py     Val( 2p)     1.07464      -0.09307
    55    C    3  py     Ryd( 4p)     0.00360       0.70163
    56    C    3  py     Ryd( 3p)     0.00041       0.39446
    57    C    3  py     Ryd( 5p)     0.00016       3.02052
    58    C    3  pz     Val( 2p)     1.00122      -0.14316
    59    C    3  pz     Ryd( 4p)     0.00098       0.48233
    60    C    3  pz     Ryd( 3p)     0.00012       0.33506
    61    C    3  pz     Ryd( 5p)     0.00002       2.60949
    62    C    3  dxy    Ryd( 3d)     0.00056       2.45275
    63    C    3  dxz    Ryd( 3d)     0.00031       1.56464
    64    C    3  dyz    Ryd( 3d)     0.00046       1.61616
    65    C    3  dx2y2  Ryd( 3d)     0.00085       2.43516
    66    C    3  dz2    Ryd( 3d)     0.00041       1.95583

    67    C    4  S      Cor( 1S)     1.99931     -10.11681
    68    C    4  S      Val( 2S)     0.95387      -0.21701
    69    C    4  S      Ryd( 3S)     0.00406       0.64242
    70    C    4  S      Ryd( 4S)     0.00022       0.68676
    71    C    4  S      Ryd( 5S)     0.00001      23.01033
    72    C    4  px     Val( 2p)     0.93461      -0.05401
    73    C    4  px     Ryd( 4p)     0.01053       0.70894
    74    C    4  px     Ryd( 3p)     0.00078       0.26697
    75    C    4  px     Ryd( 5p)     0.00013       2.98808
    76    C    4  py     Val( 2p)     1.10849      -0.08000
    77    C    4  py     Ryd( 4p)     0.00673       0.89675
    78    C    4  py     Ryd( 3p)     0.00047       0.26653
    79    C    4  py     Ryd( 5p)     0.00014       2.98829
    80    C    4  pz     Val( 2p)     0.86371      -0.14095
    81    C    4  pz     Ryd( 4p)     0.00083       0.50500
    82    C    4  pz     Ryd( 3p)     0.00009       0.25644
    83    C    4  pz     Ryd( 5p)     0.00002       2.61161
    84    C    4  dxy    Ryd( 3d)     0.00188       2.35486
    85    C    4  dxz    Ryd( 3d)     0.00145       1.60603
    86    C    4  dyz    Ryd( 3d)     0.00032       1.52688
    87    C    4  dx2y2  Ryd( 3d)     0.00130       2.45405
    88    C    4  dz2    Ryd( 3d)     0.00040       1.92481

    89    H    5  S      Val( 1S)     0.80429       0.01421
    90    H    5  S      Ryd( 2S)     0.00031       0.78927
    91    H    5  S      Ryd( 3S)     0.00011       1.88537
    92    H    5  px     Ryd( 2p)     0.00066       2.67924
    93    H    5  py     Ryd( 2p)     0.00006       1.92493
    94    H    5  pz     Ryd( 2p)     0.00013       1.57386

    95    H    6  S      Val( 1S)     0.79531       0.02410
    96    H    6  S      Ryd( 2S)     0.00050       0.64872
    97    H    6  S      Ryd( 3S)     0.00015       2.02284
    98    H    6  px     Ryd( 2p)     0.00031       2.16199
    99    H    6  py     Ryd( 2p)     0.00033       2.44608
   100    H    6  pz     Ryd( 2p)     0.00018       1.57115

   101    H    7  S      Val( 1S)     0.78699       0.03048
   102    H    7  S      Ryd( 2S)     0.00076       0.55263
   103    H    7  S      Ryd( 3S)     0.00021       2.07828
   104    H    7  px     Ryd( 2p)     0.00045       2.69197
   105    H    7  py     Ryd( 2p)     0.00009       1.92225
   106    H    7  pz     Ryd( 2p)     0.00017       1.57114

   107    H    8  S      Val( 1S)     0.80695       0.01660
   108    H    8  S      Ryd( 2S)     0.00064       0.59225
   109    H    8  S      Ryd( 3S)     0.00015       2.08855
   110    H    8  px     Ryd( 2p)     0.00017       2.03795
   111    H    8  py     Ryd( 2p)     0.00048       2.55527
   112    H    8  pz     Ryd( 2p)     0.00012       1.56943

   113    N    9  S      Cor( 1S)     1.99940     -14.16016
   114    N    9  S      Val( 2S)     1.41250      -0.55502
   115    N    9  S      Ryd( 3S)     0.00266       0.85877
   116    N    9  S      Ryd( 4S)     0.00035       1.24729
   117    N    9  S      Ryd( 5S)     0.00000      35.26056
   118    N    9  px     Val( 2p)     1.41508      -0.21235
   119    N    9  px     Ryd( 3p)     0.00459       0.73602
   120    N    9  px     Ryd( 4p)     0.00033       0.74476
   121    N    9  px     Ryd( 5p)     0.00009       4.26649
   122    N    9  py     Val( 2p)     1.48288      -0.20226
   123    N    9  py     Ryd( 3p)     0.00589       0.68932
   124    N    9  py     Ryd( 4p)     0.00033       0.72681
   125    N    9  py     Ryd( 5p)     0.00007       4.05624
   126    N    9  pz     Val( 2p)     1.15680      -0.19797
   127    N    9  pz     Ryd( 3p)     0.00052       0.52040
   128    N    9  pz     Ryd( 4p)     0.00007       0.68409
   129    N    9  pz     Ryd( 5p)     0.00003       3.73198
   130    N    9  dxy    Ryd( 3d)     0.00124       2.59060
   131    N    9  dxz    Ryd( 3d)     0.00114       2.24199
   132    N    9  dyz    Ryd( 3d)     0.00060       2.10522
   133    N    9  dx2y2  Ryd( 3d)     0.00144       2.91589
   134    N    9  dz2    Ryd( 3d)     0.00098       2.50799

   135    N   10  S      Cor( 1S)     1.99941     -14.16485
   136    N   10  S      Val( 2S)     1.40827      -0.55674
   137    N   10  S      Ryd( 3S)     0.00219       0.80379
   138    N   10  S      Ryd( 4S)     0.00017       1.43151
   139    N   10  S      Ryd( 5S)     0.00000      35.14535
   140    N   10  px     Val( 2p)     1.25624      -0.18505
   141    N   10  px     Ryd( 4p)     0.00352       0.81551
   142    N   10  px     Ryd( 3p)     0.00035       0.73823
   143    N   10  px     Ryd( 5p)     0.00006       4.27421
   144    N   10  py     Val( 2p)     1.62740      -0.23148
   145    N   10  py     Ryd( 3p)     0.00691       0.60232
   146    N   10  py     Ryd( 4p)     0.00029       0.72971
   147    N   10  py     Ryd( 5p)     0.00008       4.05614
   148    N   10  pz     Val( 2p)     1.16064      -0.19907
   149    N   10  pz     Ryd( 3p)     0.00053       0.51746
   150    N   10  pz     Ryd( 4p)     0.00006       0.67506
   151    N   10  pz     Ryd( 5p)     0.00003       3.74133
   152    N   10  dxy    Ryd( 3d)     0.00129       2.75167
   153    N   10  dxz    Ryd( 3d)     0.00027       2.17738
   154    N   10  dyz    Ryd( 3d)     0.00150       2.16530
   155    N   10  dx2y2  Ryd( 3d)     0.00137       2.74599
   156    N   10  dz2    Ryd( 3d)     0.00100       2.50457

 WARNING:  1 low occupancy (<1.9990e) core orbital  found on  C    2

 WARNING:  Population inversion found on atom  C    1
           Population inversion found on atom  C    2
           Population inversion found on atom  C    3
           Population inversion found on atom  C    4
           Population inversion found on atom  N   10


 Summary of Natural Population Analysis:                  
                                                          
                                       Natural Population 
                Natural  -----------------------------------------------
    Atom  No    Charge         Core      Valence    Rydberg      Total
 -----------------------------------------------------------------------
      C    1    0.27679      1.99929     3.68811    0.03581     5.72321
      C    2    0.03375      1.99898     3.94225    0.02502     5.96625
      C    3   -0.26315      1.99910     4.24932    0.01473     6.26315
      C    4    0.11064      1.99931     3.86069    0.02936     5.88936
      H    5    0.19444      0.00000     0.80429    0.00127     0.80556
      H    6    0.20322      0.00000     0.79531    0.00147     0.79678
      H    7    0.21134      0.00000     0.78699    0.00167     0.78866
      H    8    0.19150      0.00000     0.80695    0.00155     0.80850
      N    9   -0.48697      1.99940     5.46726    0.02030     7.48697
      N   10   -0.47158      1.99941     5.45254    0.01963     7.47158
 =======================================================================
   * Total *    0.00000     11.99549    29.85370    0.15081    42.00000

                                 Natural Population      
 --------------------------------------------------------
   Core                      11.99549 ( 99.9624% of  12)
   Valence                   29.85370 ( 99.5123% of  30)
   Natural Minimal Basis     41.84919 ( 99.6409% of  42)
   Natural Rydberg Basis      0.15081 (  0.3591% of  42)
 --------------------------------------------------------

    Atom  No          Natural Electron Configuration
 ----------------------------------------------------------------------------
      C    1      [core]2S( 0.93)2p( 2.76)3d( 0.01)4p( 0.02)
      C    2      [core]2S( 0.96)2p( 2.98)4p( 0.02)
      C    3      [core]2S( 1.01)2p( 3.24)4p( 0.01)
      C    4      [core]2S( 0.95)2p( 2.91)3d( 0.01)4p( 0.02)
      H    5            1S( 0.80)
      H    6            1S( 0.80)
      H    7            1S( 0.79)
      H    8            1S( 0.81)
      N    9      [core]2S( 1.41)2p( 4.05)3p( 0.01)3d( 0.01)
      N   10      [core]2S( 1.41)2p( 4.04)3p( 0.01)3d( 0.01)


 NBO analysis skipped by request.
 Calling FoFJK, ICntrl=      2127 FMM=F ISym2X=0 I1Cent= 0 IOpClX= 0 NMat=1 NMatS=1 NMatT=0.
 ***** Axes restored to original set *****
 -------------------------------------------------------------------
 Center     Atomic                   Forces (Hartrees/Bohr)
 Number     Number              X              Y              Z
 -------------------------------------------------------------------
      1        6           0.018081266    0.090877431   -0.000035608
      2        6          -0.059495133   -0.039929177   -0.000015651
      3        6          -0.055047612    0.004451921   -0.000036074
      4        6           0.075023745   -0.032022010    0.000062953
      5        1          -0.009841642   -0.003486946   -0.000004136
      6        1           0.007725136   -0.012269741    0.000011065
      7        1           0.002821032    0.010032144   -0.000003608
      8        1          -0.006812438    0.008815455   -0.000008804
      9        7          -0.007987921   -0.048388432    0.000019726
     10        7           0.035533568    0.021919355    0.000010138
 -------------------------------------------------------------------
 Cartesian Forces:  Max     0.090877431 RMS     0.030618073

 GradGradGradGradGradGradGradGradGradGradGradGradGradGradGradGradGradGrad
 Berny optimization.
 FormGI is forming the generalized inverse of G from B-inverse, IUseBI=4.
 Internal  Forces:  Max     0.064662127 RMS     0.018954515
 Search for a local minimum.
 Step number   1 out of a maximum of   50
 All quantities printed in internal units (Hartrees-Bohrs-Radians)
 Mixed Optimization -- RFO/linear search
 Second derivative matrix not updated -- first step.
 ITU=  0
     Eigenvalues ---    0.00968   0.01137   0.01572   0.01739   0.01811
     Eigenvalues ---    0.02323   0.02425   0.16000   0.16000   0.16000
     Eigenvalues ---    0.16000   0.22000   0.23186   0.23215   0.28713
     Eigenvalues ---    0.34168   0.35173   0.37230   0.37230   0.37230
     Eigenvalues ---    0.37230   0.53408   0.64476   0.67407
 RFO step:  Lambda=-4.17597534D-02 EMin= 9.67704421D-03
 Linear search not attempted -- first point.
 Maximum step size (   0.300) exceeded in Quadratic search.
    -- Step size scaled by   0.844
 Iteration  1 RMS(Cart)=  0.05259175 RMS(Int)=  0.00113305
 Iteration  2 RMS(Cart)=  0.00098691 RMS(Int)=  0.00021757
 Iteration  3 RMS(Cart)=  0.00000116 RMS(Int)=  0.00021757
 Iteration  4 RMS(Cart)=  0.00000000 RMS(Int)=  0.00021757
 Variable       Old X    -DE/DX   Delta X   Delta X   Delta X     New X
                                 (Linear)    (Quad)   (Total)
    R1        2.02201   0.00798   0.00000   0.01628   0.01628   2.03829
    R2        2.78979  -0.05667   0.00000  -0.12428  -0.12406   2.66573
    R3        2.45685  -0.01219   0.00000  -0.01586  -0.01553   2.44132
    R4        2.54923   0.00342   0.00000   0.00623   0.00603   2.55525
    R5        2.02201   0.00803   0.00000   0.01637   0.01637   2.03838
    R6        2.77864  -0.06466   0.00000  -0.13750  -0.13738   2.64126
    R7        2.89801  -0.05586   0.00000  -0.13873  -0.13906   2.75895
    R8        2.02201   0.01008   0.00000   0.02055   0.02055   2.04256
    R9        2.02201   0.01105   0.00000   0.02254   0.02254   2.04455
   R10        2.44443  -0.00679   0.00000  -0.00760  -0.00772   2.43671
    A1        2.08496  -0.02241   0.00000  -0.07435  -0.07458   2.01038
    A2        2.08496  -0.00881   0.00000  -0.01742  -0.01766   2.06730
    A3        2.11327   0.03122   0.00000   0.09177   0.09224   2.20551
    A4        2.10021   0.00769   0.00000   0.03614   0.03621   2.13642
    A5        2.08276   0.00903   0.00000   0.02987   0.02974   2.11251
    A6        2.10021  -0.01672   0.00000  -0.06601  -0.06595   2.03426
    A7        2.07213  -0.00763   0.00000  -0.01928  -0.01985   2.05228
    A8        2.10553   0.00650   0.00000   0.02088   0.02116   2.12669
    A9        2.10553   0.00113   0.00000  -0.00160  -0.00131   2.10422
   A10        2.10009  -0.00458   0.00000  -0.01472  -0.01449   2.08559
   A11        2.08301   0.01199   0.00000   0.04126   0.04080   2.12381
   A12        2.10009  -0.00741   0.00000  -0.02654  -0.02631   2.07378
   A13        2.10586  -0.02434   0.00000  -0.07592  -0.07586   2.03000
   A14        2.10934  -0.02026   0.00000  -0.06771  -0.06708   2.04226
    D1       -3.14159   0.00000   0.00000   0.00000   0.00000  -3.14159
    D2        0.00000   0.00000   0.00000   0.00000   0.00000   0.00000
    D3        3.14159   0.00000   0.00000   0.00000   0.00000   3.14159
    D4        0.00000   0.00000   0.00000   0.00000   0.00000   0.00000
    D5       -3.14159   0.00000   0.00000   0.00000   0.00000  -3.14159
    D6        0.00000   0.00000   0.00000   0.00000   0.00000   0.00000
    D7        0.00000   0.00000   0.00000   0.00000   0.00000   0.00000
    D8        3.14159   0.00000   0.00000   0.00000   0.00000   3.14159
    D9        0.00000   0.00000   0.00000   0.00000   0.00000   0.00000
   D10        3.14159   0.00000   0.00000   0.00000   0.00000   3.14159
   D11        3.14159   0.00000   0.00000   0.00000   0.00000   3.14159
   D12        0.00000   0.00000   0.00000   0.00000   0.00000   0.00000
   D13        0.00000   0.00000   0.00000   0.00000   0.00000   0.00000
   D14       -3.14159   0.00000   0.00000   0.00000   0.00000  -3.14159
   D15        0.00000   0.00000   0.00000   0.00000   0.00000   0.00000
   D16       -3.14159   0.00000   0.00000   0.00000   0.00000  -3.14159
         Item               Value     Threshold  Converged?
 Maximum Force            0.064662     0.000450     NO 
 RMS     Force            0.018955     0.000300     NO 
 Maximum Displacement     0.148410     0.001800     NO 
 RMS     Displacement     0.052911     0.001200     NO 
 Predicted change in Energy=-2.225934D-02
 GradGradGradGradGradGradGradGradGradGradGradGradGradGradGradGradGradGrad

                          Input orientation:                          
 ---------------------------------------------------------------------
 Center     Atomic      Atomic             Coordinates (Angstroms)
 Number     Number       Type             X           Y           Z
 ---------------------------------------------------------------------
      1          6           0       -1.934931    0.002267   -0.000398
      2          6           0        0.056801    1.140581    0.000241
      3          6           0       -0.595116    2.325232   -0.000772
      4          6           0       -2.054749    2.293708   -0.001653
      5          1           0       -2.499675   -0.916686   -0.000273
      6          1           0        1.133355    1.073161    0.000940
      7          1           0       -0.065734    3.267596   -0.000931
      8          1           0       -2.607656    3.223689   -0.002471
      9          7           0       -2.708193    1.182090   -0.001481
     10          7           0       -0.644964   -0.068169    0.000434
 ---------------------------------------------------------------------
                    Distance matrix (angstroms):
                    1          2          3          4          5
     1  C    0.000000
     2  C    2.294070   0.000000
     3  C    2.681655   1.352181   0.000000
     4  C    2.294572   2.405899   1.459974   0.000000
     5  H    1.078615   3.281451   3.759971   3.241079   0.000000
     6  H    3.249799   1.078663   2.134314   3.413759   4.142270
     7  H    3.762482   2.130541   1.080876   2.214642   4.840690
     8  H    3.290915   3.382111   2.203984   1.081929   4.141783
     9  N    1.410645   2.765306   2.402472   1.289451   2.109110
    10  N    1.291889   1.397695   2.393920   2.750630   2.039592
                    6          7          8          9         10
     6  H    0.000000
     7  H    2.500672   0.000000
     8  H    4.315083   2.542301   0.000000
     9  N    3.843093   3.366292   2.044073   0.000000
    10  N    2.113067   3.385681   3.832557   2.412482   0.000000
 Stoichiometry    C4H4N2
 Framework group  C1[X(C4H4N2)]
 Deg. of freedom    24
 Full point group                 C1      NOp   1
 Largest Abelian subgroup         C1      NOp   1
 Largest concise Abelian subgroup C1      NOp   1
                         Standard orientation:                         
 ---------------------------------------------------------------------
 Center     Atomic      Atomic             Coordinates (Angstroms)
 Number     Number       Type             X           Y           Z
 ---------------------------------------------------------------------
      1          6           0       -1.300498   -0.257186   -0.000001
      2          6           0        0.847709   -1.062148    0.000000
      3          6           0        1.342546    0.196236   -0.000001
      4          6           0        0.385741    1.298983    0.000000
      5          1           0       -2.368255   -0.409848   -0.000003
      6          1           0        1.483649   -1.933408    0.000001
      7          1           0        2.405719    0.391059    0.000000
      8          1           0        0.747919    2.318491    0.000002
      9          7           0       -0.886902    1.091464    0.000001
     10          7           0       -0.530529   -1.294551    0.000001
 ---------------------------------------------------------------------
 Rotational constants (GHZ):      6.2152393      5.9541675      3.0409515
 Standard basis: 6-311+G(d,p) (5D, 7F)
 There are   162 symmetry adapted cartesian basis functions of A   symmetry.
 There are   156 symmetry adapted basis functions of A   symmetry.
   156 basis functions,   248 primitive gaussians,   162 cartesian basis functions
    21 alpha electrons       21 beta electrons
       nuclear repulsion energy       207.4911016017 Hartrees.
 NAtoms=   10 NActive=   10 NUniq=   10 SFac= 1.00D+00 NAtFMM=   60 NAOKFM=F Big=F
 Integral buffers will be    131072 words long.
 Raffenetti 2 integral format.
 Two-electron integral symmetry is turned on.
 One-electron integrals computed using PRISM.
 NBasis=   156 RedAO= T EigKep=  3.28D-05  NBF=   156
 NBsUse=   156 1.00D-06 EigRej= -1.00D+00 NBFU=   156
 Initial guess from the checkpoint file:  "Chart2_1.chk"
 B after Tr=     0.000000    0.000000    0.000000
         Rot=    0.999372    0.000000    0.000000   -0.035448 Ang=  -4.06 deg.
 ExpMin= 4.38D-02 ExpMax= 6.29D+03 ExpMxC= 9.49D+02 IAcc=2 IRadAn=         4 AccDes= 0.00D+00
 Harris functional with IExCor=  402 and IRadAn=       4 diagonalized for initial guess.
 HarFok:  IExCor=  402 AccDes= 0.00D+00 IRadAn=         4 IDoV= 1 UseB2=F ITyADJ=14
 ICtDFT=  3500011 ScaDFX=  1.000000  1.000000  1.000000  1.000000
 FoFCou: FMM=F IPFlag=           0 FMFlag=      100000 FMFlg1=           0
         NFxFlg=           0 DoJE=T BraDBF=F KetDBF=T FulRan=T
         wScrn=  0.000000 ICntrl=     500 IOpCl=  0 I1Cent=   200000004 NGrid=           0
         NMat0=    1 NMatS0=      1 NMatT0=    0 NMatD0=    1 NMtDS0=    0 NMtDT0=    0
 Petite list used in FoFCou.
 Keep R1 ints in memory in canonical form, NReq=77255395.
 Requested convergence on RMS density matrix=1.00D-08 within 128 cycles.
 Requested convergence on MAX density matrix=1.00D-06.
 Requested convergence on             energy=1.00D-06.
 No special actions if energy rises.
 SCF Done:  E(RB3LYP) =  -264.385459090     A.U. after   12 cycles
            NFock= 12  Conv=0.29D-08     -V/T= 2.0044
 Calling FoFJK, ICntrl=      2127 FMM=F ISym2X=0 I1Cent= 0 IOpClX= 0 NMat=1 NMatS=1 NMatT=0.
 ***** Axes restored to original set *****
 -------------------------------------------------------------------
 Center     Atomic                   Forces (Hartrees/Bohr)
 Number     Number              X              Y              Z
 -------------------------------------------------------------------
      1        6          -0.026372159    0.035526458   -0.000034434
      2        6          -0.016756075   -0.032523895    0.000006641
      3        6          -0.032529493    0.014632641   -0.000027463
      4        6           0.046759821    0.011374097    0.000023041
      5        1          -0.003177326   -0.003033587   -0.000000320
      6        1           0.003342799   -0.002537501    0.000003349
      7        1           0.000318035    0.001820498   -0.000000848
      8        1          -0.002975208    0.002833142   -0.000003334
      9        7          -0.000891569   -0.045830293    0.000022882
     10        7           0.032281176    0.017738441    0.000010485
 -------------------------------------------------------------------
 Cartesian Forces:  Max     0.046759821 RMS     0.018618511

 GradGradGradGradGradGradGradGradGradGradGradGradGradGradGradGradGradGrad
 Berny optimization.
 Using GEDIIS/GDIIS optimizer.
 FormGI is forming the generalized inverse of G from B-inverse, IUseBI=4.
 Internal  Forces:  Max     0.031910056 RMS     0.009563935
 Search for a local minimum.
 Step number   2 out of a maximum of   50
 All quantities printed in internal units (Hartrees-Bohrs-Radians)
 Mixed Optimization -- RFO/linear search
 Update second derivatives using D2CorX and points    1    2
 DE= -2.50D-02 DEPred=-2.23D-02 R= 1.12D+00
 TightC=F SS=  1.41D+00  RLast= 3.00D-01 DXNew= 5.0454D-01 8.9997D-01
 Trust test= 1.12D+00 RLast= 3.00D-01 DXMaxT set to 5.05D-01
 ITU=  1  0
 Use linear search instead of GDIIS.
     Eigenvalues ---    0.00979   0.01137   0.01584   0.01777   0.01832
     Eigenvalues ---    0.02336   0.02422   0.15959   0.16000   0.16000
     Eigenvalues ---    0.16260   0.19823   0.22660   0.23191   0.26247
     Eigenvalues ---    0.30926   0.34727   0.37190   0.37230   0.37230
     Eigenvalues ---    0.37335   0.53505   0.64595   0.76748
 RFO step:  Lambda=-6.81364208D-03 EMin= 9.78911740D-03
 Quartic linear search produced a step of  0.47580.
 Iteration  1 RMS(Cart)=  0.03172934 RMS(Int)=  0.00033315
 Iteration  2 RMS(Cart)=  0.00025739 RMS(Int)=  0.00011035
 Iteration  3 RMS(Cart)=  0.00000010 RMS(Int)=  0.00011035
 Variable       Old X    -DE/DX   Delta X   Delta X   Delta X     New X
                                 (Linear)    (Quad)   (Total)
    R1        2.03829   0.00425   0.00775   0.00849   0.01624   2.05452
    R2        2.66573  -0.03191  -0.05903  -0.06922  -0.12810   2.53763
    R3        2.44132   0.01568  -0.00739   0.04018   0.03295   2.47427
    R4        2.55525   0.01369   0.00287   0.03305   0.03578   2.59103
    R5        2.03838   0.00349   0.00779   0.00552   0.01331   2.05169
    R6        2.64126  -0.02683  -0.06537  -0.04174  -0.10709   2.53417
    R7        2.75895  -0.02879  -0.06616  -0.06708  -0.13340   2.62555
    R8        2.04256   0.00174   0.00978  -0.00333   0.00645   2.04901
    R9        2.04455   0.00396   0.01073   0.00428   0.01501   2.05956
   R10        2.43671   0.02212  -0.00367   0.05071   0.04702   2.48373
    A1        2.01038  -0.00296  -0.03549   0.02521  -0.01040   1.99997
    A2        2.06730  -0.00067  -0.00840   0.00718  -0.00135   2.06595
    A3        2.20551   0.00363   0.04389  -0.03239   0.01175   2.21726
    A4        2.13642   0.00057   0.01723  -0.01488   0.00242   2.13883
    A5        2.11251   0.00360   0.01415   0.00301   0.01702   2.12952
    A6        2.03426  -0.00417  -0.03138   0.01187  -0.01943   2.01483
    A7        2.05228  -0.00388  -0.00944  -0.01220  -0.02196   2.03031
    A8        2.12669   0.00256   0.01007   0.00405   0.01427   2.14096
    A9        2.10422   0.00132  -0.00062   0.00816   0.00769   2.11191
   A10        2.08559  -0.00054  -0.00689   0.00495  -0.00185   2.08374
   A11        2.12381   0.00334   0.01941   0.00208   0.02131   2.14513
   A12        2.07378  -0.00280  -0.01252  -0.00703  -0.01946   2.05432
   A13        2.03000  -0.00440  -0.03609   0.02118  -0.01475   2.01525
   A14        2.04226  -0.00229  -0.03192   0.01834  -0.01336   2.02889
    D1       -3.14159   0.00000   0.00000   0.00000   0.00000  -3.14159
    D2        0.00000   0.00000   0.00000   0.00000   0.00000   0.00000
    D3        3.14159   0.00000   0.00000   0.00000   0.00000   3.14159
    D4        0.00000   0.00000   0.00000   0.00000   0.00000   0.00000
    D5       -3.14159   0.00000   0.00000   0.00000   0.00000  -3.14159
    D6        0.00000   0.00000   0.00000   0.00000   0.00000   0.00000
    D7        0.00000   0.00000   0.00000   0.00000   0.00000   0.00000
    D8        3.14159   0.00000   0.00000   0.00000   0.00000   3.14159
    D9        0.00000   0.00000   0.00000   0.00000   0.00000   0.00000
   D10        3.14159   0.00000   0.00000   0.00000   0.00000   3.14159
   D11        3.14159   0.00000   0.00000   0.00000   0.00000   3.14159
   D12        0.00000   0.00000   0.00000   0.00000   0.00000   0.00000
   D13        0.00000   0.00000   0.00000   0.00000   0.00000   0.00000
   D14       -3.14159   0.00000   0.00000   0.00000   0.00000  -3.14159
   D15        0.00000   0.00000   0.00000   0.00000   0.00000   0.00000
   D16       -3.14159   0.00000   0.00000   0.00000   0.00000  -3.14159
         Item               Value     Threshold  Converged?
 Maximum Force            0.031910     0.000450     NO 
 RMS     Force            0.009564     0.000300     NO 
 Maximum Displacement     0.082619     0.001800     NO 
 RMS     Displacement     0.031726     0.001200     NO 
 Predicted change in Energy=-7.835018D-03
 GradGradGradGradGradGradGradGradGradGradGradGradGradGradGradGradGradGrad

                          Input orientation:                          
 ---------------------------------------------------------------------
 Center     Atomic      Atomic             Coordinates (Angstroms)
 Number     Number       Type             X           Y           Z
 ---------------------------------------------------------------------
      1          6           0       -1.935632    0.033082   -0.000414
      2          6           0        0.031645    1.126478    0.000233
      3          6           0       -0.622646    2.331407   -0.000792
      4          6           0       -2.011029    2.278699   -0.001619
      5          1           0       -2.505442   -0.892842   -0.000288
      6          1           0        1.114649    1.049920    0.000940
      7          1           0       -0.099799    3.281308   -0.000958
      8          1           0       -2.581515    3.207333   -0.002447
      9          7           0       -2.682697    1.148949   -0.001448
     10          7           0       -0.628395   -0.040865    0.000429
 ---------------------------------------------------------------------
                    Distance matrix (angstroms):
                    1          2          3          4          5
     1  C    0.000000
     2  C    2.250710   0.000000
     3  C    2.646928   1.371113   0.000000
     4  C    2.246883   2.345237   1.389384   0.000000
     5  H    1.087207   3.242601   3.733725   3.209847   0.000000
     6  H    3.215303   1.085707   2.158797   3.358537   4.108453
     7  H    3.731119   2.158835   1.084288   2.158246   4.817743
     8  H    3.239296   3.340445   2.145791   1.089870   4.100881
     9  N    1.342857   2.714436   2.375293   1.314334   2.049471
    10  N    1.309327   1.341023   2.372279   2.700381   2.061351
                    6          7          8          9         10
     6  H    0.000000
     7  H    2.540468   0.000000
     8  H    4.279728   2.482819   0.000000
     9  N    3.798638   3.349376   2.060870   0.000000
    10  N    2.056214   3.363963   3.790182   2.373987   0.000000
 Stoichiometry    C4H4N2
 Framework group  C1[X(C4H4N2)]
 Deg. of freedom    24
 Full point group                 C1      NOp   1
 Largest Abelian subgroup         C1      NOp   1
 Largest concise Abelian subgroup C1      NOp   1
                         Standard orientation:                         
 ---------------------------------------------------------------------
 Center     Atomic      Atomic             Coordinates (Angstroms)
 Number     Number       Type             X           Y           Z
 ---------------------------------------------------------------------
      1          6           0       -1.300642   -0.047325    0.000000
      2          6           0        0.658906   -1.154515    0.000000
      3          6           0        1.345081    0.032546    0.000000
      4          6           0        0.575366    1.189233    0.000000
      5          1           0       -2.387845   -0.044662   -0.000002
      6          1           0        1.158953   -2.118212    0.000001
      7          1           0        2.428220    0.082456    0.000001
      8          1           0        1.069628    2.160584    0.000001
      9          7           0       -0.738860    1.172374    0.000000
     10          7           0       -0.681314   -1.200916    0.000000
 ---------------------------------------------------------------------
 Rotational constants (GHZ):      6.3603445      6.1861593      3.1360214
 Standard basis: 6-311+G(d,p) (5D, 7F)
 There are   162 symmetry adapted cartesian basis functions of A   symmetry.
 There are   156 symmetry adapted basis functions of A   symmetry.
   156 basis functions,   248 primitive gaussians,   162 cartesian basis functions
    21 alpha electrons       21 beta electrons
       nuclear repulsion energy       210.3314727646 Hartrees.
 NAtoms=   10 NActive=   10 NUniq=   10 SFac= 1.00D+00 NAtFMM=   60 NAOKFM=F Big=F
 Integral buffers will be    131072 words long.
 Raffenetti 2 integral format.
 Two-electron integral symmetry is turned on.
 One-electron integrals computed using PRISM.
 NBasis=   156 RedAO= T EigKep=  2.92D-05  NBF=   156
 NBsUse=   156 1.00D-06 EigRej= -1.00D+00 NBFU=   156
 Initial guess from the checkpoint file:  "Chart2_1.chk"
 B after Tr=     0.000000    0.000000    0.000000
         Rot=    0.997528    0.000000    0.000000    0.070270 Ang=   8.06 deg.
 ExpMin= 4.38D-02 ExpMax= 6.29D+03 ExpMxC= 9.49D+02 IAcc=2 IRadAn=         4 AccDes= 0.00D+00
 Harris functional with IExCor=  402 and IRadAn=       4 diagonalized for initial guess.
 HarFok:  IExCor=  402 AccDes= 0.00D+00 IRadAn=         4 IDoV= 1 UseB2=F ITyADJ=14
 ICtDFT=  3500011 ScaDFX=  1.000000  1.000000  1.000000  1.000000
 FoFCou: FMM=F IPFlag=           0 FMFlag=      100000 FMFlg1=           0
         NFxFlg=           0 DoJE=T BraDBF=F KetDBF=T FulRan=T
         wScrn=  0.000000 ICntrl=     500 IOpCl=  0 I1Cent=   200000004 NGrid=           0
         NMat0=    1 NMatS0=      1 NMatT0=    0 NMatD0=    1 NMtDS0=    0 NMtDT0=    0
 Petite list used in FoFCou.
 Keep R1 ints in memory in canonical form, NReq=77255395.
 Requested convergence on RMS density matrix=1.00D-08 within 128 cycles.
 Requested convergence on MAX density matrix=1.00D-06.
 Requested convergence on             energy=1.00D-06.
 No special actions if energy rises.
 SCF Done:  E(RB3LYP) =  -264.392632874     A.U. after   12 cycles
            NFock= 12  Conv=0.16D-08     -V/T= 2.0035
 Calling FoFJK, ICntrl=      2127 FMM=F ISym2X=0 I1Cent= 0 IOpClX= 0 NMat=1 NMatS=1 NMatT=0.
 ***** Axes restored to original set *****
 -------------------------------------------------------------------
 Center     Atomic                   Forces (Hartrees/Bohr)
 Number     Number              X              Y              Z
 -------------------------------------------------------------------
      1        6          -0.022426333   -0.001211997   -0.000013301
      2        6           0.009279997   -0.011129042    0.000011622
      3        6           0.001197540    0.010997563   -0.000004926
      4        6           0.000202509    0.019007257   -0.000009432
      5        1           0.002949600   -0.001444923    0.000002662
      6        1           0.000598658    0.001858095   -0.000000639
      7        1           0.000558063   -0.001344140    0.000000952
      8        1          -0.001421347   -0.002217901    0.000000192
      9        7          -0.006836157   -0.010777507    0.000001241
     10        7           0.015897470   -0.003737403    0.000011628
 -------------------------------------------------------------------
 Cartesian Forces:  Max     0.022426333 RMS     0.007419171

 GradGradGradGradGradGradGradGradGradGradGradGradGradGradGradGradGradGrad
 Berny optimization.
 Using GEDIIS/GDIIS optimizer.
 FormGI is forming the generalized inverse of G from B-inverse, IUseBI=4.
 Internal  Forces:  Max     0.018820220 RMS     0.004928492
 Search for a local minimum.
 Step number   3 out of a maximum of   50
 All quantities printed in internal units (Hartrees-Bohrs-Radians)
 Mixed Optimization -- RFO/linear search
 Update second derivatives using D2CorX and points    1    2    3
 DE= -7.17D-03 DEPred=-7.84D-03 R= 9.16D-01
 TightC=F SS=  1.41D+00  RLast= 2.32D-01 DXNew= 8.4853D-01 6.9622D-01
 Trust test= 9.16D-01 RLast= 2.32D-01 DXMaxT set to 6.96D-01
 ITU=  1  1  0
 Use linear search instead of GDIIS.
     Eigenvalues ---    0.00976   0.01138   0.01594   0.01789   0.01843
     Eigenvalues ---    0.02338   0.02420   0.15589   0.16000   0.16003
     Eigenvalues ---    0.16342   0.22065   0.23086   0.25660   0.26075
     Eigenvalues ---    0.30509   0.34626   0.37182   0.37230   0.37244
     Eigenvalues ---    0.37331   0.54105   0.64804   0.83824
 RFO step:  Lambda=-1.42221905D-03 EMin= 9.75746886D-03
 Quartic linear search produced a step of -0.01527.
 Iteration  1 RMS(Cart)=  0.00907135 RMS(Int)=  0.00005106
 Iteration  2 RMS(Cart)=  0.00005447 RMS(Int)=  0.00000346
 Iteration  3 RMS(Cart)=  0.00000000 RMS(Int)=  0.00000346
 Variable       Old X    -DE/DX   Delta X   Delta X   Delta X     New X
                                 (Linear)    (Quad)   (Total)
    R1        2.05452  -0.00032  -0.00025   0.00126   0.00102   2.05554
    R2        2.53763   0.00284   0.00196  -0.00760  -0.00564   2.53199
    R3        2.47427   0.01882  -0.00050   0.02539   0.02489   2.49916
    R4        2.59103   0.01370  -0.00055   0.02401   0.02347   2.61450
    R5        2.05169   0.00047  -0.00020   0.00317   0.00297   2.05466
    R6        2.53417   0.00361   0.00164  -0.00762  -0.00598   2.52818
    R7        2.62555   0.00866   0.00204   0.00935   0.01139   2.63695
    R8        2.04901  -0.00091  -0.00010   0.00005  -0.00005   2.04896
    R9        2.05956  -0.00115  -0.00023  -0.00017  -0.00040   2.05916
   R10        2.48373   0.01645  -0.00072   0.02245   0.02173   2.50546
    A1        1.99997   0.00402   0.00016   0.01252   0.01268   2.01266
    A2        2.06595  -0.00269   0.00002  -0.01941  -0.01939   2.04657
    A3        2.21726  -0.00133  -0.00018   0.00689   0.00670   2.22396
    A4        2.13883  -0.00184  -0.00004  -0.00567  -0.00571   2.13312
    A5        2.12952  -0.00021  -0.00026   0.00148   0.00123   2.13075
    A6        2.01483   0.00205   0.00030   0.00419   0.00448   2.01931
    A7        2.03031   0.00121   0.00034   0.00070   0.00104   2.03136
    A8        2.14096  -0.00177  -0.00022  -0.00569  -0.00591   2.13505
    A9        2.11191   0.00056  -0.00012   0.00499   0.00487   2.11678
   A10        2.08374   0.00357   0.00003   0.01737   0.01740   2.10114
   A11        2.14513  -0.00225  -0.00033  -0.00464  -0.00496   2.14017
   A12        2.05432  -0.00132   0.00030  -0.01273  -0.01244   2.04188
   A13        2.01525   0.00160   0.00023  -0.00086  -0.00065   2.01460
   A14        2.02889   0.00097   0.00020  -0.00357  -0.00337   2.02553
    D1       -3.14159   0.00000   0.00000  -0.00001  -0.00001   3.14159
    D2        0.00000   0.00000   0.00000   0.00000   0.00000   0.00000
    D3        3.14159   0.00000   0.00000   0.00000   0.00000  -3.14159
    D4        0.00000   0.00000   0.00000   0.00000   0.00000   0.00000
    D5       -3.14159   0.00000   0.00000   0.00000   0.00000   3.14159
    D6        0.00000   0.00000   0.00000   0.00000   0.00000   0.00000
    D7        0.00000   0.00000   0.00000   0.00000   0.00000   0.00000
    D8        3.14159   0.00000   0.00000   0.00000   0.00000  -3.14159
    D9        0.00000   0.00000   0.00000   0.00000   0.00000   0.00000
   D10        3.14159   0.00000   0.00000   0.00000   0.00000  -3.14159
   D11        3.14159   0.00000   0.00000   0.00000   0.00000  -3.14159
   D12        0.00000   0.00000   0.00000   0.00000   0.00000   0.00000
   D13        0.00000   0.00000   0.00000   0.00000   0.00000   0.00000
   D14       -3.14159   0.00000   0.00000  -0.00001  -0.00001   3.14159
   D15        0.00000   0.00000   0.00000   0.00000   0.00000   0.00000
   D16       -3.14159   0.00000   0.00000   0.00000   0.00000   3.14159
         Item               Value     Threshold  Converged?
 Maximum Force            0.018820     0.000450     NO 
 RMS     Force            0.004928     0.000300     NO 
 Maximum Displacement     0.030891     0.001800     NO 
 RMS     Displacement     0.009054     0.001200     NO 
 Predicted change in Energy=-7.127482D-04
 GradGradGradGradGradGradGradGradGradGradGradGradGradGradGradGradGradGrad

                          Input orientation:                          
 ---------------------------------------------------------------------
 Center     Atomic      Atomic             Coordinates (Angstroms)
 Number     Number       Type             X           Y           Z
 ---------------------------------------------------------------------
      1          6           0       -1.943290    0.036372   -0.000422
      2          6           0        0.036829    1.119069    0.000241
      3          6           0       -0.620199    2.336638   -0.000791
      4          6           0       -2.014791    2.288814   -0.001624
      5          1           0       -2.499771   -0.898249   -0.000281
      6          1           0        1.121632    1.045751    0.000945
      7          1           0       -0.089277    3.282020   -0.000953
      8          1           0       -2.597862    3.209349   -0.002459
      9          7           0       -2.690857    1.148305   -0.001455
     10          7           0       -0.623275   -0.044600    0.000434
 ---------------------------------------------------------------------
                    Distance matrix (angstroms):
                    1          2          3          4          5
     1  C    0.000000
     2  C    2.256790   0.000000
     3  C    2.653638   1.383532   0.000000
     4  C    2.253577   2.361663   1.395412   0.000000
     5  H    1.087744   3.240973   3.741295   3.223752   0.000000
     6  H    3.226855   1.087278   2.168033   3.373776   4.110194
     7  H    3.737859   2.166624   1.084262   2.166578   4.825466
     8  H    3.239792   3.363164   2.161661   1.089659   4.108770
     9  N    1.339870   2.727843   2.387417   1.325831   2.055456
    10  N    1.322497   1.337858   2.381241   2.716827   2.061541
                    6          7          8          9         10
     6  H    0.000000
     7  H    2.543069   0.000000
     8  H    4.302999   2.509638   0.000000
     9  N    3.813868   3.364663   2.063141   0.000000
    10  N    2.057563   3.369207   3.806204   2.387032   0.000000
 Stoichiometry    C4H4N2
 Framework group  C1[X(C4H4N2)]
 Deg. of freedom    24
 Full point group                 C1      NOp   1
 Largest Abelian subgroup         C1      NOp   1
 Largest concise Abelian subgroup C1      NOp   1
                         Standard orientation:                         
 ---------------------------------------------------------------------
 Center     Atomic      Atomic             Coordinates (Angstroms)
 Number     Number       Type             X           Y           Z
 ---------------------------------------------------------------------
      1          6           0       -1.299607   -0.088220   -0.000001
      2          6           0        0.697652   -1.138962    0.000000
      3          6           0        1.348573    0.081883    0.000000
      4          6           0        0.537333    1.217253    0.000001
      5          1           0       -2.386041   -0.141592    0.000002
      6          1           0        1.236614   -2.083257   -0.000002
      7          1           0        2.429834    0.162501   -0.000002
      8          1           0        0.981706    2.212185   -0.000001
      9          7           0       -0.786771    1.149621   -0.000001
     10          7           0       -0.636918   -1.232702    0.000000
 ---------------------------------------------------------------------
 Rotational constants (GHZ):      6.3295768      6.1111623      3.1092261
 Standard basis: 6-311+G(d,p) (5D, 7F)
 There are   162 symmetry adapted cartesian basis functions of A   symmetry.
 There are   156 symmetry adapted basis functions of A   symmetry.
   156 basis functions,   248 primitive gaussians,   162 cartesian basis functions
    21 alpha electrons       21 beta electrons
       nuclear repulsion energy       209.4712503409 Hartrees.
 NAtoms=   10 NActive=   10 NUniq=   10 SFac= 1.00D+00 NAtFMM=   60 NAOKFM=F Big=F
 Integral buffers will be    131072 words long.
 Raffenetti 2 integral format.
 Two-electron integral symmetry is turned on.
 One-electron integrals computed using PRISM.
 NBasis=   156 RedAO= T EigKep=  3.05D-05  NBF=   156
 NBsUse=   156 1.00D-06 EigRej= -1.00D+00 NBFU=   156
 Initial guess from the checkpoint file:  "Chart2_1.chk"
 B after Tr=     0.000000    0.000000    0.000000
         Rot=    0.999838    0.000000    0.000000   -0.017982 Ang=  -2.06 deg.
 ExpMin= 4.38D-02 ExpMax= 6.29D+03 ExpMxC= 9.49D+02 IAcc=2 IRadAn=         4 AccDes= 0.00D+00
 Harris functional with IExCor=  402 and IRadAn=       4 diagonalized for initial guess.
 HarFok:  IExCor=  402 AccDes= 0.00D+00 IRadAn=         4 IDoV= 1 UseB2=F ITyADJ=14
 ICtDFT=  3500011 ScaDFX=  1.000000  1.000000  1.000000  1.000000
 FoFCou: FMM=F IPFlag=           0 FMFlag=      100000 FMFlg1=           0
         NFxFlg=           0 DoJE=T BraDBF=F KetDBF=T FulRan=T
         wScrn=  0.000000 ICntrl=     500 IOpCl=  0 I1Cent=   200000004 NGrid=           0
         NMat0=    1 NMatS0=      1 NMatT0=    0 NMatD0=    1 NMtDS0=    0 NMtDT0=    0
 Petite list used in FoFCou.
 Keep R1 ints in memory in canonical form, NReq=77255395.
 Requested convergence on RMS density matrix=1.00D-08 within 128 cycles.
 Requested convergence on MAX density matrix=1.00D-06.
 Requested convergence on             energy=1.00D-06.
 No special actions if energy rises.
 SCF Done:  E(RB3LYP) =  -264.393596932     A.U. after   10 cycles
            NFock= 10  Conv=0.84D-08     -V/T= 2.0039
 Calling FoFJK, ICntrl=      2127 FMM=F ISym2X=0 I1Cent= 0 IOpClX= 0 NMat=1 NMatS=1 NMatT=0.
 ***** Axes restored to original set *****
 -------------------------------------------------------------------
 Center     Atomic                   Forces (Hartrees/Bohr)
 Number     Number              X              Y              Z
 -------------------------------------------------------------------
      1        6          -0.012396758   -0.003070555   -0.000005691
      2        6           0.004572770   -0.003226807    0.000004279
      3        6          -0.002121883    0.003741322   -0.000003122
      4        6           0.002788155    0.009927308   -0.000004000
      5        1           0.001873384   -0.000137749    0.000001033
      6        1          -0.000432976    0.001808502   -0.000001129
      7        1           0.000098940   -0.001174245    0.000000771
      8        1           0.000227734   -0.001762300    0.000001212
      9        7          -0.000570499   -0.004676957    0.000002262
     10        7           0.005961132   -0.001428518    0.000004386
 -------------------------------------------------------------------
 Cartesian Forces:  Max     0.012396758 RMS     0.003608156

 GradGradGradGradGradGradGradGradGradGradGradGradGradGradGradGradGradGrad
 Berny optimization.
 Using GEDIIS/GDIIS optimizer.
 FormGI is forming the generalized inverse of G from B-inverse, IUseBI=4.
 Internal  Forces:  Max     0.008152764 RMS     0.002178797
 Search for a local minimum.
 Step number   4 out of a maximum of   50
 All quantities printed in internal units (Hartrees-Bohrs-Radians)
 Mixed Optimization -- RFO/linear search
 Update second derivatives using D2CorX and points    1    2    3    4
 DE= -9.64D-04 DEPred=-7.13D-04 R= 1.35D+00
 TightC=F SS=  1.41D+00  RLast= 5.51D-02 DXNew= 1.1709D+00 1.6538D-01
 Trust test= 1.35D+00 RLast= 5.51D-02 DXMaxT set to 6.96D-01
 ITU=  1  1  1  0
 Use linear search instead of GDIIS.
     Eigenvalues ---    0.00965   0.01131   0.01593   0.01776   0.01843
     Eigenvalues ---    0.02333   0.02414   0.12714   0.16000   0.16002
     Eigenvalues ---    0.16321   0.22086   0.22580   0.24982   0.27578
     Eigenvalues ---    0.32699   0.35722   0.37198   0.37229   0.37287
     Eigenvalues ---    0.38419   0.53474   0.58173   0.65175
 RFO step:  Lambda=-3.14097026D-04 EMin= 9.65112279D-03
 Quartic linear search produced a step of  0.61539.
 Iteration  1 RMS(Cart)=  0.00719090 RMS(Int)=  0.00005408
 Iteration  2 RMS(Cart)=  0.00006146 RMS(Int)=  0.00000438
 Iteration  3 RMS(Cart)=  0.00000000 RMS(Int)=  0.00000438
 Variable       Old X    -DE/DX   Delta X   Delta X   Delta X     New X
                                 (Linear)    (Quad)   (Total)
    R1        2.05554  -0.00084   0.00062  -0.00245  -0.00182   2.05372
    R2        2.53199   0.00072  -0.00347  -0.00574  -0.00922   2.52277
    R3        2.49916   0.00815   0.01532   0.00817   0.02348   2.52263
    R4        2.61450   0.00409   0.01444   0.00230   0.01674   2.63124
    R5        2.05466  -0.00055   0.00183  -0.00194  -0.00011   2.05454
    R6        2.52818   0.00304  -0.00368   0.00213  -0.00155   2.52664
    R7        2.63695  -0.00018   0.00701  -0.02040  -0.01339   2.62356
    R8        2.04896  -0.00098  -0.00003  -0.00210  -0.00213   2.04682
    R9        2.05916  -0.00161  -0.00025  -0.00458  -0.00483   2.05433
   R10        2.50546   0.00757   0.01337   0.00793   0.02130   2.52676
    A1        2.01266   0.00317   0.00780   0.01407   0.02188   2.03454
    A2        2.04657  -0.00029  -0.01193  -0.00335  -0.01527   2.03129
    A3        2.22396  -0.00288   0.00412  -0.01073  -0.00661   2.21735
    A4        2.13312  -0.00192  -0.00351  -0.01219  -0.01570   2.11742
[...]
 Thermal correction to Enthalpy=                  0.081847
 Thermal correction to Gibbs Free Energy=         0.049342
 Sum of electronic and zero-point Energies=           -264.317197
 Sum of electronic and thermal Energies=              -264.313001
 Sum of electronic and thermal Enthalpies=            -264.312056
 Sum of electronic and thermal Free Energies=         -264.344561
 
                     E (Thermal)             CV                S
                      KCal/Mol        Cal/Mol-Kelvin    Cal/Mol-Kelvin
 Total                   50.767             15.224             68.412
 Electronic               0.000              0.000              0.000
 Translational            0.889              2.981             39.054
 Rotational               0.889              2.981             25.408
 Vibrational             48.990              9.262              3.950
 Vibration     1          0.726              1.577              1.171
 Vibration     2          0.772              1.455              0.937
                       Q            Log10(Q)             Ln(Q)
 Total Bot       0.201459D-22        -22.695814        -52.259044
 Total V=0       0.385898D+13         12.586472         28.981423
 Vib (Bot)       0.898300D-35        -35.046579        -80.697730
 Vib (Bot)    1  0.529093D+00         -0.276468         -0.636592
 Vib (Bot)    2  0.435700D+00         -0.360812         -0.830801
 Vib (V=0)       0.172071D+01          0.235708          0.542737
 Vib (V=0)    1  0.122797D+01          0.089187          0.205362
 Vib (V=0)    2  0.116320D+01          0.065654          0.151175
 Electronic      0.100000D+01          0.000000          0.000000
 Translational   0.281446D+08          7.449395         17.152866
 Rotational      0.796837D+05          4.901369         11.285820
 ***** Axes restored to original set *****
 -------------------------------------------------------------------
 Center     Atomic                   Forces (Hartrees/Bohr)
 Number     Number              X              Y              Z
 -------------------------------------------------------------------
      1        6          -0.000070323    0.000062389   -0.000008664
      2        6          -0.000031833    0.000028022    0.000000885
      3        6          -0.000035358   -0.000017011   -0.000001241
      4        6          -0.000017950   -0.000083548    0.000007560
      5        1           0.000003326    0.000009824    0.000003475
      6        1           0.000005921    0.000018797   -0.000000721
      7        1           0.000022416   -0.000005931   -0.000000840
      8        1           0.000007228   -0.000003187   -0.000002189
      9        7           0.000120186   -0.000003524   -0.000001034
     10        7          -0.000003614   -0.000005832    0.000002769
 -------------------------------------------------------------------
 Cartesian Forces:  Max     0.000120186 RMS     0.000034273
 FormGI is forming the generalized inverse of G from B-inverse, IUseBI=4.

 GradGradGradGradGradGradGradGradGradGradGradGradGradGradGradGradGradGrad
 Berny optimization.
 Internal  Forces:  Max     0.000097139 RMS     0.000024851
 Search for a local minimum.
 Step number   1 out of a maximum of    2
 All quantities printed in internal units (Hartrees-Bohrs-Radians)
 Second derivative matrix not updated -- analytic derivatives used.
 ITU=  0
     Eigenvalues ---    0.01473   0.02200   0.02319   0.03153   0.03763
     Eigenvalues ---    0.04019   0.06016   0.10612   0.12321   0.13307
     Eigenvalues ---    0.13555   0.21377   0.22489   0.24681   0.26325
     Eigenvalues ---    0.34882   0.35022   0.35232   0.36048   0.42855
     Eigenvalues ---    0.45279   0.49859   0.51560   0.57269
 Angle between quadratic step and forces=  37.41 degrees.
 Linear search not attempted -- first point.
 Iteration  1 RMS(Cart)=  0.00010182 RMS(Int)=  0.00000001
 Iteration  2 RMS(Cart)=  0.00000001 RMS(Int)=  0.00000000
 Variable       Old X    -DE/DX   Delta X   Delta X   Delta X     New X
                                 (Linear)    (Quad)   (Total)
    R1        2.05213  -0.00001   0.00000  -0.00003  -0.00003   2.05211
    R2        2.52333  -0.00010   0.00000  -0.00022  -0.00022   2.52311
    R3        2.52307   0.00000   0.00000   0.00004   0.00004   2.52311
    R4        2.62883  -0.00005   0.00000  -0.00007  -0.00007   2.62875
    R5        2.05316   0.00000   0.00000   0.00002   0.00002   2.05318
    R6        2.52516   0.00001   0.00000   0.00001   0.00001   2.52517
    R7        2.62884  -0.00004   0.00000  -0.00008  -0.00008   2.62875
    R8        2.04643   0.00001   0.00000   0.00002   0.00002   2.04645
    R9        2.05319  -0.00001   0.00000  -0.00001  -0.00001   2.05318
   R10        2.52535  -0.00008   0.00000  -0.00018  -0.00018   2.52517
    A1        2.03319   0.00000   0.00000   0.00006   0.00006   2.03324
    A2        2.03324   0.00001   0.00000   0.00000   0.00000   2.03324
    A3        2.21675  -0.00001   0.00000  -0.00006  -0.00006   2.21670
    A4        2.11636  -0.00002   0.00000  -0.00017  -0.00017   2.11619
    A5        2.13313   0.00000   0.00000   0.00006   0.00006   2.13319
    A6        2.03369   0.00002   0.00000   0.00011   0.00011   2.03381
    A7        2.03432  -0.00001   0.00000  -0.00004  -0.00004   2.03428
    A8        2.12465  -0.00002   0.00000  -0.00020  -0.00020   2.12445
    A9        2.12421   0.00003   0.00000   0.00024   0.00024   2.12445
   A10        2.11622  -0.00001   0.00000  -0.00003  -0.00003   2.11619
   A11        2.13322   0.00001   0.00000  -0.00003  -0.00003   2.13319
   A12        2.03375   0.00000   0.00000   0.00006   0.00006   2.03381
   A13        2.02436   0.00003   0.00000   0.00015   0.00015   2.02451
   A14        2.02459  -0.00002   0.00000  -0.00008  -0.00008   2.02451
    D1       -3.14152   0.00000   0.00000  -0.00007  -0.00007   3.14159
    D2       -0.00001   0.00000   0.00000   0.00001   0.00001   0.00000
    D3        3.14155   0.00000   0.00000   0.00004   0.00004  -3.14159
    D4        0.00004   0.00000   0.00000  -0.00004  -0.00004   0.00000
    D5       -3.14159   0.00000   0.00000   0.00000   0.00000  -3.14159
    D6        0.00000   0.00000   0.00000   0.00000   0.00000   0.00000
    D7       -0.00001   0.00000   0.00000   0.00001   0.00001   0.00000
    D8        3.14158   0.00000   0.00000   0.00001   0.00001  -3.14159
    D9       -0.00003   0.00000   0.00000   0.00003   0.00003   0.00000
   D10        3.14155   0.00000   0.00000   0.00004   0.00004  -3.14159
   D11        3.14156   0.00000   0.00000   0.00003   0.00003   3.14159
   D12        0.00004   0.00000   0.00000  -0.00004  -0.00004   0.00000
   D13       -0.00002   0.00000   0.00000   0.00002   0.00002   0.00000
   D14       -3.14155   0.00000   0.00000  -0.00005  -0.00005   3.14159
   D15       -0.00004   0.00000   0.00000   0.00004   0.00004   0.00000
   D16       -3.14156   0.00000   0.00000  -0.00003  -0.00003   3.14159
         Item               Value     Threshold  Converged?
 Maximum Force            0.000097     0.000450     YES
 RMS     Force            0.000025     0.000300     YES
 Maximum Displacement     0.000373     0.001800     YES
 RMS     Displacement     0.000102     0.001200     YES
 Predicted change in Energy=-3.398994D-08
 Optimization completed.
    -- Stationary point found.
                           ----------------------------
                           !   Optimized Parameters   !
                           ! (Angstroms and Degrees)  !
 --------------------------                            --------------------------
 ! Name  Definition              Value          Derivative Info.                !
 --------------------------------------------------------------------------------
 ! R1    R(1,5)                  1.0859         -DE/DX =    0.0                 !
 ! R2    R(1,9)                  1.3353         -DE/DX =   -0.0001              !
 ! R3    R(1,10)                 1.3352         -DE/DX =    0.0                 !
 ! R4    R(2,3)                  1.3911         -DE/DX =   -0.0001              !
 ! R5    R(2,6)                  1.0865         -DE/DX =    0.0                 !
 ! R6    R(2,10)                 1.3363         -DE/DX =    0.0                 !
 ! R7    R(3,4)                  1.3911         -DE/DX =    0.0                 !
 ! R8    R(3,7)                  1.0829         -DE/DX =    0.0                 !
 ! R9    R(4,8)                  1.0865         -DE/DX =    0.0                 !
 ! R10   R(4,9)                  1.3364         -DE/DX =   -0.0001              !
 ! A1    A(5,1,9)              116.493          -DE/DX =    0.0                 !
 ! A2    A(5,1,10)             116.4963         -DE/DX =    0.0                 !
 ! A3    A(9,1,10)             127.0106         -DE/DX =    0.0                 !
 ! A4    A(3,2,6)              121.2587         -DE/DX =    0.0                 !
 ! A5    A(3,2,10)             122.2193         -DE/DX =    0.0                 !
 ! A6    A(6,2,10)             116.522          -DE/DX =    0.0                 !
 ! A7    A(2,3,4)              116.5579         -DE/DX =    0.0                 !
 ! A8    A(2,3,7)              121.7337         -DE/DX =    0.0                 !
 ! A9    A(4,3,7)              121.7085         -DE/DX =    0.0                 !
 ! A10   A(3,4,8)              121.2504         -DE/DX =    0.0                 !
 ! A11   A(3,4,9)              122.2245         -DE/DX =    0.0                 !
 ! A12   A(8,4,9)              116.5251         -DE/DX =    0.0                 !
 ! A13   A(1,9,4)              115.9874         -DE/DX =    0.0                 !
 ! A14   A(1,10,2)             116.0003         -DE/DX =    0.0                 !
 ! D1    D(5,1,9,4)            180.0042         -DE/DX =    0.0                 !
 ! D2    D(10,1,9,4)            -0.0003         -DE/DX =    0.0                 !
 ! D3    D(5,1,10,2)          -180.0023         -DE/DX =    0.0                 !
 ! D4    D(9,1,10,2)             0.0022         -DE/DX =    0.0                 !
 ! D5    D(6,2,3,4)           -179.9998         -DE/DX =    0.0                 !
 ! D6    D(6,2,3,7)             -0.0001         -DE/DX =    0.0                 !
 ! D7    D(10,2,3,4)            -0.0003         -DE/DX =    0.0                 !
 ! D8    D(10,2,3,7)          -180.0006         -DE/DX =    0.0                 !
 ! D9    D(3,2,10,1)            -0.0018         -DE/DX =    0.0                 !
 ! D10   D(6,2,10,1)          -180.0023         -DE/DX =    0.0                 !
 ! D11   D(2,3,4,8)            179.9983         -DE/DX =    0.0                 !
 ! D12   D(2,3,4,9)              0.0024         -DE/DX =    0.0                 !
 ! D13   D(7,3,4,8)             -0.0014         -DE/DX =    0.0                 !
 ! D14   D(7,3,4,9)            180.0027         -DE/DX =    0.0                 !
 ! D15   D(3,4,9,1)             -0.0021         -DE/DX =    0.0                 !
 ! D16   D(8,4,9,1)            180.0017         -DE/DX =    0.0                 !
 --------------------------------------------------------------------------------
 GradGradGradGradGradGradGradGradGradGradGradGradGradGradGradGradGradGrad

 1\1\GINC-COREV2-25-KNC-001\Freq\RB3LYP\6-311+G(d,p)\C4H4N2\ROOT\01-Nov
 -2021\0\\#N Geom=AllCheck Guess=TCheck SCRF=Check GenChk RB3LYP/6-311+
 G(d,p) Freq\\Title Card Required\\0,1\C,-1.9542551523,0.0337752389,-0.
 0004017568\C,0.0370348195,1.1141484064,0.000238398\C,-0.621358119,2.33
 95943278,-0.000801549\C,-2.0118733572,2.2985708178,-0.0016492324\H,-2.
 4977024436,-0.906403255,-0.0002925481\H,1.1220203883,1.057078074,0.000
 9486289\H,-0.0795914078,3.2772576922,-0.0009394599\H,-2.6026735421,3.2
 104044985,-0.0024593278\N,-2.6908220699,1.1475373252,-0.0014363102\N,-
 0.6216397859,-0.0484936458,0.0004291574\\Version=ES64L-G09RevD.01\Stat
 e=1-A\HF=-264.3939035\RMSD=2.721e-09\RMSF=3.427e-05\ZeroPoint=0.076706
 1\Thermal=0.080903\Dipole=0.4856539,0.8398391,-0.0001339\DipoleDeriv=0
 .5019904,0.0776047,0.0001986,0.0776426,0.5913898,-0.0001954,0.0002118,
 -0.0001754,0.1124915,0.4645733,0.0589222,0.0002367,-0.1641151,0.425250
 7,-0.0003038,0.0003576,-0.0001671,0.0359177,-0.3837436,0.231884,-0.000
 3078,0.2318926,-0.1166072,0.0001689,-0.0003098,0.0001648,-0.076545,0.4
 804132,-0.1549244,0.0003555,0.0680794,0.4092097,-0.0001564,0.0002279,-
 0.0002789,0.0358601,0.0280957,-0.0632987,-0.000006,-0.0633275,-0.04482
 71,0.0000343,-0.0000162,0.0000161,0.0939115,-0.0920766,-0.025653,-0.00
 0103,0.000696,0.0752925,0.0000101,-0.0001201,-0.0000048,0.0958576,0.04
 44753,-0.0687181,-0.0000253,-0.0687799,-0.0347841,0.0000491,-0.0000297
 ,0.0000484,0.142871,0.0444124,0.0792379,-0.0000744,0.0529701,-0.061209
 6,0.0001153,-0.0000496,0.0001183,0.0958733,-0.5052084,0.0251241,-0.000
 1586,-0.1155126,-0.6605666,0.0001272,-0.0000892,0.0002189,-0.2681277,-
 0.5829317,-0.1601787,-0.0001157,-0.0195457,-0.5831481,0.0001507,-0.000
 1827,0.0000596,-0.26811\Polar=65.9042279,1.1685166,67.249805,0.0189424
 ,-0.0167236,33.9284253\PG=C01 [X(C4H4N2)]\NImag=0\\0.66601825,0.078488
 51,0.75602462,0.00025686,-0.00023932,0.18171432,-0.05817945,-0.0427376
 7,-0.00001711,0.77031781,-0.10310882,0.03416351,-0.00007779,-0.0089081
 0,0.64961803,0.00001490,-0.00004033,0.00501982,0.00038360,-0.00025792,
 0.16091569,-0.06473806,0.03725016,-0.00005036,-0.19123482,0.05028026,-
 0.00010274,0.67996622,0.03726356,-0.02181870,0.00002726,0.11900447,-0.
 27782727,0.00018241,0.04920927,0.73681502,-0.00005138,0.00002773,-0.01
 281315,-0.00013840,0.00013993,-0.06778605,0.00032343,-0.00028541,0.121
 46903,0.07425779,-0.02683814,0.00005585,-0.02250343,0.08766639,-0.0000
 6408,-0.32945503,-0.02934813,-0.00014951,0.68731562,0.03351838,-0.0982
 3044,0.00007448,0.03813482,0.04993774,0.00000262,0.03940012,-0.1395871
 4,0.00006027,-0.05674477,0.73234835,0.00002520,0.00003748,0.00501834,-
 0.00003781,0.00003123,0.00776393,-0.00018369,0.00001892,-0.06778956,0.
 00034826,-0.00033156,0.16093888,-0.11870851,-0.12084203,0.00001394,-0.
 00489062,0.00050025,-0.00000953,-0.00004939,0.00019110,0.00000056,-0.0
 0007163,0.00416678,-0.00000869,0.14063688,-0.12084294,-0.25793104,0.00
 002657,0.00138938,0.00261817,0.00000435,0.00019134,0.00017149,-0.00000
 052,0.00328077,-0.00220504,0.00000797,0.12335464,0.28273762,0.00001281
 ,0.00002347,-0.04690770,-0.00000946,0.00000429,0.01023121,0.00000085,-
 0.00000071,-0.00109625,-0.00000854,0.00000882,0.01022921,0.00001055,-0
 .00004682,0.02754017,0.00219282,-0.00245559,-0.00000499,-0.32576889,0.
 02624673,-0.00018931,-0.00946003,-0.00160682,-0.00001070,0.00070213,0.
 00319673,-0.00000670,-0.00056036,0.00009993,-0.00000049,0.34994050,-0.
 00362723,-0.00388688,0.00000575,0.02755076,-0.05912053,0.00002413,0.02
 733560,0.00401770,0.00001972,0.00227998,-0.00555531,0.00000878,-0.0011
 3260,0.00005207,-0.00000053,-0.01614487,0.06522697,-0.00000439,0.00000
 685,0.01180953,-0.00019027,0.00002280,-0.04521779,-0.00002601,0.000001
 92,0.00903296,-0.00000561,0.00000968,0.00875313,0.00000011,0.00000012,
 0.00019920,0.00021057,-0.00002990,0.02688446,-0.00205210,0.00181227,-0
 .00000208,0.01311222,0.01372779,0.00000081,-0.12984012,-0.12186172,0.0
 0000291,-0.00671754,-0.02944974,0.00001077,0.00023854,-0.00019559,0.00
 000176,0.00042555,-0.00063915,0.00000254,0.13066569,0.00181251,0.00003
 666,0.00000093,-0.01802294,-0.01574754,-0.00000279,-0.12187440,-0.2703
 4686,0.00004345,0.00231416,0.00405743,-0.00000033,-0.00019575,0.000013
 11,-0.00000134,0.00037557,0.00059741,-0.00000163,0.13202332,0.28285097
 ,-0.00000228,0.00000106,-0.00026374,0.00001721,0.00001674,0.00048130,0
 .00000283,0.00004334,-0.03569603,-0.00000557,-0.00002029,0.00048865,0.
 00000174,-0.00000127,-0.00238029,0.00000200,-0.00000229,-0.00307409,-0
 .00000133,-0.00004885,0.02530694,0.00025544,-0.00474150,-0.00000433,-0
 .00636637,-0.00179004,-0.00000835,-0.01046923,0.02676012,-0.00002522,-
 0.14875127,0.12943463,-0.00012754,0.00034660,-0.00061116,0.00000041,-0
 .00057174,0.00149714,-0.00000044,0.00066886,-0.00049788,0.00000249,0.1
 5006292,-0.00357446,-0.00195238,0.00000489,-0.00087227,0.00151245,0.00
 000311,-0.00218744,0.00501933,0.00000057,0.12814126,-0.23611561,0.0001
 7305,0.00062260,-0.00085493,0.00000094,-0.00024982,0.00014635,-0.00000
 083,0.00051485,0.00035631,-0.00000138,-0.13120453,0.26507497,-0.000004
 47,0.00000440,0.01180885,-0.00000916,0.00000263,0.00875260,-0.00001130
 ,0.00001880,0.00903356,-0.00012578,0.00017194,-0.04521859,-0.00000031,
 0.00000024,0.00019893,0.00000046,0.00000027,-0.00115865,0.00000213,-0.
 00000206,-0.00307510,0.00013993,-0.00019933,0.02688920,-0.18175407,0.0
 9915601,-0.00011490,0.00653873,0.01059549,0.00000652,-0.02411648,-0.04
 087948,-0.00000691,-0.18539770,-0.10819350,-0.00001334,0.00991296,-0.0
 0678361,0.00000855,0.00007543,-0.00079327,0.00000360,-0.00658738,0.000
 72292,-0.00000987,0.01454165,0.00821363,0.00000574,0.41813614,0.058776
 65,-0.27080518,0.00013488,-0.00975533,-0.09405594,0.00003534,-0.098332
 98,0.03354279,-0.00006484,-0.07762867,-0.28649390,0.00007164,0.0212915
 9,-0.03067938,0.00003083,0.00047682,0.00016921,-0.00000305,-0.00050103
 ,0.00242784,0.00000300,-0.01817254,-0.03314943,0.00000633,0.00168873,0
 .63914429,-0.00009569,0.00016192,-0.07770659,0.00001677,0.00004963,-0.
 01287893,0.00002241,-0.00003056,0.02282153,-0.00002768,0.00005375,-0.0
 6730332,-0.00000525,0.00001182,0.00099387,0.00000303,-0.00000324,-0.00
 508475,-0.00000944,0.00000376,0.00910527,0.00001949,0.00002126,-0.0021
 4636,0.00019597,-0.00029026,0.09042128,-0.31729213,-0.01909203,-0.0001
 3288,-0.18102519,-0.07520995,-0.00003182,0.07939694,-0.03873238,0.0000
 5522,-0.06937893,-0.05346344,-0.00000647,-0.02685449,0.00011725,-0.000
 01645,-0.01697542,-0.03632636,0.00000990,0.00008628,0.00334249,-0.0000
 0724,0.00028314,0.00059616,0.00000274,-0.05134929,0.12215676,-0.000119
 62,0.58310909,0.02129383,-0.13560016,0.00004236,-0.10578311,-0.2910986
 3,0.00004908,0.01872806,-0.06998635,0.00005909,-0.03312286,-0.01815606
 ,-0.00001718,-0.02795656,0.00607795,-0.00001895,-0.00993869,-0.0016469
 8,-0.00000595,0.00456900,-0.00424534,0.00000996,-0.00067424,-0.0000370
 6,-0.00000322,0.03627308,0.03989970,0.00002193,0.09661149,0.47479294,-
 0.00015157,0.00001674,-0.07767969,-0.00001537,0.00006848,-0.06728178,0
 .00002458,0.00002402,0.02282396,-0.00001735,-0.00002971,-0.01288068,-0
 .00000314,-0.00000245,0.00099164,-0.00000388,-0.00002269,-0.00214399,-
 0.00000807,0.00000886,0.00910709,0.00000355,-0.00000228,-0.00508445,-0
 .00007536,0.00007613,0.04177799,0.00024661,-0.00013711,0.09036992\\0.0
 0007032,-0.00006239,0.00000866,0.00003183,-0.00002802,-0.00000088,0.00
 003536,0.00001701,0.00000124,0.00001795,0.00008355,-0.00000756,-0.0000
 0333,-0.00000982,-0.00000348,-0.00000592,-0.00001880,0.00000072,-0.000
 02242,0.00000593,0.00000084,-0.00000723,0.00000319,0.00000219,-0.00012
 019,0.00000352,0.00000103,0.00000361,0.00000583,-0.00000277\\\@


          EVOLUTION
 IN THE BEGINNING GOD MADE MAN.
 HE WORKED THE DIRT WITH HIS HANDS.
 THEN GOD DECIDED TO GIVE MAN SCIENCE,
 MAN SHOULD BE USEFUL (LIKE AN APPLIANCE.)
 BUT SOON MAN'S KNOWLEDGE GREW TOO GREAT,
 TO THE HEADING SCIENCE HE COULDN'T RELATE
 SO GOD SAID "LETS HAVE DIFFERENT FIELDS,
 WE'LL DIVIDE THEM UP, SEE WHAT IT YIELDS."
 ENTER PHYSICS, CHEMISTRY, BIO
 THEY SPRANG UP AROUND THE NILE.
 BUT CHEMISTRY SURPASSED THE REST
 FAR AND AWAY IT WAS THE BEST.
 EXPERIMENT WAS GOD'S DECREE
 EXPERIMENT DID CHEMISTS WITH LOTS OF GLEE
 BUT SOON THEIR TESTS BEGAN TO BOG,
 THEY FOUND THEMSELVES DEEP IN A FOG.
 "GIVE US SOME HELP" THEY CRIED TO GOD.
 GOD LOOKED AROUND, THEN GAVE THE NOD.
 ENTER EINSTEIN, HEISENBERG, BOHR,
 REACTION PATHS WERE CLEAR ONCE MORE.
 WITH THEORISTS GOD SEND DIRECTION
 AND THEN HE STOPPED, HE'D MADE PERFECTION.
          -- THOMAS A. HOLME, 1981
 Job cpu time:       0 days  0 hours  6 minutes 17.1 seconds.
 File lengths (MBytes):  RWF=     70 Int=      0 D2E=      0 Chk=      3 Scr=      1
 Normal termination of Gaussian 09 at Mon Nov  1 16:51:41 2021.
