 Entering Gaussian System, Link 0=g09
 Initial command:
 /cm/shared/apps/gaussian/g09revD.01/g09/l1.exe "//home/sweav003/HartwigDocs/IrCatHeteroarenes/G09-Chart2_2.com.o9624832.tmp/Gau-51634.inp" -scrdir="//home/sweav003/HartwigDocs/IrCatHeteroarenes/G09-Chart2_2.com.o9624832.tmp/"
 Entering Link 1 = /cm/shared/apps/gaussian/g09revD.01/g09/l1.exe PID=     51635.
  
 Copyright (c) 1988,1990,1992,1993,1995,1998,2003,2009,2013,
            Gaussian, Inc.  All Rights Reserved.
  
 This is part of the Gaussian(R) 09 program.  It is based on
 the Gaussian(R) 03 system (copyright 2003, Gaussian, Inc.),
 the Gaussian(R) 98 system (copyright 1998, Gaussian, Inc.),
 the Gaussian(R) 94 system (copyright 1995, Gaussian, Inc.),
 the Gaussian 92(TM) system (copyright 1992, Gaussian, Inc.),
 the Gaussian 90(TM) system (copyright 1990, Gaussian, Inc.),
 the Gaussian 88(TM) system (copyright 1988, Gaussian, Inc.),
 the Gaussian 86(TM) system (copyright 1986, Carnegie Mellon
 University), and the Gaussian 82(TM) system (copyright 1983,
 Carnegie Mellon University). Gaussian is a federally registered
 trademark of Gaussian, Inc.
  
 This software contains proprietary and confidential information,
 including trade secrets, belonging to Gaussian, Inc.
  
 This software is provided under written license and may be
 used, copied, transmitted, or stored only in accord with that
 written license.
  
 The following legend is applicable only to US Government
 contracts under FAR:
  
                    RESTRICTED RIGHTS LEGEND
  
 Use, reproduction and disclosure by the US Government is
 subject to restrictions as set forth in subparagraphs (a)
 and (c) of the Commercial Computer Software - Restricted
 Rights clause in FAR 52.227-19.
  
 Gaussian, Inc.
 340 Quinnipiac St., Bldg. 40, Wallingford CT 06492
  
  
 ---------------------------------------------------------------
 Warning -- This program may not be used in any manner that
 competes with the business of Gaussian, Inc. or will provide
 assistance to any competitor of Gaussian, Inc.  The licensee
 of this program is prohibited from giving any competitor of
 Gaussian, Inc. access to this program.  By using this program,
 the user acknowledges that Gaussian, Inc. is engaged in the
 business of creating and licensing software in the field of
 computational chemistry and represents and warrants to the
 licensee that it is not a competitor of Gaussian, Inc. and that
 it will not use this program in any manner prohibited above.
 ---------------------------------------------------------------
  

 Cite this work as:
 Gaussian 09, Revision D.01,
 M. J. Frisch, G. W. Trucks, H. B. Schlegel, G. E. Scuseria, 
 M. A. Robb, J. R. Cheeseman, G. Scalmani, V. Barone, B. Mennucci, 
 G. A. Petersson, H. Nakatsuji, M. Caricato, X. Li, H. P. Hratchian, 
 A. F. Izmaylov, J. Bloino, G. Zheng, J. L. Sonnenberg, M. Hada, 
 M. Ehara, K. Toyota, R. Fukuda, J. Hasegawa, M. Ishida, T. Nakajima, 
 Y. Honda, O. Kitao, H. Nakai, T. Vreven, J. A. Montgomery, Jr., 
 J. E. Peralta, F. Ogliaro, M. Bearpark, J. J. Heyd, E. Brothers, 
 K. N. Kudin, V. N. Staroverov, T. Keith, R. Kobayashi, J. Normand, 
 K. Raghavachari, A. Rendell, J. C. Burant, S. S. Iyengar, J. Tomasi, 
 M. Cossi, N. Rega, J. M. Millam, M. Klene, J. E. Knox, J. B. Cross, 
 V. Bakken, C. Adamo, J. Jaramillo, R. Gomperts, R. E. Stratmann, 
 O. Yazyev, A. J. Austin, R. Cammi, C. Pomelli, J. W. Ochterski, 
 R. L. Martin, K. Morokuma, V. G. Zakrzewski, G. A. Voth, 
 P. Salvador, J. J. Dannenberg, S. Dapprich, A. D. Daniels, 
 O. Farkas, J. B. Foresman, J. V. Ortiz, J. Cioslowski, 
 and D. J. Fox, Gaussian, Inc., Wallingford CT, 2013.
 
 ******************************************
 Gaussian 09:  ES64L-G09RevD.01 24-Apr-2013
                 1-Nov-2021 
 ******************************************
 %mem=100MW
 %nprocshared=20
 Will use up to   20 processors via shared memory.
 %chk=Chart2_2.chk
 ----------------------------------------------------------------------
 # opt freq b3lyp/6-311+g(d,p) geom=connectivity pop=(hirshfeld,chelpg,
 mbs,npa)
 ----------------------------------------------------------------------
 1/14=-1,18=20,19=15,26=3,38=1,57=2/1,3;
 2/9=110,12=2,17=6,18=5,40=1/2;
 3/5=4,6=6,7=111,11=2,16=1,25=1,30=1,71=1,74=-5/1,2,3;
 4//1;
 5/5=2,38=5/2;
 6/7=2,8=2,9=2,10=2,15=8,20=3,27=100,28=1,40=-1,79=1/1,2,7;
 7//1,2,3,16;
 1/14=-1,18=20,19=15,26=3/3(2);
 2/9=110/2;
 99//99;
 2/9=110/2;
 3/5=4,6=6,7=111,11=2,16=1,25=1,30=1,71=1,74=-5/1,2,3;
 4/5=5,16=3,69=1/1;
 5/5=2,38=5/2;
 7//1,2,3,16;
 1/14=-1,18=20,19=15,26=3/3(-5);
 2/9=110/2;
 6/7=2,8=2,9=2,10=2,15=8,19=2,20=3,27=100,28=1,40=-1,79=1/1,2,7;
 99/9=1/99;
 -------------------
 Title Card Required
 -------------------
 Symbolic Z-matrix:
 Charge =  0 Multiplicity = 1
 C                    -1.97572  -0.0728   -0.00291 
 C                     0.08911   1.16564  -0.12941 
 C                    -0.56042   2.34167  -0.00756 
 C                    -2.08744   2.32909   0.13333 
 H                     1.15423   1.1444   -0.22925 
 H                    -0.02056   3.26549  -0.00919 
 H                    -2.62851   3.24696   0.23159 
 N                    -2.71492   1.19794   0.13221 
 N                    -0.68131  -0.08675  -0.12363 
 C                    -2.75058  -1.40366  -0.00083 
 H                    -3.63425  -1.30095   0.59372 
 H                    -3.02303  -1.65932  -1.00348 
 H                    -2.13285  -2.1754    0.40872 
 

 GradGradGradGradGradGradGradGradGradGradGradGradGradGradGradGradGradGrad
 Berny optimization.
 Initialization pass.
                           ----------------------------
                           !    Initial Parameters    !
                           ! (Angstroms and Degrees)  !
 --------------------------                            --------------------------
 ! Name  Definition              Value          Derivative Info.                !
 --------------------------------------------------------------------------------
 ! R1    R(1,8)                  1.4763         estimate D2E/DX2                !
 ! R2    R(1,9)                  1.3001         estimate D2E/DX2                !
 ! R3    R(1,10)                 1.54           estimate D2E/DX2                !
 ! R4    R(2,3)                  1.349          estimate D2E/DX2                !
 ! R5    R(2,5)                  1.07           estimate D2E/DX2                !
 ! R6    R(2,9)                  1.4704         estimate D2E/DX2                !
 ! R7    R(3,4)                  1.5336         estimate D2E/DX2                !
 ! R8    R(3,6)                  1.07           estimate D2E/DX2                !
 ! R9    R(4,7)                  1.07           estimate D2E/DX2                !
 ! R10   R(4,8)                  1.2935         estimate D2E/DX2                !
 ! R11   R(10,11)                1.07           estimate D2E/DX2                !
 ! R12   R(10,12)                1.07           estimate D2E/DX2                !
 ! R13   R(10,13)                1.07           estimate D2E/DX2                !
 ! A1    A(8,1,9)              121.0814         estimate D2E/DX2                !
 ! A2    A(8,1,10)             119.4593         estimate D2E/DX2                !
 ! A3    A(9,1,10)             119.4593         estimate D2E/DX2                !
 ! A4    A(3,2,5)              120.3333         estimate D2E/DX2                !
 ! A5    A(3,2,9)              119.3335         estimate D2E/DX2                !
 ! A6    A(5,2,9)              120.3333         estimate D2E/DX2                !
 ! A7    A(2,3,4)              118.7241         estimate D2E/DX2                !
 ! A8    A(2,3,6)              120.638          estimate D2E/DX2                !
 ! A9    A(4,3,6)              120.638          estimate D2E/DX2                !
 ! A10   A(3,4,7)              120.3261         estimate D2E/DX2                !
 ! A11   A(3,4,8)              119.3479         estimate D2E/DX2                !
 ! A12   A(7,4,8)              120.3261         estimate D2E/DX2                !
 ! A13   A(1,8,4)              120.6569         estimate D2E/DX2                !
 ! A14   A(1,9,2)              120.8563         estimate D2E/DX2                !
 ! A15   A(1,10,11)            109.4712         estimate D2E/DX2                !
 ! A16   A(1,10,12)            109.4712         estimate D2E/DX2                !
 ! A17   A(1,10,13)            109.4712         estimate D2E/DX2                !
 ! A18   A(11,10,12)           109.4712         estimate D2E/DX2                !
 ! A19   A(11,10,13)           109.4712         estimate D2E/DX2                !
 ! A20   A(12,10,13)           109.4712         estimate D2E/DX2                !
 ! D1    D(9,1,8,4)             -0.0002         estimate D2E/DX2                !
 ! D2    D(10,1,8,4)           179.9998         estimate D2E/DX2                !
 ! D3    D(8,1,9,2)              0.0003         estimate D2E/DX2                !
 ! D4    D(10,1,9,2)          -179.9997         estimate D2E/DX2                !
 ! D5    D(8,1,10,11)          -30.0            estimate D2E/DX2                !
 ! D6    D(8,1,10,12)           90.0            estimate D2E/DX2                !
 ! D7    D(8,1,10,13)         -150.0            estimate D2E/DX2                !
 ! D8    D(9,1,10,11)          150.0            estimate D2E/DX2                !
 ! D9    D(9,1,10,12)          -90.0            estimate D2E/DX2                !
 ! D10   D(9,1,10,13)           30.0            estimate D2E/DX2                !
 ! D11   D(5,2,3,4)            179.9998         estimate D2E/DX2                !
 ! D12   D(5,2,3,6)             -0.0003         estimate D2E/DX2                !
 ! D13   D(9,2,3,4)              0.0001         estimate D2E/DX2                !
 ! D14   D(9,2,3,6)            180.0            estimate D2E/DX2                !
 ! D15   D(3,2,9,1)             -0.0002         estimate D2E/DX2                !
 ! D16   D(5,2,9,1)           -179.9999         estimate D2E/DX2                !
 ! D17   D(2,3,4,7)            179.9998         estimate D2E/DX2                !
 ! D18   D(2,3,4,8)              0.0            estimate D2E/DX2                !
 ! D19   D(6,3,4,7)             -0.0001         estimate D2E/DX2                !
 ! D20   D(6,3,4,8)           -180.0            estimate D2E/DX2                !
 ! D21   D(3,4,8,1)              0.0001         estimate D2E/DX2                !
 ! D22   D(7,4,8,1)           -179.9997         estimate D2E/DX2                !
 --------------------------------------------------------------------------------
 Trust Radius=3.00D-01 FncErr=1.00D-07 GrdErr=1.00D-06
 Number of steps in this run=     65 maximum allowed number of steps=    100.
 GradGradGradGradGradGradGradGradGradGradGradGradGradGradGradGradGradGrad

                          Input orientation:                          
 ---------------------------------------------------------------------
 Center     Atomic      Atomic             Coordinates (Angstroms)
 Number     Number       Type             X           Y           Z
 ---------------------------------------------------------------------
      1          6           0       -1.975722   -0.072800   -0.002912
      2          6           0        0.089114    1.165639   -0.129406
      3          6           0       -0.560420    2.341666   -0.007562
      4          6           0       -2.087442    2.329091    0.133327
      5          1           0        1.154233    1.144404   -0.229253
      6          1           0       -0.020559    3.265488   -0.009186
      7          1           0       -2.628512    3.246962    0.231590
      8          7           0       -2.714921    1.197937    0.132206
      9          7           0       -0.681307   -0.086751   -0.123631
     10          6           0       -2.750583   -1.403659   -0.000832
     11          1           0       -3.634247   -1.300954    0.593718
     12          1           0       -3.023029   -1.659317   -1.003484
     13          1           0       -2.132850   -2.175395    0.408716
 ---------------------------------------------------------------------
                    Distance matrix (angstroms):
                    1          2          3          4          5
     1  C    0.000000
     2  C    2.411074   0.000000
     3  C    2.798705   1.348992   0.000000
     4  C    2.408344   2.481943   1.533559   0.000000
     5  H    3.365923   1.070000   2.103002   3.470361   0.000000
     6  H    3.868704   2.106145   1.070000   2.273578   2.434658
     7  H    3.391451   3.442051   2.270189   1.070000   4.352274
     8  N    1.476294   2.816397   2.443261   1.293537   3.886370
     9  N    1.300107   1.470395   2.434193   2.807050   2.212715
    10  C    1.540000   3.831671   4.338700   3.793570   4.668232
    11  H    2.148263   4.524423   4.804022   3.972630   5.439357
    12  H    2.148263   4.292997   4.802517   4.251477   5.090168
    13  H    2.148263   4.048358   4.801007   4.513125   4.715187
                    6          7          8          9         10
     6  H    0.000000
     7  H    2.619110   0.000000
     8  N    3.399168   2.053252   0.000000
     9  N    3.418654   3.877039   2.418979   0.000000
    10  C    5.408700   4.658025   2.605240   2.455856   0.000000
    11  H    5.854454   4.671849   2.702335   3.272420   1.070000
    12  H    5.852962   5.074704   3.090085   2.954787   1.070000
    13  H    5.851464   5.447844   3.434332   2.598616   1.070000
                   11         12         13
    11  H    0.000000
    12  H    1.747303   0.000000
    13  H    1.747303   1.747303   0.000000
 Stoichiometry    C5H6N2
 Framework group  C1[X(C5H6N2)]
 Deg. of freedom    33
 Full point group                 C1      NOp   1
 Largest Abelian subgroup         C1      NOp   1
 Largest concise Abelian subgroup C1      NOp   1
                         Standard orientation:                         
 ---------------------------------------------------------------------
 Center     Atomic      Atomic             Coordinates (Angstroms)
 Number     Number       Type             X           Y           Z
 ---------------------------------------------------------------------
      1          6           0        0.904963   -0.030283    0.000001
      2          6           0       -1.191085   -1.221863   -0.000001
      3          6           0       -1.893458   -0.070146   -0.000001
      4          6           0       -1.129020    1.259304    0.000000
      5          1           0       -1.698193   -2.164063    0.000001
      6          1           0       -2.963369   -0.083945   -0.000003
      7          1           0       -1.660376    2.188046   -0.000003
      8          7           0        0.164457    1.246861    0.000002
      9          7           0        0.278375   -1.169434    0.000002
     10          6           0        2.444865   -0.012908   -0.000002
     11          1           0        2.791651    0.864712   -0.504405
     12          1           0        2.801510   -0.008884    1.008803
     13          1           0        2.811364   -0.882480   -0.504405
 ---------------------------------------------------------------------
 Rotational constants (GHZ):      5.5802030      2.5508633      1.7694709
 Standard basis: 6-311+G(d,p) (5D, 7F)
 There are   197 symmetry adapted cartesian basis functions of A   symmetry.
 There are   190 symmetry adapted basis functions of A   symmetry.
   190 basis functions,   300 primitive gaussians,   197 cartesian basis functions
    25 alpha electrons       25 beta electrons
       nuclear repulsion energy       268.7400301692 Hartrees.
 NAtoms=   13 NActive=   13 NUniq=   13 SFac= 1.00D+00 NAtFMM=   60 NAOKFM=F Big=F
 Integral buffers will be    131072 words long.
 Raffenetti 2 integral format.
 Two-electron integral symmetry is turned on.
 One-electron integrals computed using PRISM.
 NBasis=   190 RedAO= T EigKep=  2.44D-05  NBF=   190
 NBsUse=   190 1.00D-06 EigRej= -1.00D+00 NBFU=   190
 ExpMin= 4.38D-02 ExpMax= 6.29D+03 ExpMxC= 9.49D+02 IAcc=2 IRadAn=         4 AccDes= 0.00D+00
 Harris functional with IExCor=  402 and IRadAn=       4 diagonalized for initial guess.
 HarFok:  IExCor=  402 AccDes= 0.00D+00 IRadAn=         4 IDoV= 1 UseB2=F ITyADJ=14
 ICtDFT=  3500011 ScaDFX=  1.000000  1.000000  1.000000  1.000000
 FoFCou: FMM=F IPFlag=           0 FMFlag=      100000 FMFlg1=           0
         NFxFlg=           0 DoJE=T BraDBF=F KetDBF=T FulRan=T
         wScrn=  0.000000 ICntrl=     500 IOpCl=  0 I1Cent=   200000004 NGrid=           0
         NMat0=    1 NMatS0=      1 NMatT0=    0 NMatD0=    1 NMtDS0=    0 NMtDT0=    0
 Petite list used in FoFCou.
 Requested convergence on RMS density matrix=1.00D-08 within 128 cycles.
 Requested convergence on MAX density matrix=1.00D-06.
 Requested convergence on             energy=1.00D-06.
 No special actions if energy rises.
 SCF Done:  E(RB3LYP) =  -303.694238865     A.U. after   13 cycles
            NFock= 13  Conv=0.64D-08     -V/T= 2.0057

 **********************************************************************

            Population analysis using the SCF density.

 **********************************************************************

 Orbital symmetries:
       Occupied  (A) (A) (A) (A) (A) (A) (A) (A) (A) (A) (A) (A)
                 (A) (A) (A) (A) (A) (A) (A) (A) (A) (A) (A) (A)
                 (A)
       Virtual   (A) (A) (A) (A) (A) (A) (A) (A) (A) (A) (A) (A)
                 (A) (A) (A) (A) (A) (A) (A) (A) (A) (A) (A) (A)
                 (A) (A) (A) (A) (A) (A) (A) (A) (A) (A) (A) (A)
                 (A) (A) (A) (A) (A) (A) (A) (A) (A) (A) (A) (A)
                 (A) (A) (A) (A) (A) (A) (A) (A) (A) (A) (A) (A)
                 (A) (A) (A) (A) (A) (A) (A) (A) (A) (A) (A) (A)
                 (A) (A) (A) (A) (A) (A) (A) (A) (A) (A) (A) (A)
                 (A) (A) (A) (A) (A) (A) (A) (A) (A) (A) (A) (A)
                 (A) (A) (A) (A) (A) (A) (A) (A) (A) (A) (A) (A)
                 (A) (A) (A) (A) (A) (A) (A) (A) (A) (A) (A) (A)
                 (A) (A) (A) (A) (A) (A) (A) (A) (A) (A) (A) (A)
                 (A) (A) (A) (A) (A) (A) (A) (A) (A) (A) (A) (A)
                 (A) (A) (A) (A) (A) (A) (A) (A) (A) (A) (A) (A)
                 (A) (A) (A) (A) (A) (A) (A) (A) (A)
 The electronic state is 1-A.
 Alpha  occ. eigenvalues --  -14.32766 -14.32638 -10.26440 -10.24226 -10.23212
 Alpha  occ. eigenvalues --  -10.20179 -10.17285  -0.96870  -0.88247  -0.80205
 Alpha  occ. eigenvalues --   -0.72978  -0.65397  -0.62358  -0.52707  -0.51308
 Alpha  occ. eigenvalues --   -0.47027  -0.44649  -0.43259  -0.41133  -0.40306
 Alpha  occ. eigenvalues --   -0.39584  -0.31936  -0.30354  -0.28537  -0.24793
 Alpha virt. eigenvalues --   -0.05649  -0.04110   0.00162   0.01789   0.02409
 Alpha virt. eigenvalues --    0.04327   0.04503   0.05649   0.05677   0.07053
 Alpha virt. eigenvalues --    0.08318   0.08420   0.08698   0.09183   0.10529
 Alpha virt. eigenvalues --    0.12151   0.12676   0.13675   0.14287   0.15350
 Alpha virt. eigenvalues --    0.15520   0.16244   0.16811   0.17697   0.18322
 Alpha virt. eigenvalues --    0.18875   0.20013   0.21507   0.22335   0.22809
 Alpha virt. eigenvalues --    0.23114   0.24598   0.25072   0.26288   0.27264
 Alpha virt. eigenvalues --    0.28055   0.28522   0.29385   0.31090   0.32075
 Alpha virt. eigenvalues --    0.33655   0.37766   0.41377   0.42585   0.45211
 Alpha virt. eigenvalues --    0.47183   0.49134   0.51634   0.54667   0.55524
 Alpha virt. eigenvalues --    0.56394   0.57849   0.59978   0.61991   0.62475
 Alpha virt. eigenvalues --    0.63565   0.64707   0.67435   0.70011   0.71676
 Alpha virt. eigenvalues --    0.74826   0.75859   0.79415   0.80158   0.81312
 Alpha virt. eigenvalues --    0.82640   0.85494   0.85641   0.87361   0.89842
 Alpha virt. eigenvalues --    0.92310   0.96433   0.98235   0.98697   1.00721
 Alpha virt. eigenvalues --    1.04020   1.05141   1.07886   1.09975   1.12097
 Alpha virt. eigenvalues --    1.22332   1.25613   1.35206   1.37551   1.39898
 Alpha virt. eigenvalues --    1.41673   1.45334   1.46517   1.48646   1.53773
 Alpha virt. eigenvalues --    1.54956   1.56344   1.57046   1.59837   1.61077
 Alpha virt. eigenvalues --    1.63698   1.68291   1.73619   1.73716   1.75447
 Alpha virt. eigenvalues --    1.77657   1.82189   1.85175   1.87856   1.90826
 Alpha virt. eigenvalues --    1.93697   1.95143   1.97034   2.05186   2.08070
 Alpha virt. eigenvalues --    2.13006   2.18291   2.19211   2.22976   2.29988
 Alpha virt. eigenvalues --    2.34116   2.36382   2.39056   2.44275   2.47559
 Alpha virt. eigenvalues --    2.51667   2.52874   2.53736   2.55472   2.60057
 Alpha virt. eigenvalues --    2.62659   2.65065   2.66130   2.68450   2.70201
 Alpha virt. eigenvalues --    2.72628   2.72919   2.80294   2.82217   2.84735
 Alpha virt. eigenvalues --    2.87022   2.88754   2.91288   2.92648   2.93219
 Alpha virt. eigenvalues --    3.10207   3.17765   3.34537   3.44672   3.52732
 Alpha virt. eigenvalues --    3.61703   3.69870   3.84460   3.86149   3.89211
 Alpha virt. eigenvalues --    3.92496   3.98517   4.03658   4.13222   4.33497
 Alpha virt. eigenvalues --    4.36968   4.81088   5.20581  23.67868  23.75929
 Alpha virt. eigenvalues --   23.87700  23.99650  24.16413  35.56263  35.60472
          Condensed to atoms (all electrons):
               1          2          3          4          5          6
     1  C    6.020044  -0.084914  -0.132084  -0.042454   0.015206   0.012621
     2  C   -0.084914   5.179061   0.477823  -0.114317   0.433990  -0.019929
     3  C   -0.132084   0.477823   5.114467   0.310411  -0.048288   0.368419
     4  C   -0.042454  -0.114317   0.310411   5.134305  -0.003337  -0.025112
     5  H    0.015206   0.433990  -0.048288  -0.003337   0.518781  -0.004894
     6  H    0.012621  -0.019929   0.368419  -0.025112  -0.004894   0.524885
     7  H    0.023865  -0.011247  -0.069534   0.441916  -0.000374  -0.000164
     8  N    0.022917  -0.098602   0.048648   0.431862  -0.002916   0.003024
     9  N    0.180974   0.299932   0.034304  -0.071351  -0.058544   0.002825
    10  C    0.018617  -0.040633  -0.000706  -0.065213   0.003251   0.002537
    11  H   -0.076344   0.003255  -0.002113   0.000525   0.000007  -0.000004
    12  H    0.071120   0.000444   0.001297  -0.000781   0.000008   0.000001
    13  H   -0.037746  -0.002384  -0.001211   0.002148  -0.000022   0.000001
               7          8          9         10         11         12
     1  C    0.023865   0.022917   0.180974   0.018617  -0.076344   0.071120
     2  C   -0.011247  -0.098602   0.299932  -0.040633   0.003255   0.000444
     3  C   -0.069534   0.048648   0.034304  -0.000706  -0.002113   0.001297
     4  C    0.441916   0.431862  -0.071351  -0.065213   0.000525  -0.000781
     5  H   -0.000374  -0.002916  -0.058544   0.003251   0.000007   0.000008
     6  H   -0.000164   0.003024   0.002825   0.002537  -0.000004   0.000001
     7  H    0.537754  -0.071481  -0.003493   0.003522  -0.000032   0.000012
     8  N   -0.071481   6.797395   0.066883  -0.079559  -0.013088  -0.005867
     9  N   -0.003493   0.066883   6.742506  -0.104959   0.022482  -0.008462
    10  C    0.003522  -0.079559  -0.104959   5.702852   0.443191   0.305497
    11  H   -0.000032  -0.013088   0.022482   0.443191   0.511760  -0.021808
    12  H    0.000012  -0.005867  -0.008462   0.305497  -0.021808   0.513999
    13  H    0.000014   0.015356  -0.021614   0.422752  -0.029113  -0.019536
              13
     1  C   -0.037746
     2  C   -0.002384
     3  C   -0.001211
     4  C    0.002148
     5  H   -0.000022
     6  H    0.000001
     7  H    0.000014
     8  N    0.015356
     9  N   -0.021614
    10  C    0.422752
    11  H   -0.029113
    12  H   -0.019536
    13  H    0.507342
 Mulliken charges:
               1
     1  C    0.008180
     2  C   -0.022478
     3  C   -0.101432
     4  C    0.001399
     5  H    0.147134
     6  H    0.135791
     7  H    0.149241
     8  N   -0.114573
     9  N   -0.081483
    10  C   -0.611148
    11  H    0.161281
    12  H    0.164075
    13  H    0.164012
 Sum of Mulliken charges =   0.00000
 Mulliken charges with hydrogens summed into heavy atoms:
               1
     1  C    0.008180
     2  C    0.124656
     3  C    0.034360
     4  C    0.150640
     8  N   -0.114573
     9  N   -0.081483
    10  C   -0.121779
 Electronic spatial extent (au):  <R**2>=            691.8184
 Charge=              0.0000 electrons
 Dipole moment (field-independent basis, Debye):
    X=             -1.6134    Y=              0.0534    Z=              0.0142  Tot=              1.6143
 Quadrupole moment (field-independent basis, Debye-Ang):
   XX=            -33.0662   YY=            -44.4466   ZZ=            -42.9742
   XY=             -0.1134   XZ=              0.0227   YZ=              0.0040
 Traceless Quadrupole moment (field-independent basis, Debye-Ang):
   XX=              7.0961   YY=             -4.2843   ZZ=             -2.8118
   XY=             -0.1134   XZ=              0.0227   YZ=              0.0040
 Octapole moment (field-independent basis, Debye-Ang**2):
  XXX=             -1.2599  YYY=             -0.6985  ZZZ=              0.6745  XYY=            -13.6447
  XXY=             -0.0718  XXZ=              0.0561  XZZ=              4.1171  YZZ=              0.3553
  YYZ=             -0.6908  XYZ=              0.0272
 Hexadecapole moment (field-independent basis, Debye-Ang**3):
 XXXX=           -566.3398 YYYY=           -292.1100 ZZZZ=            -54.0853 XXXY=             -0.4523
 XXXZ=              0.0785 YYYX=             -0.4443 YYYZ=              0.0332 ZZZX=              1.9689
 ZZZY=             -0.0029 XXYY=           -136.1520 XXZZ=           -114.1608 YYZZ=            -60.4576
 XXYZ=              0.1114 YYXZ=             -2.0707 ZZXY=             -0.6975
 N-N= 2.687400301692D+02 E-N=-1.243393611550D+03  KE= 3.019812332360D+02
 There are a total of      106498 grid points.
 ElSum from          density=       49.9999300419
 ElSum from atomic densities=       49.9998622462

 Hirshfeld populations at iteration   1 (CX, CA, CB, DipXYZ):
               1          2          3          4          5          6
     1  C    0.000000   2.927510   2.927510   0.038551   0.073378   0.000913
     2  C    0.000001   2.985130   2.985130   0.044654  -0.101775  -0.000585
     3  C    0.000000   3.028057   3.028057  -0.061341   0.061518  -0.000363
     4  C    0.000000   2.972072   2.972072  -0.076444   0.035210  -0.000538
     5  H    0.000002   0.467895   0.467895  -0.091642  -0.145838  -0.000023
     6  H    0.000002   0.474685   0.474685  -0.167545  -0.004386   0.000220
     7  H    0.000002   0.468380   0.468380  -0.087418   0.141902   0.000008
     8  N    0.000001   3.602688   3.602688  -0.065274  -0.214877  -0.000609
     9  N    0.000001   3.602480   3.602480  -0.138361   0.164127   0.000432
    10  C    0.000000   3.044029   3.044029   0.004251  -0.004744   0.002984
    11  H    0.000001   0.477077   0.477077   0.065132   0.116429  -0.075345
    12  H    0.000001   0.474599   0.474599   0.062088  -0.000420   0.147596
    13  H    0.000001   0.475363   0.475363   0.069977  -0.116848  -0.075253
       Tot   0.000013  24.999965  24.999965  -0.403370   0.003676  -0.000565

 Dip from Atomic Chgs             -0.231293   0.017331   0.006177
         Total Dipole             -0.634663   0.021007   0.005612

 Hirshfeld charges, spin densities, dipoles, and CM5 charges using IRadAn=      4:
              Q-H        S-H        Dx         Dy         Dz        Q-CM5   
     1  C    0.144981   0.000000   0.038551   0.073378   0.000913   0.270127
     2  C    0.029740   0.000000   0.044654  -0.101775  -0.000585   0.031600
     3  C   -0.056115   0.000000  -0.061341   0.061518  -0.000363  -0.102929
     4  C    0.055857   0.000000  -0.076444   0.035210  -0.000538   0.088819
     5  H    0.064210   0.000000  -0.091642  -0.145838  -0.000023   0.128133
     6  H    0.050630   0.000000  -0.167545  -0.004386   0.000220   0.108275
     7  H    0.063240   0.000000  -0.087418   0.141902   0.000008   0.130375
     8  N   -0.205377   0.000000  -0.065274  -0.214877  -0.000609  -0.371660
     9  N   -0.204960   0.000000  -0.138361   0.164127   0.000432  -0.369209
    10  C   -0.088058   0.000000   0.004251  -0.004744   0.002984  -0.230670
    11  H    0.045847   0.000000   0.065132   0.116429  -0.075345   0.103054
    12  H    0.050802   0.000000   0.062088  -0.000420   0.147596   0.107090
    13  H    0.049274   0.000000   0.069977  -0.116848  -0.075253   0.107066
       Tot   0.000070   0.000000  -0.403370   0.003676  -0.000565   0.000070
 Hirshfeld charges with hydrogens summed into heavy atoms:
              Q-H       Q-CM5   
     1  C    0.144981   0.270127
     2  C    0.093950   0.159733
     3  C   -0.005485   0.005345
     4  C    0.119097   0.219193
     8  N   -0.205377  -0.371660
     9  N   -0.204960  -0.369209
    10  C    0.057865   0.086540
 
 EQQ= 0.000000000000E+00 EQD= 0.000000000000E+00 EDD= 0.126416618079E-02
 EQQ+QD+DD= 0.126416618079E-02
 
          MBS Condensed to atoms (all electrons):
               1          2          3          4          5          6
     1  C    4.648034  -0.033491  -0.013160  -0.033398   0.001481   0.000127
     2  C   -0.033491   4.754476   0.549037  -0.025423   0.392835  -0.025258
     3  C   -0.013160   0.549037   4.913290   0.413261  -0.031106   0.384848
     4  C   -0.033398  -0.025423   0.413261   4.708041   0.001280  -0.020489
     5  H    0.001481   0.392835  -0.031106   0.001280   0.520388  -0.003327
     6  H    0.000127  -0.025258   0.384848  -0.020489  -0.003327   0.543310
     7  H    0.002100   0.000930  -0.027951   0.387840  -0.000036  -0.000876
     8  N    0.349054  -0.008010  -0.026856   0.494467  -0.000041   0.000781
     9  N    0.484031   0.366528  -0.024389  -0.007456  -0.021189   0.001058
    10  C    0.376297   0.001156  -0.000018   0.000901  -0.000013   0.000001
    11  H   -0.021153  -0.000040   0.000005   0.000025   0.000000   0.000000
    12  H   -0.020145  -0.000026   0.000004  -0.000022   0.000000   0.000000
    13  H   -0.019759   0.000023   0.000002  -0.000032  -0.000002   0.000000
               7          8          9         10         11         12
     1  C    0.002100   0.349054   0.484031   0.376297  -0.021153  -0.020145
     2  C    0.000930  -0.008010   0.366528   0.001156  -0.000040  -0.000026
     3  C   -0.027951  -0.026856  -0.024389  -0.000018   0.000005   0.000004
     4  C    0.387840   0.494467  -0.007456   0.000901   0.000025  -0.000022
     5  H   -0.000036  -0.000041  -0.021189  -0.000013   0.000000   0.000000
     6  H   -0.000876   0.000781   0.001058   0.000001   0.000000   0.000000
     7  H    0.529942  -0.029325  -0.000048  -0.000015  -0.000004   0.000000
     8  N   -0.029325   6.644550  -0.024878  -0.025003  -0.000175   0.000198
     9  N   -0.000048  -0.024878   6.631025  -0.033371   0.001053  -0.000275
    10  C   -0.000015  -0.025003  -0.033371   4.818232   0.377452   0.377372
    11  H   -0.000004  -0.000175   0.001053   0.377452   0.562926  -0.020513
    12  H    0.000000   0.000198  -0.000275   0.377372  -0.020513   0.560564
    13  H    0.000001   0.000780  -0.001086   0.379831  -0.020877  -0.020567
              13
     1  C   -0.019759
     2  C    0.000023
     3  C    0.000002
     4  C   -0.000032
     5  H   -0.000002
     6  H    0.000000
     7  H    0.000001
     8  N    0.000780
     9  N   -0.001086
    10  C    0.379831
    11  H   -0.020877
    12  H   -0.020567
    13  H    0.555306
 MBS Mulliken charges:
               1
     1  C    0.279982
     2  C    0.027263
     3  C   -0.136969
     4  C    0.081005
     5  H    0.139728
     6  H    0.119825
     7  H    0.137444
     8  N   -0.375542
     9  N   -0.371003
    10  C   -0.272822
    11  H    0.121299
    12  H    0.123410
    13  H    0.126381
 Sum of MBS Mulliken charges =   0.00000
 MBS Mulliken charges with hydrogens summed into heavy atoms:
               1
     1  C    0.279982
     2  C    0.166991
     3  C   -0.017144
     4  C    0.218448
     8  N   -0.375542
     9  N   -0.371003
    10  C    0.098268
 Breneman (CHELPG) radii used.
 Generate Potential Derived Charges using the Breneman model, NDens= 1.
 Grid spacing= 0.300 Box extension= 2.800
 NStep X,Y,Z=   39     35     25   Total possible points=       34125
 Number of Points to Fit=   10190

 **********************************************************************

            Electrostatic Properties Using The SCF Density

 **********************************************************************

       Atomic Center    1 is at   0.904963 -0.030283  0.000001
       Atomic Center    2 is at  -1.191085 -1.221863 -0.000001
       Atomic Center    3 is at  -1.893458 -0.070146 -0.000001
       Atomic Center    4 is at  -1.129020  1.259304  0.000000
       Atomic Center    5 is at  -1.698193 -2.164063  0.000001
       Atomic Center    6 is at  -2.963369 -0.083945 -0.000003
       Atomic Center    7 is at  -1.660376  2.188046 -0.000003
       Atomic Center    8 is at   0.164457  1.246861  0.000002
       Atomic Center    9 is at   0.278375 -1.169434  0.000002
       Atomic Center   10 is at   2.444865 -0.012908 -0.000002
       Atomic Center   11 is at   2.791651  0.864712 -0.504405
       Atomic Center   12 is at   2.801510 -0.008884  1.008803
       Atomic Center   13 is at   2.811364 -0.882480 -0.504405
   10190 points will be used for fitting atomic charges
 Fitting point charges to electrostatic potential
 Charges from ESP fit, RMS=   0.00371 RRMS=   0.26450:
 ESP charges:
               1
     1  C    1.002974
     2  C    0.482897
     3  C   -0.523425
     4  C    0.600208
     5  H    0.030712
     6  H    0.149961
     7  H    0.001367
     8  N   -0.828376
     9  N   -0.809593
    10  C   -0.496137
    11  H    0.127326
    12  H    0.133177
    13  H    0.128910
 Sum of ESP charges =   0.00000
 ESP charges with hydrogens summed into heavy atoms:
               1
     1  C    1.002974
     2  C    0.513609
     3  C   -0.373465
     4  C    0.601575
     8  N   -0.828376
     9  N   -0.809593
    10  C   -0.106725
 Charge=   0.00000 Dipole=    -1.6164     0.0555     0.0245 Tot=     1.6175
 -----------------------------------------------------------------

              Electrostatic Properties (Atomic Units)

 -----------------------------------------------------------------
    Center     Electric         -------- Electric Field --------
               Potential          X             Y             Z
 -----------------------------------------------------------------
    1 Atom    -14.685275
    2 Atom    -14.718371
    3 Atom    -14.749600
    4 Atom    -14.709087
    5 Atom     -1.080914
    6 Atom     -1.083848
    7 Atom     -1.080560
    8 Atom    -18.393755
    9 Atom    -18.394653
   10 Atom    -14.774022
   11 Atom     -1.113279
   12 Atom     -1.105980
   13 Atom     -1.111991
 -----------------------------------------------------------------
 ******************************Gaussian NBO Version 3.1******************************
             N A T U R A L   A T O M I C   O R B I T A L   A N D
          N A T U R A L   B O N D   O R B I T A L   A N A L Y S I S
 ******************************Gaussian NBO Version 3.1******************************
       /RESON  / : Allow strongly delocalized NBO set

 Analyzing the SCF density

 Job title: Title Card Required                                             

 Storage needed:    109180 in NPA ( 104856625 available)


 NATURAL POPULATIONS:  Natural atomic orbital occupancies 
                                                          
   NAO  Atom  No  lang   Type(AO)    Occupancy      Energy
 ----------------------------------------------------------
     1    C    1  S      Cor( 1S)     1.99924     -10.14285
     2    C    1  S      Val( 2S)     0.86200      -0.18221
     3    C    1  S      Ryd( 4S)     0.00240       0.66275
     4    C    1  S      Ryd( 3S)     0.00037       0.62114
     5    C    1  S      Ryd( 5S)     0.00002      23.09306
     6    C    1  px     Val( 2p)     0.97096      -0.06645
     7    C    1  px     Ryd( 4p)     0.00661       0.99681
     8    C    1  px     Ryd( 3p)     0.00079       0.46012
     9    C    1  px     Ryd( 5p)     0.00010       3.00788
    10    C    1  py     Val( 2p)     0.82911      -0.02079
    11    C    1  py     Ryd( 4p)     0.01436       0.73257
    12    C    1  py     Ryd( 3p)     0.00123       0.34260
    13    C    1  py     Ryd( 5p)     0.00011       3.02321
    14    C    1  pz     Val( 2p)     0.85695      -0.12627
    15    C    1  pz     Ryd( 4p)     0.00111       0.56930
    16    C    1  pz     Ryd( 3p)     0.00036       0.39180
    17    C    1  pz     Ryd( 5p)     0.00004       2.54834
    18    C    1  dxy    Ryd( 3d)     0.00185       2.39817
    19    C    1  dxz    Ryd( 3d)     0.00111       1.58556
    20    C    1  dyz    Ryd( 3d)     0.00148       1.59753
    21    C    1  dx2y2  Ryd( 3d)     0.00254       2.35153
    22    C    1  dz2    Ryd( 3d)     0.00040       1.93318

    23    C    2  S      Cor( 1S)     1.99898     -10.09886
    24    C    2  S      Val( 2S)     0.95640      -0.20899
    25    C    2  S      Ryd( 3S)     0.00212       0.65416
    26    C    2  S      Ryd( 4S)     0.00012       1.17286
    27    C    2  S      Ryd( 5S)     0.00001      22.60271
    28    C    2  px     Val( 2p)     0.89885      -0.05103
    29    C    2  px     Ryd( 4p)     0.00765       0.77736
    30    C    2  px     Ryd( 3p)     0.00062       0.27649
    31    C    2  px     Ryd( 5p)     0.00013       3.01921
    32    C    2  py     Val( 2p)     1.14854      -0.07845
    33    C    2  py     Ryd( 4p)     0.00750       0.82822
    34    C    2  py     Ryd( 3p)     0.00062       0.25135
    35    C    2  py     Ryd( 5p)     0.00017       3.15037
    36    C    2  pz     Val( 2p)     0.93028      -0.13548
    37    C    2  pz     Ryd( 4p)     0.00100       0.51345
    38    C    2  pz     Ryd( 3p)     0.00017       0.28658
    39    C    2  pz     Ryd( 5p)     0.00001       2.61334
    40    C    2  dxy    Ryd( 3d)     0.00149       2.46080
    41    C    2  dxz    Ryd( 3d)     0.00083       1.56220
    42    C    2  dyz    Ryd( 3d)     0.00055       1.60549
    43    C    2  dx2y2  Ryd( 3d)     0.00113       2.37729
    44    C    2  dz2    Ryd( 3d)     0.00046       1.96253

    45    C    3  S      Cor( 1S)     1.99910     -10.06471
    46    C    3  S      Val( 2S)     1.00460      -0.22381
    47    C    3  S      Ryd( 3S)     0.00170       0.58127
    48    C    3  S      Ryd( 4S)     0.00020       1.23939
    49    C    3  S      Ryd( 5S)     0.00000      22.72227
    50    C    3  px     Val( 2p)     1.17130      -0.07564
    51    C    3  px     Ryd( 4p)     0.00420       0.96776
    52    C    3  px     Ryd( 3p)     0.00038       0.29000
    53    C    3  px     Ryd( 5p)     0.00004       3.15971
    54    C    3  py     Val( 2p)     1.06826      -0.08602
    55    C    3  py     Ryd( 4p)     0.00364       0.72674
    56    C    3  py     Ryd( 3p)     0.00043       0.40963
    57    C    3  py     Ryd( 5p)     0.00016       3.00449
    58    C    3  pz     Val( 2p)     1.01763      -0.13725
    59    C    3  pz     Ryd( 4p)     0.00110       0.49234
    60    C    3  pz     Ryd( 3p)     0.00012       0.33746
    61    C    3  pz     Ryd( 5p)     0.00002       2.61411
    62    C    3  dxy    Ryd( 3d)     0.00060       2.48761
    63    C    3  dxz    Ryd( 3d)     0.00034       1.58004
    64    C    3  dyz    Ryd( 3d)     0.00041       1.61565
    65    C    3  dx2y2  Ryd( 3d)     0.00081       2.41697
    66    C    3  dz2    Ryd( 3d)     0.00041       1.96529

    67    C    4  S      Cor( 1S)     1.99931     -10.11164
    68    C    4  S      Val( 2S)     0.95232      -0.21010
    69    C    4  S      Ryd( 3S)     0.00371       0.66726
    70    C    4  S      Ryd( 4S)     0.00018       1.01298
    71    C    4  S      Ryd( 5S)     0.00001      22.70127
    72    C    4  px     Val( 2p)     0.94433      -0.04729
    73    C    4  px     Ryd( 4p)     0.01004       0.75128
    74    C    4  px     Ryd( 3p)     0.00061       0.26700
    75    C    4  px     Ryd( 5p)     0.00013       3.00493
    76    C    4  py     Val( 2p)     1.09711      -0.07446
    77    C    4  py     Ryd( 4p)     0.00716       0.90107
    78    C    4  py     Ryd( 3p)     0.00049       0.26511
    79    C    4  py     Ryd( 5p)     0.00014       2.97101
    80    C    4  pz     Val( 2p)     0.86098      -0.13592
    81    C    4  pz     Ryd( 4p)     0.00076       0.51638
    82    C    4  pz     Ryd( 3p)     0.00012       0.25603
    83    C    4  pz     Ryd( 5p)     0.00002       2.61833
    84    C    4  dxy    Ryd( 3d)     0.00203       2.34984
    85    C    4  dxz    Ryd( 3d)     0.00152       1.61236
    86    C    4  dyz    Ryd( 3d)     0.00028       1.53337
    87    C    4  dx2y2  Ryd( 3d)     0.00110       2.47394
    88    C    4  dz2    Ryd( 3d)     0.00040       1.94279

    89    H    5  S      Val( 1S)     0.79723       0.02834
    90    H    5  S      Ryd( 2S)     0.00052       0.65056
    91    H    5  S      Ryd( 3S)     0.00016       2.03560
    92    H    5  px     Ryd( 2p)     0.00026       2.10492
    93    H    5  py     Ryd( 2p)     0.00038       2.52930
    94    H    5  pz     Ryd( 2p)     0.00019       1.57713

    95    H    6  S      Val( 1S)     0.78823       0.03603
    96    H    6  S      Ryd( 2S)     0.00076       0.57798
    97    H    6  S      Ryd( 3S)     0.00021       2.05996
    98    H    6  px     Ryd( 2p)     0.00044       2.70771
    99    H    6  py     Ryd( 2p)     0.00009       1.92215
   100    H    6  pz     Ryd( 2p)     0.00018       1.57768

   101    H    7  S      Val( 1S)     0.80843       0.01968
   102    H    7  S      Ryd( 2S)     0.00070       0.62755
   103    H    7  S      Ryd( 3S)     0.00015       2.06720
   104    H    7  px     Ryd( 2p)     0.00021       2.11801
   105    H    7  py     Ryd( 2p)     0.00043       2.49494
   106    H    7  pz     Ryd( 2p)     0.00013       1.57413

   107    N    8  S      Cor( 1S)     1.99937     -14.14734
   108    N    8  S      Val( 2S)     1.40525      -0.54598
   109    N    8  S      Ryd( 3S)     0.00256       1.01603
   110    N    8  S      Ryd( 4S)     0.00036       1.16106
   111    N    8  S      Ryd( 5S)     0.00000      35.25796
   112    N    8  px     Val( 2p)     1.36786      -0.20213
   113    N    8  px     Ryd( 3p)     0.00427       0.83604
   114    N    8  px     Ryd( 4p)     0.00025       0.84016
   115    N    8  px     Ryd( 5p)     0.00009       4.30685
   116    N    8  py     Val( 2p)     1.53760      -0.20432
   117    N    8  py     Ryd( 3p)     0.00607       0.66198
   118    N    8  py     Ryd( 4p)     0.00031       0.75234
   119    N    8  py     Ryd( 5p)     0.00007       4.00121
   120    N    8  pz     Val( 2p)     1.16380      -0.19288
   121    N    8  pz     Ryd( 3p)     0.00065       0.55342
   122    N    8  pz     Ryd( 4p)     0.00008       0.70879
   123    N    8  pz     Ryd( 5p)     0.00003       3.72588
   124    N    8  dxy    Ryd( 3d)     0.00129       2.64161
   125    N    8  dxz    Ryd( 3d)     0.00099       2.25676
   126    N    8  dyz    Ryd( 3d)     0.00073       2.10936
   127    N    8  dx2y2  Ryd( 3d)     0.00140       2.88768
   128    N    8  dz2    Ryd( 3d)     0.00093       2.51975

   129    N    9  S      Cor( 1S)     1.99929     -14.14580
   130    N    9  S      Val( 2S)     1.40186      -0.54151
   131    N    9  S      Ryd( 3S)     0.00188       0.90836
   132    N    9  S      Ryd( 4S)     0.00015       1.45755
   133    N    9  S      Ryd( 5S)     0.00000      35.14506
   134    N    9  px     Val( 2p)     1.29884      -0.18185
   135    N    9  px     Ryd( 3p)     0.00396       0.85732
   136    N    9  px     Ryd( 4p)     0.00031       0.92240
   137    N    9  px     Ryd( 5p)     0.00006       4.13931
   138    N    9  py     Val( 2p)     1.59663      -0.22732
   139    N    9  py     Ryd( 3p)     0.00632       0.63917
   140    N    9  py     Ryd( 4p)     0.00028       0.83020
   141    N    9  py     Ryd( 5p)     0.00008       4.01091
   142    N    9  pz     Val( 2p)     1.18040      -0.19114
   143    N    9  pz     Ryd( 3p)     0.00071       0.54736
   144    N    9  pz     Ryd( 4p)     0.00010       0.78711
   145    N    9  pz     Ryd( 5p)     0.00003       3.66219
   146    N    9  dxy    Ryd( 3d)     0.00124       2.69643
   147    N    9  dxz    Ryd( 3d)     0.00031       2.16878
   148    N    9  dyz    Ryd( 3d)     0.00151       2.19955
   149    N    9  dx2y2  Ryd( 3d)     0.00149       2.84084
   150    N    9  dz2    Ryd( 3d)     0.00094       2.51952

   151    C   10  S      Cor( 1S)     1.99924     -10.02683
   152    C   10  S      Val( 2S)     1.09184      -0.25228
   153    C   10  S      Ryd( 3S)     0.00053       0.44915
   154    C   10  S      Ryd( 4S)     0.00049       0.90134
   155    C   10  S      Ryd( 5S)     0.00000      23.43754
   156    C   10  px     Val( 2p)     1.05472      -0.10145
   157    C   10  px     Ryd( 4p)     0.00092       0.49832
   158    C   10  px     Ryd( 3p)     0.00029       0.19641
   159    C   10  px     Ryd( 5p)     0.00010       3.03652
   160    C   10  py     Val( 2p)     1.22930      -0.09762
   161    C   10  py     Ryd( 4p)     0.00319       0.52543
   162    C   10  py     Ryd( 3p)     0.00057       0.21616
   163    C   10  py     Ryd( 5p)     0.00003       3.12972
   164    C   10  pz     Val( 2p)     1.21996      -0.10128
   165    C   10  pz     Ryd( 4p)     0.00069       0.50078
   166    C   10  pz     Ryd( 3p)     0.00005       0.20507
   167    C   10  pz     Ryd( 5p)     0.00007       3.11635
   168    C   10  dxy    Ryd( 3d)     0.00031       2.03035
   169    C   10  dxz    Ryd( 3d)     0.00043       1.91346
   170    C   10  dyz    Ryd( 3d)     0.00067       2.11562
   171    C   10  dx2y2  Ryd( 3d)     0.00093       2.23598
   172    C   10  dz2    Ryd( 3d)     0.00075       2.13681

   173    H   11  S      Val( 1S)     0.77968       0.04430
   174    H   11  S      Ryd( 2S)     0.00087       0.65244
   175    H   11  S      Ryd( 3S)     0.00010       2.09373
   176    H   11  px     Ryd( 2p)     0.00015       1.84170
   177    H   11  py     Ryd( 2p)     0.00021       2.40587
   178    H   11  pz     Ryd( 2p)     0.00012       1.98886

   179    H   12  S      Val( 1S)     0.77738       0.03764
   180    H   12  S      Ryd( 2S)     0.00073       0.61049
   181    H   12  S      Ryd( 3S)     0.00010       2.11792
   182    H   12  px     Ryd( 2p)     0.00019       1.83488
   183    H   12  py     Ryd( 2p)     0.00011       1.79974
   184    H   12  pz     Ryd( 2p)     0.00026       2.60000

   185    H   13  S      Val( 1S)     0.77545       0.04581
   186    H   13  S      Ryd( 2S)     0.00096       0.68319
   187    H   13  S      Ryd( 3S)     0.00010       2.05413
   188    H   13  px     Ryd( 2p)     0.00015       1.84843
   189    H   13  py     Ryd( 2p)     0.00020       2.39416
   190    H   13  pz     Ryd( 2p)     0.00012       1.98731

 WARNING:  1 low occupancy (<1.9990e) core orbital  found on  C    2

 WARNING:  Population inversion found on atom  C    1
           Population inversion found on atom  C    2
           Population inversion found on atom  C    3
           Population inversion found on atom  C    4
           Population inversion found on atom  C   10


 Summary of Natural Population Analysis:                  
                                                          
                                       Natural Population 
                Natural  -----------------------------------------------
    Atom  No    Charge         Core      Valence    Rydberg      Total
 -----------------------------------------------------------------------
      C    1    0.44686      1.99924     3.51901    0.03489     5.55314
      C    2    0.04238      1.99898     3.93406    0.02457     5.95762
      C    3   -0.27548      1.99910     4.26179    0.01458     6.27548
      C    4    0.11725      1.99931     3.85474    0.02870     5.88275
      H    5    0.20126      0.00000     0.79723    0.00151     0.79874
      H    6    0.21009      0.00000     0.78823    0.00168     0.78991
      H    7    0.18993      0.00000     0.80843    0.00163     0.81007
      N    8   -0.49397      1.99937     5.47451    0.02009     7.49397
      N    9   -0.49638      1.99929     5.47772    0.01936     7.49638
      C   10   -0.60510      1.99924     4.59583    0.01003     6.60510
      H   11    0.21888      0.00000     0.77968    0.00144     0.78112
      H   12    0.22124      0.00000     0.77738    0.00138     0.77876
      H   13    0.22303      0.00000     0.77545    0.00153     0.77697
 =======================================================================
   * Total *    0.00000     13.99454    35.84405    0.16141    50.00000

                                 Natural Population      
 --------------------------------------------------------
   Core                      13.99454 ( 99.9610% of  14)
   Valence                   35.84405 ( 99.5668% of  36)
   Natural Minimal Basis     49.83859 ( 99.6772% of  50)
   Natural Rydberg Basis      0.16141 (  0.3228% of  50)
 --------------------------------------------------------

    Atom  No          Natural Electron Configuration
 ----------------------------------------------------------------------------
      C    1      [core]2S( 0.86)2p( 2.66)3d( 0.01)4p( 0.02)
      C    2      [core]2S( 0.96)2p( 2.98)4p( 0.02)
      C    3      [core]2S( 1.00)2p( 3.26)4p( 0.01)
      C    4      [core]2S( 0.95)2p( 2.90)3d( 0.01)4p( 0.02)
      H    5            1S( 0.80)
      H    6            1S( 0.79)
      H    7            1S( 0.81)
      N    8      [core]2S( 1.41)2p( 4.07)3p( 0.01)3d( 0.01)
      N    9      [core]2S( 1.40)2p( 4.08)3p( 0.01)3d( 0.01)
      C   10      [core]2S( 1.09)2p( 3.50)
      H   11            1S( 0.78)
      H   12            1S( 0.78)
      H   13            1S( 0.78)


 NBO analysis skipped by request.
 Calling FoFJK, ICntrl=      2127 FMM=F ISym2X=0 I1Cent= 0 IOpClX= 0 NMat=1 NMatS=1 NMatT=0.
 ***** Axes restored to original set *****
 -------------------------------------------------------------------
 Center     Atomic                   Forces (Hartrees/Bohr)
 Number     Number              X              Y              Z
 -------------------------------------------------------------------
      1        6          -0.002444069    0.051690109    0.004074876
      2        6          -0.060049461   -0.039782277    0.003002724
      3        6          -0.054115979    0.004930541    0.005217347
      4        6           0.075290560   -0.031357399   -0.008892942
      5        1           0.007827064   -0.012012723   -0.001322821
      6        1           0.002666225    0.010050956    0.000430674
      7        1          -0.006864059    0.008857524    0.001169361
      8        7          -0.006669568   -0.044527579   -0.002052077
      9        7           0.039722651    0.027752332   -0.001902421
     10        6           0.012749778    0.034993671    0.005142091
     11        1          -0.012993066    0.001719384    0.006128430
     12        1          -0.004711939   -0.003718669   -0.014388191
     13        1           0.009591864   -0.008595871    0.003392949
 -------------------------------------------------------------------
 Cartesian Forces:  Max     0.075290560 RMS     0.025049774

 GradGradGradGradGradGradGradGradGradGradGradGradGradGradGradGradGradGrad
 Berny optimization.
 FormGI is forming the generalized inverse of G from B-inverse, IUseBI=4.
 Internal  Forces:  Max     0.063694480 RMS     0.016164655
 Search for a local minimum.
 Step number   1 out of a maximum of   65
 All quantities printed in internal units (Hartrees-Bohrs-Radians)
 Mixed Optimization -- RFO/linear search
 Second derivative matrix not updated -- first step.
 ITU=  0
     Eigenvalues ---    0.00237   0.00832   0.01019   0.01246   0.01577
     Eigenvalues ---    0.01810   0.02245   0.02350   0.07243   0.07243
     Eigenvalues ---    0.16000   0.16000   0.16000   0.16000   0.16000
     Eigenvalues ---    0.16000   0.22074   0.23215   0.24899   0.25000
     Eigenvalues ---    0.28519   0.28752   0.34197   0.35176   0.37230
     Eigenvalues ---    0.37230   0.37230   0.37230   0.37230   0.37230
     Eigenvalues ---    0.53439   0.64498   0.67410
 RFO step:  Lambda=-4.11801152D-02 EMin= 2.36824150D-03
 Linear search not attempted -- first point.
 Maximum step size (   0.300) exceeded in Quadratic search.
    -- Step size scaled by   0.860
 Iteration  1 RMS(Cart)=  0.06274867 RMS(Int)=  0.00096973
 Iteration  2 RMS(Cart)=  0.00088859 RMS(Int)=  0.00009918
 Iteration  3 RMS(Cart)=  0.00000145 RMS(Int)=  0.00009918
 Iteration  4 RMS(Cart)=  0.00000000 RMS(Int)=  0.00009918
 Variable       Old X    -DE/DX   Delta X   Delta X   Delta X     New X
                                 (Linear)    (Quad)   (Total)
    R1        2.78979  -0.05292   0.00000  -0.11731  -0.11721   2.67258
    R2        2.45685  -0.00712   0.00000  -0.00931  -0.00916   2.44769
    R3        2.91018  -0.02342   0.00000  -0.06173  -0.06173   2.84844
    R4        2.54923   0.00275   0.00000   0.00456   0.00447   2.55370
    R5        2.02201   0.00815   0.00000   0.01697   0.01697   2.03897
    R6        2.77864  -0.06369   0.00000  -0.13808  -0.13803   2.64062
    R7        2.89801  -0.05679   0.00000  -0.14558  -0.14572   2.75229
    R8        2.02201   0.01002   0.00000   0.02085   0.02085   2.04286
    R9        2.02201   0.01118   0.00000   0.02326   0.02326   2.04526
   R10        2.44443  -0.00607   0.00000  -0.00694  -0.00699   2.43744
   R11        2.02201   0.01430   0.00000   0.02976   0.02976   2.05177
   R12        2.02201   0.01557   0.00000   0.03240   0.03240   2.05441
   R13        2.02201   0.01304   0.00000   0.02713   0.02713   2.04913
    A1        2.11327   0.02484   0.00000   0.06986   0.07006   2.18333
    A2        2.08496  -0.02280   0.00000  -0.06559  -0.06571   2.01925
    A3        2.08496  -0.00204   0.00000  -0.00426  -0.00438   2.08058
    A4        2.10021   0.00693   0.00000   0.03452   0.03455   2.13476
    A5        2.08276   0.01013   0.00000   0.03358   0.03353   2.11629
    A6        2.10021  -0.01706   0.00000  -0.06811  -0.06808   2.03213
    A7        2.07213  -0.00855   0.00000  -0.02541  -0.02566   2.04646
    A8        2.10553   0.00710   0.00000   0.02481   0.02494   2.13047
    A9        2.10553   0.00144   0.00000   0.00060   0.00072   2.10625
   A10        2.10009  -0.00486   0.00000  -0.01554  -0.01544   2.08465
   A11        2.08301   0.01259   0.00000   0.04336   0.04316   2.12617
   A12        2.10009  -0.00773   0.00000  -0.02782  -0.02772   2.07236
   A13        2.10586  -0.02130   0.00000  -0.06462  -0.06459   2.04127
   A14        2.10934  -0.01772   0.00000  -0.05678  -0.05650   2.05284
   A15        1.91063   0.00109   0.00000   0.00584   0.00584   1.91648
   A16        1.91063   0.00029   0.00000  -0.00069  -0.00070   1.90993
   A17        1.91063  -0.00253   0.00000  -0.01005  -0.01006   1.90057
   A18        1.91063  -0.00126   0.00000  -0.00688  -0.00687   1.90376
   A19        1.91063   0.00218   0.00000   0.01318   0.01320   1.92383
   A20        1.91063   0.00022   0.00000  -0.00139  -0.00142   1.90921
    D1        0.00000  -0.00004   0.00000  -0.00088  -0.00098  -0.00099
    D2        3.14159   0.00040   0.00000   0.00655   0.00659  -3.13501
    D3        0.00000  -0.00003   0.00000   0.00019   0.00035   0.00035
    D4       -3.14159  -0.00047   0.00000  -0.00724  -0.00747   3.13412
    D5       -0.52360   0.00045   0.00000  -0.00055  -0.00046  -0.52405
    D6        1.57080  -0.00024   0.00000  -0.00583  -0.00574   1.56506
    D7       -2.61799  -0.00134   0.00000  -0.01411  -0.01399  -2.63199
    D8        2.61799   0.00088   0.00000   0.00675   0.00664   2.62464
    D9       -1.57080   0.00019   0.00000   0.00148   0.00136  -1.56943
   D10        0.52360  -0.00091   0.00000  -0.00681  -0.00690   0.51670
   D11        3.14159   0.00004   0.00000   0.00038   0.00038  -3.14121
   D12        0.00000  -0.00001   0.00000  -0.00024  -0.00023  -0.00024
   D13        0.00000  -0.00010   0.00000  -0.00134  -0.00135  -0.00135
   D14        3.14159  -0.00015   0.00000  -0.00196  -0.00197   3.13962
   D15        0.00000   0.00011   0.00000   0.00094   0.00087   0.00087
   D16       -3.14159  -0.00003   0.00000  -0.00078  -0.00077   3.14083
   D17        3.14159  -0.00003   0.00000  -0.00030  -0.00030   3.14129
   D18        0.00000   0.00003   0.00000   0.00068   0.00069   0.00069
   D19        0.00000   0.00002   0.00000   0.00032   0.00031   0.00031
   D20       -3.14159   0.00008   0.00000   0.00129   0.00129  -3.14030
   D21        0.00000   0.00005   0.00000   0.00044   0.00042   0.00042
   D22       -3.14159   0.00010   0.00000   0.00141   0.00140  -3.14019
         Item               Value     Threshold  Converged?
 Maximum Force            0.063694     0.000450     NO 
 RMS     Force            0.016165     0.000300     NO 
 Maximum Displacement     0.163360     0.001800     NO 
 RMS     Displacement     0.062950     0.001200     NO 
 Predicted change in Energy=-2.205180D-02
 GradGradGradGradGradGradGradGradGradGradGradGradGradGradGradGradGradGrad

                          Input orientation:                          
 ---------------------------------------------------------------------
 Center     Atomic      Atomic             Coordinates (Angstroms)
 Number     Number       Type             X           Y           Z
 ---------------------------------------------------------------------
      1          6           0       -1.939074   -0.040169    0.002197
      2          6           0        0.039913    1.132685   -0.126116
      3          6           0       -0.612280    2.310152   -0.006174
      4          6           0       -2.061755    2.259205    0.126735
      5          1           0        1.112452    1.075290   -0.228877
      6          1           0       -0.091401    3.257423   -0.006824
      7          1           0       -2.619674    3.181369    0.225363
      8          7           0       -2.705374    1.141433    0.131639
      9          7           0       -0.650359   -0.082262   -0.120853
     10          6           0       -2.720444   -1.329165    0.002503
     11          1           0       -3.619050   -1.214508    0.601008
     12          1           0       -3.002163   -1.581551   -1.016722
     13          1           0       -2.097039   -2.117592    0.409410
 ---------------------------------------------------------------------
                    Distance matrix (angstroms):
                    1          2          3          4          5
     1  C    0.000000
     2  C    2.304005   0.000000
     3  C    2.698974   1.351359   0.000000
     4  C    2.306010   2.397914   1.456447   0.000000
     5  H    3.257216   1.078978   2.132881   3.406421   0.000000
     6  H    3.779959   2.132133   1.081036   2.212820   2.502054
     7  H    3.300201   3.375508   2.200514   1.082307   4.309370
     8  N    1.414268   2.757375   2.401237   1.289838   3.835380
     9  N    1.295260   1.397354   2.395464   2.745142   2.111658
    10  C    1.507332   3.700921   4.205836   3.650439   4.530566
    11  H    2.135407   4.407497   4.672533   3.836246   5.321559
    12  H    2.131716   4.173066   4.677403   4.116220   4.960802
    13  H    2.122843   3.926532   4.688511   4.386058   4.571951
                    6          7          8          9         10
     6  H    0.000000
     7  H    2.540052   0.000000
     8  N    3.365924   2.043885   0.000000
     9  N    3.388058   3.827448   2.405050   0.000000
    10  C    5.286657   4.517160   2.474017   2.419759   0.000000
    11  H    5.728170   4.523671   2.570130   3.258249   1.085748
    12  H    5.736559   4.937052   2.970094   2.929407   1.087144
    13  H    5.752098   5.327853   3.326932   2.552769   1.084355
                   11         12         13
    11  H    0.000000
    12  H    1.769837   0.000000
    13  H    1.780109   1.772129   0.000000
 Stoichiometry    C5H6N2
 Framework group  C1[X(C5H6N2)]
 Deg. of freedom    33
 Full point group                 C1      NOp   1
 Largest Abelian subgroup         C1      NOp   1
 Largest concise Abelian subgroup C1      NOp   1
                         Standard orientation:                         
 ---------------------------------------------------------------------
 Center     Atomic      Atomic             Coordinates (Angstroms)
 Number     Number       Type             X           Y           Z
 ---------------------------------------------------------------------
      1          6           0        0.852484   -0.041839   -0.004280
      2          6           0       -1.149763   -1.181759    0.001170
      3          6           0       -1.846422   -0.023814    0.002009
      4          6           0       -1.080804    1.215163    0.000568
      5          1           0       -1.633803   -2.146072    0.001772
      6          1           0       -2.927282   -0.004300    0.003112
      7          1           0       -1.602950    2.163188    0.000894
      8          7           0        0.209029    1.217572   -0.002181
      9          7           0        0.247576   -1.187170   -0.002606
     10          6           0        2.359375   -0.005848    0.001473
     11          1           0        2.707937    0.888935   -0.505198
     12          1           0        2.716962    0.005003    1.028068
     13          1           0        2.733683   -0.890982   -0.500779
 ---------------------------------------------------------------------
 Rotational constants (GHZ):      5.7737188      2.7230292      1.8719537
 Standard basis: 6-311+G(d,p) (5D, 7F)
 There are   197 symmetry adapted cartesian basis functions of A   symmetry.
 There are   190 symmetry adapted basis functions of A   symmetry.
   190 basis functions,   300 primitive gaussians,   197 cartesian basis functions
    25 alpha electrons       25 beta electrons
       nuclear repulsion energy       274.8186874869 Hartrees.
 NAtoms=   13 NActive=   13 NUniq=   13 SFac= 1.00D+00 NAtFMM=   60 NAOKFM=F Big=F
 Integral buffers will be    131072 words long.
 Raffenetti 2 integral format.
 Two-electron integral symmetry is turned on.
 One-electron integrals computed using PRISM.
 NBasis=   190 RedAO= T EigKep=  2.01D-05  NBF=   190
 NBsUse=   190 1.00D-06 EigRej= -1.00D+00 NBFU=   190
 Initial guess from the checkpoint file:  "Chart2_2.chk"
 B after Tr=     0.000000    0.000000    0.000000
         Rot=    0.999991    0.000143    0.000034    0.004192 Ang=   0.48 deg.
 ExpMin= 4.38D-02 ExpMax= 6.29D+03 ExpMxC= 9.49D+02 IAcc=2 IRadAn=         4 AccDes= 0.00D+00
 Harris functional with IExCor=  402 and IRadAn=       4 diagonalized for initial guess.
 HarFok:  IExCor=  402 AccDes= 0.00D+00 IRadAn=         4 IDoV= 1 UseB2=F ITyADJ=14
 ICtDFT=  3500011 ScaDFX=  1.000000  1.000000  1.000000  1.000000
 FoFCou: FMM=F IPFlag=           0 FMFlag=      100000 FMFlg1=           0
         NFxFlg=           0 DoJE=T BraDBF=F KetDBF=T FulRan=T
         wScrn=  0.000000 ICntrl=     500 IOpCl=  0 I1Cent=   200000004 NGrid=           0
         NMat0=    1 NMatS0=      1 NMatT0=    0 NMatD0=    1 NMtDS0=    0 NMtDT0=    0
 Petite list used in FoFCou.
 Requested convergence on RMS density matrix=1.00D-08 within 128 cycles.
 Requested convergence on MAX density matrix=1.00D-06.
 Requested convergence on             energy=1.00D-06.
 No special actions if energy rises.
 SCF Done:  E(RB3LYP) =  -303.719090098     A.U. after   12 cycles
            NFock= 12  Conv=0.57D-08     -V/T= 2.0045
 Calling FoFJK, ICntrl=      2127 FMM=F ISym2X=0 I1Cent= 0 IOpClX= 0 NMat=1 NMatS=1 NMatT=0.
 ***** Axes restored to original set *****
 -------------------------------------------------------------------
 Center     Atomic                   Forces (Hartrees/Bohr)
 Number     Number              X              Y              Z
 -------------------------------------------------------------------
      1        6          -0.031977789    0.024298557    0.004433221
      2        6          -0.016542297   -0.033735890   -0.000343421
      3        6          -0.031112569    0.014831909    0.003568469
      4        6           0.044524936    0.010816383   -0.003821657
      5        1           0.003301039   -0.002579161   -0.000430954
      6        1           0.000267124    0.001512314    0.000157285
      7        1          -0.003155791    0.002626123    0.000442877
      8        7          -0.000816974   -0.040789625   -0.002224719
      9        7           0.034469837    0.021024082   -0.001976760
     10        6           0.005032457    0.008945785    0.004165351
     11        1          -0.003209237   -0.000301302    0.000193940
     12        1          -0.001972427   -0.002269200   -0.003615883
     13        1           0.001191690   -0.004379975   -0.000547748
 -------------------------------------------------------------------
 Cartesian Forces:  Max     0.044524936 RMS     0.015913328

 GradGradGradGradGradGradGradGradGradGradGradGradGradGradGradGradGradGrad
 Berny optimization.
 Using GEDIIS/GDIIS optimizer.
 FormGI is forming the generalized inverse of G from B-inverse, IUseBI=4.
 Internal  Forces:  Max     0.028249985 RMS     0.007926556
 Search for a local minimum.
 Step number   2 out of a maximum of   65
 All quantities printed in internal units (Hartrees-Bohrs-Radians)
 Mixed Optimization -- RFO/linear search
 Update second derivatives using D2CorX and points    1    2
 DE= -2.49D-02 DEPred=-2.21D-02 R= 1.13D+00
 TightC=F SS=  1.41D+00  RLast= 3.01D-01 DXNew= 5.0454D-01 9.0214D-01
 Trust test= 1.13D+00 RLast= 3.01D-01 DXMaxT set to 5.05D-01
 ITU=  1  0
 Use linear search instead of GDIIS.
     Eigenvalues ---    0.00237   0.00871   0.01041   0.01252   0.01589
     Eigenvalues ---    0.01831   0.02253   0.02367   0.07200   0.07305
     Eigenvalues ---    0.15655   0.16000   0.16000   0.16000   0.16000
     Eigenvalues ---    0.16327   0.20256   0.22976   0.23317   0.24991
     Eigenvalues ---    0.26801   0.29730   0.31089   0.34474   0.37201
     Eigenvalues ---    0.37230   0.37230   0.37230   0.37230   0.37580
     Eigenvalues ---    0.53641   0.64621   0.75742
 RFO step:  Lambda=-6.60682154D-03 EMin= 2.36811031D-03
 Quartic linear search produced a step of  0.44702.
 Iteration  1 RMS(Cart)=  0.02797094 RMS(Int)=  0.00037456
 Iteration  2 RMS(Cart)=  0.00030818 RMS(Int)=  0.00009065
 Iteration  3 RMS(Cart)=  0.00000012 RMS(Int)=  0.00009065
 Variable       Old X    -DE/DX   Delta X   Delta X   Delta X     New X
                                 (Linear)    (Quad)   (Total)
    R1        2.67258  -0.02825  -0.05240  -0.06024  -0.11255   2.56003
    R2        2.44769   0.01785  -0.00409   0.04124   0.03719   2.48487
    R3        2.84844  -0.00225  -0.02760   0.01898  -0.00862   2.83983
    R4        2.55370   0.01391   0.00200   0.03367   0.03558   2.58928
    R5        2.03897   0.00346   0.00758   0.00558   0.01316   2.05213
    R6        2.64062  -0.02773  -0.06170  -0.04876  -0.11052   2.53010
    R7        2.75229  -0.02738  -0.06514  -0.06135  -0.12652   2.62577
    R8        2.04286   0.00145   0.00932  -0.00380   0.00552   2.04838
    R9        2.04526   0.00390   0.01040   0.00445   0.01485   2.06011
   R10        2.43744   0.02074  -0.00312   0.04628   0.04321   2.48065
   R11        2.05177   0.00273   0.01330  -0.00292   0.01038   2.06215
   R12        2.05441   0.00443   0.01448   0.00235   0.01683   2.07124
   R13        2.04913   0.00366   0.01213   0.00181   0.01393   2.06307
    A1        2.18333   0.00125   0.03132  -0.02923   0.00218   2.18551
    A2        2.01925  -0.00173  -0.02937   0.02406  -0.00538   2.01387
    A3        2.08058   0.00048  -0.00196   0.00514   0.00312   2.08370
    A4        2.13476   0.00058   0.01544  -0.01178   0.00373   2.13849
    A5        2.11629   0.00374   0.01499   0.00266   0.01751   2.13380
    A6        2.03213  -0.00432  -0.03043   0.00912  -0.02124   2.01089
    A7        2.04646  -0.00384  -0.01147  -0.01079  -0.02238   2.02408
    A8        2.13047   0.00244   0.01115   0.00241   0.01362   2.14409
    A9        2.10625   0.00140   0.00032   0.00837   0.00876   2.11501
   A10        2.08465  -0.00044  -0.00690   0.00664  -0.00027   2.08438
   A11        2.12617   0.00362   0.01929   0.00291   0.02222   2.14839
   A12        2.07236  -0.00318  -0.01239  -0.00955  -0.02195   2.05041
   A13        2.04127  -0.00362  -0.02887   0.01650  -0.01218   2.02910
   A14        2.05284  -0.00115  -0.02526   0.01795  -0.00734   2.04550
   A15        1.91648   0.00097   0.00261   0.00582   0.00825   1.92473
   A16        1.90993   0.00111  -0.00031   0.00616   0.00580   1.91573
   A17        1.90057   0.00276  -0.00450   0.03288   0.02816   1.92873
   A18        1.90376  -0.00191  -0.00307  -0.01786  -0.02093   1.88283
   A19        1.92383  -0.00050   0.00590  -0.00481   0.00074   1.92457
   A20        1.90921  -0.00242  -0.00064  -0.02220  -0.02293   1.88628
    D1       -0.00099  -0.00002  -0.00044   0.00036  -0.00014  -0.00112
    D2       -3.13501   0.00032   0.00295   0.00527   0.00822  -3.12679
    D3        0.00035   0.00001   0.00015   0.00088   0.00111   0.00146
    D4        3.13412  -0.00036  -0.00334  -0.00412  -0.00759   3.12654
    D5       -0.52405   0.00058  -0.00020  -0.00247  -0.00248  -0.52653
    D6        1.56506  -0.00049  -0.00256  -0.01700  -0.01955   1.54551
    D7       -2.63199  -0.00112  -0.00626  -0.02062  -0.02693  -2.65892
    D8        2.62464   0.00090   0.00297   0.00230   0.00536   2.62999
    D9       -1.56943  -0.00017   0.00061  -0.01224  -0.01171  -1.58115
   D10        0.51670  -0.00080  -0.00308  -0.01585  -0.01909   0.49761
   D11       -3.14121   0.00001   0.00017  -0.00033  -0.00016  -3.14137
   D12       -0.00024  -0.00003  -0.00010  -0.00110  -0.00120  -0.00144
   D13       -0.00135  -0.00004  -0.00060   0.00122   0.00062  -0.00073
   D14        3.13962  -0.00008  -0.00088   0.00045  -0.00042   3.13920
   D15        0.00087   0.00003   0.00039  -0.00168  -0.00132  -0.00045
   D16        3.14083  -0.00002  -0.00034  -0.00023  -0.00057   3.14025
   D17        3.14129  -0.00001  -0.00013   0.00029   0.00016   3.14145
   D18        0.00069   0.00002   0.00031   0.00008   0.00040   0.00109
   D19        0.00031   0.00002   0.00014   0.00105   0.00118   0.00149
   D20       -3.14030   0.00006   0.00058   0.00084   0.00143  -3.13887
   D21        0.00042   0.00001   0.00019  -0.00084  -0.00065  -0.00023
   D22       -3.14019   0.00004   0.00063  -0.00105  -0.00042  -3.14061
         Item               Value     Threshold  Converged?
 Maximum Force            0.028250     0.000450     NO 
 RMS     Force            0.007927     0.000300     NO 
 Maximum Displacement     0.074823     0.001800     NO 
 RMS     Displacement     0.027992     0.001200     NO 
 Predicted change in Energy=-7.369481D-03
 GradGradGradGradGradGradGradGradGradGradGradGradGradGradGradGradGradGrad

                          Input orientation:                          
 ---------------------------------------------------------------------
 Center     Atomic      Atomic             Coordinates (Angstroms)
 Number     Number       Type             X           Y           Z
 ---------------------------------------------------------------------
      1          6           0       -1.936884   -0.020301    0.012553
      2          6           0        0.016729    1.118313   -0.121553
      3          6           0       -0.640387    2.315114   -0.006317
      4          6           0       -2.022160    2.240938    0.119781
      5          1           0        1.095674    1.052220   -0.225375
      6          1           0       -0.127635    3.270120   -0.009980
      7          1           0       -2.601345    3.159559    0.215379
      8          7           0       -2.680874    1.105534    0.131749
      9          7           0       -0.628402   -0.054848   -0.112922
     10          6           0       -2.712315   -1.307551    0.008598
     11          1           0       -3.620453   -1.203859    0.604703
     12          1           0       -3.009319   -1.558154   -1.016250
     13          1           0       -2.098875   -2.124774    0.392926
 ---------------------------------------------------------------------
                    Distance matrix (angstroms):
                    1          2          3          4          5
     1  C    0.000000
     2  C    2.265178   0.000000
     3  C    2.671222   1.370187   0.000000
     4  C    2.265385   2.339999   1.389497   0.000000
     5  H    3.225418   1.085942   2.157961   3.354560   0.000000
     6  H    3.755098   2.159528   1.083958   2.159926   2.542039
     7  H    3.254867   3.336842   2.146530   1.090165   4.278211
     8  N    1.354708   2.709499   2.376076   1.312703   3.793770
     9  N    1.314938   1.338871   2.372389   2.695802   2.051995
    10  C    1.502771   3.653688   4.173346   3.616690   4.485982
    11  H    2.141461   4.375960   4.651593   3.828356   5.293465
    12  H    2.138584   4.137744   4.651238   4.086337   4.928539
    13  H    2.144698   3.906159   4.690329   4.374920   4.547607
                    6          7          8          9         10
     6  H    0.000000
     7  H    2.486414   0.000000
     8  N    3.350306   2.057265   0.000000
     9  N    3.364042   3.785855   2.370441   0.000000
    10  C    5.256994   4.473270   2.416430   2.434486   0.000000
    11  H    5.709125   4.497729   2.537674   3.284446   1.091242
    12  H    5.712173   4.892869   2.919077   2.957143   1.096051
    13  H    5.757864   5.311136   3.292692   2.588970   1.091727
                   11         12         13
    11  H    0.000000
    12  H    1.768191   0.000000
    13  H    1.791127   1.770803   0.000000
 Stoichiometry    C5H6N2
 Framework group  C1[X(C5H6N2)]
 Deg. of freedom    33
 Full point group                 C1      NOp   1
 Largest Abelian subgroup         C1      NOp   1
 Largest concise Abelian subgroup C1      NOp   1
                         Standard orientation:                         
 ---------------------------------------------------------------------
 Center     Atomic      Atomic             Coordinates (Angstroms)
 Number     Number       Type             X           Y           Z
 ---------------------------------------------------------------------
      1          6           0        0.837149   -0.030278   -0.009489
      2          6           0       -1.125120   -1.161829    0.001535
      3          6           0       -1.833718    0.010899    0.004757
      4          6           0       -1.079252    1.177720    0.001372
      5          1           0       -1.606800   -2.135097    0.003490
      6          1           0       -2.917190    0.043163    0.008135
      7          1           0       -1.585779    2.143062    0.003539
      8          7           0        0.233423    1.182460   -0.005751
      9          7           0        0.213479   -1.187897   -0.005336
     10          6           0        2.339607   -0.002046    0.002468
     11          1           0        2.705091    0.893432   -0.502854
     12          1           0        2.701582    0.023797    1.036699
     13          1           0        2.742780   -0.897086   -0.475261
 ---------------------------------------------------------------------
 Rotational constants (GHZ):      5.9735547      2.7682262      1.9140894
 Standard basis: 6-311+G(d,p) (5D, 7F)
 There are   197 symmetry adapted cartesian basis functions of A   symmetry.
 There are   190 symmetry adapted basis functions of A   symmetry.
   190 basis functions,   300 primitive gaussians,   197 cartesian basis functions
    25 alpha electrons       25 beta electrons
       nuclear repulsion energy       277.7242739812 Hartrees.
 NAtoms=   13 NActive=   13 NUniq=   13 SFac= 1.00D+00 NAtFMM=   60 NAOKFM=F Big=F
 Integral buffers will be    131072 words long.
 Raffenetti 2 integral format.
 Two-electron integral symmetry is turned on.
 One-electron integrals computed using PRISM.
 NBasis=   190 RedAO= T EigKep=  1.78D-05  NBF=   190
 NBsUse=   190 1.00D-06 EigRej= -1.00D+00 NBFU=   190
 Initial guess from the checkpoint file:  "Chart2_2.chk"
 B after Tr=     0.000000    0.000000    0.000000
         Rot=    0.999998    0.000439    0.000159    0.001902 Ang=   0.22 deg.
 ExpMin= 4.38D-02 ExpMax= 6.29D+03 ExpMxC= 9.49D+02 IAcc=2 IRadAn=         4 AccDes= 0.00D+00
 Harris functional with IExCor=  402 and IRadAn=       4 diagonalized for initial guess.
 HarFok:  IExCor=  402 AccDes= 0.00D+00 IRadAn=         4 IDoV= 1 UseB2=F ITyADJ=14
 ICtDFT=  3500011 ScaDFX=  1.000000  1.000000  1.000000  1.000000
 FoFCou: FMM=F IPFlag=           0 FMFlag=      100000 FMFlg1=           0
         NFxFlg=           0 DoJE=T BraDBF=F KetDBF=T FulRan=T
         wScrn=  0.000000 ICntrl=     500 IOpCl=  0 I1Cent=   200000004 NGrid=           0
         NMat0=    1 NMatS0=      1 NMatT0=    0 NMatD0=    1 NMtDS0=    0 NMtDT0=    0
 Petite list used in FoFCou.
 Requested convergence on RMS density matrix=1.00D-08 within 128 cycles.
 Requested convergence on MAX density matrix=1.00D-06.
 Requested convergence on             energy=1.00D-06.
 No special actions if energy rises.
 EnCoef did     1 forward-backward iterations
 SCF Done:  E(RB3LYP) =  -303.725964711     A.U. after   12 cycles
            NFock= 12  Conv=0.42D-08     -V/T= 2.0038
 Calling FoFJK, ICntrl=      2127 FMM=F ISym2X=0 I1Cent= 0 IOpClX= 0 NMat=1 NMatS=1 NMatT=0.
 ***** Axes restored to original set *****
 -------------------------------------------------------------------
 Center     Atomic                   Forces (Hartrees/Bohr)
 Number     Number              X              Y              Z
 -------------------------------------------------------------------
      1        6          -0.023450636    0.002221299    0.002296697
      2        6           0.009184949   -0.010264744   -0.001454643
      3        6           0.001231278    0.011128670    0.000387665
      4        6          -0.000005685    0.017579657    0.000622033
      5        1           0.000685127    0.001989942    0.000037029
      6        1           0.000555842   -0.001335945   -0.000073530
      7        1          -0.001301708   -0.002096112    0.000036027
      8        7          -0.004199467   -0.012381931   -0.000124371
      9        7           0.014302699   -0.004492164   -0.001384331
     10        6           0.002531413   -0.002787366    0.000807633
     11        1           0.000780165    0.000101505   -0.000773427
     12        1           0.000197544    0.000025830    0.000549856
     13        1          -0.000511520    0.000311359   -0.000926639
 -------------------------------------------------------------------
 Cartesian Forces:  Max     0.023450636 RMS     0.006434646

 GradGradGradGradGradGradGradGradGradGradGradGradGradGradGradGradGradGrad
 Berny optimization.
 Using GEDIIS/GDIIS optimizer.
 FormGI is forming the generalized inverse of G from B-inverse, IUseBI=4.
 Internal  Forces:  Max     0.017761957 RMS     0.004062866
 Search for a local minimum.
 Step number   3 out of a maximum of   65
 All quantities printed in internal units (Hartrees-Bohrs-Radians)
 Mixed Optimization -- RFO/linear search
 Update second derivatives using D2CorX and points    1    2    3
 DE= -6.87D-03 DEPred=-7.37D-03 R= 9.33D-01
 TightC=F SS=  1.41D+00  RLast= 2.30D-01 DXNew= 8.4853D-01 6.8988D-01
 Trust test= 9.33D-01 RLast= 2.30D-01 DXMaxT set to 6.90D-01
 ITU=  1  1  0
[...]
 Vib (V=0)       0.311360D+02          1.493263          3.438365
 Vib (V=0)    1  0.921810D+01          0.964641          2.221168
 Vib (V=0)    2  0.172958D+01          0.237941          0.547880
 Vib (V=0)    3  0.120153D+01          0.079735          0.183597
 Vib (V=0)    4  0.116230D+01          0.065320          0.150404
 Vib (V=0)    5  0.111439D+01          0.047038          0.108309
 Vib (V=0)    6  0.106337D+01          0.026683          0.061441
 Electronic      0.100000D+01          0.000000          0.000000
 Translational   0.358521D+08          7.554515         17.394913
 Rotational      0.156509D+06          5.194540         11.960871
 ***** Axes restored to original set *****
 -------------------------------------------------------------------
 Center     Atomic                   Forces (Hartrees/Bohr)
 Number     Number              X              Y              Z
 -------------------------------------------------------------------
      1        6          -0.000003677   -0.000070096    0.000042975
      2        6          -0.000036377    0.000098296   -0.000000295
      3        6          -0.000123270   -0.000006433   -0.000008849
      4        6           0.000056344   -0.000026485    0.000055318
      5        1           0.000020430    0.000006844    0.000002943
      6        1           0.000020730    0.000012177    0.000003899
      7        1           0.000014509    0.000016675   -0.000022417
      8        7           0.000031138    0.000148110   -0.000027693
      9        7           0.000012240   -0.000125444   -0.000022769
     10        6           0.000004237   -0.000084028   -0.000116877
     11        1          -0.000008508    0.000013250    0.000027379
     12        1           0.000011202    0.000020482    0.000036987
     13        1           0.000001001   -0.000003348    0.000029400
 -------------------------------------------------------------------
 Cartesian Forces:  Max     0.000148110 RMS     0.000052299
 FormGI is forming the generalized inverse of G from B-inverse, IUseBI=4.

 GradGradGradGradGradGradGradGradGradGradGradGradGradGradGradGradGradGrad
 Berny optimization.
 Internal  Forces:  Max     0.000121474 RMS     0.000034961
 Search for a local minimum.
 Step number   1 out of a maximum of    2
 All quantities printed in internal units (Hartrees-Bohrs-Radians)
 Second derivative matrix not updated -- analytic derivatives used.
 ITU=  0
     Eigenvalues ---    0.00004   0.01372   0.02145   0.02179   0.02910
     Eigenvalues ---    0.03346   0.03743   0.04168   0.05516   0.05683
     Eigenvalues ---    0.10533   0.12385   0.12467   0.13336   0.13803
     Eigenvalues ---    0.14242   0.19076   0.21324   0.22643   0.24348
     Eigenvalues ---    0.28405   0.31262   0.33168   0.34437   0.34748
     Eigenvalues ---    0.34828   0.34979   0.36126   0.43484   0.45589
     Eigenvalues ---    0.49547   0.50894   0.57288
 Angle between quadratic step and forces=  88.50 degrees.
 Linear search not attempted -- first point.
 Iteration  1 RMS(Cart)=  0.01982873 RMS(Int)=  0.00034907
 Iteration  2 RMS(Cart)=  0.00036050 RMS(Int)=  0.00000021
 Iteration  3 RMS(Cart)=  0.00000009 RMS(Int)=  0.00000020
 Variable       Old X    -DE/DX   Delta X   Delta X   Delta X     New X
                                 (Linear)    (Quad)   (Total)
    R1        2.53626   0.00012   0.00000  -0.00010  -0.00010   2.53616
    R2        2.53517   0.00002   0.00000   0.00040   0.00040   2.53557
    R3        2.83825   0.00004   0.00000   0.00014   0.00014   2.83839
    R4        2.62666   0.00000   0.00000   0.00030   0.00030   2.62695
    R5        2.05385   0.00002   0.00000   0.00008   0.00008   2.05393
    R6        2.52199   0.00010   0.00000  -0.00022  -0.00022   2.52177
    R7        2.62815  -0.00012   0.00000  -0.00058  -0.00058   2.62757
    R8        2.04570   0.00002   0.00000   0.00006   0.00006   2.04576
    R9        2.05397   0.00000   0.00000   0.00000   0.00000   2.05397
   R10        2.52068  -0.00004   0.00000   0.00032   0.00032   2.52100
   R11        2.06041   0.00002   0.00000  -0.00041  -0.00041   2.06000
   R12        2.07007  -0.00004   0.00000  -0.00003  -0.00003   2.07004
   R13        2.05890   0.00001   0.00000   0.00038   0.00038   2.05929
    A1        2.18563  -0.00005   0.00000  -0.00009  -0.00009   2.18554
    A2        2.04670   0.00005   0.00000   0.00118   0.00118   2.04788
    A3        2.05073  -0.00001   0.00000  -0.00111  -0.00111   2.04962
    A4        2.11557  -0.00003   0.00000  -0.00022  -0.00022   2.11535
    A5        2.13713   0.00005   0.00000   0.00016   0.00016   2.13728
    A6        2.03049  -0.00002   0.00000   0.00007   0.00007   2.03055
    A7        2.02635   0.00001   0.00000   0.00002   0.00002   2.02637
    A8        2.12870  -0.00002   0.00000  -0.00024  -0.00024   2.12845
    A9        2.12814   0.00000   0.00000   0.00022   0.00022   2.12836
   A10        2.11518  -0.00002   0.00000  -0.00001  -0.00001   2.11517
   A11        2.13726  -0.00001   0.00000  -0.00003  -0.00003   2.13723
   A12        2.03074   0.00003   0.00000   0.00004   0.00004   2.03078
   A13        2.03994   0.00006   0.00000   0.00010   0.00010   2.04004
   A14        2.04007  -0.00007   0.00000  -0.00016  -0.00016   2.03991
   A15        1.92826  -0.00003   0.00000   0.00002   0.00002   1.92829
   A16        1.91331   0.00000   0.00000  -0.00032  -0.00032   1.91299
   A17        1.92843   0.00000   0.00000  -0.00005  -0.00005   1.92838
   A18        1.87718   0.00002   0.00000   0.00225   0.00225   1.87942
   A19        1.92963   0.00000   0.00000   0.00042   0.00042   1.93005
   A20        1.88578   0.00002   0.00000  -0.00232  -0.00232   1.88346
    D1        0.00212  -0.00001   0.00000  -0.00034  -0.00034   0.00178
    D2       -3.12133   0.00000   0.00000   0.00073   0.00073  -3.12060
    D3       -0.00195   0.00000   0.00000   0.00018   0.00018  -0.00176
    D4        3.12146   0.00000   0.00000  -0.00087  -0.00087   3.12060
    D5       -0.59467  -0.00001   0.00000   0.04702   0.04702  -0.54765
    D6        1.47109  -0.00001   0.00000   0.04959   0.04959   1.52068
    D7       -2.73566   0.00001   0.00000   0.04651   0.04651  -2.68915
    D8        2.56363   0.00000   0.00000   0.04800   0.04800   2.61162
    D9       -1.65380   0.00000   0.00000   0.05057   0.05057  -1.60323
   D10        0.42265   0.00002   0.00000   0.04748   0.04748   0.47013
   D11       -3.13978   0.00000   0.00000   0.00003   0.00003  -3.13975
   D12       -0.00089   0.00000   0.00000  -0.00013  -0.00013  -0.00102
   D13       -0.00004   0.00000   0.00000  -0.00004  -0.00004  -0.00008
   D14        3.13885   0.00000   0.00000  -0.00020  -0.00020   3.13865
   D15        0.00083   0.00000   0.00000   0.00001   0.00001   0.00084
   D16        3.14065   0.00000   0.00000  -0.00005  -0.00005   3.14060
   D17        3.13930   0.00001   0.00000   0.00043   0.00043   3.13973
   D18        0.00023  -0.00001   0.00000  -0.00013  -0.00013   0.00009
   D19        0.00041   0.00002   0.00000   0.00060   0.00060   0.00101
   D20       -3.13867  -0.00001   0.00000   0.00004   0.00004  -3.13863
   D21       -0.00118   0.00001   0.00000   0.00031   0.00031  -0.00088
   D22       -3.14037  -0.00001   0.00000  -0.00023  -0.00023  -3.14060
         Item               Value     Threshold  Converged?
 Maximum Force            0.000121     0.000450     YES
 RMS     Force            0.000035     0.000300     YES
 Maximum Displacement     0.070316     0.001800     NO 
 RMS     Displacement     0.019828     0.001200     NO 
 Predicted change in Energy=-3.999130D-07
 GradGradGradGradGradGradGradGradGradGradGradGradGradGradGradGradGradGrad

 1\1\GINC-COREV4-21-004\Freq\RB3LYP\6-311+G(d,p)\C5H6N2\ROOT\01-Nov-202
 1\0\\#N Geom=AllCheck Guess=TCheck SCRF=Check GenChk RB3LYP/6-311+G(d,
 p) Freq\\Title Card Required\\0,1\C,-1.9652126289,-0.0112917406,0.0197
 981917\C,0.0201585999,1.1033222042,-0.1074223009\C,-0.6366965288,2.324
 3064684,-0.0086980973\C,-2.0215016124,2.2665923735,0.1061751938\H,1.10
 19107772,1.0514842552,-0.1988992947\H,-0.1016399287,3.2653233148,-0.01
 80383868\H,-2.617527098,3.1715714517,0.190705566\N,-2.6910188993,1.113
 0127727,0.1220792651\N,-0.6294568623,-0.0624036467,-0.0938393062\C,-2.
 7123961956,-1.3141479603,0.009823363\H,-3.5948817029,-1.252729253,0.64
 72019167\H,-3.0541749515,-1.5344781794,-1.0073385273\H,-2.0638087487,-
 2.1282516705,0.3317440169\\Version=ES64L-G09RevD.01\State=1-A\HF=-303.
 7272695\RMSD=2.744e-09\RMSF=5.230e-05\ZeroPoint=0.1036919\Thermal=0.10
 97262\Dipole=0.3349588,0.6025872,-0.0259351\DipoleDeriv=0.5487367,0.34
 86587,-0.0053695,0.3431079,0.9358956,0.0281771,0.0137808,0.0608059,0.1
 404098,0.4810319,0.0751699,-0.0299602,-0.1463796,0.4925262,0.0287247,-
 0.0447661,0.0067367,0.0339164,-0.4180011,0.2100956,0.0335081,0.2083349
 ,-0.1704654,-0.0222224,0.0341597,-0.0213165,-0.0992777,0.5201503,-0.12
 44888,-0.0485809,0.1004461,0.4522903,0.0113026,-0.0401408,0.0228395,0.
 0341534,-0.1052887,-0.0342691,0.015033,-0.0029883,0.0687144,-0.000323,
 0.015746,0.0031651,0.0918422,0.0441529,-0.0710698,0.0058584,-0.0711465
 ,-0.0405699,-0.0009688,0.0058278,-0.0009955,0.1453321,0.0400134,0.0832
 259,0.0079195,0.0519824,-0.0769048,-0.0106766,0.0078048,-0.0134084,0.0
 915523,-0.4877138,0.0183723,0.0260737,-0.2435776,-0.8575634,-0.012983,
 0.0126959,-0.0255379,-0.2644736,-0.6641659,-0.3387728,0.0084642,-0.083
 6382,-0.6827572,-0.0085641,0.0278641,0.0148495,-0.2621048,-0.0136769,-
 0.1842379,-0.011351,-0.1456356,-0.1450537,-0.0133118,-0.0682648,-0.111
 2056,0.061375,-0.0157156,-0.0210786,0.0756492,0.0169117,0.0335351,-0.0
 293364,0.098152,0.0283099,0.0275554,0.0648911,-0.0460639,-0.0374718,-0
 .0450286,0.0171404,-0.0018407,-0.0509239,-0.0287587,-0.0723586,0.00558
 58,0.0844586,-0.0397728,0.0176114,-0.0267876,0.0320224,-0.0119356,0.06
 4516,0.0720782\Polar=77.994951,6.8776762,85.5621412,-2.2037199,1.60369
 87,44.3291933\PG=C01 [X(C5H6N2)]\NImag=0\\0.63206229,0.03627685,0.6721
 6325,-0.03087100,0.01741249,0.22404359,-0.05566637,-0.04287882,0.00284
 822,0.76357524,-0.10311248,0.03509958,0.01037066,-0.00776926,0.6546319
 5,0.00118483,0.00420928,0.00345819,-0.05039277,0.01833047,0.16653813,-
 0.06535689,0.03919283,0.00603552,-0.19011644,0.05040753,0.01194591,0.6
 7483455,0.03903128,-0.01947658,-0.00316379,0.11918695,-0.27820644,-0.0
 1757989,0.05147599,0.73903085,0.00561819,-0.00386077,-0.01361041,0.014
 35441,-0.01199015,-0.06990974,-0.04463656,0.01847809,0.12336790,0.0754
 0886,-0.02607028,-0.00625186,-0.02412619,0.08808141,0.00578061,-0.3274
 6063,-0.03222420,0.02054954,0.68748477,0.03457467,-0.09660907,-0.00674
 469,0.03716654,0.05021211,-0.00158470,0.03655836,-0.13867712,-0.005866
 43,-0.05125157,0.73056559,-0.00524765,-0.00175078,0.00387364,0.0041194
 2,-0.00597498,0.00749915,0.02317009,0.00008102,-0.07034200,-0.04647766
 ,0.02526525,0.16663740,0.00242534,-0.00217613,0.00066603,-0.32249724,0
 .02509759,0.02387786,-0.00961657,-0.00169719,0.00149631,0.00068397,0.0
 0328761,0.00079550,0.34671340,-0.00369130,-0.00375463,-0.00036491,0.02
 617796,-0.05881468,-0.00260027,0.02711229,0.00427509,-0.00242786,0.002
 25284,-0.00551012,-0.00069430,-0.01467005,0.06506077,0.00079957,-0.000
 22199,0.01186524,0.02387885,-0.00257363,-0.04739979,0.00255568,-0.0000
 5245,0.00911786,0.00074517,-0.00078498,0.00866475,-0.02704160,0.002535
 24,0.02918068,-0.00209090,0.00179922,0.00022465,0.01297922,0.01396514,
 -0.00054464,-0.12784811,-0.12144851,0.00326257,-0.00654291,-0.02944233
 ,-0.00057267,0.00040265,-0.00065788,-0.00031516,0.12852592,0.00176847,
 -0.00000666,-0.00017320,-0.01785226,-0.01577763,0.00087660,-0.12144152
 ,-0.27240504,0.00124671,0.00235733,0.00379697,-0.00005739,0.00038081,0
 .00058670,0.00010427,0.13152214,0.28509134,0.00033624,0.00001882,-0.00
 004838,-0.00177707,-0.00164299,0.00013877,0.00322225,0.00116751,-0.034
 58250,0.00074654,0.00261987,0.00007846,-0.00027489,0.00018585,-0.00306
 255,-0.00372041,-0.00123546,0.02514751,0.00043926,-0.00480864,0.000740
 17,-0.00630561,-0.00189586,0.00120341,-0.01045309,0.02658058,0.0026773
 2,-0.14976274,0.12850583,0.01371357,-0.00060084,0.00151188,-0.00000043
 ,0.00065230,-0.00050795,-0.00033644,0.15099035,-0.00337390,-0.00174671
 ,-0.00031775,-0.00086034,0.00149030,-0.00018647,-0.00221486,0.00513075
 ,0.00002045,0.12743216,-0.23163527,-0.01775446,-0.00024340,0.00015348,
 0.00007301,0.00053344,0.00033180,0.00008206,-0.13060526,0.26094463,0.0
 0092982,0.00010406,0.01196776,0.00124019,-0.00011231,0.00857810,0.0015
 7206,-0.00240391,0.00908241,0.01365443,-0.01792867,-0.04718927,-0.0000
 5428,-0.00007969,-0.00119815,-0.00029096,0.00016898,-0.00303056,-0.015
 46961,0.01980083,0.02894004,-0.17602427,0.08833863,0.01077196,0.005793
 80,0.01013449,-0.00108214,-0.02346057,-0.04098726,0.00247890,-0.185840
 39,-0.11028153,0.00577800,0.00006483,-0.00077319,-0.00045322,-0.006395
 13,0.00060972,0.00137160,0.01444374,0.00820679,-0.00103550,0.41196749,
 0.04849782,-0.24749067,-0.01058749,-0.00812926,-0.09324881,-0.00214451
 ,-0.09840464,0.03161551,0.00894460,-0.08083554,-0.29313213,-0.00148919
 ,0.00036470,0.00007854,0.00013491,-0.00044208,0.00223682,-0.00024694,-
 0.01764430,-0.03374181,0.00029339,0.02108492,0.64534858,0.01090226,-0.
 01331276,-0.08313041,-0.00161183,-0.00306786,-0.01142600,0.00102495,0.
 00341841,0.02407088,0.00641627,0.00064602,-0.06630937,-0.00042971,0.00
 025782,-0.00511008,0.00126672,-0.00030413,0.00864273,-0.00206605,-0.00
 182303,-0.00219075,-0.02610878,0.01902863,0.09133376,-0.29030148,-0.01
 894650,0.01662727,-0.18054880,-0.07734795,0.00692236,0.07833500,-0.037
 84391,-0.00558858,-0.06807442,-0.05197384,0.00299117,-0.01699178,-0.03
 628464,-0.00016141,-0.00009342,0.00333623,0.00079460,0.00024183,0.0004
 6570,-0.00045779,-0.05216594,0.11614502,0.01111130,0.56631148,0.020999
 95,-0.13557889,-0.00433558,-0.10673987,-0.29610923,0.00031525,0.019704
 70,-0.07049803,-0.00490499,-0.03397764,-0.01923724,0.00265403,-0.01042
 559,-0.00220476,0.00091424,0.00436549,-0.00408028,-0.00079733,-0.00067
 954,-0.00011163,0.00023679,0.03564582,0.03828934,-0.00361886,0.1113055
 3,0.49012591,0.01779946,0.00067906,-0.08252239,0.00576656,-0.00270111,
 -0.06669812,-0.00441483,0.00012166,0.02421728,0.00408684,0.00457145,-0
 .01171062,0.00087809,0.00303787,-0.00218493,0.00089230,-0.00074997,0.0
 0878389,-0.00046909,0.00014025,-0.00505588,0.00893855,-0.01078611,0.03
 861483,-0.03572333,0.00584299,0.09181925,-0.11084796,-0.05625992,-0.00
 014820,-0.00310826,0.00177993,-0.00011485,-0.00013600,-0.00142547,-0.0
 0010871,-0.00052198,0.00535449,0.00259061,-0.00043699,-0.00082606,0.00
 001375,0.00031106,-0.00012748,-0.00029970,0.00046851,0.00083901,-0.000
 05230,0.01147629,0.01707222,0.00018039,-0.03288068,-0.03403068,0.00118
 621,0.56980481,-0.05829916,-0.17946197,-0.00084630,0.00320981,0.002091
 63,0.00060141,-0.00137967,-0.00096968,0.00019202,0.00324108,0.00028797
 ,-0.00105123,0.00026426,0.00042223,-0.00007126,-0.00016509,0.00012641,
 -0.00008136,-0.00032503,-0.00049854,-0.00002362,-0.00891444,-0.0434093
 4,-0.00162520,-0.00830802,0.00101448,0.00046432,-0.05030968,0.52038185
 ,0.00186961,0.00277085,-0.07627062,0.00221216,0.00097252,0.00965841,-0
 .00059891,-0.00060664,-0.00130754,0.00161818,0.00087393,0.00843594,0.0
 0012036,0.00017963,0.00012804,-0.00014839,0.00018065,-0.00199155,0.000
 01021,0.00001143,0.00009775,0.00030918,-0.00296194,0.00327258,0.002347
 50,0.00402863,0.00391496,-0.01286844,-0.00810933,0.52983916,-0.0139183
 9,0.00197607,0.00869712,-0.00037661,0.00009256,-0.00056530,0.00056001,
 -0.00012123,0.00007190,-0.00042467,-0.00078394,-0.00083011,-0.00013002
 ,-0.00016491,-0.00001745,0.00010102,-0.00011084,0.00021107,-0.00002179
 ,-0.00002103,-0.00001719,0.00076502,0.00323464,-0.00040024,-0.00261795
 ,-0.00383263,0.00091217,-0.22050246,0.01339662,0.12866363,0.23982994,-
 0.02215513,0.00337233,0.01904167,-0.00101650,0.00018089,-0.00116068,0.
 00010230,-0.00022746,0.00021255,-0.00007399,0.00017213,-0.00015707,-0.
 00014715,-0.00023211,-0.00004470,0.00011557,-0.00000232,0.00006839,0.0
 0002271,0.00005933,-0.00001123,-0.00009649,0.00139095,-0.00122217,-0.0
 0355611,-0.00414286,0.00030633,0.01715631,-0.05063703,-0.00985939,-0.0
 1267106,0.05096531,-0.00313707,-0.00172398,0.00001204,-0.00049412,-0.0
 0103427,-0.00005693,-0.00037290,0.00030838,0.00002655,0.00013731,0.000
 33875,0.00001122,-0.00000957,-0.00001446,-0.00002436,-0.00003113,0.000
 00015,-0.00000921,0.00002779,0.00000580,-0.00000626,-0.00060230,-0.000
 39901,0.00047405,0.00003945,-0.00006215,0.00065358,0.12962958,-0.00656
 256,-0.13765072,-0.14060631,0.01184291,0.14725942,-0.00656946,-0.00445
 867,-0.01610394,0.00002560,0.00045551,0.00151004,0.00069602,-0.0004204
 4,-0.00027619,-0.00112932,-0.00092507,0.00067134,-0.00005961,-0.000054
 50,0.00000390,-0.00001212,-0.00000166,-0.00023529,-0.00000748,-0.00002
 923,0.00000747,0.00015821,0.00196346,-0.00006978,-0.00125471,-0.001727
 51,0.00083746,-0.06667465,-0.01538918,-0.07593290,0.00925772,0.0052807
 1,0.02496427,0.07147597,-0.00975229,-0.00732533,-0.02892200,-0.0000112
 9,-0.00106765,0.00149126,-0.00056871,0.00003084,-0.00027386,0.00032159
 ,0.00008465,0.00181431,-0.00005717,-0.00006130,0.00000976,-0.00000518,
 0.00002834,-0.00031907,-0.00000810,-0.00006854,-0.00001343,-0.00035487
 ,-0.00093208,0.00102469,0.00040627,-0.00007378,0.00008661,-0.01603593,
 -0.05366520,-0.04828575,-0.00035632,-0.00094398,-0.00168847,0.01989533
 ,0.05828883,-0.00022753,-0.00112657,0.00200817,-0.00020283,-0.00071454
 ,-0.00015165,0.00012109,0.00029979,-0.00009273,-0.00038814,-0.00058067
 ,0.00012416,-0.00000841,-0.00002646,0.00004306,-0.00001640,-0.00002979
 ,-0.00007219,-0.00001777,-0.00003059,0.00004511,-0.00026705,0.00042365
 ,0.00049740,0.00080351,0.00006598,-0.00003119,-0.07412497,-0.04541345,
 -0.26803025,-0.00620819,-0.00311091,-0.01778607,0.08255362,0.05173986,
 0.29197039,0.01043998,-0.01198465,0.00676407,0.00037167,0.00011138,0.0
 0027470,0.00002274,-0.00010659,0.00010093,0.00030566,-0.00078924,-0.00
 070160,0.00004286,0.00006756,-0.00000764,0.00001044,0.00006701,-0.0000
 3849,-0.00008443,-0.00012908,-0.00002633,-0.00078308,-0.00290695,-0.00
 021552,0.00004088,-0.00060802,-0.00069039,-0.14695168,0.12297851,-0.04
 760219,-0.01252181,0.01703883,-0.00954501,-0.00590616,0.00652667,-0.00
 201693,0.15501293,0.01923522,-0.01918465,0.00863089,-0.00048368,-0.000
 48204,-0.00056774,-0.00054461,0.00037730,0.00022963,0.00074682,-0.0003
 1847,-0.00088520,0.00002172,0.00000078,-0.00002241,-0.00013993,0.00007
 354,0.00018066,-0.00014633,-0.00030780,-0.00003121,-0.00261259,-0.0070
 0491,0.00059842,0.00260223,0.00260696,-0.00101335,0.11681325,-0.195682
 81,0.06080541,-0.00063792,0.00004483,-0.00101107,-0.00458876,0.0057051
 8,-0.00149630,-0.13026543,0.21417206,0.00004328,-0.00319770,-0.0016464
 1,0.00005883,0.00013819,-0.00022852,0.00037564,-0.00006818,-0.00003796
 ,-0.00061721,-0.00082512,0.00022652,-0.00001567,0.00001153,-0.00001977
 ,-0.00000648,-0.00002742,0.00000558,-0.00001307,-0.00002152,-0.0000403
 1,-0.00009920,-0.00021000,0.00126037,0.00029395,-0.00033902,0.00019935
 ,-0.04588336,0.06252655,-0.07009615,0.01008891,-0.01590569,0.00709669,
 -0.01793001,0.02333611,-0.00852422,0.05370439,-0.06541772,0.07180483\\
 0.00000368,0.00007010,-0.00004297,0.00003638,-0.00009830,0.00000030,0.
 00012327,0.00000643,0.00000885,-0.00005634,0.00002649,-0.00005532,-0.0
 0002043,-0.00000684,-0.00000294,-0.00002073,-0.00001218,-0.00000390,-0
 .00001451,-0.00001668,0.00002242,-0.00003114,-0.00014811,0.00002769,-0
 .00001224,0.00012544,0.00002277,-0.00000424,0.00008403,0.00011688,0.00
 000851,-0.00001325,-0.00002738,-0.00001120,-0.00002048,-0.00003699,-0.
 00000100,0.00000335,-0.00002940\\\@


 The best way to pay for a lovely moment is to enjoy it.
 -- Richard Bach
 Job cpu time:       0 days  0 hours 13 minutes 47.9 seconds.
 File lengths (MBytes):  RWF=    107 Int=      0 D2E=      0 Chk=      4 Scr=      1
 Normal termination of Gaussian 09 at Mon Nov  1 16:53:03 2021.
