 Entering Gaussian System, Link 0=g09
 Initial command:
 /cm/shared/apps/gaussian/g09revD.01/g09/l1.exe "//home/sweav003/HartwigDocs/IrCatHeteroarenes/G09-Chart2_3.com.o9624833.tmp/Gau-61704.inp" -scrdir="//home/sweav003/HartwigDocs/IrCatHeteroarenes/G09-Chart2_3.com.o9624833.tmp/"
 Entering Link 1 = /cm/shared/apps/gaussian/g09revD.01/g09/l1.exe PID=     61705.
  
 Copyright (c) 1988,1990,1992,1993,1995,1998,2003,2009,2013,
            Gaussian, Inc.  All Rights Reserved.
  
 This is part of the Gaussian(R) 09 program.  It is based on
 the Gaussian(R) 03 system (copyright 2003, Gaussian, Inc.),
 the Gaussian(R) 98 system (copyright 1998, Gaussian, Inc.),
 the Gaussian(R) 94 system (copyright 1995, Gaussian, Inc.),
 the Gaussian 92(TM) system (copyright 1992, Gaussian, Inc.),
 the Gaussian 90(TM) system (copyright 1990, Gaussian, Inc.),
 the Gaussian 88(TM) system (copyright 1988, Gaussian, Inc.),
 the Gaussian 86(TM) system (copyright 1986, Carnegie Mellon
 University), and the Gaussian 82(TM) system (copyright 1983,
 Carnegie Mellon University). Gaussian is a federally registered
 trademark of Gaussian, Inc.
  
 This software contains proprietary and confidential information,
 including trade secrets, belonging to Gaussian, Inc.
  
 This software is provided under written license and may be
 used, copied, transmitted, or stored only in accord with that
 written license.
  
 The following legend is applicable only to US Government
 contracts under FAR:
  
                    RESTRICTED RIGHTS LEGEND
  
 Use, reproduction and disclosure by the US Government is
 subject to restrictions as set forth in subparagraphs (a)
 and (c) of the Commercial Computer Software - Restricted
 Rights clause in FAR 52.227-19.
  
 Gaussian, Inc.
 340 Quinnipiac St., Bldg. 40, Wallingford CT 06492
  
  
 ---------------------------------------------------------------
 Warning -- This program may not be used in any manner that
 competes with the business of Gaussian, Inc. or will provide
 assistance to any competitor of Gaussian, Inc.  The licensee
 of this program is prohibited from giving any competitor of
 Gaussian, Inc. access to this program.  By using this program,
 the user acknowledges that Gaussian, Inc. is engaged in the
 business of creating and licensing software in the field of
 computational chemistry and represents and warrants to the
 licensee that it is not a competitor of Gaussian, Inc. and that
 it will not use this program in any manner prohibited above.
 ---------------------------------------------------------------
  

 Cite this work as:
 Gaussian 09, Revision D.01,
 M. J. Frisch, G. W. Trucks, H. B. Schlegel, G. E. Scuseria, 
 M. A. Robb, J. R. Cheeseman, G. Scalmani, V. Barone, B. Mennucci, 
 G. A. Petersson, H. Nakatsuji, M. Caricato, X. Li, H. P. Hratchian, 
 A. F. Izmaylov, J. Bloino, G. Zheng, J. L. Sonnenberg, M. Hada, 
 M. Ehara, K. Toyota, R. Fukuda, J. Hasegawa, M. Ishida, T. Nakajima, 
 Y. Honda, O. Kitao, H. Nakai, T. Vreven, J. A. Montgomery, Jr., 
 J. E. Peralta, F. Ogliaro, M. Bearpark, J. J. Heyd, E. Brothers, 
 K. N. Kudin, V. N. Staroverov, T. Keith, R. Kobayashi, J. Normand, 
 K. Raghavachari, A. Rendell, J. C. Burant, S. S. Iyengar, J. Tomasi, 
 M. Cossi, N. Rega, J. M. Millam, M. Klene, J. E. Knox, J. B. Cross, 
 V. Bakken, C. Adamo, J. Jaramillo, R. Gomperts, R. E. Stratmann, 
 O. Yazyev, A. J. Austin, R. Cammi, C. Pomelli, J. W. Ochterski, 
 R. L. Martin, K. Morokuma, V. G. Zakrzewski, G. A. Voth, 
 P. Salvador, J. J. Dannenberg, S. Dapprich, A. D. Daniels, 
 O. Farkas, J. B. Foresman, J. V. Ortiz, J. Cioslowski, 
 and D. J. Fox, Gaussian, Inc., Wallingford CT, 2013.
 
 ******************************************
 Gaussian 09:  ES64L-G09RevD.01 24-Apr-2013
                 1-Nov-2021 
 ******************************************
 %mem=100MW
 %nprocshared=20
 Will use up to   20 processors via shared memory.
 %chk=Chart2_3.chk
 ----------------------------------------------------------------------
 # opt freq b3lyp/6-311+g(d,p) geom=connectivity pop=(hirshfeld,chelpg,
 mbs,npa)
 ----------------------------------------------------------------------
 1/14=-1,18=20,19=15,26=3,38=1,57=2/1,3;
 2/9=110,12=2,17=6,18=5,40=1/2;
 3/5=4,6=6,7=111,11=2,16=1,25=1,30=1,71=1,74=-5/1,2,3;
 4//1;
 5/5=2,38=5/2;
 6/7=2,8=2,9=2,10=2,15=8,20=3,27=100,28=1,40=-1,79=1/1,2,7;
 7//1,2,3,16;
 1/14=-1,18=20,19=15,26=3/3(2);
 2/9=110/2;
 99//99;
 2/9=110/2;
 3/5=4,6=6,7=111,11=2,16=1,25=1,30=1,71=1,74=-5/1,2,3;
 4/5=5,16=3,69=1/1;
 5/5=2,38=5/2;
 7//1,2,3,16;
 1/14=-1,18=20,19=15,26=3/3(-5);
 2/9=110/2;
 6/7=2,8=2,9=2,10=2,15=8,19=2,20=3,27=100,28=1,40=-1,79=1/1,2,7;
 99/9=1/99;
 -------------------
 Title Card Required
 -------------------
 Symbolic Z-matrix:
 Charge =  0 Multiplicity = 1
 C                    -2.05755   0.06252   0.27185 
 C                    -0.13086   1.19545  -0.63236 
 C                    -0.60045   2.39699  -0.23793 
 C                    -1.94657   2.45801   0.49422 
 H                     0.80546   1.12303  -1.14515 
 H                    -0.0444    3.29028  -0.43219 
 H                    -2.34313   3.39743   0.81845 
 N                    -2.59787   1.36262   0.71597 
 N                    -0.91863  -0.01369  -0.35051 
 C                    -2.85608  -1.22449   0.55032 
 N                    -3.45062  -2.18273   0.75765 
 

 GradGradGradGradGradGradGradGradGradGradGradGradGradGradGradGradGradGrad
 Berny optimization.
 Initialization pass.
                           ----------------------------
                           !    Initial Parameters    !
                           ! (Angstroms and Degrees)  !
 --------------------------                            --------------------------
 ! Name  Definition              Value          Derivative Info.                !
 --------------------------------------------------------------------------------
 ! R1    R(1,8)                  1.4763         estimate D2E/DX2                !
 ! R2    R(1,9)                  1.3001         estimate D2E/DX2                !
 ! R3    R(1,10)                 1.54           estimate D2E/DX2                !
 ! R4    R(2,3)                  1.349          estimate D2E/DX2                !
 ! R5    R(2,5)                  1.07           estimate D2E/DX2                !
 ! R6    R(2,9)                  1.4704         estimate D2E/DX2                !
 ! R7    R(3,4)                  1.5336         estimate D2E/DX2                !
 ! R8    R(3,6)                  1.07           estimate D2E/DX2                !
 ! R9    R(4,7)                  1.07           estimate D2E/DX2                !
 ! R10   R(4,8)                  1.2935         estimate D2E/DX2                !
 ! R11   R(10,11)                1.1466         estimate D2E/DX2                !
 ! A1    A(8,1,9)              121.0814         estimate D2E/DX2                !
 ! A2    A(8,1,10)             119.4593         estimate D2E/DX2                !
 ! A3    A(9,1,10)             119.4593         estimate D2E/DX2                !
 ! A4    A(3,2,5)              120.3333         estimate D2E/DX2                !
 ! A5    A(3,2,9)              119.3335         estimate D2E/DX2                !
 ! A6    A(5,2,9)              120.3332         estimate D2E/DX2                !
 ! A7    A(2,3,4)              118.7241         estimate D2E/DX2                !
 ! A8    A(2,3,6)              120.638          estimate D2E/DX2                !
 ! A9    A(4,3,6)              120.638          estimate D2E/DX2                !
 ! A10   A(3,4,7)              120.3261         estimate D2E/DX2                !
 ! A11   A(3,4,8)              119.3479         estimate D2E/DX2                !
 ! A12   A(7,4,8)              120.3261         estimate D2E/DX2                !
 ! A13   A(1,8,4)              120.6569         estimate D2E/DX2                !
 ! A14   A(1,9,2)              120.8563         estimate D2E/DX2                !
 ! A15   L(1,10,11,8,-1)       180.0            estimate D2E/DX2                !
 ! A16   L(1,10,11,8,-2)       180.0            estimate D2E/DX2                !
 ! D1    D(9,1,8,4)              0.0            estimate D2E/DX2                !
 ! D2    D(10,1,8,4)          -179.9999         estimate D2E/DX2                !
 ! D3    D(8,1,9,2)              0.0002         estimate D2E/DX2                !
 ! D4    D(10,1,9,2)          -179.9999         estimate D2E/DX2                !
 ! D5    D(5,2,3,4)           -179.9999         estimate D2E/DX2                !
 ! D6    D(5,2,3,6)             -0.0001         estimate D2E/DX2                !
 ! D7    D(9,2,3,4)              0.0002         estimate D2E/DX2                !
 ! D8    D(9,2,3,6)           -179.9999         estimate D2E/DX2                !
 ! D9    D(3,2,9,1)             -0.0003         estimate D2E/DX2                !
 ! D10   D(5,2,9,1)            179.9999         estimate D2E/DX2                !
 ! D11   D(2,3,4,7)            179.9998         estimate D2E/DX2                !
 ! D12   D(2,3,4,8)             -0.0001         estimate D2E/DX2                !
 ! D13   D(6,3,4,7)              0.0            estimate D2E/DX2                !
 ! D14   D(6,3,4,8)           -180.0            estimate D2E/DX2                !
 ! D15   D(3,4,8,1)              0.0            estimate D2E/DX2                !
 ! D16   D(7,4,8,1)           -179.9999         estimate D2E/DX2                !
 --------------------------------------------------------------------------------
 Trust Radius=3.00D-01 FncErr=1.00D-07 GrdErr=1.00D-06
 Number of steps in this run=     53 maximum allowed number of steps=    100.
 GradGradGradGradGradGradGradGradGradGradGradGradGradGradGradGradGradGrad

                          Input orientation:                          
 ---------------------------------------------------------------------
 Center     Atomic      Atomic             Coordinates (Angstroms)
 Number     Number       Type             X           Y           Z
 ---------------------------------------------------------------------
      1          6           0       -2.057555    0.062523    0.271849
      2          6           0       -0.130856    1.195452   -0.632357
      3          6           0       -0.600452    2.396988   -0.237932
      4          6           0       -1.946568    2.458009    0.494224
      5          1           0        0.805463    1.123030   -1.145153
      6          1           0       -0.044399    3.290280   -0.432185
      7          1           0       -2.343131    3.397432    0.818449
      8          7           0       -2.597870    1.362622    0.715973
      9          7           0       -0.918634   -0.013693   -0.350509
     10          6           0       -2.856083   -1.224492    0.550316
     11          7           0       -3.450624   -2.182733    0.757647
 ---------------------------------------------------------------------
                    Distance matrix (angstroms):
                    1          2          3          4          5
     1  C    0.000000
     2  C    2.411074   0.000000
     3  C    2.798705   1.348992   0.000000
     4  C    2.408344   2.481943   1.533559   0.000000
     5  H    3.365923   1.070000   2.103002   3.470360   0.000000
     6  H    3.868704   2.106145   1.070000   2.273578   2.434658
     7  H    3.391451   3.442050   2.270189   1.070000   4.352273
     8  N    1.476294   2.816397   2.443261   1.293537   3.886370
     9  N    1.300107   1.470395   2.434193   2.807050   2.212715
    10  C    1.540000   3.831671   4.338700   3.793570   4.668232
    11  N    2.686600   4.936102   5.485299   4.885495   5.715155
                    6          7          8          9         10
     6  H    0.000000
     7  H    2.619110   0.000000
     8  N    3.399168   2.053252   0.000000
     9  N    3.418654   3.877038   2.418979   0.000000
    10  C    5.408700   4.658025   2.605240   2.455856   0.000000
    11  N    6.555299   5.689330   3.646707   3.513363   1.146600
                   11
    11  N    0.000000
 Stoichiometry    C5H3N3
 Framework group  C1[X(C5H3N3)]
 Deg. of freedom    27
 Full point group                 C1      NOp   1
 Largest Abelian subgroup         C1      NOp   1
 Largest concise Abelian subgroup C1      NOp   1
                         Standard orientation:                         
 ---------------------------------------------------------------------
 Center     Atomic      Atomic             Coordinates (Angstroms)
 Number     Number       Type             X           Y           Z
 ---------------------------------------------------------------------
      1          6           0       -0.595031   -0.031165    0.000001
      2          6           0        1.501787   -1.221389    0.000001
      3          6           0        2.203415   -0.069218   -0.000001
      4          6           0        1.438117    1.259738    0.000000
      5          1           0        2.009504   -2.163261    0.000002
      6          1           0        3.273334   -0.082325   -0.000001
      7          1           0        1.968871    2.188823    0.000001
      8          7           0        0.144648    1.246458    0.000001
      9          7           0        0.032293   -1.169911   -0.000001
     10          6           0       -2.134944   -0.014787    0.000000
     11          7           0       -3.281479   -0.002592    0.000000
 ---------------------------------------------------------------------
 Rotational constants (GHZ):      5.7764437      1.4931588      1.1864676
 Standard basis: 6-311+G(d,p) (5D, 7F)
 There are   202 symmetry adapted cartesian basis functions of A   symmetry.
 There are   194 symmetry adapted basis functions of A   symmetry.
   194 basis functions,   312 primitive gaussians,   202 cartesian basis functions
    27 alpha electrons       27 beta electrons
       nuclear repulsion energy       296.7936398718 Hartrees.
 NAtoms=   11 NActive=   11 NUniq=   11 SFac= 1.00D+00 NAtFMM=   60 NAOKFM=F Big=F
 Integral buffers will be    131072 words long.
 Raffenetti 2 integral format.
 Two-electron integral symmetry is turned on.
 One-electron integrals computed using PRISM.
 NBasis=   194 RedAO= T EigKep=  1.14D-05  NBF=   194
 NBsUse=   194 1.00D-06 EigRej= -1.00D+00 NBFU=   194
 ExpMin= 4.38D-02 ExpMax= 6.29D+03 ExpMxC= 9.49D+02 IAcc=2 IRadAn=         4 AccDes= 0.00D+00
 Harris functional with IExCor=  402 and IRadAn=       4 diagonalized for initial guess.
 HarFok:  IExCor=  402 AccDes= 0.00D+00 IRadAn=         4 IDoV= 1 UseB2=F ITyADJ=14
 ICtDFT=  3500011 ScaDFX=  1.000000  1.000000  1.000000  1.000000
 FoFCou: FMM=F IPFlag=           0 FMFlag=      100000 FMFlg1=           0
         NFxFlg=           0 DoJE=T BraDBF=F KetDBF=T FulRan=T
         wScrn=  0.000000 ICntrl=     500 IOpCl=  0 I1Cent=   200000004 NGrid=           0
         NMat0=    1 NMatS0=      1 NMatT0=    0 NMatD0=    1 NMtDS0=    0 NMtDT0=    0
 Petite list used in FoFCou.
 Requested convergence on RMS density matrix=1.00D-08 within 128 cycles.
 Requested convergence on MAX density matrix=1.00D-06.
 Requested convergence on             energy=1.00D-06.
 No special actions if energy rises.
 SCF Done:  E(RB3LYP) =  -356.610430962     A.U. after   14 cycles
            NFock= 14  Conv=0.81D-08     -V/T= 2.0058

 **********************************************************************

            Population analysis using the SCF density.

 **********************************************************************

 Orbital symmetries:
       Occupied  (A) (A) (A) (A) (A) (A) (A) (A) (A) (A) (A) (A)
                 (A) (A) (A) (A) (A) (A) (A) (A) (A) (A) (A) (A)
                 (A) (A) (A)
       Virtual   (A) (A) (A) (A) (A) (A) (A) (A) (A) (A) (A) (A)
                 (A) (A) (A) (A) (A) (A) (A) (A) (A) (A) (A) (A)
                 (A) (A) (A) (A) (A) (A) (A) (A) (A) (A) (A) (A)
                 (A) (A) (A) (A) (A) (A) (A) (A) (A) (A) (A) (A)
                 (A) (A) (A) (A) (A) (A) (A) (A) (A) (A) (A) (A)
                 (A) (A) (A) (A) (A) (A) (A) (A) (A) (A) (A) (A)
                 (A) (A) (A) (A) (A) (A) (A) (A) (A) (A) (A) (A)
                 (A) (A) (A) (A) (A) (A) (A) (A) (A) (A) (A) (A)
                 (A) (A) (A) (A) (A) (A) (A) (A) (A) (A) (A) (A)
                 (A) (A) (A) (A) (A) (A) (A) (A) (A) (A) (A) (A)
                 (A) (A) (A) (A) (A) (A) (A) (A) (A) (A) (A) (A)
                 (A) (A) (A) (A) (A) (A) (A) (A) (A) (A) (A) (A)
                 (A) (A) (A) (A) (A) (A) (A) (A) (A) (A) (A) (A)
                 (A) (A) (A) (A) (A) (A) (A) (A) (A) (A) (A)
 The electronic state is 1-A.
 Alpha  occ. eigenvalues --  -14.37008 -14.36359 -14.33867 -10.32620 -10.27338
 Alpha  occ. eigenvalues --  -10.26489 -10.23947 -10.23500  -1.00682  -0.93473
 Alpha  occ. eigenvalues --   -0.91786  -0.82993  -0.70602  -0.68456  -0.60055
 Alpha  occ. eigenvalues --   -0.54814  -0.52540  -0.48361  -0.45875  -0.45705
 Alpha  occ. eigenvalues --   -0.38954  -0.37985  -0.36784  -0.35074  -0.34103
 Alpha  occ. eigenvalues --   -0.31816  -0.28110
 Alpha virt. eigenvalues --   -0.09662  -0.08522  -0.01370  -0.00017   0.01415
 Alpha virt. eigenvalues --    0.01690   0.02181   0.03760   0.04026   0.04288
 Alpha virt. eigenvalues --    0.05497   0.07694   0.08012   0.08565   0.08998
 Alpha virt. eigenvalues --    0.09426   0.09836   0.11484   0.11872   0.12011
 Alpha virt. eigenvalues --    0.14187   0.14758   0.14813   0.15690   0.16660
 Alpha virt. eigenvalues --    0.17650   0.18155   0.18202   0.19322   0.20397
 Alpha virt. eigenvalues --    0.21179   0.23208   0.23460   0.24418   0.24739
 Alpha virt. eigenvalues --    0.24847   0.25594   0.26218   0.27150   0.27639
 Alpha virt. eigenvalues --    0.28921   0.29671   0.31438   0.34849   0.37047
 Alpha virt. eigenvalues --    0.39683   0.43861   0.46810   0.49872   0.51561
 Alpha virt. eigenvalues --    0.53503   0.55185   0.55658   0.58217   0.60528
 Alpha virt. eigenvalues --    0.61423   0.62307   0.65189   0.65636   0.68384
 Alpha virt. eigenvalues --    0.71435   0.73273   0.74408   0.76818   0.78060
 Alpha virt. eigenvalues --    0.79728   0.81166   0.82486   0.85865   0.87113
 Alpha virt. eigenvalues --    0.88081   0.90367   0.91556   0.93051   0.94894
 Alpha virt. eigenvalues --    0.96077   0.96372   0.97771   1.01795   1.04352
 Alpha virt. eigenvalues --    1.06816   1.07813   1.10229   1.11518   1.22857
 Alpha virt. eigenvalues --    1.23723   1.29526   1.32565   1.35000   1.37785
 Alpha virt. eigenvalues --    1.39271   1.42564   1.48334   1.51729   1.53957
 Alpha virt. eigenvalues --    1.56372   1.60448   1.62263   1.67339   1.70427
 Alpha virt. eigenvalues --    1.71230   1.72964   1.74793   1.79123   1.83832
 Alpha virt. eigenvalues --    1.87227   1.90644   1.91118   1.94729   2.05942
 Alpha virt. eigenvalues --    2.06613   2.07618   2.09720   2.17334   2.19901
 Alpha virt. eigenvalues --    2.25988   2.29346   2.33870   2.36861   2.38841
 Alpha virt. eigenvalues --    2.50216   2.54915   2.55906   2.62201   2.63042
 Alpha virt. eigenvalues --    2.64568   2.67020   2.69286   2.69954   2.71974
 Alpha virt. eigenvalues --    2.77967   2.78827   2.81661   2.82992   2.86449
 Alpha virt. eigenvalues --    2.89301   2.90015   2.91662   2.96196   3.05589
 Alpha virt. eigenvalues --    3.08926   3.14536   3.32033   3.42282   3.49085
 Alpha virt. eigenvalues --    3.59240   3.66447   3.75489   3.83636   3.88223
 Alpha virt. eigenvalues --    3.96152   3.97240   4.00545   4.10048   4.27372
 Alpha virt. eigenvalues --    4.32131   4.56051   4.75007   5.16768  23.64095
 Alpha virt. eigenvalues --   23.70025  23.84884  24.13129  24.21333  35.52473
 Alpha virt. eigenvalues --   35.57190  35.86369
          Condensed to atoms (all electrons):
               1          2          3          4          5          6
     1  C    9.248676   0.178151  -0.174919   0.189358   0.012353   0.012040
     2  C    0.178151   5.244127   0.475121  -0.079211   0.434046  -0.021265
     3  C   -0.174919   0.475121   5.045518   0.306547  -0.042902   0.372819
     4  C    0.189358  -0.079211   0.306547   5.221000  -0.005933  -0.024412
     5  H    0.012353   0.434046  -0.042902  -0.005933   0.500496  -0.004758
     6  H    0.012040  -0.021265   0.372819  -0.024412  -0.004758   0.506077
     7  H    0.019152  -0.012831  -0.062414   0.443324  -0.000361  -0.000488
     8  N   -0.290751  -0.099007   0.033399   0.401925  -0.001693   0.003230
     9  N   -0.048225   0.279533   0.027074  -0.075487  -0.055823   0.002926
    10  C   -4.630407  -0.432710   0.100225  -0.433507   0.004636   0.003247
    11  N    0.780790   0.022902  -0.008293   0.019850   0.000017   0.000043
               7          8          9         10         11
     1  C    0.019152  -0.290751  -0.048225  -4.630407   0.780790
     2  C   -0.012831  -0.099007   0.279533  -0.432710   0.022902
     3  C   -0.062414   0.033399   0.027074   0.100225  -0.008293
     4  C    0.443324   0.401925  -0.075487  -0.433507   0.019850
     5  H   -0.000361  -0.001693  -0.055823   0.004636   0.000017
     6  H   -0.000488   0.003230   0.002926   0.003247   0.000043
     7  H    0.517341  -0.068171  -0.001978   0.004042   0.000108
     8  N   -0.068171   6.748452   0.114319   0.292677  -0.060387
     9  N   -0.001978   0.114319   6.673690   0.165481  -0.056812
    10  C    0.004042   0.292677   0.165481  12.290003  -0.480453
    11  N    0.000108  -0.060387  -0.056812  -0.480453   6.952343
 Mulliken charges:
               1
     1  C    0.703780
     2  C    0.011144
     3  C   -0.072175
     4  C    0.036546
     5  H    0.159924
     6  H    0.150540
     7  H    0.162276
     8  N   -0.073994
     9  N   -0.024700
    10  C   -0.883233
    11  N   -0.170109
 Sum of Mulliken charges =   0.00000
 Mulliken charges with hydrogens summed into heavy atoms:
               1
     1  C    0.703780
     2  C    0.171068
     3  C    0.078365
     4  C    0.198822
     8  N   -0.073994
     9  N   -0.024700
    10  C   -0.883233
    11  N   -0.170109
 Electronic spatial extent (au):  <R**2>=            916.3854
 Charge=              0.0000 electrons
 Dipole moment (field-independent basis, Debye):
    X=              6.4700    Y=             -0.0297    Z=              0.0000  Tot=              6.4700
 Quadrupole moment (field-independent basis, Debye-Ang):
   XX=            -49.2557   YY=            -46.0641   ZZ=            -46.2226
   XY=              0.1018   XZ=              0.0000   YZ=              0.0000
 Traceless Quadrupole moment (field-independent basis, Debye-Ang):
   XX=             -2.0749   YY=              1.1167   ZZ=              0.9582
   XY=              0.1018   XZ=              0.0000   YZ=              0.0000
 Octapole moment (field-independent basis, Debye-Ang**2):
  XXX=             78.0740  YYY=             -0.7555  ZZZ=              0.0000  XYY=             16.2511
  XXY=              0.1730  XXZ=              0.0000  XZZ=             -1.8823  YZZ=              0.2819
  YYZ=              0.0000  XYZ=              0.0000
 Hexadecapole moment (field-independent basis, Debye-Ang**3):
 XXXX=          -1079.6935 YYYY=           -276.1672 ZZZZ=            -49.7463 XXXY=             -0.7310
 XXXZ=              0.0000 YYYX=              0.4329 YYYZ=              0.0000 ZZZX=              0.0000
 ZZZY=              0.0000 XXYY=           -179.2177 XXZZ=           -171.3099 YYZZ=            -57.8132
 XXYZ=              0.0000 YYXZ=              0.0000 ZZXY=              0.7573
 N-N= 2.967936398718D+02 E-N=-1.423009436030D+03  KE= 3.545681506645D+02
 There are a total of       89894 grid points.
 ElSum from          density=       53.9999447131
 ElSum from atomic densities=       53.9998362978

 Hirshfeld populations at iteration   1 (CX, CA, CB, DipXYZ):
               1          2          3          4          5          6
     1  C    0.000001   2.919848   2.919848  -0.069233   0.070018   0.000000
     2  C    0.000001   2.977227   2.977227  -0.046067  -0.108194   0.000000
     3  C    0.000000   3.016747   3.016747   0.072325   0.061513   0.000000
     4  C    0.000000   2.964064   2.964064   0.079300   0.043187   0.000000
     5  H    0.000002   0.462774   0.462774   0.094215  -0.151162   0.000000
     6  H    0.000001   0.469241   0.469241   0.172874  -0.003959   0.000000
     7  H    0.000002   0.462997   0.462997   0.089877   0.147621   0.000000
     8  N    0.000004   3.593631   3.593631   0.068774  -0.200378   0.000000
     9  N    0.000004   3.586571   3.586571   0.140257   0.143384   0.000000
    10  C    0.000002   2.950811   2.950811   0.244673  -0.006952   0.000000
    11  N    0.000026   3.596062   3.596062   0.022236   0.000314   0.000000
       Tot   0.000043  26.999972  26.999972   0.869231  -0.004608   0.000000

 Dip from Atomic Chgs              1.676184  -0.007016   0.000001
         Total Dipole              2.545414  -0.011624   0.000001

 Hirshfeld charges, spin densities, dipoles, and CM5 charges using IRadAn=      4:
              Q-H        S-H        Dx         Dy         Dz        Q-CM5   
     1  C    0.160305   0.000000  -0.069233   0.070018   0.000000   0.298580
     2  C    0.045546   0.000000  -0.046067  -0.108194   0.000000   0.047475
     3  C   -0.033495   0.000000   0.072325   0.061513   0.000000  -0.080292
     4  C    0.071872   0.000000   0.079300   0.043187   0.000000   0.104913
     5  H    0.074451   0.000000   0.094215  -0.151162   0.000000   0.138376
     6  H    0.061517   0.000000   0.172874  -0.003959   0.000000   0.119163
     7  H    0.074006   0.000000   0.089877   0.147621   0.000000   0.141143
     8  N   -0.187261   0.000000   0.068774  -0.200378   0.000000  -0.349231
     9  N   -0.173141   0.000000   0.140257   0.143384   0.000000  -0.331611
    10  C    0.098378   0.000000   0.244673  -0.006952   0.000000   0.227093
    11  N   -0.192124   0.000000   0.022236   0.000314   0.000000  -0.315553
       Tot   0.000055   0.000000   0.869231  -0.004608   0.000000   0.000055
 Hirshfeld charges with hydrogens summed into heavy atoms:
              Q-H       Q-CM5   
     1  C    0.160305   0.298580
     2  C    0.119998   0.185851
     3  C    0.028023   0.038871
     4  C    0.145878   0.246056
     8  N   -0.187261  -0.349231
     9  N   -0.173141  -0.331611
    10  C    0.098378   0.227093
    11  N   -0.192124  -0.315553
 
 EQQ= 0.000000000000E+00 EQD= 0.000000000000E+00 EDD= 0.283894661996E-02
 EQQ+QD+DD= 0.283894661996E-02
 
          MBS Condensed to atoms (all electrons):
               1          2          3          4          5          6
     1  C    4.553008  -0.033806  -0.013155  -0.033778   0.001446   0.000131
     2  C   -0.033806   4.743455   0.547459  -0.025206   0.393196  -0.024854
     3  C   -0.013155   0.547459   4.892706   0.411699  -0.030691   0.385113
     4  C   -0.033778  -0.025206   0.411699   4.696796   0.001265  -0.020059
     5  H    0.001446   0.393196  -0.030691   0.001265   0.504922  -0.003257
     6  H    0.000131  -0.024854   0.385113  -0.020059  -0.003257   0.528593
     7  H    0.002086   0.000923  -0.027457   0.388315  -0.000036  -0.000886
     8  N    0.355167  -0.007797  -0.026432   0.496573  -0.000041   0.000774
     9  N    0.489461   0.369760  -0.024155  -0.007344  -0.021003   0.001057
    10  C    0.395513   0.001078  -0.000027   0.000856  -0.000012   0.000001
    11  N   -0.007037  -0.000001   0.000000  -0.000001   0.000000   0.000000
               7          8          9         10         11
     1  C    0.002086   0.355167   0.489461   0.395513  -0.007037
     2  C    0.000923  -0.007797   0.369760   0.001078  -0.000001
     3  C   -0.027457  -0.026432  -0.024155  -0.000027   0.000000
     4  C    0.388315   0.496573  -0.007344   0.000856  -0.000001
     5  H   -0.000036  -0.000041  -0.021003  -0.000012   0.000000
     6  H   -0.000886   0.000774   0.001057   0.000001   0.000000
     7  H    0.513968  -0.028859  -0.000049  -0.000015   0.000000
     8  N   -0.028859   6.599508  -0.025337  -0.023542   0.000018
     9  N   -0.000049  -0.025337   6.566655  -0.030880  -0.000019
    10  C   -0.000015  -0.023542  -0.030880   4.760671   0.737800
    11  N    0.000000   0.000018  -0.000019   0.737800   6.511806
 MBS Mulliken charges:
               1
     1  C    0.290964
     2  C    0.035793
     3  C   -0.115060
     4  C    0.090884
     5  H    0.154211
     6  H    0.133384
     7  H    0.152009
     8  N   -0.340031
     9  N   -0.318146
    10  C    0.158556
    11  N   -0.242566
 Sum of MBS Mulliken charges =   0.00000
 MBS Mulliken charges with hydrogens summed into heavy atoms:
               1
     1  C    0.290964
     2  C    0.190004
     3  C    0.018325
     4  C    0.242893
     8  N   -0.340031
     9  N   -0.318146
    10  C    0.158556
    11  N   -0.242566
 Breneman (CHELPG) radii used.
 Generate Potential Derived Charges using the Breneman model, NDens= 1.
 Grid spacing= 0.300 Box extension= 2.800
 NStep X,Y,Z=   42     35     20   Total possible points=       29400
 Number of Points to Fit=    9132

 **********************************************************************

            Electrostatic Properties Using The SCF Density

 **********************************************************************

       Atomic Center    1 is at  -0.595031 -0.031165  0.000001
       Atomic Center    2 is at   1.501787 -1.221389  0.000001
       Atomic Center    3 is at   2.203415 -0.069218 -0.000001
       Atomic Center    4 is at   1.438117  1.259738  0.000000
       Atomic Center    5 is at   2.009504 -2.163261  0.000002
       Atomic Center    6 is at   3.273334 -0.082325 -0.000001
       Atomic Center    7 is at   1.968871  2.188823  0.000001
       Atomic Center    8 is at   0.144648  1.246458  0.000001
       Atomic Center    9 is at   0.032293 -1.169911 -0.000001
       Atomic Center   10 is at  -2.134944 -0.014787  0.000000
       Atomic Center   11 is at  -3.281479 -0.002592  0.000000
    9132 points will be used for fitting atomic charges
 Fitting point charges to electrostatic potential
 Charges from ESP fit, RMS=   0.00410 RRMS=   0.16601:
 ESP charges:
               1
     1  C    0.872727
     2  C    0.477032
     3  C   -0.494356
     4  C    0.618334
     5  H    0.045106
     6  H    0.161591
     7  H    0.008118
     8  N   -0.776218
     9  N   -0.727425
    10  C    0.188151
    11  N   -0.373060
 Sum of ESP charges =   0.00000
 ESP charges with hydrogens summed into heavy atoms:
               1
     1  C    0.872727
     2  C    0.522138
     3  C   -0.332766
     4  C    0.626453
     8  N   -0.776218
     9  N   -0.727425
    10  C    0.188151
    11  N   -0.373060
 Charge=   0.00000 Dipole=     6.3371    -0.0389     0.0000 Tot=     6.3373
 -----------------------------------------------------------------

              Electrostatic Properties (Atomic Units)

 -----------------------------------------------------------------
    Center     Electric         -------- Electric Field --------
               Potential          X             Y             Z
 -----------------------------------------------------------------
    1 Atom    -14.618549
    2 Atom    -14.685450
    3 Atom    -14.716869
    4 Atom    -14.677943
    5 Atom     -1.052050
    6 Atom     -1.054413
    7 Atom     -1.052552
    8 Atom    -18.357817
    9 Atom    -18.350839
   10 Atom    -14.721798
   11 Atom    -18.396983
 -----------------------------------------------------------------
 ******************************Gaussian NBO Version 3.1******************************
             N A T U R A L   A T O M I C   O R B I T A L   A N D
          N A T U R A L   B O N D   O R B I T A L   A N A L Y S I S
 ******************************Gaussian NBO Version 3.1******************************
       /RESON  / : Allow strongly delocalized NBO set

 Analyzing the SCF density

 Job title: Title Card Required                                             

 Storage needed:    113804 in NPA ( 104856907 available)


 NATURAL POPULATIONS:  Natural atomic orbital occupancies 
                                                          
   NAO  Atom  No  lang   Type(AO)    Occupancy      Energy
 ----------------------------------------------------------
     1    C    1  S      Cor( 1S)     1.99901     -10.21067
     2    C    1  S      Val( 2S)     0.85901      -0.22668
     3    C    1  S      Ryd( 3S)     0.00276       0.73628
     4    C    1  S      Ryd( 4S)     0.00022       0.95754
     5    C    1  S      Ryd( 5S)     0.00002      22.83593
     6    C    1  px     Val( 2p)     0.97214      -0.11715
     7    C    1  px     Ryd( 4p)     0.00668       0.87957
     8    C    1  px     Ryd( 3p)     0.00140       0.48464
     9    C    1  px     Ryd( 5p)     0.00029       2.61403
    10    C    1  py     Val( 2p)     0.86043      -0.08061
    11    C    1  py     Ryd( 4p)     0.01455       0.71864
    12    C    1  py     Ryd( 3p)     0.00180       0.43343
    13    C    1  py     Ryd( 5p)     0.00014       2.54567
    14    C    1  pz     Val( 2p)     0.93838      -0.17814
    15    C    1  pz     Ryd( 4p)     0.00058       0.47970
    16    C    1  pz     Ryd( 3p)     0.00027       0.36088
    17    C    1  pz     Ryd( 5p)     0.00002       2.41707
    18    C    1  dxy    Ryd( 3d)     0.00193       2.37656
    19    C    1  dxz    Ryd( 3d)     0.00085       1.51448
    20    C    1  dyz    Ryd( 3d)     0.00161       1.54453
    21    C    1  dx2y2  Ryd( 3d)     0.00308       2.37148
    22    C    1  dz2    Ryd( 3d)     0.00049       1.93742

    23    C    2  S      Cor( 1S)     1.99897     -10.13261
    24    C    2  S      Val( 2S)     0.95976      -0.24233
    25    C    2  S      Ryd( 4S)     0.00207       0.64249
    26    C    2  S      Ryd( 3S)     0.00015       0.58952
    27    C    2  S      Ryd( 5S)     0.00001      23.19890
    28    C    2  px     Val( 2p)     0.88739      -0.08224
    29    C    2  px     Ryd( 4p)     0.00708       0.76966
    30    C    2  px     Ryd( 3p)     0.00046       0.32785
    31    C    2  px     Ryd( 5p)     0.00012       2.96085
    32    C    2  py     Val( 2p)     1.15439      -0.11058
    33    C    2  py     Ryd( 4p)     0.00730       0.81783
    34    C    2  py     Ryd( 3p)     0.00041       0.34427
    35    C    2  py     Ryd( 5p)     0.00016       3.03796
    36    C    2  pz     Val( 2p)     0.93300      -0.16623
    37    C    2  pz     Ryd( 4p)     0.00095       0.50564
    38    C    2  pz     Ryd( 3p)     0.00012       0.23826
    39    C    2  pz     Ryd( 5p)     0.00000       2.61599
    40    C    2  dxy    Ryd( 3d)     0.00154       2.43128
    41    C    2  dxz    Ryd( 3d)     0.00074       1.53083
    42    C    2  dyz    Ryd( 3d)     0.00060       1.57449
    43    C    2  dx2y2  Ryd( 3d)     0.00117       2.34764
    44    C    2  dz2    Ryd( 3d)     0.00047       1.93969

    45    C    3  S      Cor( 1S)     1.99910     -10.09803
    46    C    3  S      Val( 2S)     1.00946      -0.25716
    47    C    3  S      Ryd( 3S)     0.00166       0.56583
    48    C    3  S      Ryd( 4S)     0.00021       0.96925
    49    C    3  S      Ryd( 5S)     0.00000      22.97643
    50    C    3  px     Val( 2p)     1.17514      -0.10633
    51    C    3  px     Ryd( 4p)     0.00421       0.95574
    52    C    3  px     Ryd( 3p)     0.00037       0.28999
    53    C    3  px     Ryd( 5p)     0.00004       3.12191
    54    C    3  py     Val( 2p)     1.06594      -0.11483
    55    C    3  py     Ryd( 4p)     0.00353       0.71836
    56    C    3  py     Ryd( 3p)     0.00052       0.41918
    57    C    3  py     Ryd( 5p)     0.00015       2.96274
    58    C    3  pz     Val( 2p)     0.98053      -0.16576
    59    C    3  pz     Ryd( 4p)     0.00089       0.48039
    60    C    3  pz     Ryd( 3p)     0.00018       0.32311
    61    C    3  pz     Ryd( 5p)     0.00001       2.57977
    62    C    3  dxy    Ryd( 3d)     0.00062       2.45819
    63    C    3  dxz    Ryd( 3d)     0.00038       1.54873
    64    C    3  dyz    Ryd( 3d)     0.00041       1.58452
    65    C    3  dx2y2  Ryd( 3d)     0.00081       2.38657
    66    C    3  dz2    Ryd( 3d)     0.00042       1.93578

    67    C    4  S      Cor( 1S)     1.99929     -10.14318
    68    C    4  S      Val( 2S)     0.95620      -0.24163
    69    C    4  S      Ryd( 4S)     0.00338       0.65518
    70    C    4  S      Ryd( 3S)     0.00027       0.43453
    71    C    4  S      Ryd( 5S)     0.00001      23.28582
    72    C    4  px     Val( 2p)     0.94042      -0.07608
    73    C    4  px     Ryd( 4p)     0.00949       0.74613
    74    C    4  px     Ryd( 3p)     0.00049       0.38363
    75    C    4  px     Ryd( 5p)     0.00012       2.88377
    76    C    4  py     Val( 2p)     1.10054      -0.10444
    77    C    4  py     Ryd( 4p)     0.00697       0.89084
    78    C    4  py     Ryd( 3p)     0.00039       0.42224
    79    C    4  py     Ryd( 5p)     0.00010       2.79882
    80    C    4  pz     Val( 2p)     0.85182      -0.16426
    81    C    4  pz     Ryd( 4p)     0.00068       0.50701
    82    C    4  pz     Ryd( 3p)     0.00010       0.26720
    83    C    4  pz     Ryd( 5p)     0.00001       2.56805
    84    C    4  dxy    Ryd( 3d)     0.00211       2.32194
    85    C    4  dxz    Ryd( 3d)     0.00154       1.58305
    86    C    4  dyz    Ryd( 3d)     0.00031       1.50398
    87    C    4  dx2y2  Ryd( 3d)     0.00112       2.44593
    88    C    4  dz2    Ryd( 3d)     0.00041       1.91929

    89    H    5  S      Val( 1S)     0.78660       0.00633
    90    H    5  S      Ryd( 2S)     0.00059       0.61768
    91    H    5  S      Ryd( 3S)     0.00017       2.00970
    92    H    5  px     Ryd( 2p)     0.00026       2.07990
    93    H    5  py     Ryd( 2p)     0.00038       2.50722
    94    H    5  pz     Ryd( 2p)     0.00017       1.55206

    95    H    6  S      Val( 1S)     0.78040       0.01195
    96    H    6  S      Ryd( 2S)     0.00068       0.55716
    97    H    6  S      Ryd( 3S)     0.00021       2.03314
    98    H    6  px     Ryd( 2p)     0.00045       2.68213
    99    H    6  py     Ryd( 2p)     0.00008       1.89806
   100    H    6  pz     Ryd( 2p)     0.00015       1.55182

   101    H    7  S      Val( 1S)     0.79755      -0.00133
   102    H    7  S      Ryd( 2S)     0.00070       0.55165
   103    H    7  S      Ryd( 3S)     0.00016       2.08470
   104    H    7  px     Ryd( 2p)     0.00022       2.09454
   105    H    7  py     Ryd( 2p)     0.00044       2.47444
   106    H    7  pz     Ryd( 2p)     0.00011       1.55019

   107    N    8  S      Cor( 1S)     1.99935     -14.18746
   108    N    8  S      Val( 2S)     1.40193      -0.57686
   109    N    8  S      Ryd( 3S)     0.00197       1.11695
   110    N    8  S      Ryd( 4S)     0.00023       1.20654
   111    N    8  S      Ryd( 5S)     0.00000      35.19830
   112    N    8  px     Val( 2p)     1.35943      -0.23296
   113    N    8  px     Ryd( 4p)     0.00333       0.83801
   114    N    8  px     Ryd( 3p)     0.00015       0.81397
   115    N    8  px     Ryd( 5p)     0.00007       4.33557
   116    N    8  py     Val( 2p)     1.52346      -0.23409
   117    N    8  py     Ryd( 4p)     0.00540       0.69870
   118    N    8  py     Ryd( 3p)     0.00019       0.61353
   119    N    8  py     Ryd( 5p)     0.00006       4.04284
   120    N    8  pz     Val( 2p)     1.15270      -0.22354
   121    N    8  pz     Ryd( 3p)     0.00070       0.57631
   122    N    8  pz     Ryd( 4p)     0.00022       0.57634
   123    N    8  pz     Ryd( 5p)     0.00004       3.79792
   124    N    8  dxy    Ryd( 3d)     0.00143       2.61724
   125    N    8  dxz    Ryd( 3d)     0.00101       2.22422
   126    N    8  dyz    Ryd( 3d)     0.00079       2.07791
   127    N    8  dx2y2  Ryd( 3d)     0.00136       2.86733
   128    N    8  dz2    Ryd( 3d)     0.00089       2.49873

   129    N    9  S      Cor( 1S)     1.99929     -14.19341
   130    N    9  S      Val( 2S)     1.39697      -0.57877
   131    N    9  S      Ryd( 3S)     0.00131       0.98600
   132    N    9  S      Ryd( 4S)     0.00009       1.67077
   133    N    9  S      Ryd( 5S)     0.00000      34.93485
   134    N    9  px     Val( 2p)     1.29650      -0.21753
   135    N    9  px     Ryd( 4p)     0.00261       0.85707
   136    N    9  px     Ryd( 3p)     0.00013       0.82136
   137    N    9  px     Ryd( 5p)     0.00005       4.25071
   138    N    9  py     Val( 2p)     1.58996      -0.26108
   139    N    9  py     Ryd( 4p)     0.00535       0.68169
   140    N    9  py     Ryd( 3p)     0.00014       0.59836
   141    N    9  py     Ryd( 5p)     0.00009       4.12744
   142    N    9  pz     Val( 2p)     1.12832      -0.22545
   143    N    9  pz     Ryd( 3p)     0.00080       0.57156
   144    N    9  pz     Ryd( 4p)     0.00016       0.57438
   145    N    9  pz     Ryd( 5p)     0.00004       3.80747
   146    N    9  dxy    Ryd( 3d)     0.00135       2.66486
   147    N    9  dxz    Ryd( 3d)     0.00034       2.12968
   148    N    9  dyz    Ryd( 3d)     0.00155       2.16175
   149    N    9  dx2y2  Ryd( 3d)     0.00146       2.81224
   150    N    9  dz2    Ryd( 3d)     0.00090       2.48917

   151    C   10  S      Cor( 1S)     1.99912     -10.11880
   152    C   10  S      Val( 2S)     0.85611      -0.15826
   153    C   10  S      Ryd( 4S)     0.01046       0.70385
   154    C   10  S      Ryd( 3S)     0.00043       0.61424
   155    C   10  S      Ryd( 5S)     0.00004      23.08963
   156    C   10  px     Val( 2p)     0.99390       0.00880
   157    C   10  px     Ryd( 4p)     0.01582       1.12270
   158    C   10  px     Ryd( 3p)     0.00043       1.05093
   159    C   10  px     Ryd( 5p)     0.00006       1.85033
   160    C   10  py     Val( 2p)     0.91531      -0.11710
   161    C   10  py     Ryd( 3p)     0.00403       0.69101
   162    C   10  py     Ryd( 4p)     0.00011       1.05224
   163    C   10  py     Ryd( 5p)     0.00003       1.91786
   164    C   10  pz     Val( 2p)     0.92584      -0.12111
   165    C   10  pz     Ryd( 3p)     0.00036       0.62825
   166    C   10  pz     Ryd( 4p)     0.00031       0.87271
   167    C   10  pz     Ryd( 5p)     0.00000       1.97515
   168    C   10  dxy    Ryd( 3d)     0.00077       2.23166
   169    C   10  dxz    Ryd( 3d)     0.00095       2.13930
   170    C   10  dyz    Ryd( 3d)     0.00002       1.36620
   171    C   10  dx2y2  Ryd( 3d)     0.00052       2.84847
   172    C   10  dz2    Ryd( 3d)     0.00011       1.88519

   173    N   11  S      Cor( 1S)     1.99958     -14.07656
   174    N   11  S      Val( 2S)     1.59309      -0.59978
   175    N   11  S      Ryd( 4S)     0.00494       1.52749
   176    N   11  S      Ryd( 3S)     0.00010       1.05554
   177    N   11  S      Ryd( 5S)     0.00000      34.88402
   178    N   11  px     Val( 2p)     1.52445      -0.20064
   179    N   11  px     Ryd( 3p)     0.00228       0.56064
   180    N   11  px     Ryd( 5p)     0.00032       2.90094
   181    N   11  px     Ryd( 4p)     0.00002       2.38522
   182    N   11  py     Val( 2p)     1.07459      -0.16559
   183    N   11  py     Ryd( 3p)     0.00026       0.54968
   184    N   11  py     Ryd( 4p)     0.00002       2.13317
   185    N   11  py     Ryd( 5p)     0.00002       2.38073
   186    N   11  pz     Val( 2p)     1.06747      -0.16587
   187    N   11  pz     Ryd( 3p)     0.00033       0.52746
   188    N   11  pz     Ryd( 4p)     0.00000       2.13831
   189    N   11  pz     Ryd( 5p)     0.00003       2.32288
   190    N   11  dxy    Ryd( 3d)     0.00369       2.11061
   191    N   11  dxz    Ryd( 3d)     0.00359       2.05862
   192    N   11  dyz    Ryd( 3d)     0.00000       1.95575
   193    N   11  dx2y2  Ryd( 3d)     0.00461       2.46521
   194    N   11  dz2    Ryd( 3d)     0.00155       2.12572

 WARNING:  1 low occupancy (<1.9990e) core orbital  found on  C    2

 WARNING:  Population inversion found on atom  C    1
           Population inversion found on atom  C    2
           Population inversion found on atom  C    3
           Population inversion found on atom  C    4
           Population inversion found on atom  N    8
           Population inversion found on atom  N    9
           Population inversion found on atom  C   10
           Population inversion found on atom  N   11


 Summary of Natural Population Analysis:                  
                                                          
                                       Natural Population 
                Natural  -----------------------------------------------
    Atom  No    Charge         Core      Valence    Rydberg      Total
 -----------------------------------------------------------------------
      C    1    0.33435      1.99901     3.62996    0.03668     5.66565
      C    2    0.04316      1.99897     3.93453    0.02335     5.95684
      C    3   -0.24459      1.99910     4.23107    0.01441     6.24459
      C    4    0.12422      1.99929     3.84899    0.02749     5.87578
      H    5    0.21183      0.00000     0.78660    0.00157     0.78817
      H    6    0.21803      0.00000     0.78040    0.00157     0.78197
      H    7    0.20081      0.00000     0.79755    0.00164     0.79919
      N    8   -0.45472      1.99935     5.43752    0.01784     7.45472
      N    9   -0.42740      1.99929     5.41175    0.01636     7.42740
      C   10    0.27526      1.99912     3.69117    0.03445     5.72474
      N   11   -0.28094      1.99958     5.25960    0.02176     7.28094
 =======================================================================
   * Total *    0.00000     15.99372    37.80914    0.19714    54.00000

                                 Natural Population      
 --------------------------------------------------------
   Core                      15.99372 ( 99.9608% of  16)
   Valence                   37.80914 ( 99.4977% of  38)
   Natural Minimal Basis     53.80286 ( 99.6349% of  54)
   Natural Rydberg Basis      0.19714 (  0.3651% of  54)
 --------------------------------------------------------

    Atom  No          Natural Electron Configuration
 ----------------------------------------------------------------------------
      C    1      [core]2S( 0.86)2p( 2.77)3d( 0.01)4p( 0.02)
      C    2      [core]2S( 0.96)2p( 2.97)4p( 0.02)
      C    3      [core]2S( 1.01)2p( 3.22)4p( 0.01)
      C    4      [core]2S( 0.96)2p( 2.89)3d( 0.01)4p( 0.02)
      H    5            1S( 0.79)
      H    6            1S( 0.78)
      H    7            1S( 0.80)
      N    8      [core]2S( 1.40)2p( 4.04)3d( 0.01)4p( 0.01)
      N    9      [core]2S( 1.40)2p( 4.01)3d( 0.01)4p( 0.01)
      C   10      [core]2S( 0.86)2p( 2.84)4S( 0.01)4p( 0.02)
      N   11      [core]2S( 1.59)2p( 3.67)3d( 0.01)


 NBO analysis skipped by request.
 Calling FoFJK, ICntrl=      2127 FMM=F ISym2X=0 I1Cent= 0 IOpClX= 0 NMat=1 NMatS=1 NMatT=0.
 ***** Axes restored to original set *****
 -------------------------------------------------------------------
 Center     Atomic                   Forces (Hartrees/Bohr)
 Number     Number              X              Y              Z
 -------------------------------------------------------------------
      1        6          -0.003808659    0.046380798    0.007513804
      2        6          -0.055721340   -0.037453978    0.025597425
      3        6          -0.048579780    0.006237575    0.026898230
      4        6           0.064039233   -0.036125520   -0.038744176
      5        1           0.005346931   -0.013389134   -0.004456651
      6        1           0.003236438    0.009474002   -0.000627151
      7        1          -0.005753868    0.008274920    0.004073390
      8        7          -0.014711038   -0.052349994    0.001757000
      9        7           0.029857861    0.017437052   -0.014026069
     10        6           0.033236537    0.063886514   -0.010375135
     11        7          -0.007142313   -0.012372235    0.002389333
 -------------------------------------------------------------------
 Cartesian Forces:  Max     0.064039233 RMS     0.028981211

 GradGradGradGradGradGradGradGradGradGradGradGradGradGradGradGradGradGrad
 Berny optimization.
 FormGI is forming the generalized inverse of G from B-inverse, IUseBI=4.
 Internal  Forces:  Max     0.067088940 RMS     0.021538620
 Search for a local minimum.
 Step number   1 out of a maximum of   53
 All quantities printed in internal units (Hartrees-Bohrs-Radians)
 Mixed Optimization -- RFO/linear search
 Second derivative matrix not updated -- first step.
 ITU=  0
     Eigenvalues ---    0.00968   0.01137   0.01572   0.01739   0.01811
     Eigenvalues ---    0.02323   0.02425   0.05044   0.05044   0.16000
     Eigenvalues ---    0.16000   0.16000   0.22074   0.23215   0.24899
     Eigenvalues ---    0.25000   0.28519   0.28752   0.34197   0.35176
     Eigenvalues ---    0.37230   0.37230   0.37230   0.53439   0.64498
     Eigenvalues ---    0.67410   1.36980
 RFO step:  Lambda=-5.52237575D-02 EMin= 9.67705462D-03
 Linear search not attempted -- first point.
 Maximum step size (   0.300) exceeded in Quadratic search.
    -- Step size scaled by   0.755
 Iteration  1 RMS(Cart)=  0.07080593 RMS(Int)=  0.00105033
 Iteration  2 RMS(Cart)=  0.00098818 RMS(Int)=  0.00022153
 Iteration  3 RMS(Cart)=  0.00000150 RMS(Int)=  0.00022153
 Iteration  4 RMS(Cart)=  0.00000000 RMS(Int)=  0.00022153
 Variable       Old X    -DE/DX   Delta X   Delta X   Delta X     New X
                                 (Linear)    (Quad)   (Total)
    R1        2.78979  -0.06162   0.00000  -0.11616  -0.11591   2.67388
    R2        2.45685  -0.01721   0.00000  -0.01888  -0.01853   2.43831
    R3        2.91018  -0.05803   0.00000  -0.12862  -0.12862   2.78155
    R4        2.54923   0.00358   0.00000   0.00537   0.00514   2.55436
    R5        2.02201   0.00772   0.00000   0.01363   0.01363   2.03563
    R6        2.77864  -0.06709   0.00000  -0.12327  -0.12316   2.65548
    R7        2.89801  -0.05528   0.00000  -0.11838  -0.11872   2.77928
    R8        2.02201   0.00971   0.00000   0.01713   0.01713   2.03914
    R9        2.02201   0.01063   0.00000   0.01877   0.01877   2.04077
   R10        2.44443  -0.00812   0.00000  -0.00802  -0.00813   2.43630
   R11        2.16676   0.01448   0.00000   0.00766   0.00766   2.17442
    A1        2.11327   0.03811   0.00000   0.08960   0.09011   2.20338
    A2        2.08496  -0.02665   0.00000  -0.06358  -0.06384   2.02112
    A3        2.08496  -0.01146   0.00000  -0.02602  -0.02628   2.05868
    A4        2.10021   0.00922   0.00000   0.03469   0.03478   2.13499
    A5        2.08276   0.00777   0.00000   0.02253   0.02236   2.10513
    A6        2.10021  -0.01700   0.00000  -0.05722  -0.05714   2.04307
    A7        2.07213  -0.00707   0.00000  -0.01492  -0.01554   2.05659
    A8        2.10553   0.00610   0.00000   0.01645   0.01676   2.12229
    A9        2.10553   0.00097   0.00000  -0.00153  -0.00122   2.10431
   A10        2.10009  -0.00385   0.00000  -0.01019  -0.00996   2.09013
   A11        2.08301   0.01228   0.00000   0.03645   0.03598   2.11900
   A12        2.10009  -0.00843   0.00000  -0.02626  -0.02603   2.07406
   A13        2.10586  -0.02843   0.00000  -0.07253  -0.07242   2.03344
   A14        2.10934  -0.02266   0.00000  -0.06113  -0.06050   2.04884
   A15        3.14159   0.00110   0.00000   0.00788   0.00788   3.14948
   A16        3.14159   0.00000   0.00000   0.00000   0.00000   3.14159
    D1        0.00000   0.00000   0.00000   0.00000   0.00000   0.00000
    D2       -3.14159   0.00000   0.00000   0.00000   0.00000  -3.14159
    D3        0.00000   0.00000   0.00000   0.00000   0.00000   0.00000
    D4       -3.14159   0.00000   0.00000   0.00000   0.00000  -3.14159
    D5       -3.14159   0.00000   0.00000   0.00000   0.00000  -3.14159
    D6        0.00000   0.00000   0.00000   0.00000   0.00000   0.00000
    D7        0.00000   0.00000   0.00000   0.00000   0.00000   0.00000
    D8       -3.14159   0.00000   0.00000   0.00000   0.00000  -3.14159
    D9        0.00000   0.00000   0.00000   0.00000   0.00000   0.00000
   D10        3.14159   0.00000   0.00000   0.00000   0.00000   3.14159
   D11        3.14159   0.00000   0.00000   0.00000   0.00000   3.14159
   D12        0.00000   0.00000   0.00000   0.00000   0.00000   0.00000
   D13        0.00000   0.00000   0.00000   0.00000   0.00000   0.00000
   D14       -3.14159   0.00000   0.00000   0.00000   0.00000  -3.14159
   D15        0.00000   0.00000   0.00000   0.00000   0.00000   0.00000
   D16       -3.14159   0.00000   0.00000   0.00000   0.00000  -3.14159
         Item               Value     Threshold  Converged?
 Maximum Force            0.067089     0.000450     NO 
 RMS     Force            0.021539     0.000300     NO 
 Maximum Displacement     0.218592     0.001800     NO 
 RMS     Displacement     0.070943     0.001200     NO 
 Predicted change in Energy=-2.843750D-02
 GradGradGradGradGradGradGradGradGradGradGradGradGradGradGradGradGradGrad

                          Input orientation:                          
 ---------------------------------------------------------------------
 Center     Atomic      Atomic             Coordinates (Angstroms)
 Number     Number       Type             X           Y           Z
 ---------------------------------------------------------------------
      1          6           0       -2.024244    0.113204    0.259878
      2          6           0       -0.170457    1.165127   -0.614601
      3          6           0       -0.642887    2.368050   -0.218485
      4          6           0       -1.935799    2.401330    0.481749
      5          1           0        0.767789    1.056931   -1.132648
      6          1           0       -0.096429    3.279541   -0.405428
      7          1           0       -2.342344    3.345759    0.811938
      8          7           0       -2.602294    1.322370    0.713614
      9          7           0       -0.899394   -0.009027   -0.360322
     10          6           0       -2.798079   -1.108818    0.532702
     11          7           0       -3.396570   -2.069049    0.741926
 ---------------------------------------------------------------------
                    Distance matrix (angstroms):
                    1          2          3          4          5
     1  C    0.000000
     2  C    2.303862   0.000000
     3  C    2.687249   1.351711   0.000000
     4  C    2.300558   2.417977   1.470733   0.000000
     5  H    3.259631   1.077211   2.131838   3.423897   0.000000
     6  H    3.766270   2.126024   1.079065   2.222976   2.493133
     7  H    3.294748   3.392235   2.214913   1.079930   4.323548
     8  N    1.414956   2.775375   2.408636   1.289237   3.851830
     9  N    1.290301   1.405220   2.395080   2.755547   2.124206
    10  C    1.471935   3.659444   4.159056   3.614867   4.492135
    11  N    2.622571   4.765277   5.309709   4.710184   5.534226
                    6          7          8          9         10
     6  H    0.000000
     7  H    2.555484   0.000000
     8  N    3.370776   2.042387   0.000000
     9  N    3.385479   3.835477   2.413674   0.000000
    10  C    5.238005   4.486527   2.445759   2.368974   0.000000
    11  N    6.388644   5.516923   3.483303   3.419726   1.150656
                   11
    11  N    0.000000
 Stoichiometry    C5H3N3
 Framework group  C1[X(C5H3N3)]
 Deg. of freedom    27
 Full point group                 C1      NOp   1
 Largest Abelian subgroup         C1      NOp   1
 Largest concise Abelian subgroup C1      NOp   1
                         Standard orientation:                         
 ---------------------------------------------------------------------
 Center     Atomic      Atomic             Coordinates (Angstroms)
 Number     Number       Type             X           Y           Z
 ---------------------------------------------------------------------
      1          6           0       -0.549808   -0.034945    0.000000
      2          6           0        1.442057   -1.192636    0.000001
      3          6           0        2.137440   -0.033514   -0.000001
      4          6           0        1.375435    1.224423    0.000000
      5          1           0        1.926300   -2.154870    0.000002
      6          1           0        3.216437   -0.021502   -0.000001
      7          1           0        1.899635    2.168596    0.000001
      8          7           0        0.086206    1.229011    0.000000
      9          7           0        0.036863   -1.184159   -0.000001
     10          6           0       -2.021558   -0.011579    0.000000
     11          7           0       -3.172178   -0.002385    0.000000
 ---------------------------------------------------------------------
 Rotational constants (GHZ):      5.9250356      1.6119683      1.2672104
 Standard basis: 6-311+G(d,p) (5D, 7F)
 There are   202 symmetry adapted cartesian basis functions of A   symmetry.
 There are   194 symmetry adapted basis functions of A   symmetry.
   194 basis functions,   312 primitive gaussians,   202 cartesian basis functions
    27 alpha electrons       27 beta electrons
       nuclear repulsion energy       304.2082007841 Hartrees.
 NAtoms=   11 NActive=   11 NUniq=   11 SFac= 1.00D+00 NAtFMM=   60 NAOKFM=F Big=F
 Integral buffers will be    131072 words long.
 Raffenetti 2 integral format.
 Two-electron integral symmetry is turned on.
 One-electron integrals computed using PRISM.
 NBasis=   194 RedAO= T EigKep=  8.36D-06  NBF=   194
 NBsUse=   194 1.00D-06 EigRej= -1.00D+00 NBFU=   194
 Initial guess from the checkpoint file:  "Chart2_3.chk"
 B after Tr=     0.000000    0.000000    0.000000
         Rot=    0.999997    0.000000    0.000000   -0.002484 Ang=  -0.28 deg.
 ExpMin= 4.38D-02 ExpMax= 6.29D+03 ExpMxC= 9.49D+02 IAcc=2 IRadAn=         4 AccDes= 0.00D+00
 Harris functional with IExCor=  402 and IRadAn=       4 diagonalized for initial guess.
 HarFok:  IExCor=  402 AccDes= 0.00D+00 IRadAn=         4 IDoV= 1 UseB2=F ITyADJ=14
 ICtDFT=  3500011 ScaDFX=  1.000000  1.000000  1.000000  1.000000
 FoFCou: FMM=F IPFlag=           0 FMFlag=      100000 FMFlg1=           0
         NFxFlg=           0 DoJE=T BraDBF=F KetDBF=T FulRan=T
         wScrn=  0.000000 ICntrl=     500 IOpCl=  0 I1Cent=   200000004 NGrid=           0
         NMat0=    1 NMatS0=      1 NMatT0=    0 NMatD0=    1 NMtDS0=    0 NMtDT0=    0
 Petite list used in FoFCou.
 Requested convergence on RMS density matrix=1.00D-08 within 128 cycles.
 Requested convergence on MAX density matrix=1.00D-06.
 Requested convergence on             energy=1.00D-06.
 No special actions if energy rises.
 SCF Done:  E(RB3LYP) =  -356.640683658     A.U. after   13 cycles
            NFock= 13  Conv=0.41D-08     -V/T= 2.0045
 Calling FoFJK, ICntrl=      2127 FMM=F ISym2X=0 I1Cent= 0 IOpClX= 0 NMat=1 NMatS=1 NMatT=0.
 ***** Axes restored to original set *****
 -------------------------------------------------------------------
 Center     Atomic                   Forces (Hartrees/Bohr)
 Number     Number              X              Y              Z
 -------------------------------------------------------------------
      1        6          -0.027951012    0.025975654    0.018112704
      2        6          -0.023269082   -0.033607477    0.008573067
      3        6          -0.031208568    0.014835888    0.018555418
      4        6           0.046032537    0.003889364   -0.024333324
      5        1           0.002745453   -0.004404086   -0.001997314
      6        1           0.000651122    0.002856014   -0.000014287
      7        1          -0.002814602    0.003351892    0.001910573
      8        7          -0.006379686   -0.046254909   -0.002012120
      9        7           0.034152709    0.017285136   -0.016357144
     10        6           0.010756767    0.020291613   -0.003403176
     11        7          -0.002715637   -0.004219088    0.000965603
 -------------------------------------------------------------------
 Cartesian Forces:  Max     0.046254909 RMS     0.019335594

 GradGradGradGradGradGradGradGradGradGradGradGradGradGradGradGradGradGrad
 Berny optimization.
 Using GEDIIS/GDIIS optimizer.
 FormGI is forming the generalized inverse of G from B-inverse, IUseBI=4.
 Internal  Forces:  Max     0.035351330 RMS     0.010731749
 Search for a local minimum.
 Step number   2 out of a maximum of   53
 All quantities printed in internal units (Hartrees-Bohrs-Radians)
 Mixed Optimization -- RFO/linear search
 Update second derivatives using D2CorX and points    1    2
 DE= -3.03D-02 DEPred=-2.84D-02 R= 1.06D+00
 TightC=F SS=  1.41D+00  RLast= 3.00D-01 DXNew= 5.0454D-01 8.9997D-01
 Trust test= 1.06D+00 RLast= 3.00D-01 DXMaxT set to 5.05D-01
 ITU=  1  0
 Use linear search instead of GDIIS.
     Eigenvalues ---    0.00976   0.01134   0.01580   0.01769   0.01829
     Eigenvalues ---    0.02334   0.02420   0.05044   0.05046   0.15979
     Eigenvalues ---    0.16000   0.16132   0.20884   0.23098   0.23211
     Eigenvalues ---    0.25032   0.26521   0.30787   0.31705   0.34494
     Eigenvalues ---    0.37215   0.37230   0.37291   0.53480   0.64806
     Eigenvalues ---    0.76037   1.36956
 RFO step:  Lambda=-7.37767337D-03 EMin= 9.76397257D-03
 Quartic linear search produced a step of  0.55812.
 Iteration  1 RMS(Cart)=  0.04350539 RMS(Int)=  0.00053327
 Iteration  2 RMS(Cart)=  0.00044171 RMS(Int)=  0.00013070
 Iteration  3 RMS(Cart)=  0.00000028 RMS(Int)=  0.00013070
 Variable       Old X    -DE/DX   Delta X   Delta X   Delta X     New X
                                 (Linear)    (Quad)   (Total)
    R1        2.67388  -0.03535  -0.06469  -0.06484  -0.12937   2.54451
    R2        2.43831   0.01487  -0.01034   0.04581   0.03567   2.47398
    R3        2.78155  -0.01802  -0.07179   0.00895  -0.06284   2.71872
    R4        2.55436   0.01299   0.00287   0.03227   0.03500   2.58936
    R5        2.03563   0.00379   0.00761   0.00529   0.01290   2.04853
    R6        2.65548  -0.03373  -0.06874  -0.05165  -0.12033   2.53515
    R7        2.77928  -0.03337  -0.06626  -0.07640  -0.14286   2.63643
    R8        2.03914   0.00274   0.00956  -0.00163   0.00793   2.04706
    R9        2.04077   0.00458   0.01047   0.00463   0.01510   2.05587
   R10        2.43630   0.01822  -0.00454   0.04656   0.04196   2.47827
   R11        2.17442   0.00511   0.00428   0.00117   0.00545   2.17988
    A1        2.20338   0.00812   0.05029  -0.02951   0.02109   2.22447
    A2        2.02112  -0.00697  -0.03563   0.01316  -0.02262   1.99850
    A3        2.05868  -0.00115  -0.01467   0.01635   0.00153   2.06022
    A4        2.13499   0.00183   0.01941  -0.01271   0.00675   2.14174
    A5        2.10513   0.00462   0.01248   0.00871   0.02109   2.12621
    A6        2.04307  -0.00645  -0.03189   0.00401  -0.02783   2.01524
    A7        2.05659  -0.00389  -0.00867  -0.01158  -0.02062   2.03597
    A8        2.12229   0.00299   0.00935   0.00631   0.01585   2.13814
    A9        2.10431   0.00090  -0.00068   0.00527   0.00477   2.10908
   A10        2.09013  -0.00091  -0.00556   0.00310  -0.00232   2.08780
   A11        2.11900   0.00462   0.02008   0.00337   0.02318   2.14218
   A12        2.07406  -0.00371  -0.01453  -0.00647  -0.02086   2.05320
   A13        2.03344  -0.00778  -0.04042   0.01798  -0.02235   2.01109
   A14        2.04884  -0.00570  -0.03377   0.01103  -0.02239   2.02645
   A15        3.14948  -0.00018   0.00440  -0.02004  -0.01564   3.13384
   A16        3.14159   0.00000   0.00000   0.00000   0.00000   3.14159
    D1        0.00000   0.00000   0.00000   0.00000   0.00000   0.00000
    D2       -3.14159   0.00000   0.00000   0.00000   0.00000  -3.14159
    D3        0.00000   0.00000   0.00000   0.00000   0.00000   0.00000
    D4       -3.14159   0.00000   0.00000   0.00000   0.00000   3.14159
    D5       -3.14159   0.00000   0.00000   0.00000   0.00000  -3.14159
    D6        0.00000   0.00000   0.00000   0.00000   0.00000   0.00000
    D7        0.00000   0.00000   0.00000   0.00000   0.00000   0.00000
    D8       -3.14159   0.00000   0.00000   0.00000   0.00000  -3.14159
    D9        0.00000   0.00000   0.00000   0.00000   0.00000   0.00000
   D10        3.14159   0.00000   0.00000   0.00000   0.00000   3.14159
   D11        3.14159   0.00000   0.00000   0.00000   0.00000   3.14159
   D12        0.00000   0.00000   0.00000   0.00000   0.00000   0.00000
   D13        0.00000   0.00000   0.00000   0.00000   0.00000   0.00000
   D14       -3.14159   0.00000   0.00000   0.00000   0.00000  -3.14159
   D15        0.00000   0.00000   0.00000   0.00000   0.00000   0.00000
   D16       -3.14159   0.00000   0.00000   0.00000   0.00000  -3.14159
         Item               Value     Threshold  Converged?
 Maximum Force            0.035351     0.000450     NO 
 RMS     Force            0.010732     0.000300     NO 
 Maximum Displacement     0.118898     0.001800     NO 
 RMS     Displacement     0.043457     0.001200     NO 
 Predicted change in Energy=-1.036172D-02
 GradGradGradGradGradGradGradGradGradGradGradGradGradGradGradGradGradGrad

                          Input orientation:                          
 ---------------------------------------------------------------------
 Center     Atomic      Atomic             Coordinates (Angstroms)
 Number     Number       Type             X           Y           Z
 ---------------------------------------------------------------------
      1          6           0       -2.014927    0.136204    0.257569
      2          6           0       -0.197835    1.145370   -0.602184
      3          6           0       -0.676132    2.365105   -0.200927
      4          6           0       -1.904270    2.368815    0.460939
      5          1           0        0.745243    1.028669   -1.123835
      6          1           0       -0.139583    3.288741   -0.381103
      7          1           0       -2.329161    3.310929    0.800735
      8          7           0       -2.585151    1.273466    0.698622
      9          7           0       -0.873944    0.009791   -0.371811
     10          6           0       -2.774721   -1.055542    0.526397
     11          7           0       -3.390226   -2.006131    0.745920
 ---------------------------------------------------------------------
                    Distance matrix (angstroms):
                    1          2          3          4          5
     1  C    0.000000
     2  C    2.249315   0.000000
     3  C    2.640189   1.370229   0.000000
     4  C    2.244584   2.353502   1.395136   0.000000
     5  H    3.212991   1.084036   2.158269   3.365623   0.000000
     6  H    3.723346   2.155529   1.083259   2.160883   2.538206
     7  H    3.236148   3.346696   2.151840   1.087921   4.285398
     8  N    1.346494   2.721725   2.375967   1.311443   3.804313
     9  N    1.309176   1.341543   2.369776   2.705557   2.055583
    10  C    1.438684   3.571842   4.078468   3.533863   4.411048
    11  N    2.592206   4.684092   5.231686   4.629194   5.459680
                    6          7          8          9         10
     6  H    0.000000
     7  H    2.488269   0.000000
     8  N    3.347826   2.056019   0.000000
     9  N    3.360191   3.793419   2.381371   0.000000
    10  C    5.161424   4.397710   2.343048   2.356833   0.000000
    11  N    6.314470   5.422176   3.377298   3.412468   1.153541
                   11
    11  N    0.000000
 Stoichiometry    C5H3N3
 Framework group  C1[X(C5H3N3)]
 Deg. of freedom    27
 Full point group                 C1      NOp   1
 Largest Abelian subgroup         C1      NOp   1
 Largest concise Abelian subgroup C1      NOp   1
                         Standard orientation:                         
 ---------------------------------------------------------------------
 Center     Atomic      Atomic             Coordinates (Angstroms)
 Number     Number       Type             X           Y           Z
 ---------------------------------------------------------------------
      1          6           0       -0.533169   -0.032396    0.000000
      2          6           0        1.410471   -1.164511    0.000000
      3          6           0        2.106581    0.015726   -0.000001
      4          6           0        1.350507    1.188227    0.000000
      5          1           0        1.898482   -2.132487    0.000001
      6          1           0        3.189196    0.053044   -0.000001
      7          1           0        1.853899    2.152679    0.000000
      8          7           0        0.039066    1.186453    0.000000
      9          7           0        0.069268   -1.194726    0.000000
     10          6           0       -1.971763   -0.016228    0.000000
     11          7           0       -3.125096    0.005681    0.000000
 ---------------------------------------------------------------------
 Rotational constants (GHZ):      6.1488963      1.6689257      1.3126484
 Standard basis: 6-311+G(d,p) (5D, 7F)
 There are   202 symmetry adapted cartesian basis functions of A   symmetry.
 There are   194 symmetry adapted basis functions of A   symmetry.
   194 basis functions,   312 primitive gaussians,   202 cartesian basis functions
    27 alpha electrons       27 beta electrons
       nuclear repulsion energy       308.9823479761 Hartrees.
 NAtoms=   11 NActive=   11 NUniq=   11 SFac= 1.00D+00 NAtFMM=   60 NAOKFM=F Big=F
 Integral buffers will be    131072 words long.
 Raffenetti 2 integral format.
 Two-electron integral symmetry is turned on.
 One-electron integrals computed using PRISM.
 NBasis=   194 RedAO= T EigKep=  7.02D-06  NBF=   194
 NBsUse=   194 1.00D-06 EigRej= -1.00D+00 NBFU=   194
 Initial guess from the checkpoint file:  "Chart2_3.chk"
 B after Tr=     0.000000    0.000000    0.000000
         Rot=    0.999995    0.000000    0.000000   -0.003202 Ang=  -0.37 deg.
 ExpMin= 4.38D-02 ExpMax= 6.29D+03 ExpMxC= 9.49D+02 IAcc=2 IRadAn=         4 AccDes= 0.00D+00
 Harris functional with IExCor=  402 and IRadAn=       4 diagonalized for initial guess.
 HarFok:  IExCor=  402 AccDes= 0.00D+00 IRadAn=         4 IDoV= 1 UseB2=F ITyADJ=14
 ICtDFT=  3500011 ScaDFX=  1.000000  1.000000  1.000000  1.000000
 FoFCou: FMM=F IPFlag=           0 FMFlag=      100000 FMFlg1=           0
         NFxFlg=           0 DoJE=T BraDBF=F KetDBF=T FulRan=T
         wScrn=  0.000000 ICntrl=     500 IOpCl=  0 I1Cent=   200000004 NGrid=           0
         NMat0=    1 NMatS0=      1 NMatT0=    0 NMatD0=    1 NMtDS0=    0 NMtDT0=    0
 Petite list used in FoFCou.
 Requested convergence on RMS density matrix=1.00D-08 within 128 cycles.
 Requested convergence on MAX density matrix=1.00D-06.
 Requested convergence on             energy=1.00D-06.
 No special actions if energy rises.
 SCF Done:  E(RB3LYP) =  -356.650128211     A.U. after   13 cycles
            NFock= 13  Conv=0.59D-08     -V/T= 2.0035
 Calling FoFJK, ICntrl=      2127 FMM=F ISym2X=0 I1Cent= 0 IOpClX= 0 NMat=1 NMatS=1 NMatT=0.
 ***** Axes restored to original set *****
 -------------------------------------------------------------------
 Center     Atomic                   Forces (Hartrees/Bohr)
 Number     Number              X              Y              Z
 -------------------------------------------------------------------
      1        6          -0.016694196    0.006196883    0.009720634
      2        6           0.005301603   -0.012415309   -0.004317680
      3        6          -0.001038102    0.011685056    0.001935482
      4        6           0.005652118    0.017834978   -0.000943357
      5        1           0.001064190    0.001323473   -0.000417254
      6        1           0.000506991   -0.000931394   -0.000382751
      7        1          -0.001679742   -0.001611979    0.000714751
      8        7          -0.006389903   -0.011170652    0.002125697
      9        7           0.015131111   -0.003318632   -0.008539806
     10        6          -0.002692086   -0.008742652    0.000420131
     11        7           0.000838017    0.001150229   -0.000315848
 -------------------------------------------------------------------
 Cartesian Forces:  Max     0.017834978 RMS     0.007143619

 GradGradGradGradGradGradGradGradGradGradGradGradGradGradGradGradGradGrad
 Berny optimization.
 Using GEDIIS/GDIIS optimizer.
 FormGI is forming the generalized inverse of G from B-inverse, IUseBI=4.
 Internal  Forces:  Max     0.019092059 RMS     0.004822464
 Search for a local minimum.
 Step number   3 out of a maximum of   53
 All quantities printed in internal units (Hartrees-Bohrs-Radians)
 Mixed Optimization -- RFO/linear search
 Update second derivatives using D2CorX and points    1    2    3
 DE= -9.44D-03 DEPred=-1.04D-02 R= 9.11D-01
 TightC=F SS=  1.41D+00  RLast= 2.56D-01 DXNew= 8.4853D-01 7.6758D-01
 Trust test= 9.11D-01 RLast= 2.56D-01 DXMaxT set to 7.68D-01
 ITU=  1  1  0
 Use linear search instead of GDIIS.
     Eigenvalues ---    0.00975   0.01136   0.01593   0.01787   0.01843
     Eigenvalues ---    0.02338   0.02419   0.05044   0.05047   0.15805
     Eigenvalues ---    0.16002   0.16232   0.21940   0.23103   0.24160
     Eigenvalues ---    0.26484   0.26615   0.30630   0.32392   0.34444
     Eigenvalues ---    0.37208   0.37238   0.37303   0.54057   0.64819
     Eigenvalues ---    0.84709   1.37142
 RFO step:  Lambda=-1.44392951D-03 EMin= 9.74693370D-03
 Quartic linear search produced a step of -0.00338.
 Iteration  1 RMS(Cart)=  0.01028441 RMS(Int)=  0.00005438
 Iteration  2 RMS(Cart)=  0.00007571 RMS(Int)=  0.00000343
 Iteration  3 RMS(Cart)=  0.00000000 RMS(Int)=  0.00000343
 Variable       Old X    -DE/DX   Delta X   Delta X   Delta X     New X
                                 (Linear)    (Quad)   (Total)
    R1        2.54451   0.00174   0.00044  -0.00751  -0.00708   2.53742
    R2        2.47398   0.01909  -0.00012   0.02525   0.02513   2.49911
    R3        2.71872   0.00729   0.00021   0.00942   0.00963   2.72835
    R4        2.58936   0.01406  -0.00012   0.02430   0.02419   2.61355
    R5        2.04853   0.00098  -0.00004   0.00403   0.00399   2.05252
    R6        2.53515   0.00209   0.00041  -0.00841  -0.00801   2.52714
    R7        2.63643   0.00502   0.00048   0.00238   0.00287   2.63929
    R8        2.04706  -0.00048  -0.00003   0.00070   0.00067   2.04773
    R9        2.05587  -0.00052  -0.00005   0.00077   0.00072   2.05659
   R10        2.47827   0.01687  -0.00014   0.02247   0.02232   2.50059
   R11        2.17988  -0.00146  -0.00002  -0.00022  -0.00024   2.17964
    A1        2.22447  -0.00205  -0.00007   0.00436   0.00428   2.22875
    A2        1.99850   0.00496   0.00008   0.01056   0.01064   2.00914
    A3        2.06022  -0.00291  -0.00001  -0.01491  -0.01492   2.04530
    A4        2.14174  -0.00171  -0.00002  -0.00447  -0.00449   2.13724
    A5        2.12621   0.00046  -0.00007   0.00311   0.00305   2.12926
    A6        2.01524   0.00125   0.00009   0.00136   0.00145   2.01669
    A7        2.03597   0.00065   0.00007  -0.00092  -0.00084   2.03512
    A8        2.13814  -0.00137  -0.00005  -0.00458  -0.00464   2.13350
    A9        2.10908   0.00072  -0.00002   0.00550   0.00548   2.11456
   A10        2.08780   0.00322   0.00001   0.01682   0.01682   2.10463
   A11        2.14218  -0.00155  -0.00008  -0.00268  -0.00275   2.13943
   A12        2.05320  -0.00167   0.00007  -0.01414  -0.01407   2.03913
   A13        2.01109   0.00170   0.00008  -0.00013  -0.00007   2.01102
   A14        2.02645   0.00079   0.00008  -0.00374  -0.00366   2.02279
   A15        3.13384   0.00019   0.00005   0.00497   0.00502   3.13886
   A16        3.14159   0.00000   0.00000   0.00000   0.00000   3.14159
    D1        0.00000   0.00000   0.00000   0.00000   0.00000   0.00000
    D2       -3.14159   0.00000   0.00000   0.00000   0.00000   3.14159
    D3        0.00000   0.00000   0.00000   0.00000   0.00000   0.00000
    D4        3.14159   0.00000   0.00000   0.00000   0.00000  -3.14159
    D5       -3.14159   0.00000   0.00000   0.00000   0.00000  -3.14159
    D6        0.00000   0.00000   0.00000   0.00000   0.00000   0.00000
    D7        0.00000   0.00000   0.00000   0.00000   0.00000   0.00000
    D8       -3.14159   0.00000   0.00000   0.00000   0.00000   3.14159
    D9        0.00000   0.00000   0.00000   0.00000   0.00000   0.00000
   D10        3.14159   0.00000   0.00000   0.00000   0.00000  -3.14159
   D11        3.14159   0.00000   0.00000   0.00000   0.00000  -3.14159
   D12        0.00000   0.00000   0.00000   0.00000   0.00000   0.00000
   D13        0.00000   0.00000   0.00000   0.00000   0.00000   0.00000
   D14       -3.14159   0.00000   0.00000   0.00000   0.00000   3.14159
   D15        0.00000   0.00000   0.00000   0.00000   0.00000   0.00000
   D16       -3.14159   0.00000   0.00000   0.00000   0.00000   3.14159
         Item               Value     Threshold  Converged?
 Maximum Force            0.019092     0.000450     NO 
 RMS     Force            0.004822     0.000300     NO 
 Maximum Displacement     0.026583     0.001800     NO 
 RMS     Displacement     0.010271     0.001200     NO 
 Predicted change in Energy=-7.234698D-04
 GradGradGradGradGradGradGradGradGradGradGradGradGradGradGradGradGradGrad

                          Input orientation:                          
 ---------------------------------------------------------------------
 Center     Atomic      Atomic             Coordinates (Angstroms)
 Number     Number       Type             X           Y           Z
 ---------------------------------------------------------------------
      1          6           0       -2.024334    0.142445    0.263369
      2          6           0       -0.196775    1.137662   -0.603664
      3          6           0       -0.673732    2.371953   -0.201412
      4          6           0       -1.902884    2.381695    0.461710
      5          1           0        0.748031    1.019997   -1.126359
      6          1           0       -0.129269    3.290395   -0.386461
      7          1           0       -2.338632    3.317417    0.806599
      8          7           0       -2.591392    1.277612    0.702470
      9          7           0       -0.872811    0.007161   -0.372731
     10          6           0       -2.777492   -1.060723    0.527279
     11          7           0       -3.381418   -2.020198    0.739521
 ---------------------------------------------------------------------
                    Distance matrix (angstroms):
                    1          2          3          4          5
     1  C    0.000000
     2  C    2.254369   0.000000
     3  C    2.647802   1.383029   0.000000
     4  C    2.251295   2.365047   1.396653   0.000000
     5  H    3.222957   1.086146   2.169037   3.376911   0.000000
     6  H    3.731373   2.164715   1.083613   2.165834   2.543975
     7  H    3.236407   3.365669   2.163765   1.088302   4.306037
     8  N    1.342747   2.731257   2.385793   1.323257   3.816114
     9  N    1.322471   1.337306   2.379333   2.719513   2.054488
    10  C    1.443782   3.573797   4.091462   3.552390   4.415113
    11  N    2.597195   4.681685   5.244798   4.651871   5.456797
                    6          7          8          9         10
     6  H    0.000000
     7  H    2.511057   0.000000
     8  N    3.361416   2.058041   0.000000
     9  N    3.366403   3.807524   2.392410   0.000000
    10  C    5.174962   4.408937   2.352262   2.361822   0.000000
    11  N    6.328247   5.438937   3.391322   3.411803   1.153415
                   11
    11  N    0.000000
 Stoichiometry    C5H3N3
 Framework group  C1[X(C5H3N3)]
 Deg. of freedom    27
 Full point group                 C1      NOp   1
 Largest Abelian subgroup         C1      NOp   1
 Largest concise Abelian subgroup C1      NOp   1
                         Standard orientation:                         
 ---------------------------------------------------------------------
[...]
 Vib (V=0)    1  0.209616D+01          0.321424          0.740107
 Vib (V=0)    2  0.172939D+01          0.237893          0.547770
 Vib (V=0)    3  0.122001D+01          0.086365          0.198862
 Vib (V=0)    4  0.116419D+01          0.066024          0.152025
 Vib (V=0)    5  0.109386D+01          0.038962          0.089712
 Vib (V=0)    6  0.106802D+01          0.028579          0.065806
 Vib (V=0)    7  0.106720D+01          0.028246          0.065039
 Electronic      0.100000D+01          0.000000          0.000000
 Translational   0.423099D+08          7.626442         17.560532
 Rotational      0.240419D+06          5.380969         12.390140
 ***** Axes restored to original set *****
 -------------------------------------------------------------------
 Center     Atomic                   Forces (Hartrees/Bohr)
 Number     Number              X              Y              Z
 -------------------------------------------------------------------
      1        6          -0.000124424    0.000055504    0.000067189
      2        6          -0.000033206    0.000051555    0.000024656
      3        6          -0.000008854   -0.000031868    0.000000805
      4        6          -0.000063828   -0.000135776    0.000020694
      5        1           0.000006814    0.000014423   -0.000002460
      6        1           0.000012651   -0.000002857   -0.000007592
      7        1           0.000009610    0.000003551   -0.000005309
      8        7           0.000139694    0.000035847   -0.000070289
      9        7           0.000043156   -0.000016327   -0.000022963
     10        6           0.000018412    0.000030480   -0.000003983
     11        7          -0.000000024   -0.000004532   -0.000000748
 -------------------------------------------------------------------
 Cartesian Forces:  Max     0.000139694 RMS     0.000049787
 FormGI is forming the generalized inverse of G from B-inverse, IUseBI=4.

 GradGradGradGradGradGradGradGradGradGradGradGradGradGradGradGradGradGrad
 Berny optimization.
 Internal  Forces:  Max     0.000135720 RMS     0.000031149
 Search for a local minimum.
 Step number   1 out of a maximum of    2
 All quantities printed in internal units (Hartrees-Bohrs-Radians)
 Second derivative matrix not updated -- analytic derivatives used.
 ITU=  0
     Eigenvalues ---    0.01406   0.01947   0.02222   0.02383   0.03152
     Eigenvalues ---    0.03738   0.04023   0.06717   0.07878   0.10658
     Eigenvalues ---    0.12492   0.13312   0.17262   0.21349   0.22124
     Eigenvalues ---    0.24194   0.27438   0.32981   0.35161   0.35354
     Eigenvalues ---    0.36228   0.43665   0.45570   0.50290   0.51802
     Eigenvalues ---    0.57902   1.24537
 Angle between quadratic step and forces=  29.90 degrees.
 Linear search not attempted -- first point.
 Iteration  1 RMS(Cart)=  0.00008917 RMS(Int)=  0.00000001
 Iteration  2 RMS(Cart)=  0.00000001 RMS(Int)=  0.00000000
 Variable       Old X    -DE/DX   Delta X   Delta X   Delta X     New X
                                 (Linear)    (Quad)   (Total)
    R1        2.52501  -0.00010   0.00000  -0.00023  -0.00023   2.52478
    R2        2.52463   0.00005   0.00000   0.00016   0.00016   2.52478
    R3        2.73516  -0.00003   0.00000  -0.00010  -0.00010   2.73506
    R4        2.62995  -0.00007   0.00000  -0.00013  -0.00013   2.62983
    R5        2.05173   0.00001   0.00000   0.00002   0.00002   2.05175
    R6        2.52182   0.00001   0.00000   0.00002   0.00002   2.52185
    R7        2.62986  -0.00003   0.00000  -0.00004  -0.00004   2.62983
    R8        2.04558   0.00001   0.00000   0.00001   0.00001   2.04559
    R9        2.05174   0.00000   0.00000   0.00001   0.00001   2.05175
   R10        2.52215  -0.00014   0.00000  -0.00031  -0.00031   2.52184
   R11        2.17871   0.00000   0.00000   0.00000   0.00000   2.17871
    A1        2.22341  -0.00002   0.00000  -0.00009  -0.00009   2.22332
    A2        2.02979   0.00001   0.00000   0.00014   0.00014   2.02993
    A3        2.02998   0.00000   0.00000  -0.00005  -0.00005   2.02993
    A4        2.12053  -0.00002   0.00000  -0.00013  -0.00013   2.12040
    A5        2.13260   0.00000   0.00000   0.00007   0.00007   2.13267
    A6        2.03005   0.00002   0.00000   0.00006   0.00006   2.03011
    A7        2.03721  -0.00001   0.00000  -0.00004  -0.00004   2.03717
    A8        2.12312  -0.00001   0.00000  -0.00011  -0.00011   2.12301
    A9        2.12286   0.00002   0.00000   0.00015   0.00015   2.12301
   A10        2.12052  -0.00002   0.00000  -0.00012  -0.00012   2.12040
   A11        2.13268   0.00002   0.00000  -0.00001  -0.00001   2.13267
   A12        2.02998   0.00000   0.00000   0.00013   0.00013   2.03011
   A13        2.02009   0.00004   0.00000   0.00018   0.00018   2.02027
   A14        2.02037  -0.00003   0.00000  -0.00010  -0.00010   2.02027
   A15        3.14152   0.00001   0.00000   0.00008   0.00008   3.14159
   A16        3.14159   0.00000   0.00000   0.00000   0.00000   3.14159
    D1       -0.00001   0.00000   0.00000   0.00001   0.00001   0.00000
    D2       -3.14155   0.00000   0.00000  -0.00004  -0.00004   3.14159
    D3        0.00002   0.00000   0.00000  -0.00002  -0.00002   0.00000
    D4        3.14157   0.00000   0.00000   0.00003   0.00003   3.14159
    D5       -3.14159   0.00000   0.00000   0.00000   0.00000  -3.14159
    D6        0.00000   0.00000   0.00000   0.00000   0.00000   0.00000
    D7        0.00000   0.00000   0.00000   0.00000   0.00000   0.00000
    D8        3.14159   0.00000   0.00000   0.00000   0.00000   3.14159
    D9       -0.00002   0.00000   0.00000   0.00002   0.00002   0.00000
   D10        3.14157   0.00000   0.00000   0.00002   0.00002   3.14159
   D11        3.14159   0.00000   0.00000   0.00000   0.00000   3.14159
   D12        0.00002   0.00000   0.00000  -0.00002  -0.00002   0.00000
   D13        0.00000   0.00000   0.00000   0.00000   0.00000   0.00000
   D14       -3.14158   0.00000   0.00000  -0.00002  -0.00002   3.14159
   D15       -0.00001   0.00000   0.00000   0.00001   0.00001   0.00000
   D16       -3.14159   0.00000   0.00000  -0.00001  -0.00001  -3.14159
         Item               Value     Threshold  Converged?
 Maximum Force            0.000136     0.000450     YES
 RMS     Force            0.000031     0.000300     YES
 Maximum Displacement     0.000307     0.001800     YES
 RMS     Displacement     0.000089     0.001200     YES
 Predicted change in Energy=-5.419186D-08
 Optimization completed.
    -- Stationary point found.
                           ----------------------------
                           !   Optimized Parameters   !
                           ! (Angstroms and Degrees)  !
 --------------------------                            --------------------------
 ! Name  Definition              Value          Derivative Info.                !
 --------------------------------------------------------------------------------
 ! R1    R(1,8)                  1.3362         -DE/DX =   -0.0001              !
 ! R2    R(1,9)                  1.336          -DE/DX =    0.0                 !
 ! R3    R(1,10)                 1.4474         -DE/DX =    0.0                 !
 ! R4    R(2,3)                  1.3917         -DE/DX =   -0.0001              !
 ! R5    R(2,5)                  1.0857         -DE/DX =    0.0                 !
 ! R6    R(2,9)                  1.3345         -DE/DX =    0.0                 !
 ! R7    R(3,4)                  1.3917         -DE/DX =    0.0                 !
 ! R8    R(3,6)                  1.0825         -DE/DX =    0.0                 !
 ! R9    R(4,7)                  1.0857         -DE/DX =    0.0                 !
 ! R10   R(4,8)                  1.3347         -DE/DX =   -0.0001              !
 ! R11   R(10,11)                1.1529         -DE/DX =    0.0                 !
 ! A1    A(8,1,9)              127.3922         -DE/DX =    0.0                 !
 ! A2    A(8,1,10)             116.2986         -DE/DX =    0.0                 !
 ! A3    A(9,1,10)             116.3091         -DE/DX =    0.0                 !
 ! A4    A(3,2,5)              121.4975         -DE/DX =    0.0                 !
 ! A5    A(3,2,9)              122.1892         -DE/DX =    0.0                 !
 ! A6    A(5,2,9)              116.3133         -DE/DX =    0.0                 !
 ! A7    A(2,3,4)              116.7236         -DE/DX =    0.0                 !
 ! A8    A(2,3,6)              121.6457         -DE/DX =    0.0                 !
 ! A9    A(4,3,6)              121.6308         -DE/DX =    0.0                 !
 ! A10   A(3,4,7)              121.497          -DE/DX =    0.0                 !
 ! A11   A(3,4,8)              122.1935         -DE/DX =    0.0                 !
 ! A12   A(7,4,8)              116.3095         -DE/DX =    0.0                 !
 ! A13   A(1,8,4)              115.7428         -DE/DX =    0.0                 !
 ! A14   A(1,9,2)              115.7586         -DE/DX =    0.0                 !
 ! A15   L(1,10,11,8,-1)       179.9956         -DE/DX =    0.0                 !
 ! A16   L(1,10,11,8,-2)       180.0001         -DE/DX =    0.0                 !
 ! D1    D(9,1,8,4)             -0.0007         -DE/DX =    0.0                 !
 ! D2    D(10,1,8,4)           180.0022         -DE/DX =    0.0                 !
 ! D3    D(8,1,9,2)              0.0014         -DE/DX =    0.0                 !
 ! D4    D(10,1,9,2)           179.9985         -DE/DX =    0.0                 !
 ! D5    D(5,2,3,4)           -179.9999         -DE/DX =    0.0                 !
 ! D6    D(5,2,3,6)              0.0            -DE/DX =    0.0                 !
 ! D7    D(9,2,3,4)             -0.0001         -DE/DX =    0.0                 !
 ! D8    D(9,2,3,6)            179.9998         -DE/DX =    0.0                 !
 ! D9    D(3,2,9,1)             -0.0009         -DE/DX =    0.0                 !
 ! D10   D(5,2,9,1)            179.9989         -DE/DX =    0.0                 !
 ! D11   D(2,3,4,7)            179.9999         -DE/DX =    0.0                 !
 ! D12   D(2,3,4,8)              0.0009         -DE/DX =    0.0                 !
 ! D13   D(6,3,4,7)              0.0            -DE/DX =    0.0                 !
 ! D14   D(6,3,4,8)            180.0009         -DE/DX =    0.0                 !
 ! D15   D(3,4,8,1)             -0.0005         -DE/DX =    0.0                 !
 ! D16   D(7,4,8,1)           -179.9996         -DE/DX =    0.0                 !
 --------------------------------------------------------------------------------
 GradGradGradGradGradGradGradGradGradGradGradGradGradGradGradGradGradGrad

 1\1\GINC-COREV4-21-006\Freq\RB3LYP\6-311+G(d,p)\C5H3N3\ROOT\01-Nov-202
 1\0\\#N Geom=AllCheck Guess=TCheck SCRF=Check GenChk RB3LYP/6-311+G(d,
 p) Freq\\Title Card Required\\0,1\C,-2.0376923502,0.1460502901,0.27101
 91176\C,-0.1991200423,1.1313177934,-0.6031496144\C,-0.6736158307,2.376
 2931996,-0.2009699587\C,-1.8978168687,2.3955684467,0.4606093686\H,0.74
 71189638,1.0264638805,-1.1251069699\H,-0.1178595046,3.2850930508,-0.39
 32391302\H,-2.3401813828,3.3241695009,0.8082227158\N,-2.5924077011,1.2
 820836598,0.7035626306\N,-0.8751562455,0.0042335413,-0.3718072779\C,-2
 .7809383701,-1.0690168461,0.5281576626\N,-3.3730388877,-2.036839717,0.
 7330232458\\Version=ES64L-G09RevD.01\State=1-A\HF=-356.651497\RMSD=8.6
 92e-10\RMSF=4.979e-05\ZeroPoint=0.0749535\Thermal=0.0808419\Dipole=1.3
 136245,2.1472068,-0.4545466\DipoleDeriv=0.6110316,0.2325126,-0.1470852
 ,0.2325746,0.8882316,-0.0544391,-0.1470671,-0.05439,0.3598648,0.401797
 1,0.0825115,-0.1846945,-0.1153747,0.3580712,0.0995024,-0.2079983,-0.00
 70732,0.1520035,-0.257631,0.1796222,0.1308198,0.1796305,-0.141801,-0.1
 070815,0.1308214,-0.1070745,-0.1370753,0.3258246,-0.1491837,-0.171098,
 0.0486722,0.450169,0.0220022,-0.1477976,0.1285616,0.1354978,-0.0261024
 ,-0.0252188,0.0641091,0.0031702,0.0763426,-0.0043118,0.0674513,0.01097
 83,0.0634153,0.0680445,-0.0596917,0.0324661,-0.0597185,-0.0010419,0.01
 5388,0.0324611,0.0153733,0.1257087,0.0723198,0.046949,0.019616,0.01861
 99,-0.0433737,-0.0267343,0.0162828,-0.0419939,0.0847618,-0.4261022,-0.
 0326977,0.1010074,-0.1567915,-0.708487,0.0282461,0.0863854,-0.0385842,
 -0.2824752,-0.5364004,-0.205804,0.1400398,-0.0817872,-0.5747305,0.0036
 037,0.1546489,0.0703892,-0.3063544,0.0196819,-0.0923647,0.0324252,-0.0
 923851,-0.0798416,0.0285576,0.0324162,0.0285358,0.0859968,-0.2524635,0
 .0233653,-0.0176056,0.0233897,-0.2235388,-0.0047332,-0.0176042,-0.0047
 225,-0.281344\Polar=73.4831955,18.1844484,96.9501942,-15.9327437,-3.07
 65294,48.140884\PG=C01 [X(C5H3N3)]\NImag=0\\0.54625713,0.05280431,0.67
 038508,-0.18683350,0.02840465,0.29176797,-0.05512905,-0.03263664,0.028
 49563,0.63738914,-0.08271743,0.03388499,0.04796074,0.01325432,0.643895
 02,0.02259751,0.02098928,-0.00477956,-0.25523246,0.04978623,0.30390137
 ,-0.04558861,0.03362136,0.02117998,-0.15314734,0.02949465,0.04890206,0
 .56419894,0.03363961,-0.02255549,-0.01917026,0.09049511,-0.28040830,-0
 .07366090,0.07622572,0.72737277,0.02118192,-0.01916022,-0.02727981,0.0
 5608662,-0.04080803,-0.10380973,-0.22791456,0.02997271,0.25061510,0.05
 329998,-0.03442159,-0.03011169,-0.00503650,0.07952518,0.01632129,-0.26
 801750,-0.02162843,0.10475174,0.56063065,0.01563869,-0.09796072,-0.020
 53902,0.03858158,0.04475205,-0.01643540,0.03938793,-0.14073941,-0.0296
 8802,-0.02114317,0.73690233,-0.02421542,0.00642186,0.01871476,0.011499
 07,-0.03848706,-0.00284854,0.11193849,0.00317384,-0.12869607,-0.217933
 21,0.07925982,0.28730840,0.00377919,-0.00254466,0.00405946,-0.26037073
 ,0.03229515,0.11941581,-0.00258154,-0.00125337,0.00624478,0.00265880,0
 .00155770,0.00342347,0.27550086,-0.00452228,-0.00300642,0.00068296,0.0
 3407339,-0.06154491,-0.02021672,0.02391861,0.00295325,-0.01362777,0.00
 107235,-0.00564411,-0.00226399,-0.02321128,0.06691891,0.00382645,-0.00
 038187,0.00976772,0.11962506,-0.01925931,-0.11239642,0.00920936,-0.000
 07086,0.00431959,0.00336657,-0.00252528,0.00656431,-0.13646067,0.01717
 908,0.10271339,-0.00122939,0.00177140,0.00097953,0.01006207,0.01026015
 ,-0.00359334,-0.12939101,-0.12343007,0.03524742,-0.00681363,-0.0247183
 6,0.00137891,-0.00039911,-0.00034292,-0.00146852,0.12893492,0.00177218
 ,0.00003962,-0.00097359,-0.01719815,-0.01496093,0.00736527,-0.12343750
 ,-0.25942472,0.04027544,0.00274767,0.00555440,-0.00096130,0.00045156,0
 .00055648,0.00018169,0.13343944,0.27023662,0.00097957,-0.00097306,-0.0
 0044011,-0.00682731,-0.00742293,0.00394890,0.03524640,0.04027143,-0.05
 118905,0.00461394,0.01383089,0.00029634,-0.00137495,0.00060955,-0.0022
 3858,-0.03995620,-0.04304739,0.04201050,0.00244459,-0.00511534,0.00447
 484,-0.00311533,-0.00149959,0.00617374,-0.00398572,0.02329466,0.009892
 29,-0.10786053,0.10197205,0.04548642,-0.00056952,0.00136522,-0.0002169
 2,-0.00016415,-0.00023726,-0.00158352,0.10467216,-0.00314290,-0.001386
 76,0.00013113,-0.00101338,0.00138188,-0.00031329,-0.00188028,0.0046598
 4,0.00046758,0.10019957,-0.24709447,-0.07768395,-0.00013459,0.00013031
 ,0.00023751,0.00055599,0.00027175,0.00009209,-0.09927543,0.27474707,0.
 00470742,0.00119334,0.00947718,0.00623093,-0.00005139,0.00531413,0.006
 92721,-0.01309072,0.00401514,0.04527773,-0.07863908,-0.07934950,-0.000
 39358,-0.00057021,-0.00112607,-0.00149005,0.00051931,-0.00218885,-0.05
 341615,0.08262195,0.06570024,-0.14820245,0.06824555,0.04498424,0.00147
 202,0.00196241,-0.00712649,-0.02413784,-0.03279696,0.02148706,-0.17190
 560,-0.11101845,0.04427820,-0.00104876,-0.00041598,-0.00214935,-0.0030
 4087,0.00088042,0.00639408,0.00923919,0.00372250,-0.00580590,0.3459363
 3,0.05710404,-0.24779662,-0.05056421,-0.01629828,-0.08992231,-0.000377
 84,-0.08300009,0.03799209,0.04647549,-0.08498296,-0.27970627,0.0205329
 3,0.00076194,0.00013902,0.00018852,-0.00081962,0.00224151,-0.00031219,
 -0.01950347,-0.03184622,0.00703120,0.04666425,0.63780265,0.04367092,-0
 .05656326,-0.10978219,-0.00927725,-0.01021148,-0.00839597,0.01557434,0
 .01943720,0.01683228,0.04734496,0.03455497,-0.08684356,-0.00201060,0.0
 0082324,-0.00376892,0.00619380,-0.00122770,0.00515853,-0.00854133,-0.0
 0547797,0.00159971,-0.13240140,0.03939643,0.16584095,-0.24793931,0.012
 87745,0.09220470,-0.17021604,-0.08441255,0.04651931,0.06343391,-0.0440
 2167,-0.02699380,-0.06071105,-0.04397815,0.02095186,-0.01661278,-0.031
 02129,0.00402536,0.00246179,0.00163053,0.00351920,-0.00091521,0.000821
 44,-0.00207611,-0.01754764,0.10013658,0.04379383,0.48418231,0.02402389
 ,-0.12688997,-0.01851371,-0.11045543,-0.28220331,0.03394969,0.00619284
 ,-0.06856831,-0.01411316,-0.02573268,-0.01428794,0.01361201,-0.0077971
 5,-0.00040577,0.00442911,0.00333269,-0.00445498,-0.00333701,-0.0003562
 3,-0.00002229,0.00077206,0.03406686,0.02935770,-0.01982146,0.10823907,
 0.47055480,0.09351857,-0.01251182,-0.13139767,0.04345238,0.01992422,-0
 .08643487,-0.02108001,0.01293099,0.03581510,0.02310071,0.02343846,-0.0
 2187176,0.00676056,0.01693667,-0.00400123,0.00371962,-0.00242045,0.006
 35123,-0.00221464,0.00013785,-0.00374029,0.03601179,-0.05540329,0.0159
 4763,-0.19964993,-0.01344916,0.19575451,-0.11722576,-0.08547698,0.0186
 2057,-0.00184917,0.00291845,0.00707816,-0.00130792,-0.00070983,0.00027
 441,0.00518882,0.00504340,0.00353562,-0.00032203,-0.00095856,0.0002782
 4,-0.00049099,-0.00000464,-0.00121065,0.00044989,0.00030270,0.00001072
 ,0.01073365,-0.00025136,-0.00624636,-0.04021862,-0.03275453,0.01736278
 ,0.49702050,-0.08547458,-0.20490806,0.02942747,0.00190777,0.00755785,-
 0.00139242,-0.00070713,-0.00208415,0.00021109,0.00605584,-0.00102217,-
 0.00463632,-0.00004150,0.00016698,-0.00000558,-0.00000443,-0.00000833,
 0.00032389,-0.00061577,-0.00077296,0.00019312,-0.01006576,-0.06343013,
 -0.00195518,-0.02294182,-0.00146587,0.01227908,0.63129211,1.14951129,0
 .01862046,0.02942764,-0.07051485,0.00695932,-0.00193654,0.00667878,0.0
 0027480,0.00021241,-0.00076612,0.00365475,-0.00409103,0.00820075,0.000
 38622,0.00048836,0.00025365,-0.00121060,0.00032399,-0.00204773,-0.0000
 9743,-0.00030160,0.00042061,-0.00740241,-0.00723986,0.00232440,0.01851
 903,0.01756423,-0.00872030,-0.15047001,-0.21393913,0.13537003,0.009533
 68,-0.00912485,0.00194625,-0.00005906,-0.00108074,-0.00105559,0.000524
 62,0.00018522,-0.00025787,-0.00143345,-0.00132322,-0.00034340,-0.00003
 438,0.00004274,-0.00003559,0.00007037,-0.00004426,0.00019945,-0.000195
 36,-0.00015561,0.00002779,-0.00149803,0.00018899,0.00189910,0.00408263
 ,0.00124067,-0.00098181,-0.35197836,-0.51940474,0.11076587,0.34098734,
 -0.00912553,0.00019433,0.00315385,-0.00071030,-0.00243203,0.00030608,0
 .00018388,0.00080244,-0.00000511,-0.00169177,-0.00075369,0.00103216,-0
 .00008379,-0.00026376,0.00002699,-0.00004426,-0.00005140,-0.00003527,-
 0.00002885,-0.00006816,0.00002043,-0.00124484,0.00516857,0.00104521,0.
 00267043,-0.00161407,-0.00186254,-0.51940078,-0.88354445,0.17949154,0.
 52947580,0.88256221,0.00194611,0.00315347,0.01446656,-0.00101199,0.000
 50554,-0.00117808,-0.00025806,-0.00000584,0.00014355,-0.00038677,0.000
 83369,-0.00147515,-0.00005048,-0.00004117,-0.00008744,0.00019945,-0.00
 003527,0.00033882,0.00004271,0.00008870,-0.00012230,0.00173018,0.00027
 283,0.00108714,-0.00081345,-0.00109260,0.00229766,0.11076653,0.1794939
 9,-0.07119920,-0.11216421,-0.18317334,0.05572842\\0.00012442,-0.000055
 50,-0.00006719,0.00003321,-0.00005156,-0.00002466,0.00000885,0.0000318
 7,-0.00000081,0.00006383,0.00013578,-0.00002069,-0.00000681,-0.0000144
 2,0.00000246,-0.00001265,0.00000286,0.00000759,-0.00000961,-0.00000355
 ,0.00000531,-0.00013969,-0.00003585,0.00007029,-0.00004316,0.00001633,
 0.00002296,-0.00001841,-0.00003048,0.00000398,0.00000002,0.00000453,0.
 00000075\\\@


 Cherishing children is the mark of a civilized society.
 -- Joan Ganz Cooney
 Job cpu time:       0 days  0 hours 16 minutes 47.3 seconds.
 File lengths (MBytes):  RWF=    106 Int=      0 D2E=      0 Chk=      4 Scr=      1
 Normal termination of Gaussian 09 at Mon Nov  1 16:53:49 2021.
