	You are loading a legacy vmd module, please load an up to date module instead.


	 module load container_env vmd

	Please run vmd command with crun.vmd prepend to it:
	
	 crun.vmd vmd

	 
module: Command not found.
module: Command not found.
 Entering Gaussian System, Link 0=g09
 Initial command:
 /opt/gaussian/g09/l1.exe "/tmp/G09-37.com.o10577425.tmp/Gau-1706232.inp" -scrdir="/tmp/G09-37.com.o10577425.tmp/"
 Entering Link 1 = /opt/gaussian/g09/l1.exe PID=   1706233.
  
 Copyright (c) 1988,1990,1992,1993,1995,1998,2003,2009,2013,
            Gaussian, Inc.  All Rights Reserved.
  
 This is part of the Gaussian(R) 09 program.  It is based on
 the Gaussian(R) 03 system (copyright 2003, Gaussian, Inc.),
 the Gaussian(R) 98 system (copyright 1998, Gaussian, Inc.),
 the Gaussian(R) 94 system (copyright 1995, Gaussian, Inc.),
 the Gaussian 92(TM) system (copyright 1992, Gaussian, Inc.),
 the Gaussian 90(TM) system (copyright 1990, Gaussian, Inc.),
 the Gaussian 88(TM) system (copyright 1988, Gaussian, Inc.),
 the Gaussian 86(TM) system (copyright 1986, Carnegie Mellon
 University), and the Gaussian 82(TM) system (copyright 1983,
 Carnegie Mellon University). Gaussian is a federally registered
 trademark of Gaussian, Inc.
  
 This software contains proprietary and confidential information,
 including trade secrets, belonging to Gaussian, Inc.
  
 This software is provided under written license and may be
 used, copied, transmitted, or stored only in accord with that
 written license.
  
 The following legend is applicable only to US Government
 contracts under FAR:
  
                    RESTRICTED RIGHTS LEGEND
  
 Use, reproduction and disclosure by the US Government is
 subject to restrictions as set forth in subparagraphs (a)
 and (c) of the Commercial Computer Software - Restricted
 Rights clause in FAR 52.227-19.
  
 Gaussian, Inc.
 340 Quinnipiac St., Bldg. 40, Wallingford CT 06492
  
  
 ---------------------------------------------------------------
 Warning -- This program may not be used in any manner that
 competes with the business of Gaussian, Inc. or will provide
 assistance to any competitor of Gaussian, Inc.  The licensee
 of this program is prohibited from giving any competitor of
 Gaussian, Inc. access to this program.  By using this program,
 the user acknowledges that Gaussian, Inc. is engaged in the
 business of creating and licensing software in the field of
 computational chemistry and represents and warrants to the
 licensee that it is not a competitor of Gaussian, Inc. and that
 it will not use this program in any manner prohibited above.
 ---------------------------------------------------------------
  

 Cite this work as:
 Gaussian 09, Revision D.01,
 M. J. Frisch, G. W. Trucks, H. B. Schlegel, G. E. Scuseria, 
 M. A. Robb, J. R. Cheeseman, G. Scalmani, V. Barone, B. Mennucci, 
 G. A. Petersson, H. Nakatsuji, M. Caricato, X. Li, H. P. Hratchian, 
 A. F. Izmaylov, J. Bloino, G. Zheng, J. L. Sonnenberg, M. Hada, 
 M. Ehara, K. Toyota, R. Fukuda, J. Hasegawa, M. Ishida, T. Nakajima, 
 Y. Honda, O. Kitao, H. Nakai, T. Vreven, J. A. Montgomery, Jr., 
 J. E. Peralta, F. Ogliaro, M. Bearpark, J. J. Heyd, E. Brothers, 
 K. N. Kudin, V. N. Staroverov, T. Keith, R. Kobayashi, J. Normand, 
 K. Raghavachari, A. Rendell, J. C. Burant, S. S. Iyengar, J. Tomasi, 
 M. Cossi, N. Rega, J. M. Millam, M. Klene, J. E. Knox, J. B. Cross, 
 V. Bakken, C. Adamo, J. Jaramillo, R. Gomperts, R. E. Stratmann, 
 O. Yazyev, A. J. Austin, R. Cammi, C. Pomelli, J. W. Ochterski, 
 R. L. Martin, K. Morokuma, V. G. Zakrzewski, G. A. Voth, 
 P. Salvador, J. J. Dannenberg, S. Dapprich, A. D. Daniels, 
 O. Farkas, J. B. Foresman, J. V. Ortiz, J. Cioslowski, 
 and D. J. Fox, Gaussian, Inc., Wallingford CT, 2013.
 
 ******************************************
 Gaussian 09:  ES64L-G09RevD.01 24-Apr-2013
                23-Apr-2024 
 ******************************************
 %nprocshared=20
 Will use up to   20 processors via shared memory.
 %mem=4GB
 %chk=37.chk
 ----------------------------------------------------------------------
 # opt freq=noraman b3lyp/6-311+g(d,p) pop=(npa,hirshfeld,chelpg,mbs) g
 eom=connectivity
 ----------------------------------------------------------------------
 1/14=-1,18=20,19=15,26=3,38=1,57=2/1,3;
 2/9=110,12=2,17=6,18=5,40=1/2;
 3/5=4,6=6,7=111,11=2,16=1,25=1,30=1,71=1,74=-5/1,2,3;
 4//1;
 5/5=2,38=5/2;
 6/7=2,8=2,9=2,10=2,15=8,20=3,27=100,28=1,40=-1,79=1/1,2,7;
 7//1,2,3,16;
 1/14=-1,18=20,19=15,26=3/3(2);
 2/9=110/2;
 99//99;
 2/9=110/2;
 3/5=4,6=6,7=111,11=2,16=1,25=1,30=1,71=1,74=-5/1,2,3;
 4/5=5,16=3,69=1/1;
 5/5=2,38=5/2;
 7//1,2,3,16;
 1/14=-1,18=20,19=15,26=3/3(-5);
 2/9=110/2;
 6/7=2,8=2,9=2,10=2,15=8,19=2,20=3,27=100,28=1,40=-1,79=1/1,2,7;
 99/9=1/99;
 -------------------
 Title Card Required
 -------------------
 Symbolic Z-matrix:
 Charge =  0 Multiplicity = 1
 C                    -2.07229  -0.59587   0.42187 
 C                    -0.66541  -0.59587   0.42187 
 C                     0.00128   0.63073   0.42187 
 C                    -0.7528    1.80552   0.42163 
 C                    -2.156     1.70272   0.42149 
 N                    -2.81553   0.52776   0.42168 
 H                     1.09982   0.67051   0.42092 
 H                    -0.26876   2.79044   0.42153 
 H                    -2.78935   2.60778   0.42141 
 C                     0.11303  -1.92464   0.42224 
 H                    -0.14124  -2.48673   1.29649 
 H                    -0.14255  -2.48798  -0.45081 
 H                     1.16375  -1.72245   0.42131 
 C                    -2.86077  -1.91871   0.42204 
 O                    -4.07495  -2.11702   0.42207 
 O                    -2.04586  -3.00376   0.42225 
 C                    -2.81386  -4.21002   0.42241 
 H                    -3.42924  -4.24092   1.2972 
 H                    -3.43255  -4.23905  -0.4501 
 C                    -1.86479  -5.42281   0.41932 
 H                    -2.43945  -6.3254    0.41926 
 H                    -1.24929  -5.39182  -0.45538 
 H                    -1.24622  -5.39388   1.29192 
 

 GradGradGradGradGradGradGradGradGradGradGradGradGradGradGradGradGradGrad
 Berny optimization.
 Initialization pass.
                           ----------------------------
                           !    Initial Parameters    !
                           ! (Angstroms and Degrees)  !
 --------------------------                            --------------------------
 ! Name  Definition              Value          Derivative Info.                !
 --------------------------------------------------------------------------------
 ! R1    R(1,2)                  1.4069         estimate D2E/DX2                !
 ! R2    R(1,6)                  1.3472         estimate D2E/DX2                !
 ! R3    R(1,14)                 1.54           estimate D2E/DX2                !
 ! R4    R(2,3)                  1.3961         estimate D2E/DX2                !
 ! R5    R(2,10)                 1.54           estimate D2E/DX2                !
 ! R6    R(3,4)                  1.396          estimate D2E/DX2                !
 ! R7    R(3,7)                  1.0993         estimate D2E/DX2                !
 ! R8    R(4,5)                  1.407          estimate D2E/DX2                !
 ! R9    R(4,8)                  1.0974         estimate D2E/DX2                !
 ! R10   R(5,6)                  1.3474         estimate D2E/DX2                !
 ! R11   R(5,9)                  1.1047         estimate D2E/DX2                !
 ! R12   R(10,11)                1.07           estimate D2E/DX2                !
 ! R13   R(10,12)                1.07           estimate D2E/DX2                !
 ! R14   R(10,13)                1.07           estimate D2E/DX2                !
 ! R15   R(14,15)                1.2303         estimate D2E/DX2                !
 ! R16   R(14,16)                1.357          estimate D2E/DX2                !
 ! R17   R(16,17)                1.43           estimate D2E/DX2                !
 ! R18   R(17,18)                1.07           estimate D2E/DX2                !
 ! R19   R(17,19)                1.07           estimate D2E/DX2                !
 ! R20   R(17,20)                1.54           estimate D2E/DX2                !
 ! R21   R(20,21)                1.07           estimate D2E/DX2                !
 ! R22   R(20,22)                1.07           estimate D2E/DX2                !
 ! R23   R(20,23)                1.07           estimate D2E/DX2                !
 ! A1    A(2,1,6)              123.4828         estimate D2E/DX2                !
 ! A2    A(2,1,14)             120.7972         estimate D2E/DX2                !
 ! A3    A(6,1,14)             115.72           estimate D2E/DX2                !
 ! A4    A(1,2,3)              118.5252         estimate D2E/DX2                !
 ! A5    A(1,2,10)             120.3635         estimate D2E/DX2                !
 ! A6    A(3,2,10)             121.1114         estimate D2E/DX2                !
 ! A7    A(2,3,4)              118.7792         estimate D2E/DX2                !
 ! A8    A(2,3,7)              120.5988         estimate D2E/DX2                !
 ! A9    A(4,3,7)              120.6219         estimate D2E/DX2                !
 ! A10   A(3,4,5)              118.5054         estimate D2E/DX2                !
 ! A11   A(3,4,8)              121.1328         estimate D2E/DX2                !
 ! A12   A(5,4,8)              120.3618         estimate D2E/DX2                !
 ! A13   A(4,5,6)              123.4969         estimate D2E/DX2                !
 ! A14   A(4,5,9)              120.7935         estimate D2E/DX2                !
 ! A15   A(6,5,9)              115.7097         estimate D2E/DX2                !
 ! A16   A(1,6,5)              117.2105         estimate D2E/DX2                !
 ! A17   A(2,10,11)            109.4712         estimate D2E/DX2                !
 ! A18   A(2,10,12)            109.4712         estimate D2E/DX2                !
 ! A19   A(2,10,13)            109.4712         estimate D2E/DX2                !
 ! A20   A(11,10,12)           109.4713         estimate D2E/DX2                !
 ! A21   A(11,10,13)           109.4712         estimate D2E/DX2                !
 ! A22   A(12,10,13)           109.4712         estimate D2E/DX2                !
 ! A23   A(1,14,15)            130.0733         estimate D2E/DX2                !
 ! A24   A(1,14,16)            112.2947         estimate D2E/DX2                !
 ! A25   A(15,14,16)           117.632          estimate D2E/DX2                !
 ! A26   A(14,16,17)           110.6079         estimate D2E/DX2                !
 ! A27   A(16,17,18)           109.4712         estimate D2E/DX2                !
 ! A28   A(16,17,19)           109.4712         estimate D2E/DX2                !
 ! A29   A(16,17,20)           109.4712         estimate D2E/DX2                !
 ! A30   A(18,17,19)           109.4712         estimate D2E/DX2                !
 ! A31   A(18,17,20)           109.4713         estimate D2E/DX2                !
 ! A32   A(19,17,20)           109.4712         estimate D2E/DX2                !
 ! A33   A(17,20,21)           109.4712         estimate D2E/DX2                !
 ! A34   A(17,20,22)           109.4712         estimate D2E/DX2                !
 ! A35   A(17,20,23)           109.4712         estimate D2E/DX2                !
 ! A36   A(21,20,22)           109.4713         estimate D2E/DX2                !
 ! A37   A(21,20,23)           109.4712         estimate D2E/DX2                !
 ! A38   A(22,20,23)           109.4712         estimate D2E/DX2                !
 ! D1    D(6,1,2,3)              0.01           estimate D2E/DX2                !
 ! D2    D(6,1,2,10)           179.9941         estimate D2E/DX2                !
 ! D3    D(14,1,2,3)          -179.9926         estimate D2E/DX2                !
 ! D4    D(14,1,2,10)           -0.0086         estimate D2E/DX2                !
 ! D5    D(2,1,6,5)             -0.001          estimate D2E/DX2                !
 ! D6    D(14,1,6,5)          -179.9985         estimate D2E/DX2                !
 ! D7    D(2,1,14,15)          180.0            estimate D2E/DX2                !
 ! D8    D(2,1,14,16)            0.0031         estimate D2E/DX2                !
 ! D9    D(6,1,14,15)           -0.0025         estimate D2E/DX2                !
 ! D10   D(6,1,14,16)         -179.9994         estimate D2E/DX2                !
 ! D11   D(1,2,3,4)             -0.0113         estimate D2E/DX2                !
 ! D12   D(1,2,3,7)           -179.9425         estimate D2E/DX2                !
 ! D13   D(10,2,3,4)          -179.9952         estimate D2E/DX2                !
 ! D14   D(10,2,3,7)             0.0736         estimate D2E/DX2                !
 ! D15   D(1,2,10,11)          -60.0497         estimate D2E/DX2                !
 ! D16   D(1,2,10,12)           59.9503         estimate D2E/DX2                !
 ! D17   D(1,2,10,13)          179.9503         estimate D2E/DX2                !
 ! D18   D(3,2,10,11)          119.9339         estimate D2E/DX2                !
 ! D19   D(3,2,10,12)         -120.0661         estimate D2E/DX2                !
 ! D20   D(3,2,10,13)           -0.0661         estimate D2E/DX2                !
 ! D21   D(2,3,4,5)              0.0043         estimate D2E/DX2                !
 ! D22   D(2,3,4,8)           -179.9944         estimate D2E/DX2                !
 ! D23   D(7,3,4,5)            179.9354         estimate D2E/DX2                !
 ! D24   D(7,3,4,8)             -0.0632         estimate D2E/DX2                !
 ! D25   D(3,4,5,6)              0.0051         estimate D2E/DX2                !
 ! D26   D(3,4,5,9)            179.9933         estimate D2E/DX2                !
 ! D27   D(8,4,5,6)           -179.9962         estimate D2E/DX2                !
 ! D28   D(8,4,5,9)             -0.008          estimate D2E/DX2                !
 ! D29   D(4,5,6,1)             -0.0067         estimate D2E/DX2                !
 ! D30   D(9,5,6,1)           -179.9955         estimate D2E/DX2                !
 ! D31   D(1,14,16,17)         179.9996         estimate D2E/DX2                !
 ! D32   D(15,14,16,17)          0.0023         estimate D2E/DX2                !
 ! D33   D(14,16,17,18)        -60.1314         estimate D2E/DX2                !
 ! D34   D(14,16,17,19)         59.8686         estimate D2E/DX2                !
 ! D35   D(14,16,17,20)        179.8686         estimate D2E/DX2                !
 ! D36   D(16,17,20,21)       -179.99           estimate D2E/DX2                !
 ! D37   D(16,17,20,22)        -59.99           estimate D2E/DX2                !
 ! D38   D(16,17,20,23)         60.01           estimate D2E/DX2                !
 ! D39   D(18,17,20,21)         60.01           estimate D2E/DX2                !
 ! D40   D(18,17,20,22)       -179.99           estimate D2E/DX2                !
 ! D41   D(18,17,20,23)        -59.99           estimate D2E/DX2                !
 ! D42   D(19,17,20,21)        -59.99           estimate D2E/DX2                !
 ! D43   D(19,17,20,22)         60.01           estimate D2E/DX2                !
 ! D44   D(19,17,20,23)       -179.99           estimate D2E/DX2                !
 --------------------------------------------------------------------------------
 Trust Radius=3.00D-01 FncErr=1.00D-07 GrdErr=1.00D-06
 Number of steps in this run=    115 maximum allowed number of steps=    138.
 GradGradGradGradGradGradGradGradGradGradGradGradGradGradGradGradGradGrad

                          Input orientation:                          
 ---------------------------------------------------------------------
 Center     Atomic      Atomic             Coordinates (Angstroms)
 Number     Number       Type             X           Y           Z
 ---------------------------------------------------------------------
      1          6           0       -2.072292   -0.595874    0.421874
      2          6           0       -0.665414   -0.595874    0.421874
      3          6           0        0.001277    0.630733    0.421874
      4          6           0       -0.752796    1.805520    0.421633
      5          6           0       -2.155998    1.702715    0.421492
      6          7           0       -2.815528    0.527764    0.421677
      7          1           0        1.099821    0.670509    0.420924
      8          1           0       -0.268760    2.790444    0.421532
      9          1           0       -2.789347    2.607778    0.421411
     10          6           0        0.113031   -1.924641    0.422244
     11          1           0       -0.141244   -2.486727    1.296489
     12          1           0       -0.142551   -2.487980   -0.450813
     13          1           0        1.163754   -1.722452    0.421313
     14          6           0       -2.860772   -1.918711    0.422044
     15          8           0       -4.074953   -2.117021    0.422069
     16          8           0       -2.045857   -3.003756    0.422252
     17          6           0       -2.813857   -4.210021    0.422414
     18          1           0       -3.429239   -4.240924    1.297200
     19          1           0       -3.432548   -4.239053   -0.450098
     20          6           0       -1.864792   -5.422814    0.419318
     21          1           0       -2.439450   -6.325403    0.419264
     22          1           0       -1.249290   -5.391816   -0.455380
     23          1           0       -1.246221   -5.393876    1.291919
 ---------------------------------------------------------------------
                    Distance matrix (angstroms):
                    1          2          3          4          5
     1  C    0.000000
     2  C    1.406878   0.000000
     3  C    2.409202   1.396081   0.000000
     4  C    2.740030   2.402983   1.395977   0.000000
     5  C    2.300113   2.739590   2.408938   1.406963   0.000000
     6  N    1.347205   2.426016   2.818686   2.426422   1.347401
     7  H    3.415557   2.172506   1.099264   2.172657   3.415524
     8  H    3.836649   3.409470   2.176527   1.097436   2.178261
     9  H    3.282919   3.843758   3.419984   2.188871   1.104658
    10  C    2.557589   1.540000   2.557817   3.829329   4.278576
    11  H    2.840638   2.148263   3.240960   4.422980   4.730357
    12  H    2.839991   2.148263   3.241703   4.423539   4.730413
    13  H    3.426539   2.148263   2.624659   4.014941   4.769961
    14  C    1.540000   2.563103   3.832883   4.279423   3.689368
    15  O    2.514864   3.733476   4.915873   5.140336   4.274667
    16  O    2.408027   2.775522   4.171363   4.980075   4.707760
    17  C    3.689442   4.204506   5.599811   6.358829   5.949221
    18  H    3.986714   4.657394   6.022265   6.670041   6.141242
    19  H    3.985397   4.657266   6.022152   6.669172   6.139533
    20  C    4.831398   4.973717   6.334639   7.313368   7.131477
    21  H    5.741282   5.997893   7.371906   8.304019   8.033121
    22  H    4.944489   4.910351   6.213260   7.267552   7.205789
    23  H    4.945725   4.910717   6.213626   7.268574   7.207423
                    6          7          8          9         10
     6  N    0.000000
     7  H    3.917950   0.000000
     8  H    3.406721   2.523319   0.000000
     9  H    2.080179   4.344956   2.527197   0.000000
    10  C    3.819784   2.776430   4.730518   5.382065   0.000000
    11  H    4.123621   3.503569   5.350733   5.807942   1.070000
    12  H    4.123197   3.504207   5.351511   5.808016   1.070000
    13  H    4.571450   2.393816   4.734800   5.863267   1.070000
    14  C    2.446894   4.731846   5.375377   4.527053   2.973809
    15  O    2.929341   5.877807   6.210501   4.896582   4.192400
    16  O    3.614420   4.836891   6.060597   5.660574   2.413562
    17  C    4.737786   6.255914   7.448761   6.817843   3.713440
    18  H    4.887082   6.738132   7.758580   6.934060   4.321850
    19  H    4.885003   6.738313   7.757779   6.931979   4.323033
    20  C    6.026050   6.776247   8.366895   8.083638   4.018582
    21  H    6.863479   7.840232   9.370730   8.940031   5.087423
    22  H    6.185771   6.560337   8.287328   8.193537   3.827198
    23  H    6.187557   6.560435   8.288311   8.195455   3.826158
                   11         12         13         14         15
    11  H    0.000000
    12  H    1.747303   0.000000
    13  H    1.747303   1.747303   0.000000
    14  C    2.912582   2.911129   4.029308   0.000000
    15  O    4.046648   4.045160   5.253545   1.230269   0.000000
    16  O    2.158509   2.156581   3.455914   1.356986   2.214392
    17  C    3.297971   3.296033   4.691416   2.291790   2.443565
    18  H    3.726677   4.114691   5.310881   2.545923   2.386161
    19  H    4.117512   3.726975   5.312121   2.543924   2.382516
    20  C    3.515772   3.512335   4.781712   3.642900   3.976567
    21  H    4.559245   4.556161   5.845532   4.426788   4.515015
    22  H    3.568803   3.107597   4.478348   3.928003   4.413453
    23  H    3.110066   3.563626   4.477196   3.929405   4.415443
                   16         17         18         19         20
    16  O    0.000000
    17  C    1.430000   0.000000
    18  H    2.051796   1.070000   0.000000
    19  H    2.051796   1.070000   1.747303   0.000000
    20  C    2.425826   1.540000   2.148263   2.148263   0.000000
    21  H    3.344886   2.148263   2.468908   2.468783   1.070000
    22  H    2.666006   2.148263   3.024610   2.468908   1.070000
    23  H    2.666160   2.148263   2.468784   3.024610   1.070000
                   21         22         23
    21  H    0.000000
    22  H    1.747303   0.000000
    23  H    1.747303   1.747303   0.000000
 Stoichiometry    C9H11NO2
 Framework group  C1[X(C9H11NO2)]
 Deg. of freedom    63
 Full point group                 C1      NOp   1
 Largest Abelian subgroup         C1      NOp   1
 Largest concise Abelian subgroup C1      NOp   1
                         Standard orientation:                         
 ---------------------------------------------------------------------
 Center     Atomic      Atomic             Coordinates (Angstroms)
 Number     Number       Type             X           Y           Z
 ---------------------------------------------------------------------
      1          6           0        0.771584   -0.425256   -0.000184
      2          6           0        1.066055    0.950459   -0.000184
      3          6           0        2.405036    1.345644   -0.000184
      4          6           0        3.395968    0.362381    0.000057
      5          6           0        3.001739   -0.988222    0.000198
      6          7           0        1.714768   -1.387216    0.000013
      7          1           0        2.673865    2.411529    0.000766
      8          1           0        4.460388    0.629543    0.000158
      9          1           0        3.754189   -1.796979    0.000279
     10          6           0       -0.070345    1.989783   -0.000555
     11          1           0       -0.673202    1.858789   -0.874800
     12          1           0       -0.674701    1.857774    0.872502
     13          1           0        0.347290    2.974912    0.000376
     14          6           0       -0.686987   -0.919391   -0.000354
     15          8           0       -1.135042   -2.065170   -0.000380
     16          8           0       -1.577430    0.104582   -0.000562
     17          6           0       -2.917724   -0.393926   -0.000725
     18          1           0       -3.076747   -0.989209   -0.875511
     19          1           0       -3.075610   -0.992836    0.871788
     20          6           0       -3.905006    0.787964    0.002371
     21          1           0       -4.907884    0.414954    0.002425
     22          1           0       -3.745866    1.383345    0.877069
     23          1           0       -3.747237    1.386777   -0.870230
 ---------------------------------------------------------------------
 Rotational constants (GHZ):      2.0558948      0.5963040      0.4661706
 Standard basis: 6-311+G(d,p) (5D, 7F)
 There are   342 symmetry adapted cartesian basis functions of A   symmetry.
 There are   330 symmetry adapted basis functions of A   symmetry.
   330 basis functions,   520 primitive gaussians,   342 cartesian basis functions
    44 alpha electrons       44 beta electrons
       nuclear repulsion energy       686.1486386635 Hartrees.
 NAtoms=   23 NActive=   23 NUniq=   23 SFac= 1.00D+00 NAtFMM=   60 NAOKFM=F Big=F
 Integral buffers will be    131072 words long.
 Raffenetti 2 integral format.
 Two-electron integral symmetry is turned on.
 One-electron integrals computed using PRISM.
 NBasis=   330 RedAO= T EigKep=  4.00D-06  NBF=   330
 NBsUse=   329 1.00D-06 EigRej=  8.91D-07 NBFU=   329
 ExpMin= 4.38D-02 ExpMax= 8.59D+03 ExpMxC= 1.30D+03 IAcc=2 IRadAn=         4 AccDes= 0.00D+00
 Harris functional with IExCor=  402 and IRadAn=       4 diagonalized for initial guess.
 HarFok:  IExCor=  402 AccDes= 0.00D+00 IRadAn=         4 IDoV= 1 UseB2=F ITyADJ=14
 ICtDFT=  3500011 ScaDFX=  1.000000  1.000000  1.000000  1.000000
 FoFCou: FMM=F IPFlag=           0 FMFlag=      100000 FMFlg1=           0
         NFxFlg=           0 DoJE=T BraDBF=F KetDBF=T FulRan=T
         wScrn=  0.000000 ICntrl=     500 IOpCl=  0 I1Cent=   200000004 NGrid=           0
         NMat0=    1 NMatS0=      1 NMatT0=    0 NMatD0=    1 NMtDS0=    0 NMtDT0=    0
 Petite list used in FoFCou.
 Requested convergence on RMS density matrix=1.00D-08 within 128 cycles.
 Requested convergence on MAX density matrix=1.00D-06.
 Requested convergence on             energy=1.00D-06.
 No special actions if energy rises.
 SCF Done:  E(RB3LYP) =  -554.923161270     A.U. after   16 cycles
            NFock= 16  Conv=0.13D-08     -V/T= 2.0041

 **********************************************************************

            Population analysis using the SCF density.

 **********************************************************************

 Orbital symmetries:
       Occupied  (A) (A) (A) (A) (A) (A) (A) (A) (A) (A) (A) (A)
                 (A) (A) (A) (A) (A) (A) (A) (A) (A) (A) (A) (A)
                 (A) (A) (A) (A) (A) (A) (A) (A) (A) (A) (A) (A)
                 (A) (A) (A) (A) (A) (A) (A) (A)
       Virtual   (A) (A) (A) (A) (A) (A) (A) (A) (A) (A) (A) (A)
                 (A) (A) (A) (A) (A) (A) (A) (A) (A) (A) (A) (A)
                 (A) (A) (A) (A) (A) (A) (A) (A) (A) (A) (A) (A)
                 (A) (A) (A) (A) (A) (A) (A) (A) (A) (A) (A) (A)
                 (A) (A) (A) (A) (A) (A) (A) (A) (A) (A) (A) (A)
                 (A) (A) (A) (A) (A) (A) (A) (A) (A) (A) (A) (A)
                 (A) (A) (A) (A) (A) (A) (A) (A) (A) (A) (A) (A)
                 (A) (A) (A) (A) (A) (A) (A) (A) (A) (A) (A) (A)
                 (A) (A) (A) (A) (A) (A) (A) (A) (A) (A) (A) (A)
                 (A) (A) (A) (A) (A) (A) (A) (A) (A) (A) (A) (A)
                 (A) (A) (A) (A) (A) (A) (A) (A) (A) (A) (A) (A)
                 (A) (A) (A) (A) (A) (A) (A) (A) (A) (A) (A) (A)
                 (A) (A) (A) (A) (A) (A) (A) (A) (A) (A) (A) (A)
                 (A) (A) (A) (A) (A) (A) (A) (A) (A) (A) (A) (A)
                 (A) (A) (A) (A) (A) (A) (A) (A) (A) (A) (A) (A)
                 (A) (A) (A) (A) (A) (A) (A) (A) (A) (A) (A) (A)
                 (A) (A) (A) (A) (A) (A) (A) (A) (A) (A) (A) (A)
                 (A) (A) (A) (A) (A) (A) (A) (A) (A) (A) (A) (A)
                 (A) (A) (A) (A) (A) (A) (A) (A) (A) (A) (A) (A)
                 (A) (A) (A) (A) (A) (A) (A) (A) (A) (A) (A) (A)
                 (A) (A) (A) (A) (A) (A) (A) (A) (A) (A) (A) (A)
                 (A) (A) (A) (A) (A) (A) (A) (A) (A) (A) (A) (A)
                 (A) (A) (A) (A) (A) (A) (A) (A) (A) (A) (A) (A)
                 (A) (A) (A) (A) (A) (A) (A) (A) (A)
 The electronic state is 1-A.
 Alpha  occ. eigenvalues --  -19.17157 -19.11150 -14.32955 -10.30998 -10.23741
 Alpha  occ. eigenvalues --  -10.22448 -10.22403 -10.21406 -10.20832 -10.20525
 Alpha  occ. eigenvalues --  -10.16769 -10.16646  -1.11850  -1.01191  -0.95748
 Alpha  occ. eigenvalues --   -0.83141  -0.80336  -0.77357  -0.71636  -0.68311
 Alpha  occ. eigenvalues --   -0.63368  -0.62618  -0.58425  -0.54009  -0.51302
 Alpha  occ. eigenvalues --   -0.50864  -0.49313  -0.47245  -0.44960  -0.43987
 Alpha  occ. eigenvalues --   -0.42545  -0.42166  -0.42080  -0.40982  -0.40177
 Alpha  occ. eigenvalues --   -0.40037  -0.37206  -0.36788  -0.34074  -0.31214
 Alpha  occ. eigenvalues --   -0.30277  -0.28211  -0.27453  -0.27384
 Alpha virt. eigenvalues --   -0.07189  -0.04051  -0.00448   0.00325   0.01819
 Alpha virt. eigenvalues --    0.02477   0.02653   0.03138   0.03416   0.04602
 Alpha virt. eigenvalues --    0.05052   0.05167   0.06378   0.06614   0.07173
 Alpha virt. eigenvalues --    0.07807   0.08243   0.09355   0.09625   0.09764
 Alpha virt. eigenvalues --    0.11149   0.12217   0.12240   0.12647   0.12763
 Alpha virt. eigenvalues --    0.13435   0.14242   0.14518   0.15332   0.15963
 Alpha virt. eigenvalues --    0.16481   0.17515   0.17577   0.18576   0.18823
 Alpha virt. eigenvalues --    0.19046   0.19348   0.19456   0.20299   0.20441
 Alpha virt. eigenvalues --    0.20769   0.21350   0.21881   0.22219   0.22611
 Alpha virt. eigenvalues --    0.23056   0.23754   0.23960   0.24903   0.25826
 Alpha virt. eigenvalues --    0.25863   0.25952   0.26619   0.27761   0.28027
 Alpha virt. eigenvalues --    0.28622   0.29421   0.29625   0.31011   0.31786
 Alpha virt. eigenvalues --    0.33079   0.33429   0.33430   0.33794   0.35422
 Alpha virt. eigenvalues --    0.36231   0.37783   0.39228   0.39548   0.41377
 Alpha virt. eigenvalues --    0.42074   0.43786   0.44854   0.47247   0.49301
 Alpha virt. eigenvalues --    0.49573   0.50408   0.51280   0.51737   0.53699
 Alpha virt. eigenvalues --    0.54011   0.54881   0.57725   0.58282   0.58762
 Alpha virt. eigenvalues --    0.59384   0.59930   0.61708   0.62312   0.63041
 Alpha virt. eigenvalues --    0.63518   0.65562   0.65971   0.66561   0.67463
 Alpha virt. eigenvalues --    0.68117   0.69082   0.69513   0.70552   0.70690
 Alpha virt. eigenvalues --    0.71994   0.72688   0.74989   0.76415   0.78559
 Alpha virt. eigenvalues --    0.79882   0.80903   0.82464   0.83620   0.86619
 Alpha virt. eigenvalues --    0.87205   0.88982   0.89371   0.90663   0.90928
 Alpha virt. eigenvalues --    0.93544   0.93839   0.94839   0.98047   0.99143
 Alpha virt. eigenvalues --    1.00472   1.01152   1.02736   1.03163   1.03200
 Alpha virt. eigenvalues --    1.07665   1.07879   1.08777   1.08842   1.14228
 Alpha virt. eigenvalues --    1.15280   1.17744   1.18292   1.22555   1.25928
 Alpha virt. eigenvalues --    1.26627   1.26804   1.29090   1.34170   1.37409
 Alpha virt. eigenvalues --    1.37695   1.39217   1.45691   1.48284   1.48580
 Alpha virt. eigenvalues --    1.50425   1.50897   1.51937   1.52937   1.54279
 Alpha virt. eigenvalues --    1.54352   1.55441   1.56456   1.56521   1.58134
 Alpha virt. eigenvalues --    1.60259   1.60690   1.62753   1.63610   1.66381
 Alpha virt. eigenvalues --    1.67071   1.67888   1.69435   1.71806   1.72458
 Alpha virt. eigenvalues --    1.72804   1.74468   1.75050   1.77931   1.79540
 Alpha virt. eigenvalues --    1.79580   1.80312   1.84150   1.86478   1.87766
 Alpha virt. eigenvalues --    1.88934   1.90681   1.92646   1.93372   1.94445
 Alpha virt. eigenvalues --    1.98293   1.99872   2.00676   2.06079   2.07309
 Alpha virt. eigenvalues --    2.09066   2.11426   2.12665   2.17546   2.19479
 Alpha virt. eigenvalues --    2.20108   2.22560   2.24875   2.26343   2.31141
 Alpha virt. eigenvalues --    2.35786   2.36995   2.37213   2.38182   2.45486
 Alpha virt. eigenvalues --    2.46771   2.48729   2.50385   2.50809   2.53957
 Alpha virt. eigenvalues --    2.54344   2.55658   2.58986   2.59238   2.60632
 Alpha virt. eigenvalues --    2.63118   2.63910   2.64850   2.65139   2.66413
 Alpha virt. eigenvalues --    2.68950   2.68981   2.70660   2.73771   2.74482
 Alpha virt. eigenvalues --    2.75747   2.77291   2.80846   2.82427   2.82577
 Alpha virt. eigenvalues --    2.82930   2.84189   2.87430   2.87453   2.92251
 Alpha virt. eigenvalues --    2.93064   2.97859   3.00420   3.00964   3.08607
 Alpha virt. eigenvalues --    3.08959   3.11327   3.14347   3.19645   3.20447
 Alpha virt. eigenvalues --    3.22041   3.28170   3.31090   3.34837   3.35320
 Alpha virt. eigenvalues --    3.44849   3.47826   3.60271   3.63275   3.65744
 Alpha virt. eigenvalues --    3.71099   3.84907   3.85800   3.85888   3.86631
 Alpha virt. eigenvalues --    3.89086   3.92704   3.94512   3.98423   4.07712
 Alpha virt. eigenvalues --    4.12851   4.14911   4.27591   4.33033   4.42953
 Alpha virt. eigenvalues --    4.47559   4.98461   5.07096   5.19347   5.24802
 Alpha virt. eigenvalues --    5.44653   5.65329   5.85980  23.62319  23.80561
 Alpha virt. eigenvalues --   23.87395  23.89090  23.94830  23.98199  24.02906
 Alpha virt. eigenvalues --   24.05838  24.10651  35.65557  49.93977  50.03595
          Condensed to atoms (all electrons):
               1          2          3          4          5          6
     1  C   18.041606  -7.191261   1.023136  -1.370978   1.467696  -0.469675
     2  C   -7.191261  12.669893  -1.826147   1.108611  -1.867412   0.529572
     3  C    1.023136  -1.826147   7.632059   0.070145   0.384388  -0.232887
     4  C   -1.370978   1.108611   0.070145   6.299108  -0.838367   0.273607
     5  C    1.467696  -1.867412   0.384388  -0.838367   6.840868  -0.128428
     6  N   -0.469675   0.529572  -0.232887   0.273607  -0.128428   6.714621
     7  H    0.005934   0.005499   0.307466   0.019421  -0.016029   0.001985
     8  H   -0.024298   0.022630  -0.031818   0.355342   0.012916   0.003653
     9  H    0.017051   0.017719  -0.031179  -0.078302   0.471921  -0.089605
    10  C   -0.600536  -0.847510   0.107759  -0.143370   0.155265   0.039092
    11  H    0.022291   0.030661  -0.032106  -0.005864   0.002848   0.000593
    12  H    0.022101   0.030596  -0.032406  -0.005891   0.002844   0.000595
    13  H   -0.009115  -0.118155   0.064583   0.022447  -0.001355  -0.000785
    14  C   -4.292641   2.998114  -0.972696   0.373995  -0.425670   0.247000
    15  O    0.023884  -0.028710   0.031418  -0.008293   0.025474   0.025413
    16  O    0.041535  -0.374072   0.015830  -0.003889   0.025861   0.035930
    17  C   -0.060044  -0.163124  -0.097383   0.006726  -0.001154   0.032542
    18  H    0.016529  -0.006699  -0.000543   0.000073  -0.000450  -0.000350
    19  H    0.016706  -0.006779  -0.000547   0.000072  -0.000447  -0.000352
    20  C   -0.318832   0.257638   0.028594   0.009919  -0.017375  -0.002750
    21  H   -0.000784   0.000856  -0.000065   0.000013  -0.000019  -0.000008
    22  H    0.008515  -0.005189  -0.000886  -0.000103   0.000059   0.000012
    23  H    0.008529  -0.005219  -0.000905  -0.000102   0.000060   0.000012
               7          8          9         10         11         12
     1  C    0.005934  -0.024298   0.017051  -0.600536   0.022291   0.022101
     2  C    0.005499   0.022630   0.017719  -0.847510   0.030661   0.030596
     3  C    0.307466  -0.031818  -0.031179   0.107759  -0.032106  -0.032406
     4  C    0.019421   0.355342  -0.078302  -0.143370  -0.005864  -0.005891
     5  C   -0.016029   0.012916   0.471921   0.155265   0.002848   0.002844
     6  N    0.001985   0.003653  -0.089605   0.039092   0.000593   0.000595
     7  H    0.529600  -0.006474  -0.000241   0.011914   0.000200   0.000202
     8  H   -0.006474   0.524213  -0.002999   0.007769   0.000015   0.000015
     9  H   -0.000241  -0.002999   0.547762   0.000918   0.000001   0.000001
    10  C    0.011914   0.007769   0.000918   6.721665   0.351178   0.351588
    11  H    0.000200   0.000015   0.000001   0.351178   0.538019  -0.014967
    12  H    0.000202   0.000015   0.000001   0.351588  -0.014967   0.538133
    13  H    0.002755  -0.000038  -0.000005   0.422959  -0.031811  -0.031858
    14  C    0.007748   0.000332   0.009607  -0.041827   0.008039   0.008366
    15  O   -0.000012  -0.000007  -0.000121   0.005920  -0.000992  -0.001007
    16  O    0.000034   0.000007   0.000078   0.047551  -0.035108  -0.035236
    17  C   -0.000107  -0.000033  -0.000028   0.119974   0.011837   0.011704
    18  H    0.000000   0.000000   0.000000  -0.003544  -0.000355  -0.000308
    19  H    0.000000   0.000000   0.000000  -0.003535  -0.000309  -0.000358
    20  C    0.000007  -0.000003  -0.000010  -0.064005  -0.004498  -0.004426
    21  H    0.000000   0.000000   0.000000  -0.000187   0.000001   0.000002
    22  H    0.000000   0.000000   0.000000  -0.000957  -0.000096   0.000613
    23  H    0.000000   0.000000   0.000000  -0.000954   0.000612  -0.000100
              13         14         15         16         17         18
     1  C   -0.009115  -4.292641   0.023884   0.041535  -0.060044   0.016529
     2  C   -0.118155   2.998114  -0.028710  -0.374072  -0.163124  -0.006699
     3  C    0.064583  -0.972696   0.031418   0.015830  -0.097383  -0.000543
     4  C    0.022447   0.373995  -0.008293  -0.003889   0.006726   0.000073
     5  C   -0.001355  -0.425670   0.025474   0.025861  -0.001154  -0.000450
     6  N   -0.000785   0.247000   0.025413   0.035930   0.032542  -0.000350
     7  H    0.002755   0.007748  -0.000012   0.000034  -0.000107   0.000000
     8  H   -0.000038   0.000332  -0.000007   0.000007  -0.000033   0.000000
     9  H   -0.000005   0.009607  -0.000121   0.000078  -0.000028   0.000000
    10  C    0.422959  -0.041827   0.005920   0.047551   0.119974  -0.003544
    11  H   -0.031811   0.008039  -0.000992  -0.035108   0.011837  -0.000355
    12  H   -0.031858   0.008366  -0.001007  -0.035236   0.011704  -0.000308
    13  H    0.543832  -0.009686   0.000174   0.011190  -0.003345   0.000023
    14  C   -0.009686   7.812511   0.367520  -0.206926  -0.296372   0.002811
    15  O    0.000174   0.367520   8.064124  -0.206782  -0.112228  -0.004927
    16  O    0.011190  -0.206926  -0.206782   8.832360   0.347775  -0.039805
    17  C   -0.003345  -0.296372  -0.112228   0.347775   5.749989   0.411913
    18  H    0.000023   0.002811  -0.004927  -0.039805   0.411913   0.532214
    19  H    0.000023   0.002654  -0.004904  -0.039910   0.412221  -0.032755
    20  C    0.000718   0.290534   0.071877  -0.256051  -0.285264  -0.036877
    21  H   -0.000002   0.007168   0.000223   0.011479  -0.071000  -0.003588
    22  H   -0.000003  -0.006802  -0.000584  -0.001478  -0.023773   0.007606
    23  H   -0.000002  -0.006995  -0.000588  -0.001491  -0.023623  -0.007592
              19         20         21         22         23
     1  C    0.016706  -0.318832  -0.000784   0.008515   0.008529
     2  C   -0.006779   0.257638   0.000856  -0.005189  -0.005219
     3  C   -0.000547   0.028594  -0.000065  -0.000886  -0.000905
     4  C    0.000072   0.009919   0.000013  -0.000103  -0.000102
     5  C   -0.000447  -0.017375  -0.000019   0.000059   0.000060
     6  N   -0.000352  -0.002750  -0.000008   0.000012   0.000012
     7  H    0.000000   0.000007   0.000000   0.000000   0.000000
     8  H    0.000000  -0.000003   0.000000   0.000000   0.000000
     9  H    0.000000  -0.000010   0.000000   0.000000   0.000000
    10  C   -0.003535  -0.064005  -0.000187  -0.000957  -0.000954
    11  H   -0.000309  -0.004498   0.000001  -0.000096   0.000612
    12  H   -0.000358  -0.004426   0.000002   0.000613  -0.000100
    13  H    0.000023   0.000718  -0.000002  -0.000003  -0.000002
    14  C    0.002654   0.290534   0.007168  -0.006802  -0.006995
    15  O   -0.004904   0.071877   0.000223  -0.000584  -0.000588
    16  O   -0.039910  -0.256051   0.011479  -0.001478  -0.001491
    17  C    0.412221  -0.285264  -0.071000  -0.023773  -0.023623
    18  H   -0.032755  -0.036877  -0.003588   0.007606  -0.007592
    19  H    0.532204  -0.036968  -0.003596  -0.007584   0.007606
    20  C   -0.036968   5.675484   0.438031   0.405054   0.405150
    21  H   -0.003596   0.438031   0.522300  -0.024730  -0.024747
    22  H   -0.007584   0.405054  -0.024730   0.541456  -0.031077
    23  H    0.007606   0.405150  -0.024747  -0.031077   0.541509
 Mulliken charges:
               1
     1  C   -0.377348
     2  C    0.768489
     3  C   -0.405811
     4  C   -0.084319
     5  C   -0.093493
     6  N    0.020214
     7  H    0.130099
     8  H    0.138777
     9  H    0.137432
    10  C   -0.637129
    11  H    0.159813
    12  H    0.159797
    13  H    0.137454
    14  C    0.123217
    15  O   -0.246869
    16  O   -0.168881
    17  C    0.032799
    18  H    0.166626
    19  H    0.166558
    20  C   -0.555944
    21  H    0.148654
    22  H    0.139946
    23  H    0.139918
 Sum of Mulliken charges =   0.00000
 Mulliken charges with hydrogens summed into heavy atoms:
               1
     1  C   -0.377348
     2  C    0.768489
     3  C   -0.275712
     4  C    0.054458
     5  C    0.043939
     6  N    0.020214
    10  C   -0.180064
    14  C    0.123217
    15  O   -0.246869
    16  O   -0.168881
    17  C    0.365983
    20  C   -0.127426
 Electronic spatial extent (au):  <R**2>=           2363.2082
 Charge=              0.0000 electrons
 Dipole moment (field-independent basis, Debye):
    X=              0.5477    Y=              4.2559    Z=              0.0006  Tot=              4.2910
 Quadrupole moment (field-independent basis, Debye-Ang):
   XX=            -55.2861   YY=            -79.2533   ZZ=            -71.9910
   XY=              0.9217   XZ=              0.0024   YZ=             -0.0008
 Traceless Quadrupole moment (field-independent basis, Debye-Ang):
   XX=             13.5573   YY=            -10.4098   ZZ=             -3.1475
   XY=              0.9217   XZ=              0.0024   YZ=             -0.0008
 Octapole moment (field-independent basis, Debye-Ang**2):
  XXX=              2.8046  YYY=             25.7075  ZZZ=             -0.0068  XYY=              8.0188
  XXY=             -1.8093  XXZ=              0.0044  XZZ=            -13.7005  YZZ=             -3.2597
  YYZ=              0.0073  XYZ=              0.0100
 Hexadecapole moment (field-independent basis, Debye-Ang**3):
 XXXX=          -2107.1850 YYYY=           -772.4450 ZZZZ=            -96.2825 XXXY=             18.5539
 XXXZ=              0.1762 YYYX=              7.9651 YYYZ=             -0.0453 ZZZX=              0.1384
 ZZZY=             -0.0324 XXYY=           -505.8739 XXZZ=           -433.3004 YYZZ=           -138.9867
 XXYZ=             -0.0159 YYXZ=              0.0607 ZZXY=             -0.1884
 N-N= 6.861486386635D+02 E-N=-2.666475523122D+03  KE= 5.526603786209D+02
 There are a total of      189904 grid points.
 ElSum from          density=       88.0001808100
 ElSum from atomic densities=       88.0008213173

 Hirshfeld populations at iteration   1 (CX, CA, CB, DipXYZ):
               1          2          3          4          5          6
     1  C    0.000000   2.974063   2.974063  -0.040320  -0.022467  -0.000012
     2  C    0.000000   2.993218   2.993218  -0.049719   0.046018   0.000022
     3  C    0.000000   3.015150   3.015150   0.013836   0.075065  -0.000089
     4  C    0.000000   3.018908   3.018908   0.067443   0.013056   0.000005
     5  C    0.000000   2.985869   2.985869   0.014071  -0.036159   0.000033
     6  N    0.000003   3.585537   3.585537   0.035161   0.163977  -0.000019
     7  H    0.000001   0.470909   0.470909   0.045358   0.154840   0.000183
     8  H    0.000001   0.471328   0.471328   0.159395   0.040323   0.000013
     9  H    0.000003   0.472001   0.472001   0.109560  -0.116230   0.000007
    10  C    0.000000   3.054033   3.054033   0.018179   0.013722  -0.000023
    11  H    0.000000   0.481800   0.481800  -0.074593   0.005652  -0.131440
    12  H    0.000000   0.481824   0.481824  -0.074740   0.005582   0.131271
    13  H    0.000001   0.484297   0.484297   0.049463   0.137548   0.000140
    14  C    0.000000   2.890385   2.890385  -0.034395   0.078843  -0.000004
    15  O    0.000010   4.138036   4.138036  -0.029305   0.118761   0.000051
    16  O    0.000000   4.046584   4.046584  -0.031226  -0.045042   0.000034
    17  C    0.000000   2.989106   2.989106   0.051849   0.053819   0.000005
    18  H    0.000001   0.479274   0.479274  -0.048486  -0.070493  -0.129606
    19  H    0.000001   0.479294   0.479294  -0.048462  -0.070912   0.129340
    20  C    0.000000   3.050081   3.050081  -0.010529  -0.016736  -0.000019
    21  H    0.000000   0.477079   0.477079  -0.144496  -0.057649   0.000004
    22  H    0.000000   0.480655   0.480655   0.020761   0.081250   0.125985
    23  H    0.000000   0.480660   0.480660   0.020574   0.081737  -0.125692
       Tot   0.000024  44.000090  44.000090   0.019379   0.634504   0.000189

 Dip from Atomic Chgs              0.195061   1.040314   0.000062
         Total Dipole              0.214439   1.674818   0.000251

 Hirshfeld charges, spin densities, dipoles, and CM5 charges using IRadAn=      4:
              Q-H        S-H        Dx         Dy         Dz        Q-CM5   
     1  C    0.051875   0.000000  -0.040320  -0.022467  -0.000012   0.126802
     2  C    0.013565   0.000000  -0.049719   0.046018   0.000022   0.005526
     3  C   -0.030299   0.000000   0.013836   0.075065  -0.000089  -0.079976
     4  C   -0.037817   0.000000   0.067443   0.013056   0.000005  -0.086119
     5  C    0.028262   0.000000   0.014071  -0.036159   0.000033   0.052268
     6  N   -0.171075   0.000000   0.035161   0.163977  -0.000019  -0.349832
     7  H    0.058183   0.000000   0.045358   0.154840   0.000183   0.112635
     8  H    0.057343   0.000000   0.159395   0.040323   0.000013   0.111437
     9  H    0.055998   0.000000   0.109560  -0.116230   0.000007   0.118659
    10  C   -0.108067   0.000000   0.018179   0.013722  -0.000023  -0.257510
    11  H    0.036400   0.000000  -0.074593   0.005652  -0.131440   0.100590
    12  H    0.036351   0.000000  -0.074740   0.005582   0.131271   0.100587
    13  H    0.031406   0.000000   0.049463   0.137548   0.000140   0.086774
    14  C    0.219230   0.000000  -0.034395   0.078843  -0.000004   0.280387
    15  O   -0.276071   0.000000  -0.029305   0.118761   0.000051  -0.323570
    16  O   -0.093167   0.000000  -0.031226  -0.045042   0.000034  -0.191402
    17  C    0.021788   0.000000   0.051849   0.053819   0.000005  -0.066541
    18  H    0.041452   0.000000  -0.048486  -0.070493  -0.129606   0.112635
    19  H    0.041413   0.000000  -0.048462  -0.070912   0.129340   0.112647
    20  C   -0.100161   0.000000  -0.010529  -0.016736  -0.000019  -0.256130
    21  H    0.045842   0.000000  -0.144496  -0.057649   0.000004   0.100026
    22  H    0.038691   0.000000   0.020761   0.081250   0.125985   0.094968
    23  H    0.038680   0.000000   0.020574   0.081737  -0.125692   0.094956
       Tot  -0.000181   0.000000   0.019379   0.634504   0.000189  -0.000181
 Hirshfeld charges with hydrogens summed into heavy atoms:
              Q-H       Q-CM5   
     1  C    0.051875   0.126802
     2  C    0.013565   0.005526
     3  C    0.027883   0.032659
     4  C    0.019526   0.025318
     5  C    0.084259   0.170927
     6  N   -0.171075  -0.349832
    10  C   -0.003910   0.030441
    14  C    0.219230   0.280387
    15  O   -0.276071  -0.323570
    16  O   -0.093167  -0.191402
    17  C    0.104652   0.158742
    20  C    0.023052   0.033820
 
 EQQ= 0.000000000000E+00 EQD= 0.000000000000E+00 EDD= 0.187108839039E-02
 EQQ+QD+DD= 0.187108839039E-02
 
          MBS Condensed to atoms (all electrons):
               1          2          3          4          5          6
     1  C    4.763499   0.486702  -0.030216  -0.014496  -0.045321   0.432960
     2  C    0.486702   4.811545   0.503013  -0.030268  -0.014396  -0.024390
     3  C   -0.030216   0.503013   4.812504   0.502292  -0.030961  -0.006903
     4  C   -0.014496  -0.030268   0.502292   4.847933   0.490350  -0.024914
     5  C   -0.045321  -0.014396  -0.030961   0.490350   4.741074   0.443872
     6  N    0.432960  -0.024390  -0.006903  -0.024914   0.443872   6.562435
     7  H    0.001398  -0.025426   0.386063  -0.024584   0.001428   0.000003
     8  H    0.000089   0.001444  -0.023882   0.384388  -0.023238   0.000957
     9  H    0.002490  -0.000002   0.001339  -0.029759   0.386444  -0.030766
    10  C   -0.025720   0.374884  -0.026327   0.000867   0.000043   0.000485
    11  H   -0.002029  -0.021027   0.000668  -0.000030   0.000004   0.000000
    12  H   -0.002033  -0.021029   0.000671  -0.000030   0.000004   0.000000
    13  H    0.001349  -0.022159  -0.004641   0.000052  -0.000001  -0.000013
    14  C    0.369602  -0.028445   0.000699  -0.000015   0.001459  -0.029446
    15  O   -0.017905   0.000184  -0.000001   0.000000   0.000001   0.000021
    16  O   -0.028893  -0.000571   0.000001   0.000000  -0.000003   0.000145
    17  C    0.001455   0.000010   0.000000   0.000000   0.000000  -0.000008
    18  H    0.000001  -0.000001   0.000000   0.000000   0.000000   0.000000
    19  H    0.000002  -0.000001   0.000000   0.000000   0.000000   0.000000
    20  C   -0.000007   0.000000   0.000000   0.000000   0.000000   0.000000
    21  H    0.000000   0.000000   0.000000   0.000000   0.000000   0.000000
    22  H   -0.000002   0.000000   0.000000   0.000000   0.000000   0.000000
    23  H   -0.000001   0.000000   0.000000   0.000000   0.000000   0.000000
               7          8          9         10         11         12
     1  C    0.001398   0.000089   0.002490  -0.025720  -0.002029  -0.002033
     2  C   -0.025426   0.001444  -0.000002   0.374884  -0.021027  -0.021029
     3  C    0.386063  -0.023882   0.001339  -0.026327   0.000668   0.000671
     4  C   -0.024584   0.384388  -0.029759   0.000867  -0.000030  -0.000030
     5  C    0.001428  -0.023238   0.386444   0.000043   0.000004   0.000004
     6  N    0.000003   0.000957  -0.030766   0.000485   0.000000   0.000000
     7  H    0.552516  -0.003421  -0.000038  -0.003662   0.000061   0.000061
     8  H   -0.003421   0.550388  -0.002340  -0.000015   0.000001   0.000001
     9  H   -0.000038  -0.002340   0.553535   0.000001   0.000000   0.000000
    10  C   -0.003662  -0.000015   0.000001   4.827436   0.380578   0.380564
    11  H    0.000061   0.000001   0.000000   0.380578   0.561912  -0.022010
    12  H    0.000061   0.000001   0.000000   0.380564  -0.022010   0.561851
    13  H    0.001507  -0.000003   0.000000   0.374292  -0.022082  -0.022077
    14  C   -0.000016   0.000001  -0.000016  -0.002487  -0.000173  -0.000176
    15  O    0.000000   0.000000   0.000000   0.000002   0.000002   0.000002
    16  O    0.000000   0.000000   0.000000  -0.013418   0.000052   0.000064
    17  C    0.000000   0.000000   0.000000   0.000317   0.000121   0.000121
    18  H    0.000000   0.000000   0.000000  -0.000009  -0.000050   0.000017
    19  H    0.000000   0.000000   0.000000  -0.000009   0.000016  -0.000050
    20  C    0.000000   0.000000   0.000000  -0.000047  -0.000005  -0.000006
    21  H    0.000000   0.000000   0.000000   0.000001   0.000000   0.000000
    22  H    0.000000   0.000000   0.000000  -0.000037  -0.000025   0.000151
    23  H    0.000000   0.000000   0.000000  -0.000037   0.000150  -0.000025
              13         14         15         16         17         18
     1  C    0.001349   0.369602  -0.017905  -0.028893   0.001455   0.000001
     2  C   -0.022159  -0.028445   0.000184  -0.000571   0.000010  -0.000001
     3  C   -0.004641   0.000699  -0.000001   0.000001   0.000000   0.000000
     4  C    0.000052  -0.000015   0.000000   0.000000   0.000000   0.000000
     5  C   -0.000001   0.001459   0.000001  -0.000003   0.000000   0.000000
     6  N   -0.000013  -0.029446   0.000021   0.000145  -0.000008   0.000000
     7  H    0.001507  -0.000016   0.000000   0.000000   0.000000   0.000000
     8  H   -0.000003   0.000001   0.000000   0.000000   0.000000   0.000000
     9  H    0.000000  -0.000016   0.000000   0.000000   0.000000   0.000000
    10  C    0.374292  -0.002487   0.000002  -0.013418   0.000317  -0.000009
    11  H   -0.022082  -0.000173   0.000002   0.000052   0.000121  -0.000050
    12  H   -0.022077  -0.000176   0.000002   0.000064   0.000121   0.000017
    13  H    0.608832  -0.000016   0.000000   0.000534  -0.000017   0.000001
    14  C   -0.000016   4.537927   0.454062   0.286020  -0.037065  -0.005231
    15  O    0.000000   0.454062   8.037389  -0.029006  -0.006088   0.001602
    16  O    0.000534   0.286020  -0.029006   7.950783   0.257030  -0.017950
    17  C   -0.000017  -0.037065  -0.006088   0.257030   4.712200   0.378197
    18  H    0.000001  -0.005231   0.001602  -0.017950   0.378197   0.576557
    19  H    0.000001  -0.005277   0.001629  -0.017938   0.378181  -0.027045
    20  C    0.000001   0.001722   0.000084  -0.019211   0.361588  -0.024482
    21  H    0.000000  -0.000042   0.000004   0.000727  -0.019226  -0.001540
    22  H    0.000002  -0.000003  -0.000003  -0.000464  -0.022579   0.002272
    23  H    0.000002  -0.000003  -0.000003  -0.000463  -0.022580  -0.003027
              19         20         21         22         23
     1  C    0.000002  -0.000007   0.000000  -0.000002  -0.000001
     2  C   -0.000001   0.000000   0.000000   0.000000   0.000000
     3  C    0.000000   0.000000   0.000000   0.000000   0.000000
     4  C    0.000000   0.000000   0.000000   0.000000   0.000000
     5  C    0.000000   0.000000   0.000000   0.000000   0.000000
     6  N    0.000000   0.000000   0.000000   0.000000   0.000000
     7  H    0.000000   0.000000   0.000000   0.000000   0.000000
     8  H    0.000000   0.000000   0.000000   0.000000   0.000000
     9  H    0.000000   0.000000   0.000000   0.000000   0.000000
    10  C   -0.000009  -0.000047   0.000001  -0.000037  -0.000037
    11  H    0.000016  -0.000005   0.000000  -0.000025   0.000150
    12  H   -0.000050  -0.000006   0.000000   0.000151  -0.000025
    13  H    0.000001   0.000001   0.000000   0.000002   0.000002
    14  C   -0.005277   0.001722  -0.000042  -0.000003  -0.000003
    15  O    0.001629   0.000084   0.000004  -0.000003  -0.000003
    16  O   -0.017938  -0.019211   0.000727  -0.000464  -0.000463
    17  C    0.378181   0.361588  -0.019226  -0.022579  -0.022580
    18  H   -0.027045  -0.024482  -0.001540   0.002272  -0.003027
    19  H    0.576434  -0.024465  -0.001544  -0.003025   0.002272
    20  C   -0.024465   4.836640   0.381755   0.381467   0.381465
    21  H   -0.001544   0.381755   0.580429  -0.021713  -0.021717
    22  H   -0.003025   0.381467  -0.021713   0.588928  -0.023574
    23  H    0.002272   0.381465  -0.021717  -0.023574   0.588951
 MBS Mulliken charges:
               1
     1  C    0.107074
     2  C    0.009934
     3  C   -0.084319
     4  C   -0.101788
     5  C    0.049241
     6  N   -0.324438
     7  H    0.114110
     8  H    0.115630
     9  H    0.119112
    10  C   -0.267702
    11  H    0.123868
    12  H    0.123928
    13  H    0.084437
    14  C    0.456918
    15  O   -0.441975
    16  O   -0.367438
    17  C    0.018343
    18  H    0.120687
    19  H    0.120819
    20  C   -0.276499
    21  H    0.102866
    22  H    0.098604
    23  H    0.098591
 Sum of MBS Mulliken charges =   0.00000
 MBS Mulliken charges with hydrogens summed into heavy atoms:
               1
     1  C    0.107074
     2  C    0.009934
     3  C    0.029791
     4  C    0.013842
     5  C    0.168352
     6  N   -0.324438
    10  C    0.064530
    14  C    0.456918
    15  O   -0.441975
    16  O   -0.367438
    17  C    0.259848
    20  C    0.023562
 Breneman (CHELPG) radii used.
 Generate Potential Derived Charges using the Breneman model, NDens= 1.
 Grid spacing= 0.300 Box extension= 2.800
 NStep X,Y,Z=   51     37     26   Total possible points=       49062
 Number of Points to Fit=   14581

 **********************************************************************

            Electrostatic Properties Using The SCF Density

 **********************************************************************

       Atomic Center    1 is at   0.771584 -0.425256 -0.000184
       Atomic Center    2 is at   1.066055  0.950459 -0.000184
       Atomic Center    3 is at   2.405036  1.345644 -0.000184
       Atomic Center    4 is at   3.395968  0.362381  0.000057
       Atomic Center    5 is at   3.001739 -0.988222  0.000198
       Atomic Center    6 is at   1.714768 -1.387216  0.000013
       Atomic Center    7 is at   2.673865  2.411529  0.000766
       Atomic Center    8 is at   4.460388  0.629543  0.000158
       Atomic Center    9 is at   3.754189 -1.796979  0.000279
       Atomic Center   10 is at  -0.070345  1.989783 -0.000555
       Atomic Center   11 is at  -0.673202  1.858789 -0.874800
       Atomic Center   12 is at  -0.674701  1.857774  0.872502
       Atomic Center   13 is at   0.347290  2.974912  0.000376
       Atomic Center   14 is at  -0.686987 -0.919391 -0.000354
       Atomic Center   15 is at  -1.135042 -2.065170 -0.000380
       Atomic Center   16 is at  -1.577430  0.104582 -0.000562
       Atomic Center   17 is at  -2.917724 -0.393926 -0.000725
       Atomic Center   18 is at  -3.076747 -0.989209 -0.875511
       Atomic Center   19 is at  -3.075610 -0.992836  0.871788
       Atomic Center   20 is at  -3.905006  0.787964  0.002371
       Atomic Center   21 is at  -4.907884  0.414954  0.002425
       Atomic Center   22 is at  -3.745866  1.383345  0.877069
       Atomic Center   23 is at  -3.747237  1.386777 -0.870230
   14581 points will be used for fitting atomic charges
 Fitting point charges to electrostatic potential
 Charges from ESP fit, RMS=   0.00335 RRMS=   0.18700:
 ESP charges:
               1
     1  C    0.344534
     2  C   -0.109521
     3  C    0.094810
     4  C   -0.332245
     5  C    0.379507
     6  N   -0.583805
     7  H    0.076700
     8  H    0.134917
     9  H    0.020469
    10  C   -0.178671
    11  H    0.052292
    12  H    0.052399
    13  H    0.059347
    14  C    0.518395
    15  O   -0.530803
    16  O   -0.274729
    17  C    0.308687
    18  H    0.019618
    19  H    0.020002
    20  C   -0.306463
    21  H    0.069685
    22  H    0.082411
    23  H    0.082463
 Sum of ESP charges =   0.00000
 ESP charges with hydrogens summed into heavy atoms:
               1
     1  C    0.344534
     2  C   -0.109521
     3  C    0.171510
     4  C   -0.197328
     5  C    0.399976
     6  N   -0.583805
    10  C   -0.014633
    14  C    0.518395
    15  O   -0.530803
    16  O   -0.274729
    17  C    0.348307
    20  C   -0.071904
 Charge=   0.00000 Dipole=     0.6121     4.2551     0.0016 Tot=     4.2989
 -----------------------------------------------------------------

              Electrostatic Properties (Atomic Units)

 -----------------------------------------------------------------
    Center     Electric         -------- Electric Field --------
               Potential          X             Y             Z
 -----------------------------------------------------------------
    1 Atom    -14.711926
    2 Atom    -14.736964
    3 Atom    -14.743370
    4 Atom    -14.746281
    5 Atom    -14.725769
    6 Atom    -18.392220
    7 Atom     -1.078921
    8 Atom     -1.080210
    9 Atom     -1.095697
   10 Atom    -14.779561
   11 Atom     -1.116907
   12 Atom     -1.116939
   13 Atom     -1.120551
   14 Atom    -14.640290
   15 Atom    -22.388712
   16 Atom    -22.326361
   17 Atom    -14.721965
   18 Atom     -1.118679
   19 Atom     -1.118718
   20 Atom    -14.780499
   21 Atom     -1.110428
   22 Atom     -1.117678
   23 Atom     -1.117690
 -----------------------------------------------------------------
 ******************************Gaussian NBO Version 3.1******************************
             N A T U R A L   A T O M I C   O R B I T A L   A N D
          N A T U R A L   B O N D   O R B I T A L   A N A L Y S I S
 ******************************Gaussian NBO Version 3.1******************************
       /RESON  / : Allow strongly delocalized NBO set

 Analyzing the SCF density

 Job title: Title Card Required                                             

 Storage needed:    328640 in NPA ( 536868037 available)


 NATURAL POPULATIONS:  Natural atomic orbital occupancies 
                                                          
   NAO  Atom  No  lang   Type(AO)    Occupancy      Energy
 ----------------------------------------------------------
     1    C    1  S      Cor( 1S)     1.99883     -10.10232
     2    C    1  S      Val( 2S)     0.87290      -0.16302
     3    C    1  S      Ryd( 3S)     0.00231       0.83852
     4    C    1  S      Ryd( 4S)     0.00013       1.59544
     5    C    1  S      Ryd( 5S)     0.00002      22.11212
     6    C    1  px     Val( 2p)     0.99284      -0.08235
     7    C    1  px     Ryd( 4p)     0.00605       1.22958
     8    C    1  px     Ryd( 3p)     0.00030       0.56185
     9    C    1  px     Ryd( 5p)     0.00011       3.11240
    10    C    1  py     Val( 2p)     1.01998      -0.06446
    11    C    1  py     Ryd( 4p)     0.00976       1.13449
    12    C    1  py     Ryd( 3p)     0.00050       0.47055
    13    C    1  py     Ryd( 5p)     0.00011       3.10675
    14    C    1  pz     Val( 2p)     0.99652      -0.13473
    15    C    1  pz     Ryd( 4p)     0.00083       0.60333
    16    C    1  pz     Ryd( 3p)     0.00036       0.35662
    17    C    1  pz     Ryd( 5p)     0.00003       2.66558
    18    C    1  dxy    Ryd( 3d)     0.00115       2.53346
    19    C    1  dxz    Ryd( 3d)     0.00077       1.56408
    20    C    1  dyz    Ryd( 3d)     0.00090       1.64053
    21    C    1  dx2y2  Ryd( 3d)     0.00194       2.52243
    22    C    1  dz2    Ryd( 3d)     0.00047       2.04646

    23    C    2  S      Cor( 1S)     1.99899     -10.06878
    24    C    2  S      Val( 2S)     0.90199      -0.16859
    25    C    2  S      Ryd( 3S)     0.00087       0.74544
    26    C    2  S      Ryd( 4S)     0.00018       0.97249
    27    C    2  S      Ryd( 5S)     0.00001      23.01797
    28    C    2  px     Val( 2p)     1.07658      -0.07747
    29    C    2  px     Ryd( 4p)     0.00419       1.06098
    30    C    2  px     Ryd( 3p)     0.00026       1.01794
    31    C    2  px     Ryd( 5p)     0.00010       2.92394
    32    C    2  py     Val( 2p)     1.07153      -0.07584
    33    C    2  py     Ryd( 4p)     0.00437       1.05449
    34    C    2  py     Ryd( 3p)     0.00044       0.91657
    35    C    2  py     Ryd( 5p)     0.00007       2.88461
    36    C    2  pz     Val( 2p)     0.95256      -0.12403
    37    C    2  pz     Ryd( 3p)     0.00110       0.57304
    38    C    2  pz     Ryd( 4p)     0.00027       0.86233
    39    C    2  pz     Ryd( 5p)     0.00004       2.20988
    40    C    2  dxy    Ryd( 3d)     0.00059       2.45336
    41    C    2  dxz    Ryd( 3d)     0.00070       1.63270
    42    C    2  dyz    Ryd( 3d)     0.00045       1.65130
    43    C    2  dx2y2  Ryd( 3d)     0.00096       2.61376
    44    C    2  dz2    Ryd( 3d)     0.00034       2.08285

    45    C    3  S      Cor( 1S)     1.99903     -10.05941
    46    C    3  S      Val( 2S)     0.95314      -0.18587
    47    C    3  S      Ryd( 3S)     0.00159       0.80850
    48    C    3  S      Ryd( 4S)     0.00011       0.85800
    49    C    3  S      Ryd( 5S)     0.00001      22.89027
    50    C    3  px     Val( 2p)     1.07100      -0.07429
    51    C    3  px     Ryd( 4p)     0.00430       0.72868
    52    C    3  px     Ryd( 3p)     0.00041       0.40115
    53    C    3  px     Ryd( 5p)     0.00015       3.13340
    54    C    3  py     Val( 2p)     1.17156      -0.08595
    55    C    3  py     Ryd( 4p)     0.00743       1.04451
    56    C    3  py     Ryd( 3p)     0.00023       0.31475
    57    C    3  py     Ryd( 5p)     0.00007       3.19150
    58    C    3  pz     Val( 2p)     0.96644      -0.13344
    59    C    3  pz     Ryd( 4p)     0.00053       0.48922
    60    C    3  pz     Ryd( 3p)     0.00021       0.29651
    61    C    3  pz     Ryd( 5p)     0.00001       2.67220
    62    C    3  dxy    Ryd( 3d)     0.00074       2.54413
    63    C    3  dxz    Ryd( 3d)     0.00047       1.64592
    64    C    3  dyz    Ryd( 3d)     0.00047       1.59252
    65    C    3  dx2y2  Ryd( 3d)     0.00078       2.47000
    66    C    3  dz2    Ryd( 3d)     0.00038       2.02514

    67    C    4  S      Cor( 1S)     1.99915     -10.06259
    68    C    4  S      Val( 2S)     0.97532      -0.20385
    69    C    4  S      Ryd( 3S)     0.00154       0.66271
    70    C    4  S      Ryd( 4S)     0.00016       1.69895
    71    C    4  S      Ryd( 5S)     0.00000      22.20884
    72    C    4  px     Val( 2p)     1.17097      -0.08163
    73    C    4  px     Ryd( 4p)     0.00554       1.01800
    74    C    4  px     Ryd( 3p)     0.00037       0.27775
    75    C    4  px     Ryd( 5p)     0.00006       3.16055
    76    C    4  py     Val( 2p)     1.07338      -0.07673
    77    C    4  py     Ryd( 4p)     0.00472       0.76335
    78    C    4  py     Ryd( 3p)     0.00040       0.41029
    79    C    4  py     Ryd( 5p)     0.00013       3.02592
    80    C    4  pz     Val( 2p)     0.98148      -0.13406
    81    C    4  pz     Ryd( 4p)     0.00089       0.50007
    82    C    4  pz     Ryd( 3p)     0.00016       0.35523
    83    C    4  pz     Ryd( 5p)     0.00002       2.59638
    84    C    4  dxy    Ryd( 3d)     0.00065       2.52394
    85    C    4  dxz    Ryd( 3d)     0.00045       1.58816
    86    C    4  dyz    Ryd( 3d)     0.00039       1.63656
    87    C    4  dx2y2  Ryd( 3d)     0.00080       2.46044
    88    C    4  dz2    Ryd( 3d)     0.00040       2.00954

    89    C    5  S      Cor( 1S)     1.99923     -10.09217
    90    C    5  S      Val( 2S)     0.93322      -0.19084
    91    C    5  S      Ryd( 4S)     0.00230       0.74246
    92    C    5  S      Ryd( 3S)     0.00015       0.67824
    93    C    5  S      Ryd( 5S)     0.00001      22.99957
    94    C    5  px     Val( 2p)     0.96944      -0.04710
    95    C    5  px     Ryd( 4p)     0.00905       0.87806
    96    C    5  px     Ryd( 3p)     0.00039       0.27912
    97    C    5  px     Ryd( 5p)     0.00010       3.02537
    98    C    5  py     Val( 2p)     1.09231      -0.06786
    99    C    5  py     Ryd( 4p)     0.00839       0.88681
   100    C    5  py     Ryd( 3p)     0.00061       0.29196
   101    C    5  py     Ryd( 5p)     0.00015       3.01968
   102    C    5  pz     Val( 2p)     0.93658      -0.12959
   103    C    5  pz     Ryd( 4p)     0.00126       0.52658
   104    C    5  pz     Ryd( 3p)     0.00016       0.26727
   105    C    5  pz     Ryd( 5p)     0.00003       2.64328
   106    C    5  dxy    Ryd( 3d)     0.00183       2.42470
   107    C    5  dxz    Ryd( 3d)     0.00115       1.58379
   108    C    5  dyz    Ryd( 3d)     0.00047       1.60656
   109    C    5  dx2y2  Ryd( 3d)     0.00105       2.50020
   110    C    5  dz2    Ryd( 3d)     0.00043       1.99021

   111    N    6  S      Cor( 1S)     1.99938     -14.13955
   112    N    6  S      Val( 2S)     1.37680      -0.52502
   113    N    6  S      Ryd( 4S)     0.00145       1.24549
   114    N    6  S      Ryd( 3S)     0.00014       1.23369
   115    N    6  S      Ryd( 5S)     0.00000      35.36691
   116    N    6  px     Val( 2p)     1.23332      -0.17446
   117    N    6  px     Ryd( 4p)     0.00310       1.06995
   118    N    6  px     Ryd( 3p)     0.00039       0.88331
   119    N    6  px     Ryd( 5p)     0.00006       4.43418
   120    N    6  py     Val( 2p)     1.64718      -0.22301
   121    N    6  py     Ryd( 3p)     0.00737       0.64259
   122    N    6  py     Ryd( 4p)     0.00027       0.82840
   123    N    6  py     Ryd( 5p)     0.00005       3.99899
   124    N    6  pz     Val( 2p)     1.12882      -0.18787
   125    N    6  pz     Ryd( 3p)     0.00082       0.58700
   126    N    6  pz     Ryd( 4p)     0.00015       0.74384
   127    N    6  pz     Ryd( 5p)     0.00003       3.71944
   128    N    6  dxy    Ryd( 3d)     0.00153       2.96357
   129    N    6  dxz    Ryd( 3d)     0.00044       2.25770
   130    N    6  dyz    Ryd( 3d)     0.00147       2.15640
   131    N    6  dx2y2  Ryd( 3d)     0.00128       2.73427
   132    N    6  dz2    Ryd( 3d)     0.00096       2.58967

   133    H    7  S      Val( 1S)     0.78258       0.01808
   134    H    7  S      Ryd( 2S)     0.00078       0.84985
   135    H    7  S      Ryd( 3S)     0.00017       1.86598
   136    H    7  px     Ryd( 2p)     0.00015       2.01029
   137    H    7  py     Ryd( 2p)     0.00042       2.63318
   138    H    7  pz     Ryd( 2p)     0.00016       1.57348

   139    H    8  S      Val( 1S)     0.78109       0.01985
   140    H    8  S      Ryd( 2S)     0.00067       0.57926
   141    H    8  S      Ryd( 3S)     0.00018       2.10724
   142    H    8  px     Ryd( 2p)     0.00042       2.62257
   143    H    8  py     Ryd( 2p)     0.00012       1.99081
   144    H    8  pz     Ryd( 2p)     0.00016       1.56837

   145    H    9  S      Val( 1S)     0.80205       0.01555
   146    H    9  S      Ryd( 2S)     0.00048       0.61823
   147    H    9  S      Ryd( 3S)     0.00014       2.13598
   148    H    9  px     Ryd( 2p)     0.00032       2.27673
   149    H    9  py     Ryd( 2p)     0.00032       2.32024
   150    H    9  pz     Ryd( 2p)     0.00015       1.57250

   151    C   10  S      Cor( 1S)     1.99926     -10.01956
   152    C   10  S      Val( 2S)     1.07581      -0.23980
   153    C   10  S      Ryd( 4S)     0.00095       1.06230
   154    C   10  S      Ryd( 3S)     0.00019       0.60429
   155    C   10  S      Ryd( 5S)     0.00000      23.34313
   156    C   10  px     Val( 2p)     1.13108      -0.09209
   157    C   10  px     Ryd( 4p)     0.00230       0.59671
   158    C   10  px     Ryd( 3p)     0.00025       0.43389
   159    C   10  px     Ryd( 5p)     0.00008       3.02434
   160    C   10  py     Val( 2p)     1.13540      -0.08891
   161    C   10  py     Ryd( 4p)     0.00236       0.73735
   162    C   10  py     Ryd( 3p)     0.00029       0.42301
   163    C   10  py     Ryd( 5p)     0.00009       2.97091
   164    C   10  pz     Val( 2p)     1.22628      -0.09887
   165    C   10  pz     Ryd( 4p)     0.00060       0.50544
   166    C   10  pz     Ryd( 3p)     0.00008       0.32576
   167    C   10  pz     Ryd( 5p)     0.00007       3.02322
   168    C   10  dxy    Ryd( 3d)     0.00080       2.26203
   169    C   10  dxz    Ryd( 3d)     0.00104       2.22982
   170    C   10  dyz    Ryd( 3d)     0.00021       1.78861
   171    C   10  dx2y2  Ryd( 3d)     0.00036       2.08664
   172    C   10  dz2    Ryd( 3d)     0.00070       2.18947

   173    H   11  S      Val( 1S)     0.77290       0.05013
   174    H   11  S      Ryd( 2S)     0.00080       1.15196
   175    H   11  S      Ryd( 3S)     0.00016       1.67947
   176    H   11  px     Ryd( 2p)     0.00021       2.11465
   177    H   11  py     Ryd( 2p)     0.00018       1.81693
   178    H   11  pz     Ryd( 2p)     0.00020       2.48980

   179    H   12  S      Val( 1S)     0.77283       0.05018
   180    H   12  S      Ryd( 2S)     0.00080       1.15245
   181    H   12  S      Ryd( 3S)     0.00016       1.67886
   182    H   12  px     Ryd( 2p)     0.00021       2.11627
   183    H   12  py     Ryd( 2p)     0.00018       1.81675
   184    H   12  pz     Ryd( 2p)     0.00020       2.48807

   185    H   13  S      Val( 1S)     0.80738       0.04103
   186    H   13  S      Ryd( 2S)     0.00098       0.79385
   187    H   13  S      Ryd( 3S)     0.00010       1.92719
   188    H   13  px     Ryd( 2p)     0.00013       1.92909
   189    H   13  py     Ryd( 2p)     0.00034       2.63567
   190    H   13  pz     Ryd( 2p)     0.00005       1.75614

   191    C   14  S      Cor( 1S)     1.99940     -10.19846
   192    C   14  S      Val( 2S)     0.79001      -0.17133
   193    C   14  S      Ryd( 3S)     0.00524       0.80793
   194    C   14  S      Ryd( 4S)     0.00017       3.77017
   195    C   14  S      Ryd( 5S)     0.00005      19.96948
   196    C   14  px     Val( 2p)     0.87893      -0.05028
   197    C   14  px     Ryd( 4p)     0.00566       1.43856
   198    C   14  px     Ryd( 3p)     0.00068       0.56799
   199    C   14  px     Ryd( 5p)     0.00021       2.35695
   200    C   14  py     Val( 2p)     0.72434      -0.01972
   201    C   14  py     Ryd( 4p)     0.02075       1.10262
   202    C   14  py     Ryd( 3p)     0.00055       0.37525
   203    C   14  py     Ryd( 5p)     0.00015       2.70597
   204    C   14  pz     Val( 2p)     0.77413      -0.13744
   205    C   14  pz     Ryd( 4p)     0.00056       0.73893
   206    C   14  pz     Ryd( 3p)     0.00058       0.39904
   207    C   14  pz     Ryd( 5p)     0.00020       2.48275
   208    C   14  dxy    Ryd( 3d)     0.00450       2.54565
   209    C   14  dxz    Ryd( 3d)     0.00158       1.52538
   210    C   14  dyz    Ryd( 3d)     0.00444       1.60977
   211    C   14  dx2y2  Ryd( 3d)     0.00330       2.41522
   212    C   14  dz2    Ryd( 3d)     0.00066       1.98964

   213    O   15  S      Cor( 1S)     1.99977     -18.85225
   214    O   15  S      Val( 2S)     1.71493      -0.89511
   215    O   15  S      Ryd( 4S)     0.00109       1.46738
   216    O   15  S      Ryd( 3S)     0.00013       1.42111
   217    O   15  S      Ryd( 5S)     0.00000      49.76051
   218    O   15  px     Val( 2p)     1.79462      -0.26516
   219    O   15  px     Ryd( 3p)     0.00247       0.73050
   220    O   15  px     Ryd( 4p)     0.00024       1.07186
   221    O   15  px     Ryd( 5p)     0.00003       5.11330
   222    O   15  py     Val( 2p)     1.60886      -0.29270
   223    O   15  py     Ryd( 3p)     0.00051       0.60580
   224    O   15  py     Ryd( 4p)     0.00026       1.09115
   225    O   15  py     Ryd( 5p)     0.00011       5.19323
   226    O   15  pz     Val( 2p)     1.45200      -0.25160
   227    O   15  pz     Ryd( 3p)     0.00125       0.56931
   228    O   15  pz     Ryd( 4p)     0.00007       0.97437
   229    O   15  pz     Ryd( 5p)     0.00002       4.91703
   230    O   15  dxy    Ryd( 3d)     0.00153       3.39719
   231    O   15  dxz    Ryd( 3d)     0.00019       2.88002
   232    O   15  dyz    Ryd( 3d)     0.00145       3.06422
   233    O   15  dx2y2  Ryd( 3d)     0.00153       3.39638
   234    O   15  dz2    Ryd( 3d)     0.00046       3.12619

   235    O   16  S      Cor( 1S)     1.99973     -18.96115
   236    O   16  S      Val( 2S)     1.63338      -0.90844
   237    O   16  S      Ryd( 3S)     0.00369       0.79927
   238    O   16  S      Ryd( 4S)     0.00015       1.36273
   239    O   16  S      Ryd( 5S)     0.00000      49.66754
   240    O   16  px     Val( 2p)     1.41103      -0.33311
   241    O   16  px     Ryd( 4p)     0.00242       1.30305
   242    O   16  px     Ryd( 3p)     0.00119       0.88817
   243    O   16  px     Ryd( 5p)     0.00004       5.16059
   244    O   16  py     Val( 2p)     1.71862      -0.35748
   245    O   16  py     Ryd( 4p)     0.00425       1.05630
   246    O   16  py     Ryd( 3p)     0.00096       0.92893
   247    O   16  py     Ryd( 5p)     0.00018       5.08010
   248    O   16  pz     Val( 2p)     1.78869      -0.33661
   249    O   16  pz     Ryd( 3p)     0.00292       0.68973
   250    O   16  pz     Ryd( 4p)     0.00057       0.73097
   251    O   16  pz     Ryd( 5p)     0.00000       4.90366
   252    O   16  dxy    Ryd( 3d)     0.00141       3.52752
   253    O   16  dxz    Ryd( 3d)     0.00013       2.95387
   254    O   16  dyz    Ryd( 3d)     0.00091       2.91426
   255    O   16  dx2y2  Ryd( 3d)     0.00083       3.24121
   256    O   16  dz2    Ryd( 3d)     0.00067       3.25730

   257    C   17  S      Cor( 1S)     1.99917     -10.09702
   258    C   17  S      Val( 2S)     1.01565      -0.24676
   259    C   17  S      Ryd( 3S)     0.00419       0.94004
   260    C   17  S      Ryd( 4S)     0.00017       1.24274
   261    C   17  S      Ryd( 5S)     0.00001      22.88276
   262    C   17  px     Val( 2p)     0.73150      -0.07045
   263    C   17  px     Ryd( 4p)     0.00254       0.76395
   264    C   17  px     Ryd( 3p)     0.00067       0.54984
   265    C   17  px     Ryd( 5p)     0.00019       2.71198
   266    C   17  py     Val( 2p)     1.06319      -0.09594
   267    C   17  py     Ryd( 4p)     0.00310       0.70812
   268    C   17  py     Ryd( 3p)     0.00031       0.63556
   269    C   17  py     Ryd( 5p)     0.00022       2.63881
   270    C   17  pz     Val( 2p)     1.19997      -0.09890
   271    C   17  pz     Ryd( 4p)     0.00143       0.65971
   272    C   17  pz     Ryd( 3p)     0.00045       0.62828
   273    C   17  pz     Ryd( 5p)     0.00010       2.68747
   274    C   17  dxy    Ryd( 3d)     0.00138       2.18301
   275    C   17  dxz    Ryd( 3d)     0.00105       1.78109
   276    C   17  dyz    Ryd( 3d)     0.00125       2.24384
   277    C   17  dx2y2  Ryd( 3d)     0.00167       2.05115
   278    C   17  dz2    Ryd( 3d)     0.00116       2.15465

   279    H   18  S      Val( 1S)     0.81310       0.03387
   280    H   18  S      Ryd( 2S)     0.00115       0.78352
   281    H   18  S      Ryd( 3S)     0.00028       2.07733
   282    H   18  px     Ryd( 2p)     0.00013       1.82079
   283    H   18  py     Ryd( 2p)     0.00027       2.12371
   284    H   18  pz     Ryd( 2p)     0.00029       2.47889

   285    H   19  S      Val( 1S)     0.81296       0.03395
   286    H   19  S      Ryd( 2S)     0.00115       0.78348
   287    H   19  S      Ryd( 3S)     0.00028       2.07749
   288    H   19  px     Ryd( 2p)     0.00013       1.81936
   289    H   19  py     Ryd( 2p)     0.00027       2.12689
   290    H   19  pz     Ryd( 2p)     0.00028       2.47537

   291    C   20  S      Cor( 1S)     1.99934     -10.02226
   292    C   20  S      Val( 2S)     1.08700      -0.25233
   293    C   20  S      Ryd( 3S)     0.00071       0.73832
   294    C   20  S      Ryd( 4S)     0.00022       0.86679
   295    C   20  S      Ryd( 5S)     0.00000      23.21275
   296    C   20  px     Val( 2p)     1.15017      -0.09677
   297    C   20  px     Ryd( 4p)     0.00148       0.62512
   298    C   20  px     Ryd( 3p)     0.00017       0.21905
   299    C   20  px     Ryd( 5p)     0.00005       3.09326
   300    C   20  py     Val( 2p)     1.12616      -0.09538
   301    C   20  py     Ryd( 4p)     0.00083       0.55129
   302    C   20  py     Ryd( 3p)     0.00016       0.18096
   303    C   20  py     Ryd( 5p)     0.00009       3.06316
   304    C   20  pz     Val( 2p)     1.21204      -0.09581
   305    C   20  pz     Ryd( 4p)     0.00058       0.52924
   306    C   20  pz     Ryd( 3p)     0.00007       0.19098
   307    C   20  pz     Ryd( 5p)     0.00002       3.11115
   308    C   20  dxy    Ryd( 3d)     0.00064       2.22115
   309    C   20  dxz    Ryd( 3d)     0.00013       1.84294
   310    C   20  dyz    Ryd( 3d)     0.00103       2.24748
   311    C   20  dx2y2  Ryd( 3d)     0.00043       2.00650
   312    C   20  dz2    Ryd( 3d)     0.00066       2.16158

   313    H   21  S      Val( 1S)     0.79325       0.03370
   314    H   21  S      Ryd( 2S)     0.00050       0.68280
   315    H   21  S      Ryd( 3S)     0.00011       2.03291
   316    H   21  px     Ryd( 2p)     0.00030       2.60850
   317    H   21  py     Ryd( 2p)     0.00015       1.83163
   318    H   21  pz     Ryd( 2p)     0.00010       1.76366

   319    H   22  S      Val( 1S)     0.80109       0.03656
   320    H   22  S      Ryd( 2S)     0.00096       0.89811
   321    H   22  S      Ryd( 3S)     0.00015       1.85836
   322    H   22  px     Ryd( 2p)     0.00013       1.79249
   323    H   22  py     Ryd( 2p)     0.00017       2.03823
   324    H   22  pz     Ryd( 2p)     0.00024       2.41965

   325    H   23  S      Val( 1S)     0.80111       0.03656
[...]
 0.00049071,-0.00259221,-0.00176851,0.00217012,0.00128353,0.00549579,0.
 00224249,-0.00426156,0.00006265,-0.04235317,-0.00991502,0.00115525,0.0
 0121855,0.00018198,0.00008812,-0.00003876,0.00062380,-0.00022471,0.000
 63714,-0.00014980,-0.00159871,-0.00020297,0.00161323,0.00292372,-0.001
 13317,0.00078793,0.00058982,0.00063456,-0.00182751,0.00016584,-0.00159
 520,-0.00014692,0.07449712,0.54751342,0.00308670,-0.01639671,-0.076484
 83,-0.00135554,0.00406596,0.00535081,0.00300938,-0.00210305,0.00628113
 ,-0.00104116,-0.00047927,-0.00017824,0.00285920,-0.00183396,0.01056846
 ,-0.00435049,-0.01871539,-0.01379297,0.00015091,0.00065007,-0.00009003
 ,-0.00044456,0.00057501,-0.00164502,-0.00001825,-0.00020609,0.00043891
 ,0.00048909,0.00146338,-0.00104947,-0.00160383,0.00067505,-0.00025700,
 0.00096335,-0.00100384,0.00000624,0.00015562,0.00037525,-0.00067216,0.
 35055497,0.00268755,0.51184835,-0.01936999,-0.00889313,-0.02868022,0.0
 0113999,-0.00390168,-0.00041734,-0.00027239,0.00043681,0.00182324,0.00
 160878,-0.00062484,-0.00076489,-0.00151207,-0.00337364,0.00133718,0.00
 024000,0.00231376,-0.00051784,-0.00031423,-0.00030248,-0.00013028,0.00
 004798,0.00007580,-0.00042868,-0.00011636,-0.00040912,0.00007052,0.000
 05198,0.00007791,-0.00096173,0.00044429,0.00024851,0.00014541,-0.00005
 636,0.00027151,-0.00001186,-0.00019221,-0.00015720,0.00023606,-0.45918
 385,-0.04602161,-0.31810310,0.50519572,-0.02688609,0.00717310,-0.01892
 424,0.00054666,-0.00649812,-0.00230236,-0.00126651,0.00016209,0.001652
 76,-0.00016594,-0.00089789,-0.00024034,-0.00088384,0.00069305,0.001972
 35,-0.00087549,0.00031760,-0.00215682,-0.00039673,-0.00053733,-0.00003
 178,-0.00011502,-0.00000559,-0.00024709,0.00007614,-0.00020560,-0.0001
 2452,0.00051871,0.00008629,-0.00076155,-0.00068570,0.00040272,-0.00006
 306,-0.00024105,-0.00002229,0.00045248,-0.00013418,0.00033248,0.000089
 91,-0.04044024,-0.11109816,-0.02850247,0.02454605,0.10146127,-0.028521
 42,-0.00534849,-0.00081430,0.00125376,-0.00511684,-0.00143834,-0.00183
 097,0.00028141,0.00031671,0.00034079,0.00010639,-0.00015919,-0.0004973
 1,-0.00033534,-0.00035319,0.00064580,0.00268447,0.00219937,-0.00026521
 ,-0.00050051,-0.00012524,0.00003021,-0.00006356,-0.00003750,-0.0000028
 2,-0.00015210,-0.00011440,-0.00011783,-0.00024281,-0.00051216,0.000717
 05,0.00003478,0.00023568,-0.00038876,0.00048637,-0.00012319,-0.0001770
 8,-0.00021506,0.00035964,-0.31431300,-0.03328741,-0.33809244,0.4002917
 6,0.00613044,0.37176148,0.01217223,-0.01003773,0.00397556,-0.00178941,
 0.00180787,0.00022179,0.00057764,0.00048373,-0.00003125,0.00055166,-0.
 00030140,-0.00020155,-0.00006888,-0.00077250,-0.00118525,-0.00024660,-
 0.00315419,0.00057627,0.00008842,0.00012693,0.00012181,0.00002776,-0.0
 0006344,0.00003836,-0.00008363,-0.00016900,-0.00011995,-0.00438464,-0.
 00075041,0.00045201,0.00040728,-0.00115316,0.00156276,-0.00025888,0.00
 029878,-0.00103709,-0.00022504,-0.00131178,0.00029171,-0.10812834,0.01
 437175,-0.03927579,-0.02414743,0.04132302,-0.05691202,0.23739424,0.010
 81168,-0.03645200,0.02005810,0.00050680,-0.00577528,-0.00093965,-0.000
 88168,0.00249396,-0.00015580,0.00140452,-0.00169314,-0.00056734,-0.002
 19232,-0.00099508,-0.00234556,-0.00305374,-0.00461944,-0.00029101,-0.0
 0048353,-0.00047434,0.00003847,-0.00013286,-0.00024819,0.00029203,-0.0
 0012769,-0.00070971,-0.00034803,0.00008900,-0.00057319,0.00014524,-0.0
 0117629,0.00002196,-0.00042248,-0.00014935,-0.00005972,0.00090006,-0.0
 0022025,0.00039878,0.00020411,0.02727046,-0.20333533,0.05781646,0.0410
 9112,0.00290841,0.04328558,0.01533575,0.45173590,-0.00285702,-0.000577
 02,0.00812570,0.00021761,-0.00003223,-0.00039141,-0.00011015,0.0002509
 7,-0.00038643,0.00021635,0.00025518,0.00005324,-0.00030800,-0.00029152
 ,-0.00108477,0.00125430,0.00029959,0.00184829,0.00005889,0.00000045,-0
 .00002506,0.00007122,-0.00000443,0.00009049,0.00000416,0.00011678,-0.0
 0003644,0.00073216,0.00050545,-0.00056376,0.00034009,-0.00034860,-0.00
 023995,0.00011093,0.00013574,0.00046889,0.00010671,0.00018186,0.000357
 23,-0.04337575,0.04908418,-0.11032746,-0.05610985,0.04094749,-0.029523
 46,0.12827201,-0.07996112,0.20729785,0.00207494,0.00242905,-0.00486327
 ,0.00030204,0.00101266,0.00019867,0.00010045,-0.00037400,0.00011841,-0
 .00029394,0.00029701,0.00011133,0.00061033,0.00010074,0.00049346,-0.00
 019496,-0.00032642,0.00013713,0.00006017,0.00007739,-0.00000836,-0.000
 00504,0.00005987,-0.00005915,-0.00001053,0.00008006,0.00001363,-0.0000
 3087,0.00003665,-0.00005885,-0.00028134,-0.00017995,-0.00008779,-0.000
 13274,-0.00008789,0.00020088,0.00006835,0.00010510,0.00006753,0.015999
 74,0.00141316,0.01217014,-0.00794022,0.00388737,-0.00252401,-0.1065399
 7,-0.04611189,-0.02154282,0.56661437,0.00015788,0.00087844,0.00153496,
 0.00019661,0.00035118,-0.00021783,-0.00000208,-0.00056858,-0.00040023,
 -0.00033629,0.00048845,0.00021374,0.00055698,0.00005285,-0.00017534,0.
 00049428,-0.00000773,0.00063076,0.00012450,0.00006546,0.00003296,0.000
 04766,0.00008372,0.00006154,-0.00003378,0.00018455,0.00003723,0.000517
 82,0.00011804,0.00011291,-0.00075430,0.00019192,-0.00014751,-0.0002498
 5,0.00002113,0.00040371,0.00030598,0.00048471,-0.00012391,0.00145999,-
 0.06047975,0.01587118,-0.01224020,0.00442345,-0.01361485,-0.02902695,-
 0.11923558,-0.01210758,-0.05588102,0.41912909,-0.00485655,0.00166788,0
 .00178535,-0.00037684,-0.00050535,0.00006011,0.00002285,0.00021713,-0.
 00013979,0.00022430,-0.00007682,-0.00006740,-0.00045977,-0.00007363,-0
 .00001496,0.00046805,0.00223084,0.00058620,0.00001418,-0.00000600,0.00
 002160,0.00004316,-0.00000620,0.00002186,0.00003619,0.00007819,0.00005
 370,0.00025781,-0.00014900,0.00026514,0.00003146,0.00000546,-0.0000662
 0,0.00014827,0.00011819,-0.00016183,0.00001732,0.00000211,-0.00008140,
 0.01384668,0.01532472,0.00863883,0.00134003,0.00125178,-0.00553504,-0.
 02551969,-0.02564279,-0.08417672,-0.02779566,0.00146527,0.58711986,0.0
 0000351,-0.00007226,0.00031855,-0.00006980,0.00005777,0.00000894,-0.00
 000852,0.00003816,0.00001695,0.00005885,-0.00001656,-0.00000582,-0.000
 04490,-0.00005736,-0.00006360,0.00002096,-0.00001728,-0.00001564,-0.00
 000515,-0.00000179,-0.00000535,0.00000080,-0.00001124,0.00000025,-0.00
 000329,-0.00001622,-0.00000807,-0.00006999,-0.00002194,-0.00001479,0.0
 0012756,-0.00002560,0.00004182,0.00001829,0.00001891,-0.00006172,-0.00
 002493,-0.00006800,0.00002568,-0.00237140,0.00360772,-0.00354358,0.002
 09370,0.00067040,0.00130316,-0.01508172,-0.01364429,0.00097641,-0.2919
 2124,0.03022003,0.05993877,0.31874177,0.00107148,-0.00000544,-0.000693
 41,0.00009013,0.00013907,0.00005351,0.00000373,0.00005330,0.00002522,0
 .00003976,-0.00003758,-0.00001134,0.00001281,-0.00009430,-0.00000112,-
 0.00013523,-0.00033912,-0.00009048,-0.00001305,-0.00000548,-0.00000325
 ,-0.00000463,-0.00000806,-0.00000667,-0.00001249,-0.00003751,-0.000018
 94,-0.00014417,0.00001110,-0.00003365,0.00009209,-0.00007083,0.0000555
 1,0.00002969,0.00000236,-0.00005844,-0.00005065,-0.00008826,0.00003896
 ,-0.00625433,0.00372023,-0.00402740,0.00236603,0.00001899,0.00219067,-
 0.03784013,-0.01420416,0.00804556,0.03759014,-0.05147931,-0.01043714,-
 0.02699613,0.06430849,-0.00001048,0.00007244,-0.00021006,0.00000914,-0
 .00005611,0.00000080,-0.00002724,0.00001625,0.00004962,0.00000862,-0.0
 0001689,-0.00000583,-0.00001045,-0.00001072,0.00002863,-0.00001574,-0.
 00002285,-0.00008730,-0.00000732,-0.00000814,-0.00000401,-0.00000360,0
 .00000006,-0.00000428,-0.00000047,-0.00000683,-0.00000204,-0.00007635,
 -0.00001798,-0.00007558,0.00002003,-0.00001016,0.00000731,-0.00001502,
 -0.00003717,0.00003264,-0.00000513,-0.00001142,0.00002523,0.00198960,0
 .00044157,0.00195255,-0.00104274,-0.00119977,-0.00041747,-0.00983449,-
 0.00055098,0.00241604,0.06147759,-0.00753982,-0.06758022,-0.06132803,0
 .00822747,0.06597939,-0.00036329,-0.00001887,0.00030002,0.00005722,-0.
 00026753,-0.00005216,-0.00004279,0.00012991,0.00002461,0.00006594,-0.0
 0006973,-0.00003167,-0.00012544,-0.00002132,-0.00001606,-0.00002088,0.
 00014787,0.00001506,-0.00001782,-0.00002232,0.00000007,-0.00000230,-0.
 00000237,0.00000556,-0.00000020,-0.00001020,-0.00000343,0.00002374,0.0
 0000769,-0.00009736,0.00000068,-0.00001814,-0.00007088,-0.00001509,-0.
 00007105,0.00010581,0.00000443,0.00003150,0.00004558,0.00079399,0.0016
 8310,-0.00037560,0.00008296,-0.00111572,0.00013811,-0.00047794,-0.0117
 8670,-0.01880846,-0.05558902,0.00754703,0.03019411,-0.00213539,0.00680
 449,0.03044064,0.05521451,-0.00049263,-0.00001130,0.00104225,-0.000010
 10,-0.00034589,-0.00005747,-0.00005412,0.00021766,-0.00002063,0.000144
 42,-0.00010818,-0.00006515,-0.00022630,-0.00006690,-0.00010337,0.00000
 511,0.00029753,0.00017150,-0.00002432,-0.00002894,0.00000563,0.0000006
 9,-0.00001428,0.00001471,0.00000382,-0.00002028,-0.00000436,0.00000887
 ,-0.00005564,-0.00011690,0.00006447,-0.00001383,-0.00000571,-0.0000444
 0,-0.00001382,0.00003672,-0.00002175,-0.00000316,0.00004935,-0.0050341
 7,0.00371635,-0.00674175,0.00304137,0.00058005,0.00238654,-0.00281467,
 -0.02562165,-0.03054229,0.00521865,-0.05595100,-0.04402682,0.00192725,
 0.00136706,-0.00357557,-0.00139350,0.07156907,0.00040839,-0.00031266,-
 0.00024888,0.00009300,0.00008470,0.00005233,0.00002611,0.00001761,0.00
 004441,0.00001160,-0.00001688,-0.00001631,-0.00002881,0.00000244,-0.00
 001553,-0.00008147,-0.00006338,0.00003784,-0.00000294,0.00000371,-0.00
 000684,-0.00000445,0.00000002,-0.00000131,-0.00000021,-0.00000662,-0.0
 0000649,-0.00008760,-0.00000516,-0.00009073,0.00002632,-0.00002760,-0.
 00002577,-0.00000611,-0.00005036,0.00005728,-0.00000788,-0.00001016,0.
 00001954,-0.00194535,0.00283426,-0.00127545,0.00101835,0.00074040,0.00
 119175,-0.00420146,-0.00893918,0.00003268,0.02797168,-0.05041290,-0.29
 753930,0.00127622,-0.00055991,-0.00709966,-0.02490446,0.05617456,0.319
 71177,0.00077417,-0.00030783,0.00074497,0.00011179,-0.00026570,-0.0001
 5164,-0.00007945,0.00015764,-0.00000423,0.00006332,-0.00008228,-0.0000
 1981,-0.00009555,-0.00003948,-0.00011156,-0.00011961,-0.00035769,-0.00
 004840,-0.00002562,-0.00003482,-0.00000209,-0.00000862,-0.00000444,0.0
 0001531,-0.00001248,-0.00003229,-0.00001715,0.00006745,0.00000250,0.00
 015621,-0.00007210,-0.00006886,-0.00015383,0.00003175,-0.00004134,0.00
 004913,-0.00003189,0.00004614,-0.00002879,-0.00491004,-0.00161864,-0.0
 0357174,0.00224514,0.00136629,0.00076172,0.00889541,-0.01975444,0.0118
 6551,-0.11387176,0.04987489,-0.03797862,-0.01060263,0.02292517,-0.0199
 8295,0.00176503,-0.00247656,0.00216689,0.55692596,0.00076945,-0.000764
 54,0.00092413,-0.00006118,-0.00011020,-0.00006138,-0.00001222,0.000081
 50,-0.00003867,0.00005636,-0.00006216,-0.00002651,-0.00007587,-0.00004
 834,-0.00015787,-0.00003936,-0.00038461,-0.00003304,-0.00001864,-0.000
 01135,0.00000418,-0.00000355,-0.00001795,0.00001747,-0.00000677,-0.000
 03597,-0.00002018,-0.00003823,0.00000424,-0.00006805,0.00005567,0.0000
 3510,0.00005662,-0.00001647,0.00000645,-0.00000115,-0.00001352,-0.0000
 3671,0.00002982,-0.00580843,-0.00214990,-0.00411621,0.00173971,0.00139
 683,0.00139348,0.01104702,-0.04436524,0.02152772,0.04006016,-0.1224200
 4,0.04502058,0.00277881,-0.00180124,0.00265132,-0.00239964,0.00626469,
 -0.00222445,0.02675344,0.52802646,0.00035320,-0.00006143,0.00045839,-0
 .00004006,-0.00011157,-0.00003959,-0.00002500,0.00005337,-0.00001641,0
 .00003985,-0.00005632,-0.00002539,-0.00006110,-0.00003884,-0.00005456,
 0.00000754,-0.00018891,-0.00006048,-0.00001083,-0.00001148,0.00000452,
 -0.00000245,-0.00001156,0.00000965,-0.00000091,-0.00002196,-0.00000498
 ,-0.00001054,-0.00000101,-0.00004833,0.00003770,0.00005177,0.00005776,
 -0.00000446,0.00000556,-0.00001384,-0.00001519,-0.00001647,0.00001741,
 -0.00265559,-0.00115955,-0.00196542,0.00065093,0.00102088,0.00131203,0
 .00376278,-0.00527356,0.00598251,-0.03535020,0.05371653,-0.13075354,0.
 00271731,-0.00581885,0.00490484,-0.01530214,0.02418440,-0.01562916,-0.
 01979868,0.03579604,0.54486858,-0.00024638,0.00011851,-0.00017178,-0.0
 0005234,0.00007351,0.00005839,0.00002772,-0.00004680,-0.00000431,-0.00
 001636,0.00002534,0.00000633,0.00002176,0.00001422,0.00002844,0.000034
 39,0.00009308,0.00000683,0.00000512,0.00001060,-0.00000230,0.00000226,
 -0.00000214,-0.00000521,0.00000447,0.00000659,0.00000385,-0.00002295,0
 .00002112,-0.00007504,0.00007010,0.00004116,0.00003373,0.00000799,0.00
 000830,-0.00001555,0.00000445,-0.00003564,0.00001626,0.00123277,0.0006
 9461,0.00041871,-0.00024581,-0.00023759,-0.00003114,-0.00052839,0.0040
 4180,-0.00243887,0.00592250,0.01184351,0.00402514,0.00021051,-0.000501
 34,0.00066293,0.00050996,-0.00049824,0.00021728,-0.09692887,-0.1020092
 3,-0.01788645,0.10174420,0.00032316,-0.00000794,0.00026533,-0.00001806
 ,-0.00012321,-0.00003560,-0.00001744,0.00007079,0.00001026,0.00004413,
 -0.00005325,-0.00002304,-0.00006766,-0.00001102,-0.00002993,-0.0000394
 9,-0.00018622,-0.00003160,-0.00001679,-0.00001168,-0.00000133,-0.00000
 610,-0.00001170,0.00000194,-0.00000121,-0.00002512,-0.00001068,-0.0000
 0449,0.00000786,-0.00000009,0.00004069,0.00000385,0.00000130,0.0000148
 9,0.00000483,-0.00001846,-0.00002409,-0.00002385,0.00000562,-0.0019887
 2,0.00075287,-0.00167330,0.00085134,0.00005133,0.00069892,0.00312739,-
 0.00500590,0.00433265,-0.01193867,-0.01756352,-0.00646880,0.00059634,0
 .00044031,-0.00043300,-0.00019058,0.00062944,0.00051559,-0.10008043,-0
 .25287083,-0.03311710,0.11075088,0.27635709,-0.00019588,0.00009690,-0.
 00030534,0.00000858,0.00007950,0.00003030,0.00002042,-0.00003574,0.000
 01338,-0.00001848,0.00003057,0.00000910,0.00003351,0.00001739,0.000045
 73,0.00001193,0.00011260,0.00001669,0.00000813,0.00000992,-0.00000289,
 0.00000129,0.00000509,-0.00000695,0.00000193,0.00001098,0.00000465,-0.
 00000167,0.00002050,-0.00001137,0.00000085,-0.00002120,-0.00002552,0.0
 0000010,-0.00000955,0.00001837,0.00000961,0.00000708,0.00000015,0.0011
 3650,0.00061438,0.00126465,-0.00030005,-0.00028033,-0.00034914,-0.0022
 1563,0.00502575,-0.00223824,0.01033381,0.01456139,0.00298124,-0.000009
 99,-0.00045229,0.00066487,0.00051342,-0.00073547,0.00010887,-0.0183704
 9,-0.03477925,-0.05271824,0.02026199,0.03613340,0.05338390,-0.00014235
 ,-0.00004560,0.00001433,-0.00006958,0.00011425,0.00004187,0.00003446,-
 0.00005382,-0.00002133,-0.00001118,0.00002879,0.00001230,0.00002785,-0
 .00001251,-0.00000812,0.00005836,0.00007096,-0.00000124,0.00001131,0.0
 0001413,0.00000059,0.00000528,-0.00000027,-0.00000100,0.00000007,0.000
 00621,0.00000352,-0.00002587,-0.00000668,-0.00003407,0.00007056,0.0000
 0429,0.00006464,-0.00000949,0.00003486,-0.00004641,0.00001086,-0.00003
 224,0.00000945,-0.00007102,-0.00013220,-0.00013081,0.00032007,0.000227
 17,0.00007150,0.00165954,-0.00025961,0.00013630,-0.01595761,0.00037223
 ,0.00335971,0.00063093,0.00180836,-0.00221705,0.00065863,-0.00015816,-
 0.00039677,-0.29322754,0.02032018,0.05965018,-0.01228689,0.00117535,0.
 00304662,0.31976804,-0.00000510,0.00004931,-0.00003703,0.00009542,-0.0
 0009257,-0.00006945,-0.00004140,0.00003080,0.00001636,-0.00000658,-0.0
 0000955,0.00000247,-0.00000333,0.00001521,0.00001477,-0.00003368,0.000
 02067,0.00000798,-0.00000234,-0.00001015,-0.00000079,-0.00000258,0.000
 00879,0.00000222,-0.00000214,0.00000574,0.00000206,0.00002603,-0.00003
 302,0.00010441,-0.00013428,-0.00009365,-0.00007838,-0.00000890,-0.0000
 3022,0.00004924,0.00000320,0.00007125,-0.00002478,0.00078301,-0.000354
 66,0.00084730,-0.00067666,-0.00036835,-0.00033731,-0.00030575,0.002756
 29,-0.00095460,0.02513335,-0.00361198,-0.00596106,0.00157437,-0.002727
 08,0.00302505,-0.00104547,0.00075792,-0.00036558,0.01807337,-0.0481323
 7,-0.00490760,-0.02815685,0.00363333,0.00748902,-0.02333482,0.04961009
 ,-0.00001018,-0.00003153,0.00004822,-0.00001494,0.00000775,-0.00001580
 ,0.00000852,-0.00001642,-0.00001208,-0.00000957,0.00000340,0.00000070,
 0.00001239,0.00000175,-0.00000337,0.00000238,0.00000600,0.00000881,0.0
 0000025,-0.00000096,0.00000352,0.00000181,-0.00000055,0.00000246,-0.00
 000049,0.00000331,0.00000026,0.00005378,-0.00004289,0.00007121,0.00000
 028,0.00004199,0.00005514,-0.00001696,0.00005288,-0.00006414,-0.000002
 47,0.00000402,-0.00001926,-0.00031784,-0.00013767,-0.00026133,0.000210
 98,0.00031262,-0.00012959,0.00086804,-0.00160286,0.00051795,-0.0222334
 3,0.00122488,0.00503899,-0.00134816,0.00352554,-0.00154466,-0.00001462
 ,-0.00095526,0.00088329,0.06159349,-0.00466815,-0.06370888,-0.00529094
 ,0.00083451,0.00002937,-0.06414274,0.00275793,0.06516104,0.00002721,-0
 .00004128,-0.00003670,-0.00000168,0.00002198,0.00000336,0.00000465,-0.
 00002674,-0.00000845,-0.00001882,0.00000829,0.00000078,0.00002698,0.00
 000953,0.00000251,-0.00000168,-0.00000563,0.00001444,0.00000209,0.0000
 0063,0.00000478,0.00000097,0.00000071,0.00000162,0.00000085,0.00000591
 ,0.00000216,0.00001767,-0.00003592,0.00000689,-0.00001681,0.00003535,0
 .00006154,-0.00001992,0.00002923,-0.00003314,0.00000320,0.00000717,-0.
 00000650,-0.00010908,-0.00026684,-0.00004362,-0.00011968,0.00028230,0.
 00002773,0.00018670,-0.00057649,0.00118828,0.00101633,-0.00519493,-0.0
 1698092,0.00043209,-0.00088176,-0.00003151,-0.00038692,0.00283427,-0.0
 0154834,-0.05089385,0.00692229,0.02394413,0.00052982,-0.00253043,-0.01
 427652,-0.00145441,0.00807114,0.03065040,0.05077430,-0.00004661,0.0000
 3698,-0.00003961,0.00000133,0.00001034,0.00000252,-0.00000629,-0.00002
 372,-0.00000511,-0.00001600,0.00000969,0.00000886,0.00002172,-0.000008
 49,0.00000833,0.00001015,0.00001654,-0.00003495,0.00000378,0.00000042,
 0.00000089,0.00000150,0.00000380,0.00000036,-0.00000120,0.00000511,0.0
 0000316,0.00000646,-0.00000263,0.00002675,-0.00002993,0.00000695,0.000
 00611,0.00000172,0.00000309,-0.00000763,0.00000571,0.00000813,-0.00001
 145,0.00088896,-0.00042689,0.00077223,-0.00045937,-0.00037434,-0.00046
 477,-0.00022115,0.00305265,-0.00086424,-0.00260152,0.00484450,0.025971
 47,-0.00054107,0.00083745,-0.00093675,0.00208155,-0.00314488,0.0026215
 6,0.00596534,-0.06260380,-0.06403233,0.00374459,-0.00605744,-0.0279006
 4,-0.00014088,-0.00149582,-0.00132030,-0.00866877,0.06530235,-0.000011
 10,-0.00006225,-0.00008811,0.00003609,0.00005153,0.00000896,0.00000762
 ,-0.00001058,0.00000679,-0.00001242,0.00002288,0.00000811,0.00002326,0
 .00001907,0.00000175,-0.00000494,0.00003610,0.00005416,0.00000432,0.00
 000515,-0.00000492,0.00000031,0.00000485,-0.00000251,-0.00000002,0.000
 00827,-0.00000006,-0.00001793,0.00002374,-0.00004676,0.00001266,-0.000
 02044,-0.00004264,-0.00000175,-0.00002374,0.00004530,0.00000839,0.0000
 0760,0.00001350,-0.00039756,0.00016133,-0.00025811,0.00034413,0.000263
 22,0.00034798,0.00039106,-0.00072544,0.00180282,0.00122927,-0.00512708
 ,-0.02045647,-0.00021930,0.00005043,0.00096920,-0.00210617,0.00288513,
 -0.00018432,0.02288674,-0.06122645,-0.29257687,0.00018170,-0.00095661,
 -0.00291358,0.00058853,-0.00158223,-0.00606186,-0.02294292,0.06619553,
 0.31937766\\-0.00000456,0.00000827,-0.00000923,-0.00000042,-0.00000057
 ,-0.00000376,-0.00000017,-0.00000180,-0.00000123,-0.00000794,0.0000007
 0,0.00000364,0.00000483,0.00000573,0.00000132,0.00000087,-0.00000580,0
 .00000911,-0.00000361,0.00000286,-0.00000290,0.00000012,-0.00000102,-0
 .00000044,-0.00000056,-0.00000462,0.00000704,-0.00000572,0.00000690,-0
 .00000769,0.00000217,-0.00000258,-0.00000057,-0.00000183,0.00000236,-0
 .00000269,0.00000019,0.00000166,-0.00000438,0.00001010,-0.00002225,0.0
 0002689,-0.00000605,0.00000729,-0.00000196,-0.00001025,0.00000772,-0.0
 0001397,0.00000930,0.00000609,0.00000747,-0.00000020,-0.00000249,0.000
 00061,-0.00000321,-0.00000268,-0.00000308,0.00000266,-0.00000247,0.000
 00026,0.00000311,-0.00000143,-0.00000168,0.00000462,-0.00000010,-0.000
 00417,0.00000652,-0.00000178,0.00000140\\\@


 IF NO USE IS MADE OF THE LABOR OF PAST AGES,
 THE WORLD MUST REMAIN ALWAYS IN THE INFANCY OF KNOWLEDGE.

                          -- CICERO
 Job cpu time:       0 days  1 hours  8 minutes 51.4 seconds.
 File lengths (MBytes):  RWF=    232 Int=      0 D2E=      0 Chk=     10 Scr=      1
 Normal termination of Gaussian 09 at Tue Apr 23 12:20:31 2024.
