	You are loading a legacy vmd module, please load an up to date module instead.


	 module load container_env vmd

	Please run vmd command with crun.vmd prepend to it:
	
	 crun.vmd vmd

	 
module: Command not found.
module: Command not found.
 Entering Gaussian System, Link 0=g09
 Initial command:
 /opt/gaussian/g09/l1.exe "/tmp/G09-61.com.o10577453.tmp/Gau-1254003.inp" -scrdir="/tmp/G09-61.com.o10577453.tmp/"
 Entering Link 1 = /opt/gaussian/g09/l1.exe PID=   1254004.
  
 Copyright (c) 1988,1990,1992,1993,1995,1998,2003,2009,2013,
            Gaussian, Inc.  All Rights Reserved.
  
 This is part of the Gaussian(R) 09 program.  It is based on
 the Gaussian(R) 03 system (copyright 2003, Gaussian, Inc.),
 the Gaussian(R) 98 system (copyright 1998, Gaussian, Inc.),
 the Gaussian(R) 94 system (copyright 1995, Gaussian, Inc.),
 the Gaussian 92(TM) system (copyright 1992, Gaussian, Inc.),
 the Gaussian 90(TM) system (copyright 1990, Gaussian, Inc.),
 the Gaussian 88(TM) system (copyright 1988, Gaussian, Inc.),
 the Gaussian 86(TM) system (copyright 1986, Carnegie Mellon
 University), and the Gaussian 82(TM) system (copyright 1983,
 Carnegie Mellon University). Gaussian is a federally registered
 trademark of Gaussian, Inc.
  
 This software contains proprietary and confidential information,
 including trade secrets, belonging to Gaussian, Inc.
  
 This software is provided under written license and may be
 used, copied, transmitted, or stored only in accord with that
 written license.
  
 The following legend is applicable only to US Government
 contracts under FAR:
  
                    RESTRICTED RIGHTS LEGEND
  
 Use, reproduction and disclosure by the US Government is
 subject to restrictions as set forth in subparagraphs (a)
 and (c) of the Commercial Computer Software - Restricted
 Rights clause in FAR 52.227-19.
  
 Gaussian, Inc.
 340 Quinnipiac St., Bldg. 40, Wallingford CT 06492
  
  
 ---------------------------------------------------------------
 Warning -- This program may not be used in any manner that
 competes with the business of Gaussian, Inc. or will provide
 assistance to any competitor of Gaussian, Inc.  The licensee
 of this program is prohibited from giving any competitor of
 Gaussian, Inc. access to this program.  By using this program,
 the user acknowledges that Gaussian, Inc. is engaged in the
 business of creating and licensing software in the field of
 computational chemistry and represents and warrants to the
 licensee that it is not a competitor of Gaussian, Inc. and that
 it will not use this program in any manner prohibited above.
 ---------------------------------------------------------------
  

 Cite this work as:
 Gaussian 09, Revision D.01,
 M. J. Frisch, G. W. Trucks, H. B. Schlegel, G. E. Scuseria, 
 M. A. Robb, J. R. Cheeseman, G. Scalmani, V. Barone, B. Mennucci, 
 G. A. Petersson, H. Nakatsuji, M. Caricato, X. Li, H. P. Hratchian, 
 A. F. Izmaylov, J. Bloino, G. Zheng, J. L. Sonnenberg, M. Hada, 
 M. Ehara, K. Toyota, R. Fukuda, J. Hasegawa, M. Ishida, T. Nakajima, 
 Y. Honda, O. Kitao, H. Nakai, T. Vreven, J. A. Montgomery, Jr., 
 J. E. Peralta, F. Ogliaro, M. Bearpark, J. J. Heyd, E. Brothers, 
 K. N. Kudin, V. N. Staroverov, T. Keith, R. Kobayashi, J. Normand, 
 K. Raghavachari, A. Rendell, J. C. Burant, S. S. Iyengar, J. Tomasi, 
 M. Cossi, N. Rega, J. M. Millam, M. Klene, J. E. Knox, J. B. Cross, 
 V. Bakken, C. Adamo, J. Jaramillo, R. Gomperts, R. E. Stratmann, 
 O. Yazyev, A. J. Austin, R. Cammi, C. Pomelli, J. W. Ochterski, 
 R. L. Martin, K. Morokuma, V. G. Zakrzewski, G. A. Voth, 
 P. Salvador, J. J. Dannenberg, S. Dapprich, A. D. Daniels, 
 O. Farkas, J. B. Foresman, J. V. Ortiz, J. Cioslowski, 
 and D. J. Fox, Gaussian, Inc., Wallingford CT, 2013.
 
 ******************************************
 Gaussian 09:  ES64L-G09RevD.01 24-Apr-2013
                23-Apr-2024 
 ******************************************
 %nprocshared=20
 Will use up to   20 processors via shared memory.
 %mem=4GB
 %chk=61.chk
 ----------------------------------------------------------------------
 # opt freq=noraman b3lyp/6-311+g(d,p) pop=(npa,hirshfeld,chelpg,mbs) g
 eom=connectivity
 ----------------------------------------------------------------------
 1/14=-1,18=20,19=15,26=3,38=1,57=2/1,3;
 2/9=110,12=2,17=6,18=5,40=1/2;
 3/5=4,6=6,7=111,11=2,16=1,25=1,30=1,71=1,74=-5/1,2,3;
 4//1;
 5/5=2,38=5/2;
 6/7=2,8=2,9=2,10=2,15=8,20=3,27=100,28=1,40=-1,79=1/1,2,7;
 7//1,2,3,16;
 1/14=-1,18=20,19=15,26=3/3(2);
 2/9=110/2;
 99//99;
 2/9=110/2;
 3/5=4,6=6,7=111,11=2,16=1,25=1,30=1,71=1,74=-5/1,2,3;
 4/5=5,16=3,69=1/1;
 5/5=2,38=5/2;
 7//1,2,3,16;
 1/14=-1,18=20,19=15,26=3/3(-5);
 2/9=110/2;
 6/7=2,8=2,9=2,10=2,15=8,19=2,20=3,27=100,28=1,40=-1,79=1/1,2,7;
 99/9=1/99;
 -------------------
 Title Card Required
 -------------------
 Symbolic Z-matrix:
 Charge =  0 Multiplicity = 1
 C                     0.26892   1.2186    0.1222 
 C                    -1.2205    1.5081   -0.03035 
 C                    -1.92764   0.18077  -0.28081 
 H                     0.4288    0.58072   0.96627 
 H                     0.80203   2.13532   0.26475 
 H                    -1.78735  -0.47022   0.5567 
 H                    -2.97416   0.35026  -0.42557 
 O                    -1.36048  -0.41428  -1.45068 
 O                     0.7292    0.56333  -1.06475 
 C                    -1.76865   2.17362   1.24567 
 H                    -1.25683   3.0981    1.41382 
 H                    -2.81544   2.36168   1.12835 
 H                    -1.61454   1.52348   2.08141 
 C                    -1.44609   2.4495   -1.22804 
 H                    -2.49335   2.63702  -1.34199 
 H                    -0.93486   3.37369  -1.05651 
 H                    -1.06681   1.99189  -2.11778 
 C                     0.04508  -0.69404  -1.26521 
 C                    -0.66701  -2.01906  -1.03434 
 C                     1.51848  -0.98924  -1.50785 
 C                     0.38246  -3.12117  -1.03259 
 H                    -1.4207   -2.20101  -1.84155 
 H                    -1.22232  -2.00324  -0.06335 
 C                     1.72126  -2.49333  -1.39294 
 H                     2.15279  -0.4505   -0.75978 
 H                     1.82823  -0.62963  -2.52114 
 H                     0.43812  -3.60358  -0.02421 
 H                     0.11337  -3.92204  -1.76584 
 H                     2.48707  -2.7278   -0.61172 
 H                     2.09953  -2.91008  -2.36022 
 

 GradGradGradGradGradGradGradGradGradGradGradGradGradGradGradGradGradGrad
 Berny optimization.
 Initialization pass.
                           ----------------------------
                           !    Initial Parameters    !
                           ! (Angstroms and Degrees)  !
 --------------------------                            --------------------------
 ! Name  Definition              Value          Derivative Info.                !
 --------------------------------------------------------------------------------
 ! R1    R(1,2)                  1.5249         estimate D2E/DX2                !
 ! R2    R(1,4)                  1.07           estimate D2E/DX2                !
 ! R3    R(1,5)                  1.07           estimate D2E/DX2                !
 ! R4    R(1,9)                  1.4318         estimate D2E/DX2                !
 ! R5    R(2,3)                  1.5247         estimate D2E/DX2                !
 ! R6    R(2,10)                 1.54           estimate D2E/DX2                !
 ! R7    R(2,14)                 1.54           estimate D2E/DX2                !
 ! R8    R(3,6)                  1.07           estimate D2E/DX2                !
 ! R9    R(3,7)                  1.07           estimate D2E/DX2                !
 ! R10   R(3,8)                  1.4298         estimate D2E/DX2                !
 ! R11   R(8,18)                 1.4451         estimate D2E/DX2                !
 ! R12   R(9,18)                 1.4454         estimate D2E/DX2                !
 ! R13   R(10,11)                1.07           estimate D2E/DX2                !
 ! R14   R(10,12)                1.07           estimate D2E/DX2                !
 ! R15   R(10,13)                1.07           estimate D2E/DX2                !
 ! R16   R(14,15)                1.07           estimate D2E/DX2                !
 ! R17   R(14,16)                1.07           estimate D2E/DX2                !
 ! R18   R(14,17)                1.07           estimate D2E/DX2                !
 ! R19   R(18,19)                1.5219         estimate D2E/DX2                !
 ! R20   R(18,20)                1.5222         estimate D2E/DX2                !
 ! R21   R(19,21)                1.5219         estimate D2E/DX2                !
 ! R22   R(19,22)                1.1193         estimate D2E/DX2                !
 ! R23   R(19,23)                1.1187         estimate D2E/DX2                !
 ! R24   R(20,24)                1.522          estimate D2E/DX2                !
 ! R25   R(20,25)                1.119          estimate D2E/DX2                !
 ! R26   R(20,26)                1.1189         estimate D2E/DX2                !
 ! R27   R(21,24)                1.522          estimate D2E/DX2                !
 ! R28   R(21,27)                1.1192         estimate D2E/DX2                !
 ! R29   R(21,28)                1.1187         estimate D2E/DX2                !
 ! R30   R(24,29)                1.1188         estimate D2E/DX2                !
 ! R31   R(24,30)                1.1191         estimate D2E/DX2                !
 ! A1    A(2,1,4)              109.7566         estimate D2E/DX2                !
 ! A2    A(2,1,5)              109.7126         estimate D2E/DX2                !
 ! A3    A(2,1,9)              108.5376         estimate D2E/DX2                !
 ! A4    A(4,1,5)              109.3422         estimate D2E/DX2                !
 ! A5    A(4,1,9)              109.4559         estimate D2E/DX2                !
 ! A6    A(5,1,9)              110.0217         estimate D2E/DX2                !
 ! A7    A(1,2,3)              107.7077         estimate D2E/DX2                !
 ! A8    A(1,2,10)             110.292          estimate D2E/DX2                !
 ! A9    A(1,2,14)             109.6898         estimate D2E/DX2                !
 ! A10   A(3,2,10)             110.3193         estimate D2E/DX2                !
 ! A11   A(3,2,14)             109.6626         estimate D2E/DX2                !
 ! A12   A(10,2,14)            109.1526         estimate D2E/DX2                !
 ! A13   A(2,3,6)              109.8932         estimate D2E/DX2                !
 ! A14   A(2,3,7)              109.7526         estimate D2E/DX2                !
 ! A15   A(2,3,8)              108.2251         estimate D2E/DX2                !
 ! A16   A(6,3,7)              109.2986         estimate D2E/DX2                !
 ! A17   A(6,3,8)              109.5855         estimate D2E/DX2                !
 ! A18   A(7,3,8)              110.0717         estimate D2E/DX2                !
 ! A19   A(3,8,18)             111.1846         estimate D2E/DX2                !
 ! A20   A(1,9,18)             111.1575         estimate D2E/DX2                !
 ! A21   A(2,10,11)            109.4712         estimate D2E/DX2                !
 ! A22   A(2,10,12)            109.4712         estimate D2E/DX2                !
 ! A23   A(2,10,13)            109.4712         estimate D2E/DX2                !
 ! A24   A(11,10,12)           109.4712         estimate D2E/DX2                !
 ! A25   A(11,10,13)           109.4712         estimate D2E/DX2                !
 ! A26   A(12,10,13)           109.4712         estimate D2E/DX2                !
 ! A27   A(2,14,15)            109.4712         estimate D2E/DX2                !
 ! A28   A(2,14,16)            109.4712         estimate D2E/DX2                !
 ! A29   A(2,14,17)            109.4712         estimate D2E/DX2                !
 ! A30   A(15,14,16)           109.4712         estimate D2E/DX2                !
 ! A31   A(15,14,17)           109.4712         estimate D2E/DX2                !
 ! A32   A(16,14,17)           109.4712         estimate D2E/DX2                !
 ! A33   A(8,18,9)             108.0446         estimate D2E/DX2                !
 ! A34   A(8,18,19)             74.5087         estimate D2E/DX2                !
 ! A35   A(8,18,20)            163.4533         estimate D2E/DX2                !
 ! A36   A(9,18,19)            163.3004         estimate D2E/DX2                !
 ! A37   A(9,18,20)             74.4943         estimate D2E/DX2                !
 ! A38   A(19,18,20)           107.9539         estimate D2E/DX2                !
 ! A39   A(18,19,21)           107.9403         estimate D2E/DX2                !
 ! A40   A(18,19,22)           110.3173         estimate D2E/DX2                !
 ! A41   A(18,19,23)           110.5873         estimate D2E/DX2                !
 ! A42   A(21,19,22)           110.332          estimate D2E/DX2                !
 ! A43   A(21,19,23)           110.5822         estimate D2E/DX2                !
 ! A44   A(22,19,23)           107.0991         estimate D2E/DX2                !
 ! A45   A(18,20,24)           107.9735         estimate D2E/DX2                !
 ! A46   A(18,20,25)           110.411          estimate D2E/DX2                !
 ! A47   A(18,20,26)           110.4863         estimate D2E/DX2                !
 ! A48   A(24,20,25)           110.474          estimate D2E/DX2                !
 ! A49   A(24,20,26)           110.431          estimate D2E/DX2                !
 ! A50   A(25,20,26)           107.0824         estimate D2E/DX2                !
 ! A51   A(19,21,24)           107.9138         estimate D2E/DX2                !
 ! A52   A(19,21,27)           110.3329         estimate D2E/DX2                !
 ! A53   A(19,21,28)           110.5985         estimate D2E/DX2                !
 ! A54   A(24,21,27)           110.3269         estimate D2E/DX2                !
 ! A55   A(24,21,28)           110.5928         estimate D2E/DX2                !
 ! A56   A(27,21,28)           107.094          estimate D2E/DX2                !
 ! A57   A(20,24,21)           107.9592         estimate D2E/DX2                !
 ! A58   A(20,24,29)           110.5486         estimate D2E/DX2                !
 ! A59   A(20,24,30)           110.3522         estimate D2E/DX2                !
 ! A60   A(21,24,29)           110.5072         estimate D2E/DX2                !
 ! A61   A(21,24,30)           110.3864         estimate D2E/DX2                !
 ! A62   A(29,24,30)           107.1046         estimate D2E/DX2                !
 ! D1    D(4,1,2,3)            -61.8542         estimate D2E/DX2                !
 ! D2    D(4,1,2,10)            58.5901         estimate D2E/DX2                !
 ! D3    D(4,1,2,14)           178.8441         estimate D2E/DX2                !
 ! D4    D(5,1,2,3)            177.9788         estimate D2E/DX2                !
 ! D5    D(5,1,2,10)           -61.5769         estimate D2E/DX2                !
 ! D6    D(5,1,2,14)            58.6771         estimate D2E/DX2                !
 ! D7    D(9,1,2,3)             57.7311         estimate D2E/DX2                !
 ! D8    D(9,1,2,10)           178.1754         estimate D2E/DX2                !
 ! D9    D(9,1,2,14)           -61.5706         estimate D2E/DX2                !
 ! D10   D(2,1,9,18)           -61.2153         estimate D2E/DX2                !
 ! D11   D(4,1,9,18)            58.5579         estimate D2E/DX2                !
 ! D12   D(5,1,9,18)           178.7293         estimate D2E/DX2                !
 ! D13   D(1,2,3,6)             61.6511         estimate D2E/DX2                !
 ! D14   D(1,2,3,7)           -178.1253         estimate D2E/DX2                !
 ! D15   D(1,2,3,8)            -57.9831         estimate D2E/DX2                !
 ! D16   D(10,2,3,6)           -58.776          estimate D2E/DX2                !
 ! D17   D(10,2,3,7)            61.4475         estimate D2E/DX2                !
 ! D18   D(10,2,3,8)          -178.4103         estimate D2E/DX2                !
 ! D19   D(14,2,3,6)          -179.0298         estimate D2E/DX2                !
 ! D20   D(14,2,3,7)           -58.8063         estimate D2E/DX2                !
 ! D21   D(14,2,3,8)            61.3359         estimate D2E/DX2                !
 ! D22   D(1,2,10,11)           60.5711         estimate D2E/DX2                !
 ! D23   D(1,2,10,12)         -179.4289         estimate D2E/DX2                !
 ! D24   D(1,2,10,13)          -59.4289         estimate D2E/DX2                !
 ! D25   D(3,2,10,11)          179.4345         estimate D2E/DX2                !
 ! D26   D(3,2,10,12)          -60.5655         estimate D2E/DX2                !
 ! D27   D(3,2,10,13)           59.4345         estimate D2E/DX2                !
 ! D28   D(14,2,10,11)         -60.0056         estimate D2E/DX2                !
 ! D29   D(14,2,10,12)          59.9944         estimate D2E/DX2                !
 ! D30   D(14,2,10,13)         179.9944         estimate D2E/DX2                !
 ! D31   D(1,2,14,15)          179.0498         estimate D2E/DX2                !
 ! D32   D(1,2,14,16)          -60.9502         estimate D2E/DX2                !
 ! D33   D(1,2,14,17)           59.0498         estimate D2E/DX2                !
 ! D34   D(3,2,14,15)           60.9558         estimate D2E/DX2                !
 ! D35   D(3,2,14,16)         -179.0442         estimate D2E/DX2                !
 ! D36   D(3,2,14,17)          -59.0442         estimate D2E/DX2                !
 ! D37   D(10,2,14,15)         -60.0055         estimate D2E/DX2                !
 ! D38   D(10,2,14,16)          59.9945         estimate D2E/DX2                !
 ! D39   D(10,2,14,17)         179.9945         estimate D2E/DX2                !
 ! D40   D(2,3,8,18)            61.9339         estimate D2E/DX2                !
 ! D41   D(6,3,8,18)           -57.8937         estimate D2E/DX2                !
 ! D42   D(7,3,8,18)          -178.1239         estimate D2E/DX2                !
 ! D43   D(3,8,18,9)           -63.2021         estimate D2E/DX2                !
 ! D44   D(3,8,18,19)           99.5545         estimate D2E/DX2                !
 ! D45   D(3,8,18,20)         -159.4768         estimate D2E/DX2                !
 ! D46   D(1,9,18,8)            62.7018         estimate D2E/DX2                !
 ! D47   D(1,9,18,19)          -33.518          estimate D2E/DX2                !
 ! D48   D(1,9,18,20)         -134.3827         estimate D2E/DX2                !
 ! D49   D(8,18,19,21)         167.0105         estimate D2E/DX2                !
 ! D50   D(8,18,19,22)          46.3917         estimate D2E/DX2                !
 ! D51   D(8,18,19,23)         -71.9024         estimate D2E/DX2                !
 ! D52   D(9,18,19,21)         -91.7592         estimate D2E/DX2                !
 ! D53   D(9,18,19,22)         147.6221         estimate D2E/DX2                !
 ! D54   D(9,18,19,23)          29.328          estimate D2E/DX2                !
 ! D55   D(20,18,19,21)          4.1024         estimate D2E/DX2                !
 ! D56   D(20,18,19,22)       -116.5164         estimate D2E/DX2                !
 ! D57   D(20,18,19,23)        125.1895         estimate D2E/DX2                !
 ! D58   D(8,18,20,24)         -97.3763         estimate D2E/DX2                !
 ! D59   D(8,18,20,25)         141.7546         estimate D2E/DX2                !
 ! D60   D(8,18,20,26)          23.4855         estimate D2E/DX2                !
 ! D61   D(9,18,20,24)         161.3832         estimate D2E/DX2                !
 ! D62   D(9,18,20,25)          40.514          estimate D2E/DX2                !
 ! D63   D(9,18,20,26)         -77.7551         estimate D2E/DX2                !
 ! D64   D(19,18,20,24)         -1.3604         estimate D2E/DX2                !
 ! D65   D(19,18,20,25)       -122.2296         estimate D2E/DX2                !
 ! D66   D(19,18,20,26)        119.5013         estimate D2E/DX2                !
 ! D67   D(18,19,21,24)         -5.2768         estimate D2E/DX2                !
 ! D68   D(18,19,21,27)        115.3286         estimate D2E/DX2                !
 ! D69   D(18,19,21,28)       -126.3669         estimate D2E/DX2                !
 ! D70   D(22,19,21,24)        115.3328         estimate D2E/DX2                !
 ! D71   D(22,19,21,27)       -124.0619         estimate D2E/DX2                !
 ! D72   D(22,19,21,28)         -5.7574         estimate D2E/DX2                !
 ! D73   D(23,19,21,24)       -126.3671         estimate D2E/DX2                !
 ! D74   D(23,19,21,27)         -5.7618         estimate D2E/DX2                !
 ! D75   D(23,19,21,28)        112.5428         estimate D2E/DX2                !
 ! D76   D(18,20,24,21)         -1.9007         estimate D2E/DX2                !
 ! D77   D(18,20,24,29)       -122.8844         estimate D2E/DX2                !
 ! D78   D(18,20,24,30)        118.8171         estimate D2E/DX2                !
 ! D79   D(25,20,24,21)        118.9291         estimate D2E/DX2                !
 ! D80   D(25,20,24,29)         -2.0545         estimate D2E/DX2                !
 ! D81   D(25,20,24,30)       -120.353          estimate D2E/DX2                !
 ! D82   D(26,20,24,21)       -122.7969         estimate D2E/DX2                !
 ! D83   D(26,20,24,29)        116.2194         estimate D2E/DX2                !
 ! D84   D(26,20,24,30)         -2.0791         estimate D2E/DX2                !
 ! D85   D(19,21,24,20)          4.4355         estimate D2E/DX2                !
 ! D86   D(19,21,24,29)        125.4449         estimate D2E/DX2                !
 ! D87   D(19,21,24,30)       -116.2609         estimate D2E/DX2                !
 ! D88   D(27,21,24,20)       -116.1737         estimate D2E/DX2                !
 ! D89   D(27,21,24,29)          4.8358         estimate D2E/DX2                !
 ! D90   D(27,21,24,30)        123.1299         estimate D2E/DX2                !
 ! D91   D(28,21,24,20)        125.5291         estimate D2E/DX2                !
 ! D92   D(28,21,24,29)       -113.4615         estimate D2E/DX2                !
 ! D93   D(28,21,24,30)          4.8327         estimate D2E/DX2                !
 --------------------------------------------------------------------------------
 Trust Radius=3.00D-01 FncErr=1.00D-07 GrdErr=1.00D-06
 Number of steps in this run=    180 maximum allowed number of steps=    180.
 GradGradGradGradGradGradGradGradGradGradGradGradGradGradGradGradGradGrad

                          Input orientation:                          
 ---------------------------------------------------------------------
 Center     Atomic      Atomic             Coordinates (Angstroms)
 Number     Number       Type             X           Y           Z
 ---------------------------------------------------------------------
      1          6           0        0.268924    1.218601    0.122199
      2          6           0       -1.220497    1.508098   -0.030348
      3          6           0       -1.927635    0.180774   -0.280811
      4          1           0        0.428803    0.580722    0.966266
      5          1           0        0.802028    2.135323    0.264753
      6          1           0       -1.787350   -0.470216    0.556704
      7          1           0       -2.974164    0.350256   -0.425567
      8          8           0       -1.360477   -0.414283   -1.450678
      9          8           0        0.729196    0.563327   -1.064754
     10          6           0       -1.768649    2.173615    1.245668
     11          1           0       -1.256829    3.098097    1.413819
     12          1           0       -2.815439    2.361679    1.128355
     13          1           0       -1.614538    1.523476    2.081412
     14          6           0       -1.446093    2.449503   -1.228038
     15          1           0       -2.493352    2.637024   -1.341987
     16          1           0       -0.934861    3.373690   -1.056511
     17          1           0       -1.066811    1.991890   -2.117776
     18          6           0        0.045079   -0.694036   -1.265206
     19          6           0       -0.667015   -2.019056   -1.034342
     20          6           0        1.518485   -0.989243   -1.507845
     21          6           0        0.382460   -3.121172   -1.032590
     22          1           0       -1.420699   -2.201014   -1.841554
     23          1           0       -1.222323   -2.003244   -0.063348
     24          6           0        1.721256   -2.493327   -1.392942
     25          1           0        2.152787   -0.450499   -0.759776
     26          1           0        1.828232   -0.629634   -2.521139
     27          1           0        0.438122   -3.603577   -0.024212
     28          1           0        0.113370   -3.922041   -1.765839
     29          1           0        2.487068   -2.727798   -0.611719
     30          1           0        2.099526   -2.910083   -2.360216
 ---------------------------------------------------------------------
                    Distance matrix (angstroms):
                    1          2          3          4          5
     1  C    0.000000
     2  C    1.524944   0.000000
     3  C    2.462595   1.524653   0.000000
     4  H    1.070000   2.138564   2.695916   0.000000
     5  H    1.070000   2.138013   3.401318   1.745910   0.000000
     6  H    2.696138   2.140018   1.070000   2.486673   3.684962
     7  H    3.401719   2.138257   1.070000   3.683815   4.233512
     8  O    2.791989   2.394260   1.429807   3.167519   3.757608
     9  O    1.431815   2.400811   2.796367   2.053189   2.060113
    10  C    2.515142   1.540000   2.515320   2.728401   2.751734
    11  H    2.743849   2.148263   3.439844   3.062488   2.546798
    12  H    3.439807   2.148263   2.744138   3.704482   3.726005
    13  H    2.734756   2.148263   2.735138   2.511489   3.084542
    14  C    2.505902   1.540000   2.505245   3.438393   2.716833
    15  H    3.433065   2.148263   2.734830   4.253869   3.700384
    16  H    2.735483   2.148263   3.432495   3.708353   2.509198
    17  H    2.720231   2.148263   2.719485   3.706693   3.031431
    18  C    2.373432   2.824172   2.371903   2.598407   3.304394
    19  C    3.563143   3.708795   2.645037   3.458625   4.593973
    20  C    3.015464   3.990204   3.840611   3.126247   3.663103
    21  C    4.492222   5.000410   4.099336   4.207326   5.430458
    22  H    4.290095   4.132561   2.892372   4.363778   5.308564
    23  H    3.555072   3.511498   2.305362   3.234688   4.618808
    24  C    4.264192   5.149949   4.658547   4.084859   5.001733
    25  H    2.666968   3.968276   4.156653   2.648539   3.092036
    26  H    3.582548   4.479809   4.447737   3.947829   4.057003
    27  H    4.827366   5.374037   4.470343   4.299940   5.757682
    28  H    5.478603   5.854702   4.817063   5.276246   6.425668
    29  H    4.586161   5.659227   5.297065   4.203903   5.220873
    30  H    5.153593   5.997596   5.485923   5.103187   5.833531
                    6          7          8          9         10
     6  H    0.000000
     7  H    1.745439   0.000000
     8  O    2.053029   2.058970   0.000000
     9  O    3.167071   3.764152   2.339101   0.000000
    10  C    2.732191   2.751533   3.759535   3.764348   0.000000
    11  H    3.707958   3.726018   4.533530   4.063580   1.070000
    12  H    3.066494   2.546701   4.058853   4.539630   1.070000
    13  H    2.515831   3.083824   4.036721   4.038977   1.070000
    14  C    3.438971   2.717683   2.873704   2.883784   2.509856
    15  H    3.709233   2.510043   3.256639   3.842121   2.726885
    16  H    4.254975   3.701081   3.832135   3.266083   2.726795
    17  H    3.705939   3.032578   2.514146   2.524934   3.440692
    18  C    2.593693   3.303236   1.445078   1.445392   4.221080
    19  C    2.487062   3.362615   1.797087   2.935818   4.898013
    20  C    3.931957   4.811390   2.936370   1.797158   5.328297
    21  C    3.776439   4.866848   3.246517   3.700918   6.152439
    22  H    2.980224   3.305639   1.829977   3.587066   5.365574
    23  H    1.747540   2.956199   2.113899   3.376171   4.411140
    24  C    4.494931   5.573934   3.717907   3.230329   6.397034
    25  H    4.154297   5.199859   3.580738   1.774110   5.126933
    26  H    4.750890   5.330536   3.370479   2.179929   5.914778
    27  H    3.886919   5.238089   3.929549   4.304711   6.313350
    28  H    4.574061   5.438907   3.817842   4.581406   7.054657
    29  H    4.973182   6.271693   4.567254   3.758572   6.751657
    30  H    5.437754   6.333641   4.362098   3.952290   7.335473
                   11         12         13         14         15
    11  H    0.000000
    12  H    1.747303   0.000000
    13  H    1.747303   1.747303   0.000000
    14  C    2.726885   2.726795   3.440692   0.000000
    15  H    3.055494   2.506421   3.705667   1.070000   0.000000
    16  H    2.506421   3.055222   3.705646   1.070000   1.747303
    17  H    3.705667   3.705646   4.260587   1.070000   1.747303
    18  C    4.822075   4.821731   4.344138   3.479485   4.188733
    19  C    5.703211   5.337023   4.811990   4.540099   5.010911
    20  C    5.739759   6.079566   5.386311   4.548845   5.410374
    21  C    6.881242   6.705065   5.937825   5.866364   6.443822
    22  H    6.221324   5.619948   5.412860   4.690880   4.980638
    23  H    5.311016   4.796950   4.146273   4.607986   4.978205
    24  C    6.928991   7.107012   6.271631   5.872893   6.639730
    25  H    5.379826   6.013040   5.114847   4.645559   5.608777
    26  H    6.236784   6.620456   6.137754   4.677008   5.544145
    27  H    7.060681   6.891904   5.910477   6.452848   7.019628
    28  H    7.827516   7.512617   6.887718   6.581621   7.070783
    29  H    7.215305   7.552961   6.492261   6.531008   7.356575
    30  H    7.848992   8.007402   7.292377   6.525213   7.273356
                   16         17         18         19         20
    16  H    0.000000
    17  H    1.747303   0.000000
    18  C    4.189300   3.029418   0.000000
    19  C    5.399439   4.173889   1.521858   0.000000
    20  C    5.025713   3.992859   1.522152   2.461936   0.000000
    21  C    6.627152   5.424151   2.461488   1.521861   2.462020
    22  H    5.650633   4.216868   2.179831   1.119259   3.196647
    23  H    5.475439   4.495104   2.182841   1.118680   3.259877
    24  C    6.449034   5.330654   2.462384   2.461171   1.522035
    25  H    4.924028   4.263243   2.181102   3.238370   1.119014
    26  H    5.080002   3.926368   2.182006   3.219831   1.118940
    27  H    7.185609   6.160932   3.187472   2.179999   3.194228
    28  H    7.404703   6.040800   3.267310   2.182989   3.262241
    29  H    7.009679   6.097026   3.244464   3.260240   2.182607
    30  H    7.098800   5.840702   3.214135   3.194623   2.180315
                   21         22         23         24         25
    21  C    0.000000
    22  H    2.180022   0.000000
    23  H    2.182778   1.800134   0.000000
    24  C    1.521977   3.187253   3.266903   0.000000
    25  H    3.215740   4.123633   3.779868   2.181804   0.000000
    26  H    3.242498   3.672414   4.151316   2.181198   1.799952
    27  H    1.119213   2.953834   2.306442   2.180024   3.663746
    28  H    1.118685   2.306737   2.892115   2.183019   4.150059
    29  H    2.182029   4.130453   3.819067   1.118819   2.306460
    30  H    2.180703   3.628191   4.139159   1.119104   2.934928
                   26         27         28         29         30
    26  H    0.000000
    27  H    4.124486   0.000000
    28  H    3.788294   1.800041   0.000000
    29  H    2.912429   2.304416   2.897008   0.000000
    30  H    2.302161   2.949256   2.306981   1.800183   0.000000
 Stoichiometry    C10H18O2
 Framework group  C1[X(C10H18O2)]
 Deg. of freedom    84
 Full point group                 C1      NOp   1
 Largest Abelian subgroup         C1      NOp   1
 Largest concise Abelian subgroup C1      NOp   1
                         Standard orientation:                         
 ---------------------------------------------------------------------
 Center     Atomic      Atomic             Coordinates (Angstroms)
 Number     Number       Type             X           Y           Z
 ---------------------------------------------------------------------
      1          6           0        1.071491   -1.092708    0.691884
      2          6           0        1.964442    0.019040    0.151414
      3          6           0        1.105032    1.268392   -0.007012
      4          1           0        0.689903   -0.815427    1.652303
      5          1           0        1.636014   -1.997147    0.782467
      6          1           0        0.719688    1.568363    0.945052
      7          1           0        1.693604    2.062640   -0.416467
      8          8           0        0.021317    0.957140   -0.886235
      9          8           0       -0.018094   -1.283881   -0.217155
     10          6           0        3.127701    0.289897    1.123559
     11          1           0        3.715615   -0.597476    1.232309
     12          1           0        3.739545    1.077946    0.736873
     13          1           0        2.736180    0.577413    2.076945
     14          6           0        2.535900   -0.393843   -1.217733
     15          1           0        3.148421    0.395246   -1.601212
     16          1           0        3.124760   -1.280197   -1.105837
     17          1           0        1.731571   -0.583452   -1.897442
     18          6           0       -0.815556   -0.084193   -0.335310
     19          6           0       -1.539420    1.220411   -0.035172
     20          6           0       -1.813703   -1.222185   -0.175243
     21          6           0       -2.954574    0.879829    0.409128
     22          1           0       -1.563596    1.869966   -0.946344
     23          1           0       -1.003752    1.792924    0.762784
     24          6           0       -3.144299   -0.622562    0.256678
     25          1           0       -1.449546   -1.956429    0.586642
     26          1           0       -1.930588   -1.778996   -1.138740
     27          1           0       -3.111958    1.185482    1.474232
     28          1           0       -3.704978    1.435690   -0.206801
     29          1           0       -3.483883   -1.074701    1.222084
     30          1           0       -3.934868   -0.840374   -0.504868
 ---------------------------------------------------------------------
 Rotational constants (GHZ):      2.0696487      0.6508633      0.5901350
 Standard basis: 6-311+G(d,p) (5D, 7F)
 There are   384 symmetry adapted cartesian basis functions of A   symmetry.
 There are   372 symmetry adapted basis functions of A   symmetry.
   372 basis functions,   576 primitive gaussians,   384 cartesian basis functions
    47 alpha electrons       47 beta electrons
       nuclear repulsion energy       819.3867059045 Hartrees.
 NAtoms=   30 NActive=   30 NUniq=   30 SFac= 1.00D+00 NAtFMM=   60 NAOKFM=F Big=F
 Integral buffers will be    131072 words long.
 Raffenetti 2 integral format.
 Two-electron integral symmetry is turned on.
 One-electron integrals computed using PRISM.
 NBasis=   372 RedAO= T EigKep=  3.73D-06  NBF=   372
 NBsUse=   372 1.00D-06 EigRej= -1.00D+00 NBFU=   372
 ExpMin= 4.38D-02 ExpMax= 8.59D+03 ExpMxC= 1.30D+03 IAcc=2 IRadAn=         4 AccDes= 0.00D+00
 Harris functional with IExCor=  402 and IRadAn=       4 diagonalized for initial guess.
 HarFok:  IExCor=  402 AccDes= 0.00D+00 IRadAn=         4 IDoV= 1 UseB2=F ITyADJ=14
 ICtDFT=  3500011 ScaDFX=  1.000000  1.000000  1.000000  1.000000
 FoFCou: FMM=F IPFlag=           0 FMFlag=      100000 FMFlg1=           0
         NFxFlg=           0 DoJE=T BraDBF=F KetDBF=T FulRan=T
         wScrn=  0.000000 ICntrl=     500 IOpCl=  0 I1Cent=   200000004 NGrid=           0
         NMat0=    1 NMatS0=      1 NMatT0=    0 NMatD0=    1 NMtDS0=    0 NMtDT0=    0
 Petite list used in FoFCou.
 Requested convergence on RMS density matrix=1.00D-08 within 128 cycles.
 Requested convergence on MAX density matrix=1.00D-06.
 Requested convergence on             energy=1.00D-06.
 No special actions if energy rises.
 SCF Done:  E(RB3LYP) =  -542.160166820     A.U. after   15 cycles
            NFock= 15  Conv=0.38D-08     -V/T= 2.0018

 **********************************************************************

            Population analysis using the SCF density.

 **********************************************************************

 Orbital symmetries:
       Occupied  (A) (A) (A) (A) (A) (A) (A) (A) (A) (A) (A) (A)
                 (A) (A) (A) (A) (A) (A) (A) (A) (A) (A) (A) (A)
                 (A) (A) (A) (A) (A) (A) (A) (A) (A) (A) (A) (A)
                 (A) (A) (A) (A) (A) (A) (A) (A) (A) (A) (A)
       Virtual   (A) (A) (A) (A) (A) (A) (A) (A) (A) (A) (A) (A)
                 (A) (A) (A) (A) (A) (A) (A) (A) (A) (A) (A) (A)
                 (A) (A) (A) (A) (A) (A) (A) (A) (A) (A) (A) (A)
                 (A) (A) (A) (A) (A) (A) (A) (A) (A) (A) (A) (A)
                 (A) (A) (A) (A) (A) (A) (A) (A) (A) (A) (A) (A)
                 (A) (A) (A) (A) (A) (A) (A) (A) (A) (A) (A) (A)
                 (A) (A) (A) (A) (A) (A) (A) (A) (A) (A) (A) (A)
                 (A) (A) (A) (A) (A) (A) (A) (A) (A) (A) (A) (A)
                 (A) (A) (A) (A) (A) (A) (A) (A) (A) (A) (A) (A)
                 (A) (A) (A) (A) (A) (A) (A) (A) (A) (A) (A) (A)
                 (A) (A) (A) (A) (A) (A) (A) (A) (A) (A) (A) (A)
                 (A) (A) (A) (A) (A) (A) (A) (A) (A) (A) (A) (A)
                 (A) (A) (A) (A) (A) (A) (A) (A) (A) (A) (A) (A)
                 (A) (A) (A) (A) (A) (A) (A) (A) (A) (A) (A) (A)
                 (A) (A) (A) (A) (A) (A) (A) (A) (A) (A) (A) (A)
                 (A) (A) (A) (A) (A) (A) (A) (A) (A) (A) (A) (A)
                 (A) (A) (A) (A) (A) (A) (A) (A) (A) (A) (A) (A)
                 (A) (A) (A) (A) (A) (A) (A) (A) (A) (A) (A) (A)
                 (A) (A) (A) (A) (A) (A) (A) (A) (A) (A) (A) (A)
                 (A) (A) (A) (A) (A) (A) (A) (A) (A) (A) (A) (A)
                 (A) (A) (A) (A) (A) (A) (A) (A) (A) (A) (A) (A)
                 (A) (A) (A) (A) (A) (A) (A) (A) (A) (A) (A) (A)
                 (A) (A) (A) (A) (A) (A) (A) (A) (A) (A) (A) (A)
                 (A) (A) (A) (A) (A) (A) (A) (A) (A) (A) (A) (A)
                 (A) (A) (A) (A) (A) (A) (A) (A) (A) (A) (A) (A)
                 (A) (A) (A) (A) (A) (A) (A) (A) (A) (A) (A) (A)
                 (A) (A) (A) (A) (A) (A) (A) (A) (A) (A) (A) (A)
                 (A)
 The electronic state is 1-A.
 Alpha  occ. eigenvalues --  -19.14455 -19.11982 -10.26771 -10.22154 -10.21414
 Alpha  occ. eigenvalues --  -10.18600 -10.17095 -10.17056 -10.16386 -10.14857
 Alpha  occ. eigenvalues --  -10.14819 -10.14455  -1.09894  -1.03629  -0.85209
 Alpha  occ. eigenvalues --   -0.80832  -0.74110  -0.72405  -0.69955  -0.67602
 Alpha  occ. eigenvalues --   -0.65981  -0.60431  -0.57340  -0.54051  -0.51115
 Alpha  occ. eigenvalues --   -0.50103  -0.48854  -0.47976  -0.47305  -0.44460
 Alpha  occ. eigenvalues --   -0.44012  -0.42606  -0.41303  -0.40594  -0.39461
 Alpha  occ. eigenvalues --   -0.39123  -0.38315  -0.36662  -0.35123  -0.33949
 Alpha  occ. eigenvalues --   -0.33768  -0.32655  -0.31815  -0.30098  -0.25841
 Alpha  occ. eigenvalues --   -0.24410  -0.18872
 Alpha virt. eigenvalues --   -0.04772  -0.00358   0.01092   0.01787   0.02075
 Alpha virt. eigenvalues --    0.03212   0.03622   0.03666   0.04082   0.04729
 Alpha virt. eigenvalues --    0.05278   0.06015   0.06278   0.06478   0.07251
 Alpha virt. eigenvalues --    0.08010   0.08572   0.09497   0.09651   0.10038
 Alpha virt. eigenvalues --    0.10420   0.11068   0.11622   0.12530   0.12806
 Alpha virt. eigenvalues --    0.12854   0.13401   0.13928   0.14575   0.15234
 Alpha virt. eigenvalues --    0.15800   0.16648   0.16783   0.17227   0.17680
 Alpha virt. eigenvalues --    0.17954   0.18640   0.18980   0.19466   0.19821
 Alpha virt. eigenvalues --    0.20404   0.20552   0.20843   0.21468   0.21980
 Alpha virt. eigenvalues --    0.22276   0.23075   0.23460   0.24051   0.24100
 Alpha virt. eigenvalues --    0.24218   0.25231   0.25401   0.25751   0.26362
 Alpha virt. eigenvalues --    0.26839   0.27101   0.28128   0.28646   0.28721
 Alpha virt. eigenvalues --    0.29569   0.30378   0.30780   0.31687   0.32345
 Alpha virt. eigenvalues --    0.33045   0.33698   0.34466   0.35602   0.35845
 Alpha virt. eigenvalues --    0.36966   0.37525   0.38371   0.39198   0.40381
 Alpha virt. eigenvalues --    0.41477   0.42543   0.43222   0.43606   0.44235
 Alpha virt. eigenvalues --    0.44968   0.47010   0.47625   0.48306   0.49811
 Alpha virt. eigenvalues --    0.50487   0.51560   0.51951   0.52356   0.53806
 Alpha virt. eigenvalues --    0.55826   0.57508   0.58042   0.58628   0.59834
 Alpha virt. eigenvalues --    0.60340   0.61655   0.62690   0.63795   0.65066
 Alpha virt. eigenvalues --    0.65784   0.66052   0.67055   0.67745   0.68350
 Alpha virt. eigenvalues --    0.68885   0.69444   0.69742   0.70884   0.71413
 Alpha virt. eigenvalues --    0.71991   0.72015   0.72873   0.73168   0.73860
 Alpha virt. eigenvalues --    0.74916   0.75068   0.75743   0.76460   0.78576
 Alpha virt. eigenvalues --    0.78886   0.79299   0.80586   0.81065   0.82362
 Alpha virt. eigenvalues --    0.84623   0.86371   0.90559   0.92407   0.98502
 Alpha virt. eigenvalues --    0.99669   1.01036   1.02512   1.04551   1.05641
 Alpha virt. eigenvalues --    1.08270   1.09322   1.11768   1.15060   1.17253
 Alpha virt. eigenvalues --    1.17360   1.20161   1.23977   1.26863   1.27474
 Alpha virt. eigenvalues --    1.28524   1.31915   1.32833   1.33850   1.36183
 Alpha virt. eigenvalues --    1.37179   1.38078   1.40469   1.42793   1.43605
 Alpha virt. eigenvalues --    1.44634   1.46247   1.47172   1.47646   1.49230
 Alpha virt. eigenvalues --    1.49638   1.51527   1.52728   1.52941   1.53906
 Alpha virt. eigenvalues --    1.55322   1.56347   1.57502   1.58432   1.59117
 Alpha virt. eigenvalues --    1.59685   1.60971   1.61076   1.62251   1.63734
 Alpha virt. eigenvalues --    1.64212   1.64804   1.66123   1.66462   1.67652
 Alpha virt. eigenvalues --    1.69548   1.71529   1.72295   1.73606   1.74551
 Alpha virt. eigenvalues --    1.76063   1.77062   1.78214   1.79522   1.80207
 Alpha virt. eigenvalues --    1.80755   1.81842   1.82702   1.83624   1.87060
 Alpha virt. eigenvalues --    1.88016   1.88944   1.90265   1.92530   1.95335
 Alpha virt. eigenvalues --    1.96528   1.98538   2.00176   2.00745   2.03249
 Alpha virt. eigenvalues --    2.04400   2.06037   2.08859   2.09392   2.10308
 Alpha virt. eigenvalues --    2.11680   2.15074   2.15822   2.16948   2.17954
 Alpha virt. eigenvalues --    2.19692   2.21815   2.23080   2.23925   2.24419
 Alpha virt. eigenvalues --    2.26953   2.31790   2.34912   2.38478   2.39540
 Alpha virt. eigenvalues --    2.41004   2.41691   2.43887   2.44313   2.46384
 Alpha virt. eigenvalues --    2.47934   2.48815   2.50300   2.52284   2.53168
 Alpha virt. eigenvalues --    2.54735   2.55441   2.56327   2.56821   2.56965
 Alpha virt. eigenvalues --    2.57892   2.59492   2.60245   2.60967   2.62422
 Alpha virt. eigenvalues --    2.64230   2.64759   2.65795   2.66991   2.68426
 Alpha virt. eigenvalues --    2.73022   2.73903   2.74921   2.75653   2.77718
 Alpha virt. eigenvalues --    2.78539   2.80337   2.84577   2.86014   2.86759
 Alpha virt. eigenvalues --    2.87756   2.89493   2.91744   2.92337   2.96539
 Alpha virt. eigenvalues --    2.98660   3.00291   3.03269   3.04189   3.06318
 Alpha virt. eigenvalues --    3.07246   3.13029   3.17407   3.19169   3.20378
 Alpha virt. eigenvalues --    3.23737   3.25620   3.26959   3.30639   3.31239
 Alpha virt. eigenvalues --    3.35533   3.37960   3.40067   3.48567   3.51756
 Alpha virt. eigenvalues --    3.60049   3.68266   3.76850   3.82757   3.83727
 Alpha virt. eigenvalues --    3.84105   3.87318   3.90695   3.91876   3.93255
 Alpha virt. eigenvalues --    3.93610   3.96418   4.07915   4.11265   4.11952
 Alpha virt. eigenvalues --    4.16049   4.16620   4.30051   4.31911   4.32894
 Alpha virt. eigenvalues --    4.34068   4.56723   5.22667   5.29300   5.31263
 Alpha virt. eigenvalues --    5.46615   5.64031   5.77068  23.72712  23.82964
 Alpha virt. eigenvalues --   23.85336  23.89493  23.90264  23.91012  23.93963
 Alpha virt. eigenvalues --   23.97845  24.01993  24.04364  49.99779  50.04277
          Condensed to atoms (all electrons):
               1          2          3          4          5          6
     1  C    6.425866  -0.619952   0.463994   0.312740   0.424365   0.003675
     2  C   -0.619952   7.820897  -0.657926   0.059366  -0.055903  -0.042703
     3  C    0.463994  -0.657926   6.500694  -0.029180   0.015359   0.289926
     4  H    0.312740   0.059366  -0.029180   0.568965  -0.032723  -0.002464
     5  H    0.424365  -0.055903   0.015359  -0.032723   0.537956   0.000364
     6  H    0.003675  -0.042703   0.289926  -0.002464   0.000364   0.617951
     7  H    0.010771   0.016481   0.417715  -0.000301  -0.000435  -0.038510
     8  O    0.004072  -0.082191   0.292452   0.006141  -0.002564  -0.101253
     9  O    0.204083  -0.403323   0.012489  -0.069441  -0.050644   0.018057
    10  C    0.072426  -0.244705  -0.027131  -0.022636  -0.017511  -0.001645
    11  H   -0.023652  -0.031188   0.038941  -0.000791   0.003781  -0.000429
    12  H    0.034533  -0.026270  -0.011896  -0.000502  -0.000387  -0.000689
    13  H   -0.035070   0.019716  -0.043014   0.002847  -0.000356   0.003784
    14  C   -0.602978   0.098598  -0.485186   0.037346   0.007471   0.051199
    15  H    0.036470  -0.012403  -0.002376  -0.000509  -0.000283   0.000092
    16  H   -0.018389  -0.032841   0.036556   0.000211   0.002194  -0.000473
    17  H   -0.010860  -0.041847  -0.021996  -0.000201  -0.000336  -0.000258
    18  C   -0.489709   0.340664  -0.387854   0.026992   0.005986   0.208639
    19  C   -0.187002   0.240886   0.035938   0.012353  -0.005643  -0.144966
    20  C    0.382599  -0.318413  -0.062365  -0.035638   0.016078   0.038907
    21  C    0.101665  -0.126993  -0.042783   0.007948  -0.000382  -0.024499
    22  H    0.001264  -0.001944   0.011982  -0.000263  -0.000009   0.008139
    23  H    0.000217   0.027221  -0.023920   0.001007  -0.000285   0.009168
    24  C   -0.065632   0.083372  -0.032235   0.005845  -0.003266  -0.001078
    25  H   -0.008325   0.025651   0.006628   0.011528  -0.002952  -0.000595
    26  H   -0.002494  -0.006750  -0.001623  -0.000464   0.000408   0.000175
    27  H   -0.002877   0.001997   0.004490  -0.000018  -0.000001   0.000316
    28  H   -0.001094   0.000447  -0.003709  -0.000009   0.000001   0.000155
    29  H    0.000123   0.001160   0.000463  -0.000073  -0.000002  -0.000021
    30  H   -0.003521   0.002278  -0.000269   0.000040  -0.000006  -0.000009
               7          8          9         10         11         12
     1  C    0.010771   0.004072   0.204083   0.072426  -0.023652   0.034533
     2  C    0.016481  -0.082191  -0.403323  -0.244705  -0.031188  -0.026270
     3  C    0.417715   0.292452   0.012489  -0.027131   0.038941  -0.011896
     4  H   -0.000301   0.006141  -0.069441  -0.022636  -0.000791  -0.000502
     5  H   -0.000435  -0.002564  -0.050644  -0.017511   0.003781  -0.000387
     6  H   -0.038510  -0.101253   0.018057  -0.001645  -0.000429  -0.000689
     7  H    0.524593  -0.046821  -0.001053  -0.042210  -0.000499   0.003573
     8  O   -0.046821   8.745639  -0.097496  -0.033843  -0.000746   0.000243
     9  O   -0.001053  -0.097496   8.988113  -0.032668  -0.000310  -0.000884
    10  C   -0.042210  -0.033843  -0.032668   6.190294   0.420807   0.404126
    11  H   -0.000499  -0.000746  -0.000310   0.420807   0.531199  -0.025441
    12  H    0.003573   0.000243  -0.000884   0.404126  -0.025441   0.534631
    13  H   -0.000841  -0.001657  -0.001029   0.409519  -0.027575  -0.028490
    14  C   -0.006583  -0.000848   0.088262  -0.607824  -0.029644  -0.025833
    15  H    0.001316  -0.002887   0.000956   0.001535  -0.000435   0.002143
    16  H   -0.000226   0.001072  -0.005263   0.026290   0.002194  -0.000279
    17  H    0.000243   0.001404   0.003296  -0.005188   0.000148   0.000082
    18  C   -0.026884  -0.524530  -0.219681   0.061363   0.000258  -0.000969
    19  C    0.030091  -0.060374  -0.218472  -0.122828  -0.000337   0.001822
    20  C   -0.013764  -0.151960  -0.134232   0.067053   0.000233  -0.000395
    21  C    0.001156   0.272296   0.055659  -0.041304   0.000247   0.000059
    22  H   -0.001390  -0.190669   0.008514   0.002489  -0.000005   0.000006
    23  H    0.003050  -0.019389  -0.011064   0.013754   0.000004   0.000003
    24  C    0.001318   0.026120   0.084889   0.003449  -0.000193   0.000014
    25  H   -0.000019   0.006578  -0.221174   0.004147  -0.000001  -0.000010
    26  H   -0.000008  -0.007382   0.016029   0.000596   0.000000   0.000000
    27  H   -0.000005  -0.004265   0.000540   0.000135   0.000000   0.000000
    28  H    0.000007  -0.004631   0.000388   0.000053   0.000000   0.000000
    29  H    0.000000  -0.000099  -0.001617   0.000237   0.000000   0.000000
    30  H   -0.000002  -0.000253  -0.004288   0.000024   0.000000   0.000000
              13         14         15         16         17         18
     1  C   -0.035070  -0.602978   0.036470  -0.018389  -0.010860  -0.489709
     2  C    0.019716   0.098598  -0.012403  -0.032841  -0.041847   0.340664
     3  C   -0.043014  -0.485186  -0.002376   0.036556  -0.021996  -0.387854
     4  H    0.002847   0.037346  -0.000509   0.000211  -0.000201   0.026992
     5  H   -0.000356   0.007471  -0.000283   0.002194  -0.000336   0.005986
     6  H    0.003784   0.051199   0.000092  -0.000473  -0.000258   0.208639
     7  H   -0.000841  -0.006583   0.001316  -0.000226   0.000243  -0.026884
     8  O   -0.001657  -0.000848  -0.002887   0.001072   0.001404  -0.524530
     9  O   -0.001029   0.088262   0.000956  -0.005263   0.003296  -0.219681
    10  C    0.409519  -0.607824   0.001535   0.026290  -0.005188   0.061363
    11  H   -0.027575  -0.029644  -0.000435   0.002194   0.000148   0.000258
    12  H   -0.028490  -0.025833   0.002143  -0.000279   0.000082  -0.000969
    13  H    0.542583   0.024166  -0.000040   0.000079  -0.000564   0.003994
    14  C    0.024166   6.448901   0.354324   0.365759   0.448528   0.076357
    15  H   -0.000040   0.354324   0.542276  -0.027102  -0.023058  -0.009985
    16  H    0.000079   0.365759  -0.027102   0.542054  -0.025603  -0.006558
    17  H   -0.000564   0.448528  -0.023058  -0.025603   0.490771   0.012310
    18  C    0.003994   0.076357  -0.009985  -0.006558   0.012310  10.066213
    19  C   -0.004898   0.045261   0.009195  -0.002712  -0.001351  -1.166031
    20  C    0.001260  -0.117924  -0.004358   0.007080   0.001697  -1.126665
    21  C   -0.000101   0.013845   0.000685   0.000147  -0.002546  -0.852460
    22  H    0.000015   0.000711  -0.000012   0.000004  -0.000095   0.135185
    23  H   -0.000034  -0.005827  -0.000022   0.000003  -0.000070  -0.018940
    24  C   -0.000249  -0.013775  -0.000096  -0.000040   0.000708  -0.352679
    25  H    0.000006  -0.004437   0.000003  -0.000024   0.000028   0.124258
    26  H   -0.000001   0.003039  -0.000002   0.000012   0.000002  -0.098125
    27  H    0.000000   0.000301   0.000000   0.000000   0.000000   0.007106
    28  H    0.000000   0.000361   0.000000   0.000000  -0.000003   0.036437
    29  H   -0.000001  -0.000234   0.000000   0.000000   0.000001   0.038673
    30  H    0.000000   0.000075   0.000000   0.000000   0.000001   0.027569
              19         20         21         22         23         24
     1  C   -0.187002   0.382599   0.101665   0.001264   0.000217  -0.065632
     2  C    0.240886  -0.318413  -0.126993  -0.001944   0.027221   0.083372
     3  C    0.035938  -0.062365  -0.042783   0.011982  -0.023920  -0.032235
     4  H    0.012353  -0.035638   0.007948  -0.000263   0.001007   0.005845
     5  H   -0.005643   0.016078  -0.000382  -0.000009  -0.000285  -0.003266
     6  H   -0.144966   0.038907  -0.024499   0.008139   0.009168  -0.001078
     7  H    0.030091  -0.013764   0.001156  -0.001390   0.003050   0.001318
     8  O   -0.060374  -0.151960   0.272296  -0.190669  -0.019389   0.026120
     9  O   -0.218472  -0.134232   0.055659   0.008514  -0.011064   0.084889
    10  C   -0.122828   0.067053  -0.041304   0.002489   0.013754   0.003449
    11  H   -0.000337   0.000233   0.000247  -0.000005   0.000004  -0.000193
    12  H    0.001822  -0.000395   0.000059   0.000006   0.000003   0.000014
    13  H   -0.004898   0.001260  -0.000101   0.000015  -0.000034  -0.000249
    14  C    0.045261  -0.117924   0.013845   0.000711  -0.005827  -0.013775
    15  H    0.009195  -0.004358   0.000685  -0.000012  -0.000022  -0.000096
    16  H   -0.002712   0.007080   0.000147   0.000004   0.000003  -0.000040
    17  H   -0.001351   0.001697  -0.002546  -0.000095  -0.000070   0.000708
    18  C   -1.166031  -1.126665  -0.852460   0.135185  -0.018940  -0.352679
    19  C    8.368677  -1.720808  -0.343817   0.461926   0.440314   0.406837
    20  C   -1.720808   8.804014   0.598081   0.029291  -0.010859  -0.473149
    21  C   -0.343817   0.598081   6.965322  -0.195946  -0.123426  -0.415701
    22  H    0.461926   0.029291  -0.195946   0.579299  -0.017846   0.012933
    23  H    0.440314  -0.010859  -0.123426  -0.017846   0.572646   0.030880
    24  C    0.406837  -0.473149  -0.415701   0.012933   0.030880   6.262004
    25  H    0.038786   0.393102  -0.009434  -0.000588   0.000540  -0.087664
    26  H   -0.013169   0.520137   0.017641   0.000570  -0.000346  -0.074795
    27  H    0.008245  -0.026849   0.385097   0.008354  -0.012510  -0.034492
    28  H   -0.128469   0.020533   0.494334  -0.005768   0.003593  -0.073541
    29  H    0.002040  -0.104335  -0.072821  -0.000627  -0.000064   0.480165
    30  H    0.016254  -0.086645  -0.062203  -0.000335  -0.000244   0.458283
              25         26         27         28         29         30
     1  C   -0.008325  -0.002494  -0.002877  -0.001094   0.000123  -0.003521
     2  C    0.025651  -0.006750   0.001997   0.000447   0.001160   0.002278
     3  C    0.006628  -0.001623   0.004490  -0.003709   0.000463  -0.000269
     4  H    0.011528  -0.000464  -0.000018  -0.000009  -0.000073   0.000040
     5  H   -0.002952   0.000408  -0.000001   0.000001  -0.000002  -0.000006
     6  H   -0.000595   0.000175   0.000316   0.000155  -0.000021  -0.000009
     7  H   -0.000019  -0.000008  -0.000005   0.000007   0.000000  -0.000002
     8  O    0.006578  -0.007382  -0.004265  -0.004631  -0.000099  -0.000253
     9  O   -0.221174   0.016029   0.000540   0.000388  -0.001617  -0.004288
    10  C    0.004147   0.000596   0.000135   0.000053   0.000237   0.000024
    11  H   -0.000001   0.000000   0.000000   0.000000   0.000000   0.000000
    12  H   -0.000010   0.000000   0.000000   0.000000   0.000000   0.000000
    13  H    0.000006  -0.000001   0.000000   0.000000  -0.000001   0.000000
    14  C   -0.004437   0.003039   0.000301   0.000361  -0.000234   0.000075
    15  H    0.000003  -0.000002   0.000000   0.000000   0.000000   0.000000
    16  H   -0.000024   0.000012   0.000000   0.000000   0.000000   0.000000
    17  H    0.000028   0.000002   0.000000  -0.000003   0.000001   0.000001
    18  C    0.124258  -0.098125   0.007106   0.036437   0.038673   0.027569
    19  C    0.038786  -0.013169   0.008245  -0.128469   0.002040   0.016254
    20  C    0.393102   0.520137  -0.026849   0.020533  -0.104335  -0.086645
    21  C   -0.009434   0.017641   0.385097   0.494334  -0.072821  -0.062203
    22  H   -0.000588   0.000570   0.008354  -0.005768  -0.000627  -0.000335
    23  H    0.000540  -0.000346  -0.012510   0.003593  -0.000064  -0.000244
    24  C   -0.087664  -0.074795  -0.034492  -0.073541   0.480165   0.458283
    25  H    0.616728  -0.030023  -0.000215  -0.000694  -0.009227   0.008260
    26  H   -0.030023   0.524479  -0.000308   0.000136   0.004632  -0.014002
    27  H   -0.000215  -0.000308   0.566301  -0.030563  -0.015900   0.006302
    28  H   -0.000694   0.000136  -0.030563   0.556506   0.005298  -0.015263
    29  H   -0.009227   0.004632  -0.015900   0.005298   0.560002  -0.031898
    30  H    0.008260  -0.014002   0.006302  -0.015263  -0.031898   0.555338
 Mulliken charges:
               1
     1  C   -0.407306
     2  C   -0.033382
     3  C   -0.294167
     4  H    0.141883
     5  H    0.159726
     6  H    0.109045
     7  H    0.169236
     8  O   -0.022163
     9  O   -0.008638
    10  C   -0.478804
    11  H    0.143437
    12  H    0.140812
    13  H    0.135949
    14  C   -0.163412
    15  H    0.134573
    16  H    0.135857
    17  H    0.174755
    18  C    0.109069
    19  C    0.002252
    20  C   -0.491705
    21  C   -0.599767
    22  H    0.154813
    23  H    0.142443
    24  C   -0.228232
    25  H    0.139139
    26  H    0.161635
    27  H    0.138818
    28  H    0.145494
    29  H    0.144127
    30  H    0.144513
 Sum of Mulliken charges =   0.00000
 Mulliken charges with hydrogens summed into heavy atoms:
               1
     1  C   -0.105697
     2  C   -0.033382
     3  C   -0.015885
     8  O   -0.022163
     9  O   -0.008638
    10  C   -0.058606
    14  C    0.281773
    18  C    0.109069
    19  C    0.299508
    20  C   -0.190932
    21  C   -0.315455
    24  C    0.060408
 Electronic spatial extent (au):  <R**2>=           2174.8712
 Charge=              0.0000 electrons
 Dipole moment (field-independent basis, Debye):
    X=              1.9053    Y=              0.2341    Z=              1.5598  Tot=              2.4735
 Quadrupole moment (field-independent basis, Debye-Ang):
   XX=            -77.3182   YY=            -76.5577   ZZ=            -77.6071
   XY=              0.7395   XZ=              1.8759   YZ=             -0.3123
 Traceless Quadrupole moment (field-independent basis, Debye-Ang):
   XX=             -0.1572   YY=              0.6033   ZZ=             -0.4461
   XY=              0.7395   XZ=              1.8759   YZ=             -0.3123
 Octapole moment (field-independent basis, Debye-Ang**2):
  XXX=             22.5917  YYY=              0.4789  ZZZ=             -0.8576  XYY=             10.2774
  XXY=             -0.6654  XXZ=             -7.4153  XZZ=             -2.0862  YZZ=             -2.5470
  YYZ=              0.1069  XYZ=             -1.0984
 Hexadecapole moment (field-independent basis, Debye-Ang**3):
 XXXX=          -2226.1359 YYYY=           -551.7478 ZZZZ=           -348.5423 XXXY=              3.0769
 XXXZ=             15.7590 YYYX=              1.3606 YYYZ=             -9.4768 ZZZX=              2.5665
 ZZZY=              1.5098 XXYY=           -447.8918 XXZZ=           -421.7469 YYZZ=           -149.7756
 XXYZ=            -12.0833 YYXZ=              3.0581 ZZXY=              2.6833
 N-N= 8.193867059045D+02 E-N=-2.902829193245D+03  KE= 5.412004168660D+02
 There are a total of      247810 grid points.
 ElSum from          density=       93.9999088914
 ElSum from atomic densities=       93.9997699530

 Hirshfeld populations at iteration   1 (CX, CA, CB, DipXYZ):
               1          2          3          4          5          6
     1  C    0.000000   2.997479   2.997479  -0.053582  -0.033318  -0.040806
     2  C    0.000000   2.999527   2.999527   0.021472   0.002166   0.008333
     3  C    0.000000   2.989390   2.989390  -0.049958   0.015443  -0.049842
     4  H    0.000000   0.483885   0.483885  -0.043489   0.030933   0.130394
     5  H    0.000001   0.479227   0.479227   0.076806  -0.126995   0.014456
     6  H    0.000000   0.485093   0.485093  -0.030479   0.047999   0.120542
     7  H    0.000001   0.474415   0.474415   0.087513   0.118055  -0.051931
     8  O    0.000000   4.071555   4.071555  -0.010504  -0.023146   0.146505
     9  O    0.000000   4.044778   4.044778   0.008827   0.037732   0.068513
    10  C    0.000000   3.050444   3.050444  -0.000543  -0.001466  -0.006960
    11  H    0.000000   0.480890   0.480890   0.082457  -0.122768   0.015065
    12  H    0.000000   0.481057   0.481057   0.085176   0.109051  -0.053761
    13  H    0.000000   0.483659   0.483659  -0.051817   0.038696   0.128899
    14  C    0.000000   3.054452   3.054452   0.012589   0.000194   0.004580
    15  H    0.000001   0.483345   0.483345   0.083470   0.107413  -0.054663
    16  H    0.000001   0.483875   0.483875   0.079260  -0.121542   0.012393
    17  H    0.000001   0.484741   0.484741  -0.084925  -0.034710  -0.105633
    18  C    0.000000   2.931806   2.931806   0.101604  -0.007998  -0.044938
    19  C    0.000000   3.036140   3.036140  -0.025957  -0.012245  -0.021843
    20  C    0.000000   3.034307   3.034307  -0.011241   0.027723   0.018606
    21  C    0.000000   3.041229   3.041229   0.007705  -0.022353  -0.014456
    22  H    0.000001   0.484715   0.484715  -0.019394   0.090834  -0.102884
    23  H    0.000000   0.486613   0.486613   0.051708   0.073534   0.100278
    24  C    0.000000   3.038053   3.038053   0.016800   0.014766  -0.001913
    25  H    0.000000   0.486563   0.486563   0.033908  -0.095795   0.096919
    26  H    0.000001   0.483771   0.483771  -0.020104  -0.062734  -0.127501
    27  H    0.000001   0.489252   0.489252  -0.011440   0.031843   0.128114
    28  H    0.000001   0.486888   0.486888  -0.087539   0.062902  -0.083320
    29  H    0.000000   0.486300   0.486300  -0.036598  -0.051657   0.121886
    30  H    0.000001   0.486504   0.486504  -0.091277  -0.022375  -0.099668
       Tot   0.000009  46.999954  46.999954   0.120448   0.070180   0.255364

 Dip from Atomic Chgs              0.629067   0.022525   0.358339
         Total Dipole              0.749515   0.092705   0.613702

 Hirshfeld charges, spin densities, dipoles, and CM5 charges using IRadAn=      4:
              Q-H        S-H        Dx         Dy         Dz        Q-CM5   
     1  C    0.005042   0.000000  -0.053582  -0.033318  -0.040806  -0.079355
     2  C    0.000946   0.000000   0.021472   0.002166   0.008333  -0.030562
     3  C    0.021221   0.000000  -0.049958   0.015443  -0.049842  -0.064845
     4  H    0.032230   0.000000  -0.043489   0.030933   0.130394   0.101401
     5  H    0.041546   0.000000   0.076806  -0.126995   0.014456   0.108561
     6  H    0.029814   0.000000  -0.030479   0.047999   0.120542   0.100107
     7  H    0.051171   0.000000   0.087513   0.118055  -0.051931   0.118300
     8  O   -0.143111   0.000000  -0.010504  -0.023146   0.146505  -0.255022
     9  O   -0.089557   0.000000   0.008827   0.037732   0.068513  -0.202595
    10  C   -0.100888   0.000000  -0.000543  -0.001466  -0.006960  -0.256398
    11  H    0.038220   0.000000   0.082457  -0.122768   0.015065   0.093786
    12  H    0.037885   0.000000   0.085176   0.109051  -0.053761   0.093452
    13  H    0.032683   0.000000  -0.051817   0.038696   0.128899   0.088329
    14  C   -0.108905   0.000000   0.012589   0.000194   0.004580  -0.262156
    15  H    0.033311   0.000000   0.083470   0.107413  -0.054663   0.089519
    16  H    0.032249   0.000000   0.079260  -0.121542   0.012393   0.088447
    17  H    0.030519   0.000000  -0.084925  -0.034710  -0.105633   0.093550
    18  C    0.136388   0.000000   0.101604  -0.007998  -0.044938   0.160240
    19  C   -0.072281   0.000000  -0.025957  -0.012245  -0.021843  -0.161410
    20  C   -0.068615   0.000000  -0.011241   0.027723   0.018606  -0.156369
    21  C   -0.082458   0.000000   0.007705  -0.022353  -0.014456  -0.184507
    22  H    0.030569   0.000000  -0.019394   0.090834  -0.102884   0.102255
    23  H    0.026774   0.000000   0.051708   0.073534   0.100278   0.090772
    24  C   -0.076106   0.000000   0.016800   0.014766  -0.001913  -0.178100
    25  H    0.026875   0.000000   0.033908  -0.095795   0.096919   0.101836
    26  H    0.032458   0.000000  -0.020104  -0.062734  -0.127501   0.092559
    27  H    0.021496   0.000000  -0.011440   0.031843   0.128114   0.073080
    28  H    0.026224   0.000000  -0.087539   0.062902  -0.083320   0.077733
    29  H    0.027399   0.000000  -0.036598  -0.051657   0.121886   0.078946
    30  H    0.026992   0.000000  -0.091277  -0.022375  -0.099668   0.078538
       Tot   0.000091   0.000000   0.120448   0.070180   0.255364   0.000091
 Hirshfeld charges with hydrogens summed into heavy atoms:
              Q-H       Q-CM5   
     1  C    0.078817   0.130607
     2  C    0.000946  -0.030562
     3  C    0.102205   0.153563
     8  O   -0.143111  -0.255022
     9  O   -0.089557  -0.202595
    10  C    0.007900   0.019168
    14  C   -0.012827   0.009359
    18  C    0.136388   0.160240
    19  C   -0.014937   0.031618
    20  C   -0.009282   0.038026
    21  C   -0.034738  -0.033694
    24  C   -0.021714  -0.020617
 
 EQQ= 0.000000000000E+00 EQD= 0.000000000000E+00 EDD=-0.363852353651E-02
 EQQ+QD+DD=-0.363852353651E-02
 
          MBS Condensed to atoms (all electrons):
               1          2          3          4          5          6
     1  C    4.777410   0.366679  -0.028725   0.370837   0.372970  -0.003610
     2  C    0.366679   4.779222   0.362076  -0.027609  -0.025123  -0.028538
     3  C   -0.028725   0.362076   4.754658  -0.003044   0.001691   0.360866
     4  H    0.370837  -0.027609  -0.003044   0.618684  -0.025745   0.001490
     5  H    0.372970  -0.025123   0.001691  -0.025745   0.593029   0.000046
     6  H   -0.003610  -0.028538   0.360866   0.001490   0.000046   0.636990
     7  H    0.001658  -0.024962   0.379032  -0.000037  -0.000058  -0.026083
     8  O   -0.000946  -0.019109   0.273684  -0.000259  -0.000054  -0.023563
     9  O    0.237571  -0.018908  -0.002196  -0.019031  -0.016719  -0.000020
    10  C   -0.023314   0.360398  -0.023323  -0.001626  -0.002017  -0.001776
    11  H   -0.002560  -0.021805   0.001496  -0.000081   0.001172  -0.000025
    12  H    0.001511  -0.022122  -0.002563  -0.000023  -0.000012   0.000000
    13  H   -0.002587  -0.022860  -0.002643   0.001259  -0.000035   0.001343
    14  C   -0.026946   0.366307  -0.026825   0.001576  -0.002914   0.001580
    15  H    0.001611  -0.022746  -0.002599  -0.000057   0.000022   0.000035
    16  H   -0.002628  -0.022810   0.001626   0.000037   0.001111  -0.000051
    17  H   -0.002855  -0.022291  -0.002565   0.000075  -0.000068   0.000086
    18  C   -0.032187  -0.007665  -0.026640  -0.004861   0.002346   0.001647
    19  C   -0.001114   0.000366  -0.013532   0.000352   0.000018  -0.005306
    20  C    0.004847   0.000232   0.000473  -0.000123  -0.000224  -0.000145
    21  C    0.000007   0.000003   0.000099  -0.000027   0.000000  -0.000264
    22  H   -0.000033  -0.000061   0.001480  -0.000003   0.000001   0.001056
    23  H    0.000224   0.000010  -0.010512   0.000148  -0.000011   0.004391
    24  C   -0.000174   0.000002  -0.000018  -0.000011   0.000002  -0.000003
    25  H    0.002323  -0.000076  -0.000020   0.001489  -0.000424   0.000001
    26  H    0.000182  -0.000017   0.000002  -0.000032   0.000036   0.000006
    27  H   -0.000002  -0.000001   0.000015   0.000008   0.000000   0.000035
    28  H    0.000000   0.000000  -0.000007   0.000000   0.000000   0.000006
    29  H    0.000017   0.000000   0.000001  -0.000008  -0.000001   0.000000
    30  H    0.000001   0.000000   0.000000   0.000001   0.000000   0.000000
               7          8          9         10         11         12
     1  C    0.001658  -0.000946   0.237571  -0.023314  -0.002560   0.001511
     2  C   -0.024962  -0.019109  -0.018908   0.360398  -0.021805  -0.022122
     3  C    0.379032   0.273684  -0.002196  -0.023323   0.001496  -0.002563
     4  H   -0.000037  -0.000259  -0.019031  -0.001626  -0.000081  -0.000023
     5  H   -0.000058  -0.000054  -0.016719  -0.002017   0.001172  -0.000012
     6  H   -0.026083  -0.023563  -0.000020  -0.001776  -0.000025   0.000000
     7  H    0.572193  -0.016990  -0.000041  -0.001766  -0.000029   0.001219
     8  O   -0.016990   8.146546  -0.017735   0.000330  -0.000009   0.000006
     9  O   -0.000041  -0.017735   8.090946   0.000317   0.000004  -0.000009
    10  C   -0.001766   0.000330   0.000317   4.865643   0.381957   0.381323
    11  H   -0.000029  -0.000009   0.000004   0.381957   0.591835  -0.022620
    12  H    0.001219   0.000006  -0.000009   0.381323  -0.022620   0.594104
    13  H   -0.000075   0.000003   0.000004   0.379057  -0.022853  -0.022773
    14  C   -0.003033  -0.002322  -0.002254  -0.026305  -0.002627  -0.002569
    15  H    0.000997   0.000084   0.000025  -0.002613  -0.000065   0.001083
    16  H    0.000022   0.000036   0.000091  -0.002652   0.001067  -0.000051
    17  H   -0.000134   0.002257   0.002028   0.001645   0.000017   0.000021
    18  C    0.001833   0.188088   0.214704   0.000033  -0.000002   0.000003
    19  C    0.000341  -0.076496   0.001575  -0.000003   0.000000   0.000000
    20  C   -0.000007   0.002214  -0.094503   0.000000   0.000000   0.000000
    21  C   -0.000003   0.003227   0.000236   0.000000   0.000000   0.000000
    22  H   -0.000273  -0.038055   0.000223   0.000001   0.000000   0.000000
    23  H    0.000299  -0.008246  -0.000472   0.000005   0.000000  -0.000001
    24  C    0.000001   0.000240   0.002579   0.000000   0.000000   0.000000
    25  H    0.000000   0.000180  -0.041058   0.000002   0.000000   0.000000
    26  H    0.000000  -0.000351  -0.002539   0.000000   0.000000   0.000000
    27  H    0.000000  -0.000057  -0.000005   0.000000   0.000000   0.000000
    28  H    0.000000  -0.000040  -0.000002   0.000000   0.000000   0.000000
    29  H    0.000000  -0.000002  -0.000012   0.000000   0.000000   0.000000
    30  H    0.000000  -0.000005  -0.000037   0.000000   0.000000   0.000000
              13         14         15         16         17         18
     1  C   -0.002587  -0.026946   0.001611  -0.002628  -0.002855  -0.032187
     2  C   -0.022860   0.366307  -0.022746  -0.022810  -0.022291  -0.007665
     3  C   -0.002643  -0.026825  -0.002599   0.001626  -0.002565  -0.026640
     4  H    0.001259   0.001576  -0.000057   0.000037   0.000075  -0.004861
     5  H   -0.000035  -0.002914   0.000022   0.001111  -0.000068   0.002346
     6  H    0.001343   0.001580   0.000035  -0.000051   0.000086   0.001647
     7  H   -0.000075  -0.003033   0.000997   0.000022  -0.000134   0.001833
     8  O    0.000003  -0.002322   0.000084   0.000036   0.002257   0.188088
     9  O    0.000004  -0.002254   0.000025   0.000091   0.002028   0.214704
    10  C    0.379057  -0.026305  -0.002613  -0.002652   0.001645   0.000033
    11  H   -0.022853  -0.002627  -0.000065   0.001067   0.000017  -0.000002
    12  H   -0.022773  -0.002569   0.001083  -0.000051   0.000021   0.000003
    13  H    0.603823   0.001674   0.000025   0.000026  -0.000067   0.000006
    14  C    0.001674   4.867697   0.380544   0.379491   0.377666   0.000042
    15  H    0.000025   0.380544   0.602708  -0.022620  -0.021854  -0.000002
    16  H    0.000026   0.379491  -0.022620   0.605019  -0.021828  -0.000003
    17  H   -0.000067   0.377666  -0.021854  -0.021828   0.572418  -0.000169
    18  C    0.000006   0.000042  -0.000002  -0.000003  -0.000169   4.954123
    19  C    0.000000   0.000000   0.000000   0.000001   0.000032   0.336509
    20  C    0.000000  -0.000007   0.000000  -0.000001  -0.000036   0.321257
    21  C    0.000000   0.000000   0.000000   0.000000  -0.000001  -0.043550
    22  H    0.000000  -0.000003   0.000000   0.000000   0.000013  -0.012710
    23  H   -0.000003  -0.000002   0.000000   0.000000   0.000002  -0.021211
    24  C    0.000000   0.000000   0.000000   0.000000   0.000000  -0.040784
    25  H    0.000000  -0.000002   0.000000   0.000000   0.000010  -0.015872
    26  H    0.000000   0.000000   0.000000   0.000000   0.000013  -0.024083
    27  H    0.000000   0.000000   0.000000   0.000000   0.000000   0.001602
    28  H    0.000000   0.000000   0.000000   0.000000   0.000000   0.001277
    29  H    0.000000   0.000000   0.000000   0.000000   0.000000   0.001080
    30  H    0.000000   0.000000   0.000000   0.000000   0.000000   0.001583
              19         20         21         22         23         24
     1  C   -0.001114   0.004847   0.000007  -0.000033   0.000224  -0.000174
     2  C    0.000366   0.000232   0.000003  -0.000061   0.000010   0.000002
     3  C   -0.013532   0.000473   0.000099   0.001480  -0.010512  -0.000018
     4  H    0.000352  -0.000123  -0.000027  -0.000003   0.000148  -0.000011
     5  H    0.000018  -0.000224   0.000000   0.000001  -0.000011   0.000002
     6  H   -0.005306  -0.000145  -0.000264   0.001056   0.004391  -0.000003
     7  H    0.000341  -0.000007  -0.000003  -0.000273   0.000299   0.000001
     8  O   -0.076496   0.002214   0.003227  -0.038055  -0.008246   0.000240
     9  O    0.001575  -0.094503   0.000236   0.000223  -0.000472   0.002579
    10  C   -0.000003   0.000000   0.000000   0.000001   0.000005   0.000000
    11  H    0.000000   0.000000   0.000000   0.000000   0.000000   0.000000
    12  H    0.000000   0.000000   0.000000   0.000000  -0.000001   0.000000
    13  H    0.000000   0.000000   0.000000   0.000000  -0.000003   0.000000
    14  C    0.000000  -0.000007   0.000000  -0.000003  -0.000002   0.000000
    15  H    0.000000   0.000000   0.000000   0.000000   0.000000   0.000000
    16  H    0.000001  -0.000001   0.000000   0.000000   0.000000   0.000000
    17  H    0.000032  -0.000036  -0.000001   0.000013   0.000002   0.000000
    18  C    0.336509   0.321257  -0.043550  -0.012710  -0.021211  -0.040784
    19  C    4.881866  -0.052379   0.349444   0.383309   0.366965  -0.033216
    20  C   -0.052379   4.874429  -0.031486  -0.000777   0.002225   0.352485
    21  C    0.349444  -0.031486   4.878679  -0.034762  -0.022258   0.365624
    22  H    0.383309  -0.000777  -0.034762   0.616615  -0.018316   0.001108
    23  H    0.366965   0.002225  -0.022258  -0.018316   0.635463   0.001282
    24  C   -0.033216   0.352485   0.365624   0.001108   0.001282   4.859719
    25  H    0.000049   0.393790   0.001183   0.000001  -0.000046  -0.031626
    26  H    0.002377   0.361149   0.001209   0.000010  -0.000029  -0.019212
    27  H   -0.021516   0.001149   0.366968   0.002377  -0.007097  -0.022306
    28  H   -0.022153   0.001268   0.370746  -0.005126   0.001401  -0.021938
    29  H    0.001297  -0.022406  -0.021652  -0.000049  -0.000035   0.373369
    30  H    0.001224  -0.020952  -0.021631  -0.000086  -0.000020   0.368693
              25         26         27         28         29         30
     1  C    0.002323   0.000182  -0.000002   0.000000   0.000017   0.000001
     2  C   -0.000076  -0.000017  -0.000001   0.000000   0.000000   0.000000
     3  C   -0.000020   0.000002   0.000015  -0.000007   0.000001   0.000000
     4  H    0.001489  -0.000032   0.000008   0.000000  -0.000008   0.000001
     5  H   -0.000424   0.000036   0.000000   0.000000  -0.000001   0.000000
     6  H    0.000001   0.000006   0.000035   0.000006   0.000000   0.000000
     7  H    0.000000   0.000000   0.000000   0.000000   0.000000   0.000000
     8  O    0.000180  -0.000351  -0.000057  -0.000040  -0.000002  -0.000005
     9  O   -0.041058  -0.002539  -0.000005  -0.000002  -0.000012  -0.000037
    10  C    0.000002   0.000000   0.000000   0.000000   0.000000   0.000000
    11  H    0.000000   0.000000   0.000000   0.000000   0.000000   0.000000
    12  H    0.000000   0.000000   0.000000   0.000000   0.000000   0.000000
    13  H    0.000000   0.000000   0.000000   0.000000   0.000000   0.000000
    14  C   -0.000002   0.000000   0.000000   0.000000   0.000000   0.000000
    15  H    0.000000   0.000000   0.000000   0.000000   0.000000   0.000000
    16  H    0.000000   0.000000   0.000000   0.000000   0.000000   0.000000
    17  H    0.000010   0.000013   0.000000   0.000000   0.000000   0.000000
    18  C   -0.015872  -0.024083   0.001602   0.001277   0.001080   0.001583
    19  C    0.000049   0.002377  -0.021516  -0.022153   0.001297   0.001224
    20  C    0.393790   0.361149   0.001149   0.001268  -0.022406  -0.020952
    21  C    0.001183   0.001209   0.366968   0.370746  -0.021652  -0.021631
    22  H    0.000001   0.000010   0.002377  -0.005126  -0.000049  -0.000086
    23  H   -0.000046  -0.000029  -0.007097   0.001401  -0.000035  -0.000020
    24  C   -0.031626  -0.019212  -0.022306  -0.021938   0.373369   0.368693
    25  H    0.616174  -0.021672  -0.000061  -0.000047  -0.006006   0.002302
    26  H   -0.021672   0.619418  -0.000021  -0.000009   0.001456  -0.007796
    27  H   -0.000061  -0.000021   0.649234  -0.023453  -0.007722   0.001957
    28  H   -0.000047  -0.000009  -0.023453   0.639388   0.001640  -0.007538
    29  H   -0.006006   0.001456  -0.007722   0.001640   0.636465  -0.023953
    30  H    0.002302  -0.007796   0.001957  -0.007538  -0.023953   0.638424
 MBS Mulliken charges:
               1
     1  C   -0.010163
     2  C    0.051407
     3  C    0.008010
     4  H    0.086618
     5  H    0.100962
     6  H    0.079808
     7  H    0.115897
     8  O   -0.412657
     9  O   -0.334762
    10  C   -0.285318
    11  H    0.095129
    12  H    0.093475
    13  H    0.086675
    14  C   -0.280769
    15  H    0.085421
    16  H    0.084118
    17  H    0.115586
    18  C    0.203605
    19  C   -0.100011
    20  C   -0.092471
    21  C   -0.161792
    22  H    0.104061
    23  H    0.075843
    24  C   -0.155815
    25  H    0.099407
    26  H    0.089903
    27  H    0.058894
    28  H    0.064585
    29  H    0.066521
    30  H    0.067831
 Sum of MBS Mulliken charges =   0.00000
 MBS Mulliken charges with hydrogens summed into heavy atoms:
               1
     1  C    0.177418
     2  C    0.051407
     3  C    0.203714
     8  O   -0.412657
     9  O   -0.334762
    10  C   -0.010039
    14  C    0.004356
    18  C    0.203605
    19  C    0.079893
    20  C    0.096840
    21  C   -0.038313
    24  C   -0.021463
 Breneman (CHELPG) radii used.
 Generate Potential Derived Charges using the Breneman model, NDens= 1.
 Grid spacing= 0.300 Box extension= 2.800
 NStep X,Y,Z=   46     34     33   Total possible points=       51612
 Number of Points to Fit=   15622

 **********************************************************************

            Electrostatic Properties Using The SCF Density

 **********************************************************************

       Atomic Center    1 is at   1.071491 -1.092708  0.691884
       Atomic Center    2 is at   1.964442  0.019040  0.151414
       Atomic Center    3 is at   1.105032  1.268392 -0.007012
       Atomic Center    4 is at   0.689903 -0.815427  1.652303
       Atomic Center    5 is at   1.636014 -1.997147  0.782467
       Atomic Center    6 is at   0.719688  1.568363  0.945052
       Atomic Center    7 is at   1.693604  2.062640 -0.416467
       Atomic Center    8 is at   0.021317  0.957140 -0.886235
       Atomic Center    9 is at  -0.018094 -1.283881 -0.217155
       Atomic Center   10 is at   3.127701  0.289897  1.123559
       Atomic Center   11 is at   3.715615 -0.597476  1.232309
       Atomic Center   12 is at   3.739545  1.077946  0.736873
       Atomic Center   13 is at   2.736180  0.577413  2.076945
       Atomic Center   14 is at   2.535900 -0.393843 -1.217733
       Atomic Center   15 is at   3.148421  0.395246 -1.601212
       Atomic Center   16 is at   3.124760 -1.280197 -1.105837
       Atomic Center   17 is at   1.731571 -0.583452 -1.897442
       Atomic Center   18 is at  -0.815556 -0.084193 -0.335310
       Atomic Center   19 is at  -1.539420  1.220411 -0.035172
       Atomic Center   20 is at  -1.813703 -1.222185 -0.175243
       Atomic Center   21 is at  -2.954574  0.879829  0.409128
       Atomic Center   22 is at  -1.563596  1.869966 -0.946344
[...]
 0000120,0.00000045,-0.00001481,-0.00000639,0.00001731,0.00006807,-0.00
 004193,-0.00003519,-0.00001512,-0.00000214,0.00001008,-0.00000665,0.00
 001166,0.00001873,-0.00000982,-0.00003729,0.00001854,0.01139736,-0.019
 94249,-0.01270547,0.00472875,-0.00143724,-0.01570552,-0.00274194,-0.17
 333121,-0.00249540,-0.00798667,-0.07497820,0.02116430,-0.00048662,0.00
 026563,0.00016683,0.00231847,-0.00334869,-0.00012346,-0.02514586,0.461
 04487,-0.00041299,-0.00016807,-0.00056865,-0.00007268,0.00006329,-0.00
 013935,0.00007453,-0.00012377,0.00026569,0.00014792,-0.00002962,-0.000
 18221,0.00012703,-0.00012282,-0.00016205,-0.00000290,0.00005804,-0.000
 01721,0.00006362,0.00000265,-0.00002103,0.00016432,0.00007168,-0.00037
 151,0.00246637,-0.00169183,-0.00375524,0.00003114,-0.00004201,0.000075
 19,-0.00000745,0.00001179,-0.00000306,0.00003603,-0.00000842,-0.000005
 27,-0.00001154,0.00000193,0.00000349,0.00008016,-0.00000048,-0.0000381
 2,0.00000429,-0.00001339,0.00001343,-0.00001088,0.00001741,0.00001460,
 -0.00001683,-0.00002364,-0.00002265,-0.00074549,-0.01668848,-0.0001381
 3,0.01288728,-0.00762450,-0.02047883,-0.00371995,0.00223666,-0.0747671
 5,0.01278043,0.01454423,-0.16683608,-0.00078040,0.00054746,0.00069757,
 0.00159265,-0.00008723,0.00017063,0.00220340,0.07467558,0.48672743,0.0
 0027235,0.00039696,0.00031352,-0.00013164,-0.00017386,-0.00023765,0.00
 002081,-0.00024104,-0.00098440,0.00017754,-0.00005470,-0.00026074,-0.0
 0000322,-0.00000110,0.00003551,-0.00007572,-0.00000541,0.00012571,-0.0
 0023427,0.00020168,0.00018780,-0.00350501,0.00206046,0.00334423,0.0020
 6938,-0.00139230,-0.00249056,0.00020922,0.00007971,0.00016060,-0.00003
 320,0.00005224,0.00005974,0.00005987,-0.00004710,-0.00003590,-0.000007
 72,-0.00000524,-0.00002418,0.00003213,0.00004353,0.00010438,0.00003944
 ,-0.00003901,0.00000220,0.00000950,0.00005589,0.00000865,-0.00007648,0
 .00000238,-0.00005469,-0.02045898,-0.00826120,-0.00803310,-0.00019767,
 0.00097391,0.00154596,-0.25603801,-0.08113197,-0.06523655,-0.00009258,
 0.00007196,-0.00001615,0.00009171,0.00016782,-0.00011337,-0.00016714,-
 0.00050665,0.00033335,0.00304871,0.00126134,0.00056622,0.27769083,0.00
 028467,-0.00011671,-0.00013384,0.00012363,0.00010799,0.00008175,0.0004
 0690,-0.00022770,0.00022545,-0.00010127,-0.00000726,0.00006039,-0.0000
 4870,0.00003187,-0.00000446,0.00003381,0.00001095,-0.00006025,0.000141
 98,-0.00010368,-0.00008998,0.00235264,-0.00150571,-0.00159071,0.000994
 01,-0.00046208,-0.00055531,-0.00005360,-0.00004691,-0.00004833,0.00001
 158,-0.00001940,-0.00002867,-0.00002305,0.00001669,0.00000054,0.000000
 87,0.00000218,0.00000991,0.00000153,-0.00002189,-0.00007500,-0.0000302
 4,0.00001966,0.00000886,-0.00000105,-0.00003156,-0.00000572,0.00006278
 ,-0.00001748,0.00004297,0.00841695,0.00338643,0.00309436,0.00016548,-0
 .00044564,0.00005329,-0.08340967,-0.07611547,-0.02348716,-0.00026411,0
 .00075482,-0.00080051,0.00012035,-0.00012805,-0.00006880,-0.00008168,0
 .00015544,-0.00000531,-0.02981847,-0.01401698,-0.01105520,0.08793771,0
 .08770428,0.00021055,-0.00015166,-0.00000092,0.00004919,0.00008203,0.0
 0024038,0.00059151,-0.00044881,0.00070521,-0.00009521,0.00003309,0.000
 12678,-0.00003041,0.00002152,0.00005806,-0.00005907,0.00004745,0.00002
 734,0.00018291,-0.00015483,-0.00015725,0.00173916,-0.00104065,-0.00179
 973,0.00033429,-0.00000028,0.00065559,-0.00003914,0.00002167,-0.000072
 78,0.00000235,-0.00000901,-0.00001044,-0.00004218,0.00001932,0.0000006
 8,0.00001202,0.00000067,-0.00000307,-0.00002822,-0.00000184,0.00000927
 ,-0.00000366,0.00001292,-0.00001916,-0.00000281,-0.00001341,0.00000692
 ,-0.00001194,-0.00000824,0.00000033,0.02012889,0.00827297,0.00518317,-
 0.00022870,-0.00109039,-0.00139119,-0.06886216,-0.02357029,-0.07021973
 ,0.00025876,0.00028539,0.00045123,-0.00010633,-0.00012640,0.00012945,0
 .00015152,0.00049923,-0.00031473,0.00015288,-0.00135831,-0.00092862,0.
 07146829,0.03003279,0.07260638,0.00034497,0.00031221,0.00023231,0.0002
 4583,-0.00000237,-0.00006079,-0.00021171,0.00007924,0.00026951,0.00002
 552,-0.00003824,-0.00006065,-0.00009532,0.00009530,0.00005461,0.000115
 02,-0.00001615,-0.00018134,0.00005999,-0.00003591,-0.00004815,0.001046
 51,-0.00048566,0.00005160,-0.00062351,0.00001456,-0.00006825,-0.000060
 75,-0.00007681,-0.00000557,0.00000881,-0.00003149,-0.00004056,-0.00000
 475,0.00000749,0.00000056,0.00000078,0.00000718,0.00000733,-0.00002012
 ,-0.00001871,-0.00004263,-0.00001646,0.00001906,0.00000583,-0.00000087
 ,-0.00003452,-0.00002111,0.00005352,0.00004361,0.00002250,0.00386504,-
 0.00868600,0.02032769,-0.00195494,-0.00006929,0.00155303,-0.06170625,0
 .02616533,-0.06067104,-0.00047665,0.00011749,0.00121767,-0.00023687,-0
 .00042710,0.00034914,-0.00024441,-0.00040822,0.00032626,-0.00065301,-0
 .00109815,0.00032067,-0.00550755,0.01187111,-0.02582936,0.06499766,-0.
 00008604,-0.00053214,0.00022712,0.00003275,0.00005198,-0.00014070,-0.0
 0003092,0.00002609,-0.00021113,-0.00000538,0.00004351,0.00000165,0.000
 06959,-0.00008194,-0.00010390,0.00004656,-0.00002028,0.00001933,0.0000
 0326,0.00004618,0.00002505,-0.00016243,-0.00005983,-0.00046991,0.00109
 518,-0.00080067,-0.00082286,0.00003937,-0.00004709,0.00004462,-0.00000
 042,0.00000661,0.00000342,0.00002573,-0.00000568,-0.00001485,-0.000006
 98,0.00000134,0.00000656,0.00007413,-0.00000620,-0.00005710,-0.0000060
 5,-0.00000480,0.00001564,-0.00002101,0.00001545,0.00002378,0.00000660,
 -0.00006398,-0.00004277,-0.00357639,0.00365218,-0.00859886,0.00107842,
 -0.00090663,-0.00014311,0.02456340,-0.08620761,0.09167195,-0.00053460,
 -0.00623071,-0.00024441,-0.00004621,0.00020345,-0.00010134,-0.00006907
 ,0.00010642,0.00003986,0.00654760,-0.00894483,0.02835818,-0.00188587,0
 .00509213,-0.01076699,-0.02703881,0.09351975,-0.00036921,-0.00025006,0
 .00009094,-0.00015703,0.00002513,-0.00013832,0.00018005,-0.00039157,0.
 00028910,-0.00001311,0.00003378,0.00005660,0.00012414,-0.00014002,-0.0
 0011842,-0.00029997,0.00005299,0.00025827,0.00003179,-0.00000492,-0.00
 001748,-0.00272780,0.00052738,0.00199412,0.00158971,-0.00147654,-0.001
 12102,0.00012854,0.00000450,0.00011700,-0.00002386,0.00003386,0.000025
 50,0.00004698,-0.00002417,-0.00001960,-0.00002735,-0.00000495,0.000011
 06,0.00014627,-0.00002010,-0.00006926,-0.00000873,-0.00001883,0.000034
 50,-0.00002019,0.00003762,0.00003694,-0.00002868,-0.00007891,-0.000016
 51,-0.00671640,0.00966581,-0.01865415,0.00134023,-0.00029588,-0.000984
 67,-0.05533523,0.09108025,-0.26079306,0.00080093,-0.00084665,-0.000042
 24,0.00023089,0.00041072,-0.00031145,0.00023753,0.00039289,-0.00031677
 ,0.00090559,-0.00198437,0.00455963,-0.00164482,0.00270505,-0.00659013,
 0.06130082,-0.10011604,0.28085603,-0.00001668,0.00005298,0.00005941,-0
 .00001583,-0.00003176,-0.00009107,-0.00000751,-0.00030472,-0.00002599,
 -0.00005867,-0.00002424,-0.00003432,0.00001136,0.00005091,0.00000572,0
 .00012463,-0.00000077,-0.00010871,0.00001847,0.00005329,-0.00003034,0.
 00012956,0.00062790,-0.00018877,0.00063831,0.00047165,0.00035845,0.000
 04115,0.00000500,0.00002606,-0.00000169,0.00002766,0.00001590,0.000006
 84,-0.00000915,-0.00000629,-0.00000297,-0.00000730,-0.00001853,0.00003
 376,0.00002804,0.00004773,-0.00000008,-0.00001205,0.00000393,0.0000101
 2,0.00003523,0.00000199,-0.00001179,-0.00001471,-0.00000459,-0.0010218
 1,-0.00130463,0.00002488,-0.02140011,-0.00320097,-0.01080892,0.0001088
 0,0.00045008,-0.00011813,-0.21958487,-0.03616887,-0.11315524,-0.002009
 71,0.00407860,0.00117870,0.00120859,-0.00055763,0.00041633,0.00643661,
 0.00099683,0.00452552,0.00004355,0.00019643,-0.00011653,0.00010749,0.0
 0020254,-0.00001293,0.24084464,0.00020634,-0.00015077,-0.00020255,-0.0
 0000944,0.00000389,0.00008949,0.00011744,0.00009468,-0.00009011,0.0000
 0609,-0.00002771,0.00004527,0.00000006,-0.00000682,0.00000540,-0.00008
 369,0.00000609,0.00008967,-0.00003533,-0.00001856,0.00002205,-0.000286
 98,-0.00021785,0.00016876,-0.00034681,0.00010032,-0.00015799,-0.000022
 96,0.00000799,-0.00002831,0.00000410,-0.00000778,-0.00000346,-0.000012
 96,0.00000821,0.00000487,0.00000186,-0.00000125,0.00000849,-0.00002360
 ,-0.00002411,-0.00003205,-0.00000842,0.00000994,-0.00000463,-0.0000019
 2,-0.00001514,0.00000510,0.00000669,-0.00000471,0.00001213,0.00069340,
 0.00095173,-0.00001552,0.01880625,0.00305765,0.01096305,0.00031570,0.0
 0050057,0.00010995,-0.03710528,-0.05849364,-0.02113154,0.00304557,-0.0
 0234445,-0.00055334,-0.00086871,0.00142151,0.00020618,0.00454474,0.000
 35557,0.00197116,-0.00018265,0.00000353,0.00024191,-0.00010696,0.00002
 238,-0.00014330,0.03664603,0.05864542,-0.00001552,0.00003574,0.0001239
 1,0.00001257,-0.00000315,0.00001207,0.00009388,-0.00000989,-0.00004283
 ,0.00003405,0.00000938,-0.00003322,-0.00000855,0.00002223,-0.00000537,
 -0.00005092,0.00000862,0.00005371,-0.00000595,-0.00001925,0.00000792,-
 0.00003528,-0.00000706,0.00009745,0.00004831,0.00005082,0.00014966,0.0
 0000300,-0.00000027,0.00000604,-0.00000059,-0.00000120,0.00000190,0.00
 000188,0.00000016,-0.00000235,0.00000158,0.00000153,0.00000127,-0.0000
 1186,-0.00000729,-0.00001577,0.00000341,0.00000145,-0.00000278,-0.0000
 0204,-0.00000316,0.00000520,-0.00000317,-0.00000258,-0.00000488,-0.000
 02215,0.00015783,-0.00030834,0.01028372,0.00141774,0.00494568,-0.00026
 915,-0.00099185,0.00099881,-0.11335703,-0.02057441,-0.11900153,0.00201
 403,-0.00197767,0.00040602,-0.00001203,0.00085415,0.00092846,-0.026903
 68,-0.00661941,-0.02035689,0.00027947,0.00082827,0.00012078,0.00043454
 ,-0.00004506,0.00011019,0.12140281,0.02488283,0.13329341,0.00017728,-0
 .00010790,-0.00014301,-0.00001343,-0.00003894,0.00002894,0.00033627,-0
 .00012916,-0.00029834,-0.00003513,-0.00006257,-0.00002794,-0.00000661,
 0.00002447,0.00000699,0.00002804,-0.00005632,0.00009872,-0.00003181,0.
 00000953,0.00001641,-0.00051876,0.00109458,-0.00117469,0.00085285,0.00
 106753,0.00003579,0.00000971,0.00001474,0.00000167,-0.00000324,0.00000
 367,0.00000666,-0.00000242,0.00000281,-0.00000196,0.00000387,-0.000001
 83,-0.00000154,-0.00001090,0.00000011,0.00000282,-0.00000232,0.0000027
 4,-0.00000321,0.00000086,0.00000356,0.00000404,-0.00000753,-0.00000467
 ,0.00000603,-0.00332056,0.00213530,0.00204893,0.00651409,0.02298852,-0
 .00513333,0.00004195,0.00066864,0.00189273,-0.07089300,-0.07520908,0.0
 1146934,0.00152737,-0.00052767,-0.00043078,0.00002088,-0.00009017,0.00
 039717,-0.00257224,-0.00521884,-0.00081812,0.00010747,0.00048700,-0.00
 008754,0.00035457,-0.00043925,-0.00015918,-0.00785907,-0.02548781,0.00
 430215,0.07491248,-0.00030917,0.00019793,0.00032441,0.00005859,0.00002
 787,-0.00007449,-0.00045384,0.00021116,0.00042035,0.00004762,0.0000496
 8,0.00001173,0.00000611,-0.00006077,-0.00003164,-0.00002106,0.00004174
 ,-0.00012644,0.00006805,-0.00005035,-0.00001403,0.00081553,-0.00113058
 ,0.00065520,-0.00021539,-0.00086483,-0.00019755,-0.00001609,-0.0000419
 9,0.00002793,-0.00000068,-0.00001726,-0.00002113,0.00002479,-0.0000103
 9,0.00000346,-0.00000598,0.00001467,-0.00000032,0.00000817,0.00000722,
 -0.00000705,0.00002022,-0.00000974,0.00001304,-0.00000834,-0.00001863,
 -0.00001538,0.00001027,0.00003116,-0.00002074,0.00216973,0.00002519,-0
 .00154950,-0.00618350,-0.01617532,0.00331021,0.00058611,0.00022249,0.0
 0119800,-0.07278787,-0.27856277,0.03591696,0.00010399,0.00136505,0.000
 43595,0.00040237,-0.00055196,-0.00036578,-0.00055933,-0.00231333,-0.00
 040721,-0.00007609,0.00011835,-0.00007246,-0.00021329,-0.00025558,-0.0
 0004428,-0.00210892,-0.00469766,0.00022855,0.07838298,0.30205144,-0.00
 002449,0.00008170,0.00007352,-0.00000900,0.00001765,-0.00000205,-0.000
 09878,0.00009805,0.00002498,-0.00001882,0.00001815,0.00003693,-0.00001
 806,0.00000409,0.00001602,-0.00004998,0.00002762,0.00000244,-0.0000089
 8,0.00001099,0.00000621,-0.00012307,-0.00040324,0.00076440,-0.00035147
 ,-0.00015197,0.00041191,0.00000021,-0.00000725,0.00000867,-0.00000065,
 -0.00000120,-0.00000132,0.00000366,-0.00000119,-0.00000163,-0.00000372
 ,0.00000096,0.00000499,0.00001941,-0.00000836,-0.00001826,-0.00000112,
 -0.00000133,0.00000500,-0.00000440,-0.00000074,0.00000473,-0.00000039,
 -0.00001000,-0.00000455,0.00208540,0.00006952,-0.00243794,-0.00333663,
 -0.00932211,0.00151088,0.00042725,0.00098630,-0.00618459,0.01036837,0.
 03439207,-0.05272268,-0.00022110,0.00076654,0.00056180,-0.00007658,-0.
 00008796,-0.00029882,0.00816625,0.02982198,-0.00205503,0.00021191,0.00
 011400,-0.00000575,0.00008928,0.00183072,0.00019618,-0.00482137,-0.016
 91903,0.00276652,-0.01207577,-0.04050218,0.05556327,0.00007959,-0.0000
 8923,-0.00007359,-0.00001676,0.00000497,0.00002696,0.00020652,-0.00014
 222,-0.00006917,-0.00000215,0.00000316,-0.00002946,-0.00000275,0.00002
 604,-0.00000080,0.00000131,0.00000596,0.00000977,-0.00000876,0.0000008
 3,-0.00001070,0.00008144,0.00025409,0.00004145,-0.00003456,0.00021340,
 0.00001969,0.00001175,0.00001681,-0.00000535,0.00000074,0.00001223,0.0
 0001287,-0.00001282,0.00000400,-0.00000404,0.00000578,-0.00000458,-0.0
 0000651,-0.00000677,0.00000016,0.00000940,-0.00001202,0.00000590,-0.00
 000824,0.00000607,0.00001460,0.00000812,-0.00000304,-0.00001901,0.0000
 0740,0.00075565,-0.00147573,-0.00047630,0.00108253,-0.00056155,0.00118
 226,0.00231414,-0.00213947,-0.00182194,-0.00287430,0.00085465,-0.00051
 577,0.00032887,-0.00020588,-0.00020954,-0.00015569,0.00035311,0.000026
 10,-0.24415106,0.08721333,0.07345257,0.00121660,0.00029600,0.00000646,
 -0.00010761,0.00048029,0.00019393,0.00110146,-0.00007808,0.00024792,-0
 .00030012,-0.00015152,0.00044117,0.26152473,-0.00051047,-0.00011536,0.
 00013898,0.00002519,0.00004584,-0.00005940,-0.00004589,0.00014280,0.00
 036155,0.00006822,0.00006384,-0.00009176,0.00009067,-0.00010293,-0.000
 12089,0.00006827,0.00001992,-0.00010468,0.00010114,-0.00006255,-0.0000
 4777,0.00123251,-0.00034818,-0.00060947,0.00093248,-0.00077380,-0.0014
 4025,-0.00000690,-0.00003234,0.00002664,-0.00000452,-0.00001024,-0.000
 01646,0.00002143,-0.00000339,0.00000234,-0.00000228,0.00000702,0.00000
 060,-0.00000525,0.00001038,-0.00000409,0.00001569,-0.00000769,0.000004
 98,-0.00000214,-0.00001562,-0.00001389,0.00000547,0.00003762,-0.000014
 52,-0.00139281,-0.00488976,0.00199273,-0.00007917,-0.00071402,0.001830
 05,0.02692284,-0.01035081,-0.01187734,-0.00879075,0.00348689,0.0019467
 8,0.00021764,-0.00008392,-0.00007265,-0.00014177,0.00062622,0.00006767
 ,0.08505058,-0.08475585,-0.03202655,-0.00043028,0.00193045,-0.00025314
 ,0.00016625,-0.00067465,0.00038816,0.00032765,0.00030115,-0.00069778,-
 0.00012774,-0.00013486,-0.00033586,-0.09380839,0.09178520,0.00003974,0
 .00003394,-0.00014222,-0.00004487,0.00000265,0.00003119,0.00011190,-0.
 00001174,-0.00004181,-0.00004392,-0.00003139,0.00011955,-0.00000701,-0
 .00006251,0.00003234,-0.00008761,-0.00001383,0.00005522,0.00000649,-0.
 00005045,0.00002193,0.00010069,-0.00018634,0.00024918,-0.00014787,-0.0
 0025904,0.00016216,0.00000747,0.00001246,0.00000366,-0.00000572,-0.000
 00533,-0.00000108,0.00000750,-0.00000659,0.00000396,-0.00001113,0.0000
 0042,0.00000988,0.00002129,-0.00000629,-0.00000570,0.00000521,-0.00000
 796,0.00000902,-0.00000439,-0.00000596,-0.00000319,-0.00000155,0.00000
 288,0.00000089,0.00082878,0.00115522,-0.00165739,0.00038239,0.00063418
 ,-0.00582128,-0.00299262,0.00121529,0.00073467,0.02578988,-0.01319090,
 -0.00782792,0.00026014,0.00009052,0.00001460,0.00134116,-0.00113077,-0
 .00034492,0.07076599,-0.03199190,-0.07380513,0.00030702,-0.00045207,0.
 00027651,-0.00009239,-0.00005856,-0.00017493,-0.00056042,-0.00043127,0
 .00150113,0.00009406,0.00051434,0.00012359,-0.08008484,0.03662983,0.07
 994305,-0.00013202,0.00008060,0.00009845,-0.00000318,0.00000995,-0.000
 02046,-0.00001865,0.00002909,0.00004409,0.00001851,0.00000795,-0.00000
 924,0.00000778,-0.00003006,-0.00001405,-0.00000592,0.00000329,-0.00001
 918,0.00003111,-0.00002713,0.00000264,0.00039924,0.00002126,0.00005920
 ,0.00023246,-0.00020584,-0.00019083,0.00000353,-0.00000531,0.00001271,
 -0.00000247,-0.00000247,-0.00000423,0.00001258,-0.00000683,0.00000172,
 -0.00000450,0.00000272,0.00000043,0.00000193,0.00000455,0.00000212,0.0
 0001478,-0.00000834,0.00000417,-0.00000320,-0.00000346,-0.00000258,-0.
 00000528,0.00001243,-0.00001083,-0.00041467,-0.00003729,0.00007285,0.0
 0064863,-0.00018434,-0.00007064,-0.00019469,-0.00062453,0.00071224,0.0
 0416784,0.00288202,0.00319013,0.00024332,-0.00026726,-0.00011315,0.000
 11952,-0.00006188,-0.00014969,-0.19054764,-0.06535700,-0.10492492,0.00
 144010,-0.00007359,0.00025447,0.00069507,-0.00035598,0.00028708,0.0011
 2545,0.00026734,0.00153459,0.00068945,0.00040655,-0.00056852,-0.021028
 78,-0.00989765,-0.01598536,0.20250970,-0.00002792,0.00017442,0.0000100
 5,-0.00004527,-0.00000658,-0.00003802,0.00023332,-0.00015084,-0.000017
 62,0.00008191,-0.00003998,-0.00008545,0.00001183,-0.00001552,-0.000010
 11,-0.00001449,0.00000294,-0.00000143,0.00003614,-0.00002785,-0.000013
 20,0.00047032,0.00013131,0.00020309,0.00054418,-0.00024554,-0.00054225
 ,0.00004815,0.00001273,0.00004348,-0.00001032,0.00001148,0.00001203,0.
 00001971,-0.00001294,-0.00000634,-0.00000409,0.00000071,-0.00000589,0.
 00000599,0.00001418,0.00003556,0.00002072,-0.00001550,-0.00000016,0.00
 000120,0.00001503,0.00000251,-0.00002556,0.00000791,-0.00002496,-0.001
 83392,-0.00001117,0.00040007,-0.00000667,-0.00018130,-0.00048811,-0.02
 608972,-0.01411089,-0.01758530,0.00752481,0.00268654,0.00661998,-0.000
 02361,0.00019764,-0.00021785,0.00014200,-0.00005120,0.00001633,-0.0645
 2446,-0.07803563,-0.05244684,0.00112888,-0.00606824,-0.00050425,-0.000
 11116,0.00205513,0.00048246,-0.00050512,0.00051980,0.00246072,0.000615
 77,0.00053206,-0.00048794,0.00891616,0.00461866,0.00761116,0.07342121,
 0.08799265,-0.00005305,0.00001847,0.00002331,-0.00002272,-0.00000259,0
 .00000200,0.00005609,-0.00001402,-0.00003114,-0.00002018,0.00002141,0.
 00000731,0.00000334,0.00000328,-0.00000156,-0.00000138,-0.00001128,-0.
 00001898,0.00000357,-0.00001482,0.00000355,0.00029516,-0.00010239,0.00
 022123,0.00012747,-0.00000070,0.00009084,0.00001292,0.00000903,0.00000
 626,-0.00000195,0.00000567,0.00000480,0.00000395,-0.00000465,0.0000009
 8,-0.00000361,-0.00000098,-0.00000320,0.00000475,0.00000106,0.00001075
 ,0.00000224,-0.00000444,0.00000281,0.00000189,0.00000608,-0.00000116,-
 0.00000070,0.00000078,-0.00000210,-0.00031218,-0.00003662,-0.00032369,
 -0.00075854,0.00012939,0.00108893,0.00279957,0.00191874,0.00164508,-0.
 02488561,-0.01016235,-0.02050254,0.00071155,-0.00023855,-0.00000790,0.
 00032229,0.00032383,0.00020856,-0.10433556,-0.05296910,-0.12787543,0.0
 0007756,0.00120370,0.00091542,0.00055848,-0.00033031,0.00073194,0.0020
 3471,0.00088682,-0.00575616,-0.00005703,0.00039005,0.00165055,0.007630
 18,0.00439622,0.00653304,0.11580677,0.05457828,0.14137653\\-0.00001823
 ,0.00000886,0.00000855,0.00000633,-0.00000611,0.00000194,0.00001466,-0
 .00001347,0.00000224,0.00001024,0.00000207,-0.00000104,0.00000592,-0.0
 0000173,-0.00000844,0.00000116,-0.00000566,0.00001111,-0.00000654,-0.0
 0000410,0.00001231,-0.00003600,0.00001417,-0.00001392,-0.00000479,-0.0
 0001763,-0.00002692,-0.00000128,-0.00000165,0.00001280,0.00000367,-0.0
 0000397,0.00000732,0.00000168,-0.00000668,0.00001302,0.00000762,-0.000
 00399,0.00001031,-0.00000696,0.00000288,0.00000141,-0.00000960,-0.0000
 0376,0.00000650,-0.00000712,-0.00000130,0.00000047,-0.00001026,0.00000
 014,-0.00000134,0.00005126,-0.00000129,0.00003314,-0.00001569,0.000008
 01,0.00000817,-0.00000943,0.00000565,-0.00000954,0.00003005,-0.0000012
 4,-0.00002340,0.00000721,-0.00000178,-0.00000043,0.00000845,-0.0000013
 5,-0.00000232,-0.00001425,0.00001158,0.00000659,-0.00000465,0.00000435
 ,-0.00001140,-0.00000822,0.00000409,-0.00000579,0.00000653,0.00000794,
 -0.00000748,0.00000837,0.00000175,-0.00000447,-0.00000417,0.00000526,-
 0.00001515,-0.00000596,-0.00000105,-0.00000424\\\@


 REPARTEE - WHAT YOU THINK OF AFTER YOU BECOME A DEPARTEE.
 Job cpu time:       0 days  1 hours 55 minutes 43.7 seconds.
 File lengths (MBytes):  RWF=    361 Int=      0 D2E=      0 Chk=     12 Scr=      1
 Normal termination of Gaussian 09 at Tue Apr 23 13:28:05 2024.
