 Entering Gaussian System, Link 0=g09
 Initial command:
 /cm/shared/apps/gaussian/g09revD.01/g09/l1.exe "//home/sweav003/CHB/CHActivation_Mkhalid/OtherCharges/G09-Table9_6.com.o9447158.tmp/Gau-63719.inp" -scrdir="//home/sweav003/CHB/CHActivation_Mkhalid/OtherCharges/G09-Table9_6.com.o9447158.tmp/"
 Entering Link 1 = /cm/shared/apps/gaussian/g09revD.01/g09/l1.exe PID=     63720.
  
 Copyright (c) 1988,1990,1992,1993,1995,1998,2003,2009,2013,
            Gaussian, Inc.  All Rights Reserved.
  
 This is part of the Gaussian(R) 09 program.  It is based on
 the Gaussian(R) 03 system (copyright 2003, Gaussian, Inc.),
 the Gaussian(R) 98 system (copyright 1998, Gaussian, Inc.),
 the Gaussian(R) 94 system (copyright 1995, Gaussian, Inc.),
 the Gaussian 92(TM) system (copyright 1992, Gaussian, Inc.),
 the Gaussian 90(TM) system (copyright 1990, Gaussian, Inc.),
 the Gaussian 88(TM) system (copyright 1988, Gaussian, Inc.),
 the Gaussian 86(TM) system (copyright 1986, Carnegie Mellon
 University), and the Gaussian 82(TM) system (copyright 1983,
 Carnegie Mellon University). Gaussian is a federally registered
 trademark of Gaussian, Inc.
  
 This software contains proprietary and confidential information,
 including trade secrets, belonging to Gaussian, Inc.
  
 This software is provided under written license and may be
 used, copied, transmitted, or stored only in accord with that
 written license.
  
 The following legend is applicable only to US Government
 contracts under FAR:
  
                    RESTRICTED RIGHTS LEGEND
  
 Use, reproduction and disclosure by the US Government is
 subject to restrictions as set forth in subparagraphs (a)
 and (c) of the Commercial Computer Software - Restricted
 Rights clause in FAR 52.227-19.
  
 Gaussian, Inc.
 340 Quinnipiac St., Bldg. 40, Wallingford CT 06492
  
  
 ---------------------------------------------------------------
 Warning -- This program may not be used in any manner that
 competes with the business of Gaussian, Inc. or will provide
 assistance to any competitor of Gaussian, Inc.  The licensee
 of this program is prohibited from giving any competitor of
 Gaussian, Inc. access to this program.  By using this program,
 the user acknowledges that Gaussian, Inc. is engaged in the
 business of creating and licensing software in the field of
 computational chemistry and represents and warrants to the
 licensee that it is not a competitor of Gaussian, Inc. and that
 it will not use this program in any manner prohibited above.
 ---------------------------------------------------------------
  

 Cite this work as:
 Gaussian 09, Revision D.01,
 M. J. Frisch, G. W. Trucks, H. B. Schlegel, G. E. Scuseria, 
 M. A. Robb, J. R. Cheeseman, G. Scalmani, V. Barone, B. Mennucci, 
 G. A. Petersson, H. Nakatsuji, M. Caricato, X. Li, H. P. Hratchian, 
 A. F. Izmaylov, J. Bloino, G. Zheng, J. L. Sonnenberg, M. Hada, 
 M. Ehara, K. Toyota, R. Fukuda, J. Hasegawa, M. Ishida, T. Nakajima, 
 Y. Honda, O. Kitao, H. Nakai, T. Vreven, J. A. Montgomery, Jr., 
 J. E. Peralta, F. Ogliaro, M. Bearpark, J. J. Heyd, E. Brothers, 
 K. N. Kudin, V. N. Staroverov, T. Keith, R. Kobayashi, J. Normand, 
 K. Raghavachari, A. Rendell, J. C. Burant, S. S. Iyengar, J. Tomasi, 
 M. Cossi, N. Rega, J. M. Millam, M. Klene, J. E. Knox, J. B. Cross, 
 V. Bakken, C. Adamo, J. Jaramillo, R. Gomperts, R. E. Stratmann, 
 O. Yazyev, A. J. Austin, R. Cammi, C. Pomelli, J. W. Ochterski, 
 R. L. Martin, K. Morokuma, V. G. Zakrzewski, G. A. Voth, 
 P. Salvador, J. J. Dannenberg, S. Dapprich, A. D. Daniels, 
 O. Farkas, J. B. Foresman, J. V. Ortiz, J. Cioslowski, 
 and D. J. Fox, Gaussian, Inc., Wallingford CT, 2013.
 
 ******************************************
 Gaussian 09:  ES64L-G09RevD.01 24-Apr-2013
                23-Jul-2021 
 ******************************************
 %mem=100MW
 %nprocshared=20
 Will use up to   20 processors via shared memory.
 ---------------------------------------------------------------------
 # b3lyp/6-311+g(d,p) geom=connectivity pop=(hirshfeld,chelpg,mbs,npa)
 ---------------------------------------------------------------------
 1/38=1,57=2/1;
 2/12=2,17=6,18=5,40=1/2;
 3/5=4,6=6,7=111,11=2,16=1,25=1,30=1,74=-5/1,2,3;
 4//1;
 5/5=2,38=5/2;
 6/7=2,8=2,9=2,10=2,15=8,20=3,27=100,28=1,40=-1,79=1/1,2,7;
 99/5=1,9=1/99;
 --------
 Table9_6
 --------
 Symbolic Z-matrix:
 Charge =  0 Multiplicity = 1
 6                    -0.95296   1.0802    0.00026 
 6                    -0.94123  -0.34434  -0.00033 
 6                    -2.16136  -1.04567  -0.00042 
 6                    -3.32889  -0.31062   0.0001 
 6                    -3.33696   1.09906   0.00067 
 6                    -2.14793   1.80801   0.00077 
 6                     1.1857    0.39932  -0.00038 
 6                     0.42772  -0.75075  -0.00081 
 1                    -2.18754  -2.12782  -0.00088 
 1                    -4.28428   1.62214   0.00107 
 1                    -2.15268   2.89173   0.00127 
 1                     0.69582   2.44922   0.00091 
 1                     0.81703  -1.7558   -0.00143 
 7                     0.35154   1.50122   0.00028 
 6                     2.6344    0.6266   -0.00057 
 8                     3.13077   1.73586  -0.00007 
 8                     3.33607  -0.51871  -0.00127 
 6                     4.78151  -0.38958  -0.00114 
 6                     5.36477  -1.78697   0.00241 
 1                     5.07807   0.18291   0.88052 
 1                     5.07847   0.17842  -0.88558 
 1                     6.45636  -1.7271    0.00235 
 1                     5.05215  -2.34061   0.89049 
 1                     5.05233  -2.34514  -0.88289 
 17                   -4.8794   -1.15207  -0.00002 
 
                          Input orientation:                          
 ---------------------------------------------------------------------
 Center     Atomic      Atomic             Coordinates (Angstroms)
 Number     Number       Type             X           Y           Z
 ---------------------------------------------------------------------
      1          6           0       -0.952960    1.080197    0.000257
      2          6           0       -0.941226   -0.344340   -0.000330
      3          6           0       -2.161361   -1.045669   -0.000418
      4          6           0       -3.328891   -0.310624    0.000095
      5          6           0       -3.336962    1.099064    0.000673
      6          6           0       -2.147930    1.808010    0.000772
      7          6           0        1.185703    0.399321   -0.000381
      8          6           0        0.427716   -0.750745   -0.000814
      9          1           0       -2.187544   -2.127816   -0.000883
     10          1           0       -4.284278    1.622140    0.001070
     11          1           0       -2.152682    2.891730    0.001274
     12          1           0        0.695820    2.449216    0.000911
     13          1           0        0.817027   -1.755799   -0.001428
     14          7           0        0.351543    1.501217    0.000278
     15          6           0        2.634398    0.626598   -0.000565
     16          8           0        3.130770    1.735859   -0.000069
     17          8           0        3.336067   -0.518713   -0.001268
     18          6           0        4.781511   -0.389580   -0.001144
     19          6           0        5.364774   -1.786971    0.002410
     20          1           0        5.078069    0.182914    0.880519
     21          1           0        5.078473    0.178422   -0.885583
     22          1           0        6.456359   -1.727096    0.002353
     23          1           0        5.052155   -2.340612    0.890489
     24          1           0        5.052327   -2.345139   -0.882893
     25         17           0       -4.879402   -1.152071   -0.000024
 ---------------------------------------------------------------------
                    Distance matrix (angstroms):
                    1          2          3          4          5
     1  C    0.000000
     2  C    1.424585   0.000000
     3  C    2.445310   1.407335   0.000000
     4  C    2.753077   2.387903   1.379644   0.000000
     5  C    2.384077   2.796957   2.445796   1.409711   0.000000
     6  C    1.399166   2.467539   2.853711   2.425547   1.384342
     7  C    2.244431   2.253189   3.645660   4.570075   4.576477
     8  C    2.293167   1.427994   2.605820   3.782301   4.194591
     9  H    3.437375   2.175798   1.082464   2.145894   3.425481
    10  H    3.375112   3.878536   3.409396   2.156001   1.082135
    11  H    2.172783   3.455398   3.937409   3.411530   2.148528
    12  H    2.143056   3.237881   4.514167   4.880063   4.252792
    13  H    3.343012   2.254700   3.061875   4.390577   5.040424
    14  N    1.370761   2.253294   3.577893   4.102239   3.710363
    15  C    3.615922   3.705106   5.078955   6.036489   5.990022
    16  O    4.136030   4.572568   5.978591   6.776084   6.499005
    17  O    4.577365   4.280846   5.522626   6.668206   6.866333
    18  C    5.919831   5.722916   6.973803   8.110786   8.253827
    19  C    6.937897   6.468912   7.562555   8.818130   9.167847
    20  H    6.160624   6.106210   7.395594   8.467331   8.510359
    21  H    6.162475   6.106859   7.395750   8.468020   8.511908
    22  H    7.923314   7.525708   8.644620   9.887240  10.192954
    23  H    6.968203   6.379598   7.382778   8.669232   9.110457
    24  H    6.969674   6.380031   7.382728   8.669702   9.111717
    25  Cl   4.516632   4.020157   2.720123   1.764119   2.728870
                    6          7          8          9         10
     6  C    0.000000
     7  C    3.619049   0.000000
     8  C    3.630590   1.377387   0.000000
     9  H    3.936026   4.214880   2.955657   0.000000
    10  H    2.144418   5.604996   5.275744   4.296332   0.000000
    11  H    1.083731   4.166164   4.463864   5.019668   2.481040
    12  H    2.915143   2.107619   3.211173   5.409530   5.048310
    13  H    4.635915   2.186428   1.077820   3.027514   6.118316
    14  N    2.518231   1.382027   2.253250   4.429091   4.637398
    15  C    4.926094   1.466415   2.601253   5.553190   6.989934
    16  O    5.279193   2.360004   3.672833   6.573618   7.415920
    17  O    5.957169   2.338130   2.917592   5.753216   7.915359
    18  C    7.269564   3.681331   4.368749   7.182562   9.286310
    19  C    8.328542   4.716409   5.044632   7.560006  10.233584
    20  H    7.458549   3.996665   4.824339   7.674990   9.513062
    21  H    7.460703   3.998254   4.824490   7.674401   9.514809
    22  H    9.302191   5.683438   6.107193   8.653187  11.250718
    23  H    8.357265   4.821860   4.970667   7.297470  10.181525
    24  H    8.359020   4.823035   4.970632   7.296636  10.182970
    25  Cl   4.027781   6.260377   5.322271   2.863246   2.837326
                   11         12         13         14         15
    11  H    0.000000
    12  H    2.882669   0.000000
    13  H    5.515315   4.206762   0.000000
    14  N    2.864380   1.008578   3.290111   0.000000
    15  C    5.295938   2.660831   2.996440   2.444665   0.000000
    16  O    5.408411   2.537294   4.188685   2.789115   1.215255
    17  O    6.462004   3.972343   2.806411   3.603818   1.343159
    18  C    7.671378   4.975102   4.193291   4.816610   2.375439
    19  C    8.854512   6.304317   4.547855   5.995387   3.644211
    20  H    7.771391   5.011381   4.763708   4.985258   2.635278
    21  H    7.774198   5.014980   4.762653   4.987826   2.637730
    22  H    9.769808   7.115152   5.639406   6.905852   4.488571
    23  H    8.948619   6.535400   4.367360   6.135787   3.929868
    24  H    8.950905   6.538050   4.366013   6.137737   3.931425
    25  Cl   4.877226   6.637196   5.728332   5.865383   7.721454
                   16         17         18         19         20
    16  O    0.000000
    17  O    2.263900   0.000000
    18  C    2.691178   1.451201   0.000000
    19  C    4.171464   2.392518   1.514236   0.000000
    20  H    2.641789   2.074705   1.092257   2.175712   0.000000
    21  H    2.646373   2.074606   1.092266   2.175608   1.766108
    22  H    4.801209   3.346106   2.143380   1.093226   2.513762
    23  H    4.593738   2.656973   2.162125   1.092215   2.523679
    24  H    4.596336   2.656811   2.162183   1.092216   3.082424
    25  Cl   8.514869   8.239847   9.690956  10.263832  10.085077
                   21         22         23         24         25
    21  H    0.000000
    22  H    2.513563   0.000000
    23  H    3.082314   1.771151   0.000000
    24  H    2.523698   1.771142   1.773388   0.000000
    25  Cl  10.085321  11.350336  10.041985  10.042017   0.000000
 Stoichiometry    C11H10ClNO2
 Framework group  C1[X(C11H10ClNO2)]
 Deg. of freedom    69
 Full point group                 C1      NOp   1
 Largest Abelian subgroup         C1      NOp   1
 Largest concise Abelian subgroup C1      NOp   1
                         Standard orientation:                         
 ---------------------------------------------------------------------
 Center     Atomic      Atomic             Coordinates (Angstroms)
 Number     Number       Type             X           Y           Z
 ---------------------------------------------------------------------
      1          6           0       -0.952960    1.080197    0.000257
      2          6           0       -0.941226   -0.344340   -0.000330
      3          6           0       -2.161361   -1.045669   -0.000418
      4          6           0       -3.328891   -0.310624    0.000095
      5          6           0       -3.336962    1.099064    0.000673
      6          6           0       -2.147930    1.808010    0.000772
      7          6           0        1.185703    0.399321   -0.000381
      8          6           0        0.427716   -0.750745   -0.000814
      9          1           0       -2.187544   -2.127816   -0.000883
     10          1           0       -4.284278    1.622140    0.001070
     11          1           0       -2.152682    2.891730    0.001274
     12          1           0        0.695820    2.449216    0.000911
     13          1           0        0.817027   -1.755799   -0.001428
     14          7           0        0.351543    1.501217    0.000278
     15          6           0        2.634398    0.626598   -0.000565
     16          8           0        3.130770    1.735859   -0.000069
     17          8           0        3.336067   -0.518713   -0.001268
     18          6           0        4.781511   -0.389580   -0.001144
     19          6           0        5.364774   -1.786971    0.002410
     20          1           0        5.078069    0.182914    0.880519
     21          1           0        5.078473    0.178422   -0.885583
     22          1           0        6.456359   -1.727096    0.002353
     23          1           0        5.052155   -2.340612    0.890489
     24          1           0        5.052327   -2.345139   -0.882893
     25         17           0       -4.879402   -1.152071   -0.000024
 ---------------------------------------------------------------------
 Rotational constants (GHZ):      1.6382139      0.2048700      0.1825126
 Standard basis: 6-311+G(d,p) (5D, 7F)
 There are   413 symmetry adapted cartesian basis functions of A   symmetry.
 There are   398 symmetry adapted basis functions of A   symmetry.
   398 basis functions,   637 primitive gaussians,   413 cartesian basis functions
    58 alpha electrons       58 beta electrons
       nuclear repulsion energy       999.9020858583 Hartrees.
 NAtoms=   25 NActive=   25 NUniq=   25 SFac= 1.00D+00 NAtFMM=   60 NAOKFM=F Big=F
 Integral buffers will be    131072 words long.
 Raffenetti 2 integral format.
 Two-electron integral symmetry is turned on.
 One-electron integrals computed using PRISM.
 NBasis=   398 RedAO= T EigKep=  2.24D-06  NBF=   398
 NBsUse=   395 1.00D-06 EigRej=  8.48D-07 NBFU=   395
 ExpMin= 4.38D-02 ExpMax= 1.06D+05 ExpMxC= 3.62D+03 IAcc=2 IRadAn=         4 AccDes= 0.00D+00
 Harris functional with IExCor=  402 and IRadAn=       4 diagonalized for initial guess.
 HarFok:  IExCor=  402 AccDes= 0.00D+00 IRadAn=         4 IDoV= 1 UseB2=F ITyADJ=14
 ICtDFT=  3500011 ScaDFX=  1.000000  1.000000  1.000000  1.000000
 FoFCou: FMM=F IPFlag=           0 FMFlag=      100000 FMFlg1=           0
         NFxFlg=           0 DoJE=T BraDBF=F KetDBF=T FulRan=T
         wScrn=  0.000000 ICntrl=     500 IOpCl=  0 I1Cent=   200000004 NGrid=           0
         NMat0=    1 NMatS0=      1 NMatT0=    0 NMatD0=    1 NMtDS0=    0 NMtDT0=    0
 Petite list used in FoFCou.
 Requested convergence on RMS density matrix=1.00D-08 within 128 cycles.
 Requested convergence on MAX density matrix=1.00D-06.
 Requested convergence on             energy=1.00D-06.
 No special actions if energy rises.
 SCF Done:  E(RB3LYP) =  -1090.81778379     A.U. after   15 cycles
            NFock= 15  Conv=0.63D-08     -V/T= 2.0034

 **********************************************************************

            Population analysis using the SCF density.

 **********************************************************************

 Orbital symmetries:
       Occupied  (A) (A) (A) (A) (A) (A) (A) (A) (A) (A) (A) (A)
                 (A) (A) (A) (A) (A) (A) (A) (A) (A) (A) (A) (A)
                 (A) (A) (A) (A) (A) (A) (A) (A) (A) (A) (A) (A)
                 (A) (A) (A) (A) (A) (A) (A) (A) (A) (A) (A) (A)
                 (A) (A) (A) (A) (A) (A) (A) (A) (A) (A)
       Virtual   (A) (A) (A) (A) (A) (A) (A) (A) (A) (A) (A) (A)
                 (A) (A) (A) (A) (A) (A) (A) (A) (A) (A) (A) (A)
                 (A) (A) (A) (A) (A) (A) (A) (A) (A) (A) (A) (A)
                 (A) (A) (A) (A) (A) (A) (A) (A) (A) (A) (A) (A)
                 (A) (A) (A) (A) (A) (A) (A) (A) (A) (A) (A) (A)
                 (A) (A) (A) (A) (A) (A) (A) (A) (A) (A) (A) (A)
                 (A) (A) (A) (A) (A) (A) (A) (A) (A) (A) (A) (A)
                 (A) (A) (A) (A) (A) (A) (A) (A) (A) (A) (A) (A)
                 (A) (A) (A) (A) (A) (A) (A) (A) (A) (A) (A) (A)
                 (A) (A) (A) (A) (A) (A) (A) (A) (A) (A) (A) (A)
                 (A) (A) (A) (A) (A) (A) (A) (A) (A) (A) (A) (A)
                 (A) (A) (A) (A) (A) (A) (A) (A) (A) (A) (A) (A)
                 (A) (A) (A) (A) (A) (A) (A) (A) (A) (A) (A) (A)
                 (A) (A) (A) (A) (A) (A) (A) (A) (A) (A) (A) (A)
                 (A) (A) (A) (A) (A) (A) (A) (A) (A) (A) (A) (A)
                 (A) (A) (A) (A) (A) (A) (A) (A) (A) (A) (A) (A)
                 (A) (A) (A) (A) (A) (A) (A) (A) (A) (A) (A) (A)
                 (A) (A) (A) (A) (A) (A) (A) (A) (A) (A) (A) (A)
                 (A) (A) (A) (A) (A) (A) (A) (A) (A) (A) (A) (A)
                 (A) (A) (A) (A) (A) (A) (A) (A) (A) (A) (A) (A)
                 (A) (A) (A) (A) (A) (A) (A) (A) (A) (A) (A) (A)
                 (A) (A) (A) (A) (A) (A) (A) (A) (A) (A) (A) (A)
                 (A) (A) (A) (A) (A) (A) (A) (A) (A) (A) (A) (A)
                 (A) (A) (A) (A) (A) (A) (A) (A) (A) (A) (A) (A)
                 (A) (A) (A) (A) (A) (A) (A) (A) (A) (A) (A) (A)
                 (A) (A) (A) (A) (A) (A) (A) (A) (A) (A) (A) (A)
                 (A) (A) (A) (A) (A) (A) (A) (A) (A) (A) (A) (A)
                 (A) (A) (A) (A) (A) (A) (A) (A) (A) (A) (A) (A)
                 (A)
 The electronic state is 1-A.
 Alpha  occ. eigenvalues -- -101.55155 -19.18000 -19.12367 -14.37563 -10.31870
 Alpha  occ. eigenvalues --  -10.24115 -10.23932 -10.23061 -10.22927 -10.19751
 Alpha  occ. eigenvalues --  -10.19603 -10.19508 -10.19444 -10.18900 -10.17911
 Alpha  occ. eigenvalues --   -9.46608  -7.23066  -7.22087  -7.22067  -1.12189
 Alpha  occ. eigenvalues --   -1.03639  -1.00426  -0.89303  -0.83798  -0.81397
 Alpha  occ. eigenvalues --   -0.79319  -0.75224  -0.74611  -0.68324  -0.64202
 Alpha  occ. eigenvalues --   -0.62350  -0.60384  -0.58693  -0.56668  -0.52587
 Alpha  occ. eigenvalues --   -0.50951  -0.49671  -0.48287  -0.47106  -0.45882
 Alpha  occ. eigenvalues --   -0.45808  -0.45172  -0.43222  -0.42972  -0.41606
 Alpha  occ. eigenvalues --   -0.40823  -0.39476  -0.38800  -0.37504  -0.37110
 Alpha  occ. eigenvalues --   -0.36721  -0.32258  -0.32068  -0.31657  -0.30552
 Alpha  occ. eigenvalues --   -0.30007  -0.24157  -0.23309
 Alpha virt. eigenvalues --   -0.06897  -0.01518  -0.00512  -0.00037   0.00273
 Alpha virt. eigenvalues --    0.01315   0.01378   0.01980   0.02819   0.03171
 Alpha virt. eigenvalues --    0.03966   0.04552   0.05116   0.05429   0.06133
 Alpha virt. eigenvalues --    0.06851   0.07069   0.07248   0.07394   0.08200
 Alpha virt. eigenvalues --    0.08759   0.09086   0.09142   0.09931   0.11283
 Alpha virt. eigenvalues --    0.11428   0.11548   0.11973   0.12635   0.13320
 Alpha virt. eigenvalues --    0.13898   0.14049   0.14401   0.15351   0.15357
 Alpha virt. eigenvalues --    0.15994   0.16207   0.16543   0.17106   0.17478
 Alpha virt. eigenvalues --    0.17619   0.18034   0.18055   0.18992   0.19189
 Alpha virt. eigenvalues --    0.19638   0.19897   0.20605   0.20713   0.21124
 Alpha virt. eigenvalues --    0.21528   0.21795   0.22281   0.22426   0.22608
 Alpha virt. eigenvalues --    0.23327   0.23373   0.24002   0.24438   0.24892
 Alpha virt. eigenvalues --    0.25741   0.26516   0.26982   0.27789   0.27846
 Alpha virt. eigenvalues --    0.28154   0.28322   0.29145   0.29585   0.30413
 Alpha virt. eigenvalues --    0.31813   0.32221   0.32370   0.33101   0.34194
 Alpha virt. eigenvalues --    0.35677   0.35944   0.37133   0.38828   0.39346
 Alpha virt. eigenvalues --    0.39733   0.40062   0.41378   0.42116   0.44663
 Alpha virt. eigenvalues --    0.45232   0.46573   0.46611   0.47807   0.48198
 Alpha virt. eigenvalues --    0.48921   0.49747   0.50490   0.51264   0.53010
 Alpha virt. eigenvalues --    0.53881   0.55199   0.55246   0.55982   0.57354
 Alpha virt. eigenvalues --    0.57506   0.58511   0.59807   0.59867   0.60406
 Alpha virt. eigenvalues --    0.61120   0.62379   0.64112   0.64253   0.64936
 Alpha virt. eigenvalues --    0.65028   0.65848   0.67131   0.68014   0.68910
 Alpha virt. eigenvalues --    0.69662   0.70063   0.70407   0.70602   0.72190
 Alpha virt. eigenvalues --    0.73520   0.74167   0.76314   0.78197   0.78958
 Alpha virt. eigenvalues --    0.80702   0.83222   0.83416   0.84615   0.85229
 Alpha virt. eigenvalues --    0.85629   0.86067   0.86997   0.87178   0.87642
 Alpha virt. eigenvalues --    0.87943   0.89531   0.89748   0.91496   0.93271
 Alpha virt. eigenvalues --    0.94867   0.95108   0.95795   0.97478   0.97919
 Alpha virt. eigenvalues --    0.98956   0.99713   1.00350   1.01023   1.03861
 Alpha virt. eigenvalues --    1.05246   1.05311   1.06242   1.07096   1.08180
 Alpha virt. eigenvalues --    1.12757   1.13840   1.14229   1.15254   1.16027
 Alpha virt. eigenvalues --    1.17690   1.19199   1.20239   1.22516   1.23302
 Alpha virt. eigenvalues --    1.24219   1.25928   1.28688   1.29260   1.30252
 Alpha virt. eigenvalues --    1.33443   1.35729   1.36854   1.44368   1.46403
 Alpha virt. eigenvalues --    1.47099   1.48446   1.50006   1.51237   1.51855
 Alpha virt. eigenvalues --    1.52513   1.54493   1.54518   1.56268   1.57263
 Alpha virt. eigenvalues --    1.57468   1.59471   1.60589   1.61020   1.62568
 Alpha virt. eigenvalues --    1.64459   1.64639   1.67010   1.67795   1.70516
 Alpha virt. eigenvalues --    1.71192   1.72264   1.72577   1.73958   1.75728
 Alpha virt. eigenvalues --    1.76800   1.79927   1.82845   1.83218   1.85219
 Alpha virt. eigenvalues --    1.86438   1.86755   1.86761   1.89543   1.90907
 Alpha virt. eigenvalues --    1.91886   1.94207   1.95532   1.97905   1.98616
 Alpha virt. eigenvalues --    2.00356   2.03308   2.04997   2.05888   2.08472
 Alpha virt. eigenvalues --    2.09705   2.09815   2.11077   2.14188   2.15691
 Alpha virt. eigenvalues --    2.15808   2.18636   2.22773   2.24115   2.28011
 Alpha virt. eigenvalues --    2.28400   2.31152   2.33281   2.34596   2.39435
 Alpha virt. eigenvalues --    2.39843   2.43894   2.44085   2.45058   2.45490
 Alpha virt. eigenvalues --    2.48723   2.50233   2.50736   2.53469   2.54573
 Alpha virt. eigenvalues --    2.57036   2.58843   2.59064   2.61822   2.62256
 Alpha virt. eigenvalues --    2.64125   2.65063   2.65399   2.67706   2.68794
 Alpha virt. eigenvalues --    2.70427   2.72349   2.73900   2.75337   2.75770
 Alpha virt. eigenvalues --    2.79893   2.80622   2.81647   2.81791   2.84272
 Alpha virt. eigenvalues --    2.85245   2.87217   2.87939   2.90127   2.92205
 Alpha virt. eigenvalues --    2.92448   2.94894   2.99948   3.00095   3.04440
 Alpha virt. eigenvalues --    3.05247   3.06907   3.12082   3.15190   3.17564
 Alpha virt. eigenvalues --    3.20359   3.20938   3.24988   3.27698   3.30208
 Alpha virt. eigenvalues --    3.34850   3.36102   3.41259   3.41820   3.46245
 Alpha virt. eigenvalues --    3.53301   3.58538   3.62982   3.65431   3.66048
 Alpha virt. eigenvalues --    3.76786   3.78311   3.80041   3.80376   3.87630
 Alpha virt. eigenvalues --    3.87725   3.95528   4.03968   4.05656   4.10170
 Alpha virt. eigenvalues --    4.17065   4.23339   4.29212   4.45995   4.81020
 Alpha virt. eigenvalues --    4.92343   4.97062   5.05372   5.13920   5.24800
 Alpha virt. eigenvalues --    5.36057   5.69674   5.86292   9.78538  23.56116
 Alpha virt. eigenvalues --   23.78944  23.84477  23.87846  23.88624  23.96094
 Alpha virt. eigenvalues --   23.97080  24.01264  24.08468  24.13690  24.16391
 Alpha virt. eigenvalues --   25.83219  26.13895  26.58821  35.66642  49.90153
 Alpha virt. eigenvalues --   50.02889 215.77680
          Condensed to atoms (all electrons):
               1          2          3          4          5          6
     1  C   14.964672  -0.306038  -0.962176  -1.754143   0.864512   0.668317
     2  C   -0.306038  14.749861   0.903054  -3.757814  -1.627681  -2.495188
     3  C   -0.962176   0.903054  11.952422   1.959949  -6.693315   1.516857
     4  C   -1.754143  -3.757814   1.959949  14.587115  -3.067652   1.615477
     5  C    0.864512  -1.627681  -6.693315  -3.067652  15.975845  -1.253063
     6  C    0.668317  -2.495188   1.516857   1.615477  -1.253063  12.967071
     7  C   -1.226704  -1.426045  -1.341116  -1.768872   0.272441  -2.259419
     8  C   -6.109812  -1.134200  -2.124946  -1.744767   2.133125  -4.863588
     9  H    0.008353  -0.097388   0.309189  -0.003227   0.080949  -0.030428
    10  H    0.044178   0.053991   0.014267   0.027783   0.344646  -0.143051
    11  H   -0.005873  -0.010271  -0.019191  -0.014031   0.057547   0.318396
    12  H   -0.098970   0.056851  -0.000634   0.002457  -0.000844  -0.007188
    13  H   -0.004427   0.013712   0.015771  -0.006939  -0.004876   0.012794
    14  N   -0.053323   0.226132  -0.049002  -0.058833   0.054820  -0.450826
    15  C    0.142159   0.783718   0.237118   0.233740  -0.252278   0.875299
    16  O    0.155015  -0.027479  -0.002110  -0.000935   0.003364   0.024032
    17  O    0.084463   0.042717  -0.006191  -0.000656  -0.002470   0.022997
    18  C    0.157313   0.156562  -0.008161   0.003972  -0.005847   0.044684
    19  C   -0.017128  -0.011770   0.009680   0.002014   0.000779  -0.006317
    20  H    0.000167  -0.002635  -0.000116  -0.000025   0.000009  -0.000040
    21  H    0.000141  -0.002601  -0.000115  -0.000024   0.000009  -0.000037
    22  H   -0.000219  -0.000207   0.000014   0.000000   0.000000  -0.000009
    23  H    0.000550  -0.000204  -0.000203  -0.000022  -0.000002   0.000032
    24  H    0.000556  -0.000196  -0.000205  -0.000022  -0.000002   0.000033
    25  Cl   0.023442  -0.343510   0.626664  -0.993431  -0.220980   0.421495
               7          8          9         10         11         12
     1  C   -1.226704  -6.109812   0.008353   0.044178  -0.005873  -0.098970
     2  C   -1.426045  -1.134200  -0.097388   0.053991  -0.010271   0.056851
     3  C   -1.341116  -2.124946   0.309189   0.014267  -0.019191  -0.000634
     4  C   -1.768872  -1.744767  -0.003227   0.027783  -0.014031   0.002457
     5  C    0.272441   2.133125   0.080949   0.344646   0.057547  -0.000844
     6  C   -2.259419  -4.863588  -0.030428  -0.143051   0.318396  -0.007188
     7  C   11.941388   3.794760   0.008141   0.005848   0.018328  -0.050202
     8  C    3.794760  17.172387   0.080282   0.006982   0.010860   0.020767
     9  H    0.008141   0.080282   0.522670  -0.000295   0.000056   0.000004
    10  H    0.005848   0.006982  -0.000295   0.514616  -0.007650   0.000017
    11  H    0.018328   0.010860   0.000056  -0.007650   0.538334   0.001462
    12  H   -0.050202   0.020767   0.000004   0.000017   0.001462   0.362017
    13  H   -0.063932   0.351926   0.001119  -0.000001   0.000009  -0.000032
    14  N    0.085982   0.115401  -0.001019  -0.000531  -0.003906   0.375593
    15  C   -1.200715  -1.511654  -0.002317  -0.000261  -0.004573   0.018216
    16  O   -0.200599  -0.077716  -0.000002   0.000000  -0.000004   0.008156
    17  O   -0.232215  -0.069747  -0.000017   0.000001   0.000004   0.002833
    18  C   -0.320178  -0.247179  -0.000101  -0.000001  -0.000033   0.002329
    19  C    0.036963   0.020280   0.000040   0.000000   0.000000  -0.000257
    20  H    0.004940  -0.004091   0.000000   0.000000   0.000000  -0.000012
    21  H    0.004620  -0.003847   0.000000   0.000000   0.000000  -0.000012
    22  H   -0.001267   0.000353   0.000000   0.000000   0.000000   0.000000
    23  H    0.004960  -0.004550   0.000000   0.000000   0.000000   0.000000
    24  H    0.005052  -0.004653   0.000000   0.000000   0.000000   0.000000
    25  Cl  -0.072294  -0.286614  -0.015113  -0.010254   0.000400  -0.000047
              13         14         15         16         17         18
     1  C   -0.004427  -0.053323   0.142159   0.155015   0.084463   0.157313
     2  C    0.013712   0.226132   0.783718  -0.027479   0.042717   0.156562
     3  C    0.015771  -0.049002   0.237118  -0.002110  -0.006191  -0.008161
     4  C   -0.006939  -0.058833   0.233740  -0.000935  -0.000656   0.003972
     5  C   -0.004876   0.054820  -0.252278   0.003364  -0.002470  -0.005847
     6  C    0.012794  -0.450826   0.875299   0.024032   0.022997   0.044684
     7  C   -0.063932   0.085982  -1.200715  -0.200599  -0.232215  -0.320178
     8  C    0.351926   0.115401  -1.511654  -0.077716  -0.069747  -0.247179
     9  H    0.001119  -0.001019  -0.002317  -0.000002  -0.000017  -0.000101
    10  H   -0.000001  -0.000531  -0.000261   0.000000   0.000001  -0.000001
    11  H    0.000009  -0.003906  -0.004573  -0.000004   0.000004  -0.000033
    12  H   -0.000032   0.375593   0.018216   0.008156   0.002833   0.002329
    13  H    0.512302   0.015781   0.018950  -0.000934   0.005014   0.001318
    14  N    0.015781   6.796333  -0.030071   0.037622   0.028359   0.012284
    15  C    0.018950  -0.030071   6.348741   0.412117  -0.014589  -0.233040
    16  O   -0.000934   0.037622   0.412117   8.130026  -0.171358  -0.038066
    17  O    0.005014   0.028359  -0.014589  -0.171358   8.398291   0.241602
    18  C    0.001318   0.012284  -0.233040  -0.038066   0.241602   5.521528
    19  C    0.001164   0.002558   0.069542   0.037348  -0.149590  -0.020642
    20  H    0.000010  -0.000227   0.003205   0.001853  -0.036229   0.413974
    21  H    0.000010  -0.000230   0.003624   0.001772  -0.036204   0.413939
    22  H   -0.000003  -0.000014   0.011802   0.000135   0.014920  -0.075912
    23  H    0.000020   0.000006  -0.008948  -0.000220  -0.004829  -0.018879
    24  H    0.000021   0.000006  -0.009175  -0.000222  -0.004870  -0.018686
    25  Cl   0.000075  -0.003633   0.011605  -0.000018   0.000000   0.000197
              19         20         21         22         23         24
     1  C   -0.017128   0.000167   0.000141  -0.000219   0.000550   0.000556
     2  C   -0.011770  -0.002635  -0.002601  -0.000207  -0.000204  -0.000196
     3  C    0.009680  -0.000116  -0.000115   0.000014  -0.000203  -0.000205
     4  C    0.002014  -0.000025  -0.000024   0.000000  -0.000022  -0.000022
     5  C    0.000779   0.000009   0.000009   0.000000  -0.000002  -0.000002
     6  C   -0.006317  -0.000040  -0.000037  -0.000009   0.000032   0.000033
     7  C    0.036963   0.004940   0.004620  -0.001267   0.004960   0.005052
     8  C    0.020280  -0.004091  -0.003847   0.000353  -0.004550  -0.004653
     9  H    0.000040   0.000000   0.000000   0.000000   0.000000   0.000000
    10  H    0.000000   0.000000   0.000000   0.000000   0.000000   0.000000
    11  H    0.000000   0.000000   0.000000   0.000000   0.000000   0.000000
    12  H   -0.000257  -0.000012  -0.000012   0.000000   0.000000   0.000000
    13  H    0.001164   0.000010   0.000010  -0.000003   0.000020   0.000021
    14  N    0.002558  -0.000227  -0.000230  -0.000014   0.000006   0.000006
    15  C    0.069542   0.003205   0.003624   0.011802  -0.008948  -0.009175
    16  O    0.037348   0.001853   0.001772   0.000135  -0.000220  -0.000222
    17  O   -0.149590  -0.036229  -0.036204   0.014920  -0.004829  -0.004870
    18  C   -0.020642   0.413974   0.413939  -0.075912  -0.018879  -0.018686
    19  C    5.375628  -0.034700  -0.035132   0.431461   0.407181   0.407300
    20  H   -0.034700   0.536990  -0.040411  -0.003501  -0.008076   0.007103
    21  H   -0.035132  -0.040411   0.537100  -0.003497   0.007113  -0.008065
    22  H    0.431461  -0.003501  -0.003497   0.528731  -0.025822  -0.025837
    23  H    0.407181  -0.008076   0.007113  -0.025822   0.532705  -0.029295
    24  H    0.407300   0.007103  -0.008065  -0.025837  -0.029295   0.532687
    25  Cl   0.000003   0.000000   0.000000   0.000000   0.000000   0.000000
              25
     1  C    0.023442
     2  C   -0.343510
     3  C    0.626664
     4  C   -0.993431
     5  C   -0.220980
     6  C    0.421495
     7  C   -0.072294
     8  C   -0.286614
     9  H   -0.015113
    10  H   -0.010254
    11  H    0.000400
    12  H   -0.000047
    13  H    0.000075
    14  N   -0.003633
    15  C    0.011605
    16  O   -0.000018
    17  O    0.000000
    18  C    0.000197
    19  C    0.000003
    20  H    0.000000
    21  H    0.000000
    22  H    0.000000
    23  H    0.000000
    24  H    0.000000
    25  Cl  17.470233
 Mulliken charges:
               1
     1  C   -0.575025
     2  C    0.256630
     3  C   -0.337504
     4  C    0.738885
     5  C   -0.659038
     6  C   -0.978331
     7  C   -0.019864
     8  C    0.480241
     9  H    0.139107
    10  H    0.149714
    11  H    0.120138
    12  H    0.307497
    13  H    0.131150
    14  N   -0.099259
    15  C    0.097786
    16  O   -0.291778
    17  O   -0.112237
    18  C    0.017024
    19  C   -0.526405
    20  H    0.161814
    21  H    0.161849
    22  H    0.148873
    23  H    0.148483
    24  H    0.148470
    25  Cl   0.391782
 Sum of Mulliken charges =   0.00000
 Mulliken charges with hydrogens summed into heavy atoms:
               1
     1  C   -0.575025
     2  C    0.256630
     3  C   -0.198398
     4  C    0.738885
     5  C   -0.509324
     6  C   -0.858193
     7  C   -0.019864
     8  C    0.611391
    14  N    0.208238
    15  C    0.097786
    16  O   -0.291778
    17  O   -0.112237
    18  C    0.340687
    19  C   -0.080578
    25  Cl   0.391782
 Electronic spatial extent (au):  <R**2>=           5499.9580
 Charge=              0.0000 electrons
 Dipole moment (field-independent basis, Debye):
    X=              2.4931    Y=              0.1119    Z=              0.0010  Tot=              2.4956
 Quadrupole moment (field-independent basis, Debye-Ang):
   XX=            -93.1258   YY=            -89.0367   ZZ=            -97.3878
   XY=            -12.8810   XZ=             -0.0020   YZ=              0.0070
 Traceless Quadrupole moment (field-independent basis, Debye-Ang):
   XX=              0.0576   YY=              4.1468   ZZ=             -4.2044
   XY=            -12.8810   XZ=             -0.0020   YZ=              0.0070
 Octapole moment (field-independent basis, Debye-Ang**2):
  XXX=            133.5513  YYY=              7.9615  ZZZ=             -0.0058  XYY=            -16.3794
  XXY=            -13.8222  XXZ=             -0.0004  XZZ=             16.3687  YZZ=             -0.9150
  YYZ=              0.0079  XYZ=             -0.0070
 Hexadecapole moment (field-independent basis, Debye-Ang**3):
 XXXX=          -5970.7278 YYYY=           -840.0702 ZZZZ=           -121.5533 XXXY=           -207.2834
 XXXZ=             -0.1035 YYYX=            -21.1743 YYYZ=              0.0858 ZZZX=             -0.0178
 ZZZY=             -0.0169 XXYY=          -1228.8744 XXZZ=          -1082.9758 YYZZ=           -178.5717
 XXYZ=              0.0447 YYXZ=             -0.0157 ZZXY=             12.5395
 N-N= 9.999020858583D+02 E-N=-4.563525807620D+03  KE= 1.087162825114D+03
 There are a total of      208404 grid points.
 ElSum from          density=      115.9999158263
 ElSum from atomic densities=      115.9999649741

 Hirshfeld populations at iteration   1 (CX, CA, CB, DipXYZ):
               1          2          3          4          5          6
     1  C    0.000000   2.977080   2.977080   0.046540   0.059792   0.000009
     2  C    0.000000   3.009820   3.009820  -0.011762  -0.032281  -0.000007
     3  C    0.000000   3.023558   3.023558   0.035140  -0.067240  -0.000036
     4  C    0.000001   2.988875   2.988875  -0.086949  -0.027270   0.000003
     5  C    0.000000   3.024661   3.024661  -0.050960   0.021899   0.000015
     6  C    0.000000   3.026530   3.026530   0.025345   0.068529   0.000024
     7  C    0.000001   2.988638   2.988638   0.052550   0.079083   0.000029
     8  C    0.000000   3.032538   3.032538  -0.011067  -0.096332  -0.000057
     9  H    0.000003   0.471565   0.471565   0.010942  -0.163486  -0.000074
    10  H    0.000003   0.473070   0.473070  -0.134826   0.093002   0.000065
    11  H    0.000002   0.473185   0.473185  -0.004221   0.164761   0.000078
    12  H    0.000001   0.424697   0.424697   0.036814   0.201517   0.000146
    13  H    0.000001   0.470584   0.470584   0.046998  -0.164982  -0.000100
    14  N    0.000001   3.539554   3.539554   0.012497   0.073859   0.000063
    15  C    0.000000   2.894295   2.894295   0.050427  -0.062280  -0.000056
    16  O    0.000003   4.149346   4.149346  -0.045106  -0.111178  -0.000003
    17  O    0.000000   4.063544   4.063544   0.084517   0.103615   0.000071
    18  C    0.000000   2.985769   2.985769  -0.055535  -0.024144   0.000016
    19  C    0.000000   3.048878   3.048878   0.010442   0.012157  -0.000039
    20  H    0.000001   0.476957   0.476957   0.060234   0.065190   0.125518
    21  H    0.000001   0.476946   0.476946   0.060156   0.064718  -0.125854
    22  H    0.000000   0.476830   0.476830   0.152290   0.010291  -0.000010
    23  H    0.000000   0.478374   0.478374  -0.038142  -0.078359   0.124757
    24  H    0.000000   0.478373   0.478373  -0.038122  -0.079000  -0.124360
    25  Cl   0.000010   8.546291   8.546291   0.017524   0.009963  -0.000001
       Tot   0.000031  57.999958  57.999958   0.225727   0.121826   0.000197

 Dip from Atomic Chgs              0.756493  -0.077859   0.000180
         Total Dipole              0.982219   0.043967   0.000377

 Hirshfeld charges, spin densities, dipoles, and CM5 charges using IRadAn=      4:
              Q-H        S-H        Dx         Dy         Dz        Q-CM5   
     1  C    0.045841   0.000000   0.046540   0.059792   0.000009   0.107909
     2  C   -0.019641   0.000000  -0.011762  -0.032281  -0.000007  -0.018156
     3  C   -0.047116   0.000000   0.035140  -0.067240  -0.000036  -0.096047
     4  C    0.022250   0.000000  -0.086949  -0.027270   0.000003   0.015429
     5  C   -0.049321   0.000000  -0.050960   0.021899   0.000015  -0.101459
     6  C   -0.053060   0.000000   0.025345   0.068529   0.000024  -0.101616
     7  C    0.022725   0.000000   0.052550   0.079083   0.000029   0.087368
     8  C   -0.065076   0.000000  -0.011067  -0.096332  -0.000057  -0.106638
     9  H    0.056870   0.000000   0.010942  -0.163486  -0.000074   0.112075
    10  H    0.053860   0.000000  -0.134826   0.093002   0.000065   0.108735
    11  H    0.053631   0.000000  -0.004221   0.164761   0.000078   0.111148
    12  H    0.150607   0.000000   0.036814   0.201517   0.000146   0.347696
    13  H    0.058833   0.000000   0.046998  -0.164982  -0.000100   0.117389
    14  N   -0.079108   0.000000   0.012497   0.073859   0.000063  -0.428944
    15  C    0.211410   0.000000   0.050427  -0.062280  -0.000056   0.275017
    16  O   -0.298692   0.000000  -0.045106  -0.111178  -0.000003  -0.345637
    17  O   -0.127088   0.000000   0.084517   0.103615   0.000071  -0.206619
    18  C    0.028462   0.000000  -0.055535  -0.024144   0.000016  -0.055783
    19  C   -0.097756   0.000000   0.010442   0.012157  -0.000039  -0.244722
    20  H    0.046085   0.000000   0.060234   0.065190   0.125518   0.111152
    21  H    0.046108   0.000000   0.060156   0.064718  -0.125854   0.111142
    22  H    0.046340   0.000000   0.152290   0.010291  -0.000010   0.097744
    23  H    0.043251   0.000000  -0.038142  -0.078359   0.124757   0.096716
    24  H    0.043253   0.000000  -0.038122  -0.079000  -0.124360   0.096718
    25  Cl  -0.092581   0.000000   0.017524   0.009963  -0.000001  -0.090536
       Tot   0.000084   0.000000   0.225727   0.121826   0.000197   0.000084
 Hirshfeld charges with hydrogens summed into heavy atoms:
              Q-H       Q-CM5   
     1  C    0.045841   0.107909
     2  C   -0.019641  -0.018156
     3  C    0.009753   0.016028
     4  C    0.022250   0.015429
     5  C    0.004538   0.007277
     6  C    0.000570   0.009532
     7  C    0.022725   0.087368
     8  C   -0.006243   0.010751
    14  N    0.071498  -0.081248
    15  C    0.211410   0.275017
    16  O   -0.298692  -0.345637
    17  O   -0.127088  -0.206619
    18  C    0.120656   0.166512
    19  C    0.035088   0.046456
    25  Cl  -0.092581  -0.090536
 
 EQQ= 0.000000000000E+00 EQD= 0.000000000000E+00 EDD= 0.683563890604E-02
 EQQ+QD+DD= 0.683563890604E-02
 
          MBS Condensed to atoms (all electrons):
               1          2          3          4          5          6
     1  C    4.723777   0.477945  -0.028165  -0.012526  -0.032636   0.491209
     2  C    0.477945   4.793725   0.482636  -0.030657  -0.010542  -0.026639
     3  C   -0.028165   0.482636   4.816905   0.524932  -0.030856  -0.008046
     4  C   -0.012526  -0.030657   0.524932   4.733809   0.487830  -0.028791
     5  C   -0.032636  -0.010542  -0.030856   0.487830   4.825437   0.519931
     6  C    0.491209  -0.026639  -0.008046  -0.028791   0.519931   4.825478
     7  C   -0.064246  -0.052863   0.001015  -0.000010  -0.000012   0.001303
     8  C   -0.049753   0.471087  -0.019108   0.000711   0.000052   0.001092
     9  H    0.001394  -0.022863   0.387574  -0.024400   0.001338   0.000020
    10  H    0.001508   0.000065   0.001343  -0.025360   0.389625  -0.023854
    11  H   -0.024472   0.001307   0.000008   0.001392  -0.023522   0.388806
    12  H   -0.022772   0.002164  -0.000029  -0.000001  -0.000009  -0.001129
    13  H    0.001614  -0.018110  -0.001101  -0.000002  -0.000001  -0.000018
    14  N    0.419414  -0.050887   0.000800   0.000044   0.000548  -0.020441
    15  C    0.001280   0.000962  -0.000005   0.000000   0.000000  -0.000008
    16  O    0.000018  -0.000004   0.000000   0.000000   0.000000   0.000000
    17  O   -0.000003   0.000004   0.000000   0.000000   0.000000   0.000000
    18  C    0.000000   0.000000   0.000000   0.000000   0.000000   0.000000
    19  C    0.000000   0.000000   0.000000   0.000000   0.000000   0.000000
    20  H    0.000000   0.000000   0.000000   0.000000   0.000000   0.000000
    21  H    0.000000   0.000000   0.000000   0.000000   0.000000   0.000000
    22  H    0.000000   0.000000   0.000000   0.000000   0.000000   0.000000
    23  H    0.000000   0.000000   0.000000   0.000000   0.000000   0.000000
    24  H    0.000000   0.000000   0.000000   0.000000   0.000000   0.000000
    25  Cl   0.000016   0.000699  -0.029651   0.260914  -0.029351   0.000669
               7          8          9         10         11         12
     1  C   -0.064246  -0.049753   0.001394   0.001508  -0.024472  -0.022772
     2  C   -0.052863   0.471087  -0.022863   0.000065   0.001307   0.002164
     3  C    0.001015  -0.019108   0.387574   0.001343   0.000008  -0.000029
     4  C   -0.000010   0.000711  -0.024400  -0.025360   0.001392  -0.000001
     5  C   -0.000012   0.000052   0.001338   0.389625  -0.023522  -0.000009
     6  C    0.001303   0.001092   0.000020  -0.023854   0.388806  -0.001129
     7  C    4.794417   0.533191  -0.000001   0.000000  -0.000008  -0.026976
     8  C    0.533191   4.878871  -0.002156   0.000000  -0.000031   0.002128
     9  H   -0.000001  -0.002156   0.533998  -0.000040   0.000002   0.000001
    10  H    0.000000   0.000000  -0.000040   0.536277  -0.004096   0.000000
    11  H   -0.000008  -0.000031   0.000002  -0.004096   0.546399   0.000681
    12  H   -0.026976   0.002128   0.000001   0.000000   0.000681   0.394290
    13  H   -0.020791   0.390399   0.000484   0.000000   0.000001  -0.000043
    14  N    0.408229  -0.051054  -0.000014  -0.000009  -0.001586   0.338965
    15  C    0.406663  -0.016803   0.000000   0.000000   0.000000  -0.002154
    16  O   -0.029482   0.000270   0.000000   0.000000   0.000000   0.003843
    17  O   -0.035033  -0.000747   0.000000   0.000000   0.000000   0.000032
    18  C    0.001569   0.000009   0.000000   0.000000   0.000000  -0.000001
    19  C   -0.000011  -0.000001   0.000000   0.000000   0.000000   0.000000
    20  H    0.000007  -0.000001   0.000000   0.000000   0.000000   0.000000
    21  H    0.000006   0.000000   0.000000   0.000000   0.000000   0.000000
    22  H    0.000000   0.000000   0.000000   0.000000   0.000000   0.000000
    23  H   -0.000002   0.000000   0.000000   0.000000   0.000000   0.000000
    24  H   -0.000002   0.000000   0.000000   0.000000   0.000000   0.000000
    25  Cl   0.000000  -0.000003  -0.002204  -0.001932  -0.000013   0.000000
              13         14         15         16         17         18
     1  C    0.001614   0.419414   0.001280   0.000018  -0.000003   0.000000
     2  C   -0.018110  -0.050887   0.000962  -0.000004   0.000004   0.000000
     3  C   -0.001101   0.000800  -0.000005   0.000000   0.000000   0.000000
     4  C   -0.000002   0.000044   0.000000   0.000000   0.000000   0.000000
     5  C   -0.000001   0.000548   0.000000   0.000000   0.000000   0.000000
     6  C   -0.000018  -0.020441  -0.000008   0.000000   0.000000   0.000000
     7  C   -0.020791   0.408229   0.406663  -0.029482  -0.035033   0.001569
     8  C    0.390399  -0.051054  -0.016803   0.000270  -0.000747   0.000009
     9  H    0.000484  -0.000014   0.000000   0.000000   0.000000   0.000000
    10  H    0.000000  -0.000009   0.000000   0.000000   0.000000   0.000000
    11  H    0.000001  -0.001586   0.000000   0.000000   0.000000   0.000000
    12  H   -0.000043   0.338965  -0.002154   0.003843   0.000032  -0.000001
    13  H    0.512640   0.001163  -0.001428   0.000004   0.000654  -0.000019
    14  N    0.001163   6.328363  -0.024361  -0.001924   0.000156  -0.000007
    15  C   -0.001428  -0.024361   4.443150   0.449832   0.297611  -0.031014
    16  O    0.000004  -0.001924   0.449832   8.089716  -0.022355  -0.002284
    17  O    0.000654   0.000156   0.297611  -0.022355   7.939656   0.250951
    18  C   -0.000019  -0.000007  -0.031014  -0.002284   0.250951   4.697823
    19  C    0.000001   0.000000   0.001548   0.000018  -0.021143   0.374115
    20  H    0.000001   0.000000  -0.003498   0.001377  -0.017531   0.372770
    21  H    0.000001   0.000000  -0.003457   0.001352  -0.017548   0.372785
    22  H    0.000000   0.000000  -0.000042   0.000001   0.000790  -0.019677
    23  H    0.000002   0.000000   0.000010  -0.000001  -0.000503  -0.022022
    24  H    0.000002   0.000000   0.000010  -0.000001  -0.000504  -0.022017
    25  Cl   0.000000   0.000000   0.000000   0.000000   0.000000   0.000000
              19         20         21         22         23         24
     1  C    0.000000   0.000000   0.000000   0.000000   0.000000   0.000000
     2  C    0.000000   0.000000   0.000000   0.000000   0.000000   0.000000
     3  C    0.000000   0.000000   0.000000   0.000000   0.000000   0.000000
     4  C    0.000000   0.000000   0.000000   0.000000   0.000000   0.000000
     5  C    0.000000   0.000000   0.000000   0.000000   0.000000   0.000000
     6  C    0.000000   0.000000   0.000000   0.000000   0.000000   0.000000
     7  C   -0.000011   0.000007   0.000006   0.000000  -0.000002  -0.000002
     8  C   -0.000001  -0.000001   0.000000   0.000000   0.000000   0.000000
     9  H    0.000000   0.000000   0.000000   0.000000   0.000000   0.000000
    10  H    0.000000   0.000000   0.000000   0.000000   0.000000   0.000000
    11  H    0.000000   0.000000   0.000000   0.000000   0.000000   0.000000
    12  H    0.000000   0.000000   0.000000   0.000000   0.000000   0.000000
    13  H    0.000001   0.000001   0.000001   0.000000   0.000002   0.000002
    14  N    0.000000   0.000000   0.000000   0.000000   0.000000   0.000000
    15  C    0.001548  -0.003498  -0.003457  -0.000042   0.000010   0.000010
    16  O    0.000018   0.001377   0.001352   0.000001  -0.000001  -0.000001
    17  O   -0.021143  -0.017531  -0.017548   0.000790  -0.000503  -0.000504
    18  C    0.374115   0.372770   0.372785  -0.019677  -0.022022  -0.022017
    19  C    4.816889  -0.022854  -0.022878   0.374200   0.377385   0.377387
    20  H   -0.022854   0.584231  -0.026969  -0.001393  -0.002906   0.002146
    21  H   -0.022878  -0.026969   0.584354  -0.001393   0.002147  -0.002905
    22  H    0.374200  -0.001393  -0.001393   0.592331  -0.020828  -0.020831
    23  H    0.377385  -0.002906   0.002147  -0.020828   0.589420  -0.022846
    24  H    0.377387   0.002146  -0.002905  -0.020831  -0.022846   0.589417
    25  Cl   0.000000   0.000000   0.000000   0.000000   0.000000   0.000000
              25
     1  C    0.000016
     2  C    0.000699
     3  C   -0.029651
     4  C    0.260914
     5  C   -0.029351
     6  C    0.000669
     7  C    0.000000
     8  C   -0.000003
     9  H   -0.002204
    10  H   -0.001932
    11  H   -0.000013
    12  H    0.000000
    13  H    0.000000
    14  N    0.000000
    15  C    0.000000
    16  O    0.000000
    17  O    0.000000
    18  C    0.000000
    19  C    0.000000
    20  H    0.000000
    21  H    0.000000
    22  H    0.000000
    23  H    0.000000
    24  H    0.000000
    25  Cl  17.022645
 MBS Mulliken charges:
               1
     1  C    0.116397
     2  C   -0.018029
     3  C   -0.098252
     4  C    0.112115
     5  C   -0.097832
     6  C   -0.119582
     7  C    0.083036
     8  C   -0.138154
     9  H    0.126869
    10  H    0.126473
    11  H    0.115132
    12  H    0.311010
    13  H    0.134548
    14  N   -0.347398
    15  C    0.481706
    16  O   -0.490382
    17  O   -0.374486
    18  C    0.027019
    19  C   -0.254657
    20  H    0.114620
    21  H    0.114507
    22  H    0.096841
    23  H    0.100145
    24  H    0.100146
    25  Cl  -0.221789
 Sum of MBS Mulliken charges =   0.00000
 MBS Mulliken charges with hydrogens summed into heavy atoms:
               1
     1  C    0.116397
     2  C   -0.018029
     3  C    0.028617
     4  C    0.112115
     5  C    0.028641
     6  C   -0.004451
     7  C    0.083036
     8  C   -0.003606
    14  N   -0.036389
    15  C    0.481706
    16  O   -0.490382
    17  O   -0.374486
    18  C    0.256145
    19  C    0.042474
    25  Cl  -0.221789
 Breneman (CHELPG) radii used.
 Generate Potential Derived Charges using the Breneman model, NDens= 1.
 Grid spacing= 0.300 Box extension= 2.800
 NStep X,Y,Z=   58     38     26   Total possible points=       57304
 Number of Points to Fit=   16264

 **********************************************************************

            Electrostatic Properties Using The SCF Density

 **********************************************************************

       Atomic Center    1 is at  -0.952960  1.080197  0.000257
       Atomic Center    2 is at  -0.941226 -0.344340 -0.000330
       Atomic Center    3 is at  -2.161361 -1.045669 -0.000418
       Atomic Center    4 is at  -3.328891 -0.310624  0.000095
       Atomic Center    5 is at  -3.336962  1.099064  0.000673
       Atomic Center    6 is at  -2.147930  1.808010  0.000772
       Atomic Center    7 is at   1.185703  0.399321 -0.000381
       Atomic Center    8 is at   0.427716 -0.750745 -0.000814
       Atomic Center    9 is at  -2.187544 -2.127816 -0.000883
       Atomic Center   10 is at  -4.284278  1.622140  0.001070
       Atomic Center   11 is at  -2.152682  2.891730  0.001274
       Atomic Center   12 is at   0.695820  2.449216  0.000911
       Atomic Center   13 is at   0.817027 -1.755799 -0.001428
       Atomic Center   14 is at   0.351543  1.501217  0.000278
       Atomic Center   15 is at   2.634398  0.626598 -0.000565
       Atomic Center   16 is at   3.130770  1.735859 -0.000069
       Atomic Center   17 is at   3.336067 -0.518713 -0.001268
       Atomic Center   18 is at   4.781511 -0.389580 -0.001144
       Atomic Center   19 is at   5.364774 -1.786971  0.002410
       Atomic Center   20 is at   5.078069  0.182914  0.880519
       Atomic Center   21 is at   5.078473  0.178422 -0.885583
       Atomic Center   22 is at   6.456359 -1.727096  0.002353
       Atomic Center   23 is at   5.052155 -2.340612  0.890489
       Atomic Center   24 is at   5.052327 -2.345139 -0.882893
       Atomic Center   25 is at  -4.879402 -1.152071 -0.000024
   16264 points will be used for fitting atomic charges
 Fitting point charges to electrostatic potential
 Charges from ESP fit, RMS=   0.00403 RRMS=   0.32701:
 ESP charges:
               1
     1  C    0.222035
     2  C    0.195463
     3  C   -0.268523
     4  C    0.119516
     5  C   -0.092331
     6  C   -0.253510
     7  C   -0.086591
     8  C   -0.265970
     9  H    0.157598
    10  H    0.109024
    11  H    0.151116
    12  H    0.339583
    13  H    0.152340
    14  N   -0.389669
    15  C    0.837748
    16  O   -0.601298
    17  O   -0.511750
    18  C    0.409957
    19  C   -0.211548
    20  H   -0.013885
    21  H   -0.014027
    22  H    0.037152
    23  H    0.067914
    24  H    0.068064
    25  Cl  -0.158407
 Sum of ESP charges =   0.00000
 ESP charges with hydrogens summed into heavy atoms:
               1
     1  C    0.222035
     2  C    0.195463
     3  C   -0.110925
     4  C    0.119516
     5  C    0.016693
     6  C   -0.102394
     7  C   -0.086591
     8  C   -0.113630
    14  N   -0.050086
    15  C    0.837748
    16  O   -0.601298
    17  O   -0.511750
    18  C    0.382045
    19  C   -0.038419
    25  Cl  -0.158407
 Charge=   0.00000 Dipole=     2.4512     0.1867     0.0008 Tot=     2.4583
 -----------------------------------------------------------------

              Electrostatic Properties (Atomic Units)

 -----------------------------------------------------------------
    Center     Electric         -------- Electric Field --------
               Potential          X             Y             Z
 -----------------------------------------------------------------
    1 Atom    -14.720799
    2 Atom    -14.754803
    3 Atom    -14.756370
    4 Atom    -14.710534
    5 Atom    -14.755886
    6 Atom    -14.752644
    7 Atom    -14.719460
    8 Atom    -14.761223
    9 Atom     -1.088896
   10 Atom     -1.091693
   11 Atom     -1.083355
   12 Atom     -0.986723
   13 Atom     -1.085083
   14 Atom    -18.333294
   15 Atom    -14.631376
   16 Atom    -22.375642
   17 Atom    -22.316340
   18 Atom    -14.704262
   19 Atom    -14.766932
   20 Atom     -1.103164
   21 Atom     -1.103163
   22 Atom     -1.101851
   23 Atom     -1.108725
   24 Atom     -1.108724
   25 Atom    -64.399151
 -----------------------------------------------------------------
 ******************************Gaussian NBO Version 3.1******************************
             N A T U R A L   A T O M I C   O R B I T A L   A N D
          N A T U R A L   B O N D   O R B I T A L   A N A L Y S I S
 ******************************Gaussian NBO Version 3.1******************************
       /RESON  / : Allow strongly delocalized NBO set

 Analyzing the SCF density

 Job title: Table9_6                                                        

 Storage needed:    477510 in NPA ( 104854225 available)


 NATURAL POPULATIONS:  Natural atomic orbital occupancies 
                                                          
   NAO  Atom  No  lang   Type(AO)    Occupancy      Energy
 ----------------------------------------------------------
     1    C    1  S      Cor( 1S)     1.99899     -10.08546
     2    C    1  S      Val( 2S)     0.82049      -0.12387
     3    C    1  S      Ryd( 3S)     0.00147       0.83121
     4    C    1  S      Ryd( 4S)     0.00021       0.84325
     5    C    1  S      Ryd( 5S)     0.00002      22.68791
     6    C    1  px     Val( 2p)     0.92872      -0.04143
     7    C    1  px     Ryd( 4p)     0.00434       1.32373
     8    C    1  px     Ryd( 3p)     0.00031       0.63528
     9    C    1  px     Ryd( 5p)     0.00013       3.06596
    10    C    1  py     Val( 2p)     1.05026      -0.07564
    11    C    1  py     Ryd( 4p)     0.00677       1.22135
    12    C    1  py     Ryd( 3p)     0.00037       0.44990
    13    C    1  py     Ryd( 5p)     0.00011       2.91571
    14    C    1  pz     Val( 2p)     1.01383      -0.12722
    15    C    1  pz     Ryd( 4p)     0.00106       0.61473
    16    C    1  pz     Ryd( 3p)     0.00057       0.33010
    17    C    1  pz     Ryd( 5p)     0.00004       2.66388
    18    C    1  dxy    Ryd( 3d)     0.00101       2.47507
    19    C    1  dxz    Ryd( 3d)     0.00141       1.64897
    20    C    1  dyz    Ryd( 3d)     0.00070       1.61035
    21    C    1  dx2y2  Ryd( 3d)     0.00102       2.71111
    22    C    1  dz2    Ryd( 3d)     0.00048       2.09925

    23    C    2  S      Cor( 1S)     1.99901     -10.04728
    24    C    2  S      Val( 2S)     0.86811      -0.13054
    25    C    2  S      Ryd( 3S)     0.00110       0.73558
    26    C    2  S      Ryd( 4S)     0.00012       1.51292
    27    C    2  S      Ryd( 5S)     0.00002      22.34835
    28    C    2  px     Val( 2p)     1.09216      -0.06686
    29    C    2  px     Ryd( 4p)     0.00416       1.58542
    30    C    2  px     Ryd( 3p)     0.00023       0.85590
    31    C    2  px     Ryd( 5p)     0.00012       3.08484
    32    C    2  py     Val( 2p)     1.06106      -0.06884
    33    C    2  py     Ryd( 4p)     0.00578       1.20734
    34    C    2  py     Ryd( 3p)     0.00027       0.61164
    35    C    2  py     Ryd( 5p)     0.00009       3.07190
    36    C    2  pz     Val( 2p)     1.05237      -0.11637
    37    C    2  pz     Ryd( 4p)     0.00036       0.61772
    38    C    2  pz     Ryd( 3p)     0.00034       0.55617
    39    C    2  pz     Ryd( 5p)     0.00002       2.51833
    40    C    2  dxy    Ryd( 3d)     0.00057       2.47372
    41    C    2  dxz    Ryd( 3d)     0.00094       1.68645
    42    C    2  dyz    Ryd( 3d)     0.00045       1.62583
    43    C    2  dx2y2  Ryd( 3d)     0.00089       2.73815
    44    C    2  dz2    Ryd( 3d)     0.00042       2.14633

    45    C    3  S      Cor( 1S)     1.99888     -10.03992
    46    C    3  S      Val( 2S)     0.93333      -0.15686
    47    C    3  S      Ryd( 3S)     0.00192       0.90043
    48    C    3  S      Ryd( 4S)     0.00022       1.41352
    49    C    3  S      Ryd( 5S)     0.00001      22.30806
    50    C    3  px     Val( 2p)     1.06210      -0.06321
    51    C    3  px     Ryd( 4p)     0.00457       0.77273
    52    C    3  px     Ryd( 3p)     0.00026       0.46653
    53    C    3  px     Ryd( 5p)     0.00013       3.15363
    54    C    3  py     Val( 2p)     1.19255      -0.08158
    55    C    3  py     Ryd( 4p)     0.00554       1.09761
    56    C    3  py     Ryd( 3p)     0.00036       0.42704
    57    C    3  py     Ryd( 5p)     0.00008       3.11832
    58    C    3  pz     Val( 2p)     0.99873      -0.11985
    59    C    3  pz     Ryd( 4p)     0.00111       0.51529
    60    C    3  pz     Ryd( 3p)     0.00053       0.26573
    61    C    3  pz     Ryd( 5p)     0.00001       2.72515
    62    C    3  dxy    Ryd( 3d)     0.00079       2.60800
    63    C    3  dxz    Ryd( 3d)     0.00061       1.65843
    64    C    3  dyz    Ryd( 3d)     0.00047       1.61491
    65    C    3  dx2y2  Ryd( 3d)     0.00068       2.47444
    66    C    3  dz2    Ryd( 3d)     0.00042       2.09030

    67    C    4  S      Cor( 1S)     1.99861     -10.11012
    68    C    4  S      Val( 2S)     0.93053      -0.21909
    69    C    4  S      Ryd( 4S)     0.00074       0.84930
    70    C    4  S      Ryd( 3S)     0.00026       0.53892
    71    C    4  S      Ryd( 5S)     0.00001      23.28929
    72    C    4  px     Val( 2p)     0.95524      -0.13705
    73    C    4  px     Ryd( 4p)     0.00697       0.93404
    74    C    4  px     Ryd( 3p)     0.00027       0.70695
    75    C    4  px     Ryd( 5p)     0.00035       2.80087
    76    C    4  py     Val( 2p)     1.04878      -0.09912
    77    C    4  py     Ryd( 4p)     0.00654       0.84077
    78    C    4  py     Ryd( 3p)     0.00030       0.79674
    79    C    4  py     Ryd( 5p)     0.00016       2.85277
    80    C    4  pz     Val( 2p)     1.09723      -0.14716
    81    C    4  pz     Ryd( 3p)     0.00106       0.60050
    82    C    4  pz     Ryd( 4p)     0.00029       0.74523
    83    C    4  pz     Ryd( 5p)     0.00009       2.22209
    84    C    4  dxy    Ryd( 3d)     0.00166       2.28439
    85    C    4  dxz    Ryd( 3d)     0.00128       1.52084
    86    C    4  dyz    Ryd( 3d)     0.00079       1.60253
    87    C    4  dx2y2  Ryd( 3d)     0.00138       2.37118
    88    C    4  dz2    Ryd( 3d)     0.00084       1.97793

    89    C    5  S      Cor( 1S)     1.99901     -10.04552
    90    C    5  S      Val( 2S)     0.94606      -0.17327
    91    C    5  S      Ryd( 3S)     0.00182       0.79875
    92    C    5  S      Ryd( 4S)     0.00032       1.13155
    93    C    5  S      Ryd( 5S)     0.00001      22.69778
    94    C    5  px     Val( 2p)     1.15394      -0.07135
    95    C    5  px     Ryd( 4p)     0.00654       0.98938
    96    C    5  px     Ryd( 3p)     0.00041       0.38536
    97    C    5  px     Ryd( 5p)     0.00009       3.17074
    98    C    5  py     Val( 2p)     1.08885      -0.07458
    99    C    5  py     Ryd( 4p)     0.00487       0.78875
   100    C    5  py     Ryd( 3p)     0.00026       0.38579
   101    C    5  py     Ryd( 5p)     0.00012       3.13842
   102    C    5  pz     Val( 2p)     1.01018      -0.12332
   103    C    5  pz     Ryd( 4p)     0.00170       0.49714
   104    C    5  pz     Ryd( 3p)     0.00044       0.29284
   105    C    5  pz     Ryd( 5p)     0.00002       2.70171
   106    C    5  dxy    Ryd( 3d)     0.00068       2.50364
   107    C    5  dxz    Ryd( 3d)     0.00051       1.61528
   108    C    5  dyz    Ryd( 3d)     0.00050       1.63974
   109    C    5  dx2y2  Ryd( 3d)     0.00077       2.53406
   110    C    5  dz2    Ryd( 3d)     0.00042       2.02887

   111    C    6  S      Cor( 1S)     1.99907     -10.04859
   112    C    6  S      Val( 2S)     0.93728      -0.16951
   113    C    6  S      Ryd( 3S)     0.00184       0.82652
   114    C    6  S      Ryd( 4S)     0.00012       1.19390
   115    C    6  S      Ryd( 5S)     0.00001      22.39859
   116    C    6  px     Val( 2p)     1.05307      -0.06265
   117    C    6  px     Ryd( 4p)     0.00385       0.84929
   118    C    6  px     Ryd( 3p)     0.00042       0.36758
   119    C    6  px     Ryd( 5p)     0.00015       3.02225
   120    C    6  py     Val( 2p)     1.17882      -0.07691
   121    C    6  py     Ryd( 4p)     0.00534       1.15034
   122    C    6  py     Ryd( 3p)     0.00025       0.33101
   123    C    6  py     Ryd( 5p)     0.00008       3.03441
   124    C    6  pz     Val( 2p)     1.03316      -0.12688
   125    C    6  pz     Ryd( 4p)     0.00086       0.53179
   126    C    6  pz     Ryd( 3p)     0.00038       0.27077
   127    C    6  pz     Ryd( 5p)     0.00001       2.67202
   128    C    6  dxy    Ryd( 3d)     0.00066       2.61278
   129    C    6  dxz    Ryd( 3d)     0.00060       1.65772
   130    C    6  dyz    Ryd( 3d)     0.00044       1.61131
   131    C    6  dx2y2  Ryd( 3d)     0.00067       2.49784
   132    C    6  dz2    Ryd( 3d)     0.00043       2.09233

   133    C    7  S      Cor( 1S)     1.99900     -10.09522
   134    C    7  S      Val( 2S)     0.87097      -0.16090
   135    C    7  S      Ryd( 3S)     0.00199       0.81993
   136    C    7  S      Ryd( 4S)     0.00020       0.92244
   137    C    7  S      Ryd( 5S)     0.00002      22.94332
   138    C    7  px     Val( 2p)     1.01847      -0.08226
   139    C    7  px     Ryd( 4p)     0.00562       1.49783
   140    C    7  px     Ryd( 3p)     0.00023       0.75693
   141    C    7  px     Ryd( 5p)     0.00016       2.94764
   142    C    7  py     Val( 2p)     0.94948      -0.06628
   143    C    7  py     Ryd( 4p)     0.00822       1.17718
   144    C    7  py     Ryd( 3p)     0.00043       0.62110
   145    C    7  py     Ryd( 5p)     0.00014       2.90318
   146    C    7  pz     Val( 2p)     1.07818      -0.13865
   147    C    7  pz     Ryd( 4p)     0.00173       0.61904
   148    C    7  pz     Ryd( 3p)     0.00033       0.55123
   149    C    7  pz     Ryd( 5p)     0.00008       2.46234
   150    C    7  dxy    Ryd( 3d)     0.00104       2.71180
   151    C    7  dxz    Ryd( 3d)     0.00064       1.63602
   152    C    7  dyz    Ryd( 3d)     0.00125       1.60845
   153    C    7  dx2y2  Ryd( 3d)     0.00108       2.49232
   154    C    7  dz2    Ryd( 3d)     0.00050       2.04704

   155    C    8  S      Cor( 1S)     1.99900     -10.04025
   156    C    8  S      Val( 2S)     0.94154      -0.16463
   157    C    8  S      Ryd( 3S)     0.00108       0.89081
   158    C    8  S      Ryd( 4S)     0.00014       0.95636
   159    C    8  S      Ryd( 5S)     0.00001      22.83388
   160    C    8  px     Val( 2p)     1.04147      -0.05698
   161    C    8  px     Ryd( 4p)     0.00376       0.86210
   162    C    8  px     Ryd( 3p)     0.00040       0.60804
   163    C    8  px     Ryd( 5p)     0.00015       3.11928
   164    C    8  py     Val( 2p)     1.17419      -0.07429
   165    C    8  py     Ryd( 4p)     0.00423       1.10517
   166    C    8  py     Ryd( 3p)     0.00026       0.42514
   167    C    8  py     Ryd( 5p)     0.00010       3.06329
   168    C    8  pz     Val( 2p)     1.04219      -0.12193
   169    C    8  pz     Ryd( 4p)     0.00156       0.53063
   170    C    8  pz     Ryd( 3p)     0.00039       0.29456
   171    C    8  pz     Ryd( 5p)     0.00003       2.70892
   172    C    8  dxy    Ryd( 3d)     0.00084       2.64661
   173    C    8  dxz    Ryd( 3d)     0.00053       1.62858
   174    C    8  dyz    Ryd( 3d)     0.00068       1.66886
   175    C    8  dx2y2  Ryd( 3d)     0.00055       2.52225
   176    C    8  dz2    Ryd( 3d)     0.00044       2.17467

   177    H    9  S      Val( 1S)     0.77201       0.03657
   178    H    9  S      Ryd( 2S)     0.00089       0.92325
   179    H    9  S      Ryd( 3S)     0.00019       1.74065
   180    H    9  px     Ryd( 2p)     0.00015       2.00810
   181    H    9  py     Ryd( 2p)     0.00045       2.72699
   182    H    9  pz     Ryd( 2p)     0.00019       1.60150

   183    H   10  S      Val( 1S)     0.77452       0.04050
   184    H   10  S      Ryd( 2S)     0.00068       0.88900
   185    H   10  S      Ryd( 3S)     0.00020       1.83893
   186    H   10  px     Ryd( 2p)     0.00037       2.54338
   187    H   10  py     Ryd( 2p)     0.00020       2.12745
   188    H   10  pz     Ryd( 2p)     0.00019       1.59131

   189    H   11  S      Val( 1S)     0.78201       0.02683
   190    H   11  S      Ryd( 2S)     0.00092       0.65901
   191    H   11  S      Ryd( 3S)     0.00019       1.99619
   192    H   11  px     Ryd( 2p)     0.00009       2.00654
   193    H   11  py     Ryd( 2p)     0.00044       2.71039
   194    H   11  pz     Ryd( 2p)     0.00021       1.58974

   195    H   12  S      Val( 1S)     0.57060       0.07629
   196    H   12  S      Ryd( 2S)     0.00097       1.23938
   197    H   12  S      Ryd( 3S)     0.00031       1.86210
   198    H   12  px     Ryd( 2p)     0.00022       2.09369
   199    H   12  py     Ryd( 2p)     0.00041       2.65360
   200    H   12  pz     Ryd( 2p)     0.00057       1.56674

   201    H   13  S      Val( 1S)     0.76498       0.04669
   202    H   13  S      Ryd( 3S)     0.00080       1.37474
   203    H   13  S      Ryd( 2S)     0.00021       1.26468
   204    H   13  px     Ryd( 2p)     0.00017       2.12546
   205    H   13  py     Ryd( 2p)     0.00041       2.68869
   206    H   13  pz     Ryd( 2p)     0.00020       1.60336

   207    N   14  S      Cor( 1S)     1.99926     -14.19429
   208    N   14  S      Val( 2S)     1.21896      -0.53688
   209    N   14  S      Ryd( 4S)     0.00047       1.32833
   210    N   14  S      Ryd( 3S)     0.00012       0.96592
   211    N   14  S      Ryd( 5S)     0.00000      35.38431
   212    N   14  px     Val( 2p)     1.29232      -0.25625
   213    N   14  px     Ryd( 4p)     0.00304       0.93996
   214    N   14  px     Ryd( 3p)     0.00036       0.90635
   215    N   14  px     Ryd( 5p)     0.00003       4.42752
   216    N   14  py     Val( 2p)     1.38759      -0.27574
   217    N   14  py     Ryd( 4p)     0.00271       1.06112
   218    N   14  py     Ryd( 3p)     0.00053       0.75395
   219    N   14  py     Ryd( 5p)     0.00002       4.38819
   220    N   14  pz     Val( 2p)     1.61052      -0.27500
   221    N   14  pz     Ryd( 3p)     0.00387       0.41306
   222    N   14  pz     Ryd( 4p)     0.00047       0.67661
   223    N   14  pz     Ryd( 5p)     0.00001       3.80788
   224    N   14  dxy    Ryd( 3d)     0.00085       2.96687
   225    N   14  dxz    Ryd( 3d)     0.00057       2.17799
   226    N   14  dyz    Ryd( 3d)     0.00036       2.19931
   227    N   14  dx2y2  Ryd( 3d)     0.00077       2.91630
   228    N   14  dz2    Ryd( 3d)     0.00058       2.63915

   229    C   15  S      Cor( 1S)     1.99924     -10.19818
   230    C   15  S      Val( 2S)     0.75054      -0.14068
   231    C   15  S      Ryd( 3S)     0.00309       1.21152
   232    C   15  S      Ryd( 4S)     0.00024       1.45712
   233    C   15  S      Ryd( 5S)     0.00005      21.54950
   234    C   15  px     Val( 2p)     0.91608      -0.06799
   235    C   15  px     Ryd( 4p)     0.00571       1.50043
   236    C   15  px     Ryd( 3p)     0.00046       0.53648
   237    C   15  px     Ryd( 5p)     0.00020       2.12898
   238    C   15  py     Val( 2p)     0.72871      -0.02225
   239    C   15  py     Ryd( 4p)     0.01897       1.18732
   240    C   15  py     Ryd( 3p)     0.00028       0.48602
   241    C   15  py     Ryd( 5p)     0.00016       2.40126
   242    C   15  pz     Val( 2p)     0.78597      -0.14267
   243    C   15  pz     Ryd( 4p)     0.00070       0.76957
   244    C   15  pz     Ryd( 3p)     0.00063       0.43091
   245    C   15  pz     Ryd( 5p)     0.00015       2.33780
   246    C   15  dxy    Ryd( 3d)     0.00393       2.54434
   247    C   15  dxz    Ryd( 3d)     0.00167       1.54120
   248    C   15  dyz    Ryd( 3d)     0.00508       1.61373
   249    C   15  dx2y2  Ryd( 3d)     0.00382       2.62320
   250    C   15  dz2    Ryd( 3d)     0.00069       2.05264

   251    O   16  S      Cor( 1S)     1.99976     -18.85859
   252    O   16  S      Val( 2S)     1.70553      -0.90538
   253    O   16  S      Ryd( 4S)     0.00131       1.45723
   254    O   16  S      Ryd( 3S)     0.00008       1.36753
   255    O   16  S      Ryd( 5S)     0.00000      49.70316
   256    O   16  px     Val( 2p)     1.80333      -0.28551
   257    O   16  px     Ryd( 3p)     0.00212       0.68719
   258    O   16  px     Ryd( 4p)     0.00019       1.04544
   259    O   16  px     Ryd( 5p)     0.00002       5.10866
   260    O   16  py     Val( 2p)     1.61192      -0.30798
   261    O   16  py     Ryd( 3p)     0.00098       0.61319
   262    O   16  py     Ryd( 4p)     0.00022       0.98118
   263    O   16  py     Ryd( 5p)     0.00011       5.24050
   264    O   16  pz     Val( 2p)     1.48223      -0.26812
   265    O   16  pz     Ryd( 3p)     0.00161       0.55177
   266    O   16  pz     Ryd( 4p)     0.00016       0.93049
   267    O   16  pz     Ryd( 5p)     0.00002       4.92833
   268    O   16  dxy    Ryd( 3d)     0.00151       3.44982
   269    O   16  dxz    Ryd( 3d)     0.00030       2.87600
   270    O   16  dyz    Ryd( 3d)     0.00139       3.05253
   271    O   16  dx2y2  Ryd( 3d)     0.00160       3.37609
   272    O   16  dz2    Ryd( 3d)     0.00046       3.09598

   273    O   17  S      Cor( 1S)     1.99971     -18.97689
   274    O   17  S      Val( 2S)     1.62341      -0.90277
   275    O   17  S      Ryd( 3S)     0.00308       1.03802
   276    O   17  S      Ryd( 4S)     0.00013       1.12170
   277    O   17  S      Ryd( 5S)     0.00000      49.64658
   278    O   17  px     Val( 2p)     1.44614      -0.33421
   279    O   17  px     Ryd( 4p)     0.00133       1.07616
   280    O   17  px     Ryd( 3p)     0.00076       1.01732
   281    O   17  px     Ryd( 5p)     0.00002       5.23027
   282    O   17  py     Val( 2p)     1.67564      -0.35613
   283    O   17  py     Ryd( 3p)     0.00365       0.68844
   284    O   17  py     Ryd( 4p)     0.00066       0.86083
   285    O   17  py     Ryd( 5p)     0.00019       5.12327
   286    O   17  pz     Val( 2p)     1.79156      -0.33849
   287    O   17  pz     Ryd( 3p)     0.00272       0.51351
   288    O   17  pz     Ryd( 4p)     0.00069       0.79138
   289    O   17  pz     Ryd( 5p)     0.00000       4.93434
   290    O   17  dxy    Ryd( 3d)     0.00108       3.37292
   291    O   17  dxz    Ryd( 3d)     0.00015       2.94091
   292    O   17  dyz    Ryd( 3d)     0.00090       2.91428
   293    O   17  dx2y2  Ryd( 3d)     0.00110       3.40017
   294    O   17  dz2    Ryd( 3d)     0.00060       3.22698

   295    C   18  S      Cor( 1S)     1.99921     -10.11665
   296    C   18  S      Val( 2S)     1.02820      -0.26979
   297    C   18  S      Ryd( 3S)     0.00429       0.90772
   298    C   18  S      Ryd( 4S)     0.00025       1.03110
   299    C   18  S      Ryd( 5S)     0.00000      23.03262
   300    C   18  px     Val( 2p)     0.69005      -0.08135
   301    C   18  px     Ryd( 4p)     0.00184       0.61514
   302    C   18  px     Ryd( 3p)     0.00048       0.53737
   303    C   18  px     Ryd( 5p)     0.00016       2.74310
   304    C   18  py     Val( 2p)     1.10532      -0.11392
   305    C   18  py     Ryd( 4p)     0.00287       0.69665
   306    C   18  py     Ryd( 3p)     0.00036       0.60283
   307    C   18  py     Ryd( 5p)     0.00024       2.68145
   308    C   18  pz     Val( 2p)     1.19535      -0.11435
   309    C   18  pz     Ryd( 4p)     0.00164       0.62494
   310    C   18  pz     Ryd( 3p)     0.00035       0.58850
   311    C   18  pz     Ryd( 5p)     0.00010       2.67471
   312    C   18  dxy    Ryd( 3d)     0.00118       2.00073
   313    C   18  dxz    Ryd( 3d)     0.00117       1.81575
   314    C   18  dyz    Ryd( 3d)     0.00112       2.13411
   315    C   18  dx2y2  Ryd( 3d)     0.00199       2.17115
   316    C   18  dz2    Ryd( 3d)     0.00113       2.11786

   317    C   19  S      Cor( 1S)     1.99936     -10.03912
   318    C   19  S      Val( 2S)     1.09653      -0.27281
   319    C   19  S      Ryd( 4S)     0.00110       0.78255
   320    C   19  S      Ryd( 3S)     0.00027       0.74054
   321    C   19  S      Ryd( 5S)     0.00000      23.26882
   322    C   19  px     Val( 2p)     1.18566      -0.10754
   323    C   19  px     Ryd( 4p)     0.00212       0.59781
   324    C   19  px     Ryd( 3p)     0.00009       0.28074
   325    C   19  px     Ryd( 5p)     0.00002       3.04874
   326    C   19  py     Val( 2p)     1.08719      -0.10536
   327    C   19  py     Ryd( 4p)     0.00100       0.51388
   328    C   19  py     Ryd( 3p)     0.00023       0.26214
   329    C   19  py     Ryd( 5p)     0.00012       2.99776
   330    C   19  pz     Val( 2p)     1.21593      -0.10735
   331    C   19  pz     Ryd( 4p)     0.00086       0.50577
   332    C   19  pz     Ryd( 3p)     0.00007       0.25055
   333    C   19  pz     Ryd( 5p)     0.00002       3.04064
   334    C   19  dxy    Ryd( 3d)     0.00030       1.97770
   335    C   19  dxz    Ryd( 3d)     0.00028       1.87662
   336    C   19  dyz    Ryd( 3d)     0.00085       2.14840
   337    C   19  dx2y2  Ryd( 3d)     0.00078       2.21827
   338    C   19  dz2    Ryd( 3d)     0.00069       2.12149

   339    H   20  S      Val( 1S)     0.81060       0.00932
   340    H   20  S      Ryd( 2S)     0.00124       0.67983
   341    H   20  S      Ryd( 3S)     0.00020       2.14173
   342    H   20  px     Ryd( 2p)     0.00010       1.80530
   343    H   20  py     Ryd( 2p)     0.00027       2.04539
   344    H   20  pz     Ryd( 2p)     0.00032       2.39729

   345    H   21  S      Val( 1S)     0.81073       0.00925
   346    H   21  S      Ryd( 2S)     0.00123       0.67957
   347    H   21  S      Ryd( 3S)     0.00020       2.14185
   348    H   21  px     Ryd( 2p)     0.00010       1.80582
   349    H   21  py     Ryd( 2p)     0.00027       2.04232
   350    H   21  pz     Ryd( 2p)     0.00032       2.40111

   351    H   22  S      Val( 1S)     0.78954       0.01607
   352    H   22  S      Ryd( 2S)     0.00053       0.63497
   353    H   22  S      Ryd( 3S)     0.00010       2.08226
   354    H   22  px     Ryd( 2p)     0.00032       2.67233
   355    H   22  py     Ryd( 2p)     0.00013       1.69306
   356    H   22  pz     Ryd( 2p)     0.00010       1.73848

   357    H   23  S      Val( 1S)     0.79139       0.02373
   358    H   23  S      Ryd( 2S)     0.00095       0.88582
   359    H   23  S      Ryd( 3S)     0.00015       1.85899
   360    H   23  px     Ryd( 2p)     0.00013       1.83340
   361    H   23  py     Ryd( 2p)     0.00016       1.95281
   362    H   23  pz     Ryd( 2p)     0.00024       2.37306

   363    H   24  S      Val( 1S)     0.79138       0.02373
   364    H   24  S      Ryd( 2S)     0.00095       0.88579
   365    H   24  S      Ryd( 3S)     0.00015       1.85900
   366    H   24  px     Ryd( 2p)     0.00013       1.83334
   367    H   24  py     Ryd( 2p)     0.00016       1.95697
   368    H   24  pz     Ryd( 2p)     0.00024       2.36890

   369   Cl   25  S      Cor( 1S)     2.00000    -100.22415
   370   Cl   25  S      Cor( 2S)     1.99972     -10.46947
   371   Cl   25  S      Val( 3S)     1.83868      -1.00216
   372   Cl   25  S      Ryd( 4S)     0.00237       0.71835
   373   Cl   25  S      Ryd( 5S)     0.00006       1.22872
   374   Cl   25  S      Ryd( 6S)     0.00000      17.26860
   375   Cl   25  S      Ryd( 7S)     0.00000     207.71448
   376   Cl   25  px     Cor( 2p)     1.99993      -7.22191
   377   Cl   25  px     Val( 3p)     1.40843      -0.28078
   378   Cl   25  px     Ryd( 4p)     0.00337       0.36526
   379   Cl   25  px     Ryd( 5p)     0.00014       0.47988
   380   Cl   25  px     Ryd( 6p)     0.00002       5.83599
   381   Cl   25  px     Ryd( 7p)     0.00000      22.66492
   382   Cl   25  py     Cor( 2p)     1.99998      -7.21751
   383   Cl   25  py     Val( 3p)     1.80626      -0.30827
   384   Cl   25  py     Ryd( 4p)     0.00239       0.38664
   385   Cl   25  py     Ryd( 5p)     0.00014       0.52701
   386   Cl   25  py     Ryd( 6p)     0.00001       5.38941
   387   Cl   25  py     Ryd( 7p)     0.00000      22.76800
   388   Cl   25  pz     Cor( 2p)     1.99999      -7.21588
   389   Cl   25  pz     Val( 3p)     1.93610      -0.31792
   390   Cl   25  pz     Ryd( 4p)     0.00200       0.38693
   391   Cl   25  pz     Ryd( 5p)     0.00013       0.49825
   392   Cl   25  pz     Ryd( 6p)     0.00000       4.91339
   393   Cl   25  pz     Ryd( 7p)     0.00000      22.86191
   394   Cl   25  dxy    Ryd( 3d)     0.00334       1.18969
   395   Cl   25  dxz    Ryd( 3d)     0.00192       0.92247
   396   Cl   25  dyz    Ryd( 3d)     0.00057       0.88662
   397   Cl   25  dx2y2  Ryd( 3d)     0.00202       1.16072
   398   Cl   25  dz2    Ryd( 3d)     0.00140       0.98670

 WARNING:  1 low occupancy (<1.9990e) core orbital  found on  C    1
           1 low occupancy (<1.9990e) core orbital  found on  C    3
           1 low occupancy (<1.9990e) core orbital  found on  C    4
           1 low occupancy (<1.9990e) core orbital  found on  C    7

 WARNING:  Population inversion found on atom  C    1
           Population inversion found on atom  C    2
           Population inversion found on atom  C    3
           Population inversion found on atom  C    4
           Population inversion found on atom  C    5
           Population inversion found on atom  C    6
           Population inversion found on atom  C    7
           Population inversion found on atom  C    8
           Population inversion found on atom  H   13
           Population inversion found on atom  N   14
           Population inversion found on atom  C   15
           Population inversion found on atom  O   16
           Population inversion found on atom  O   17
           Population inversion found on atom  C   18
           Population inversion found on atom  C   19


 Summary of Natural Population Analysis:                  
                                                          
                                       Natural Population 
                Natural  -----------------------------------------------
    Atom  No    Charge         Core      Valence    Rydberg      Total
 -----------------------------------------------------------------------
      C    1    0.16767      1.99899     3.81331    0.02003     5.83233
      C    2   -0.08858      1.99901     4.07370    0.01587     6.08858
      C    3   -0.20330      1.99888     4.18671    0.01771     6.20330
      C    4   -0.05339      1.99861     4.03179    0.02300     6.05339
      C    5   -0.21753      1.99901     4.19903    0.01949     6.21753
      C    6   -0.21754      1.99907     4.20234    0.01613     6.21754
      C    7    0.06025      1.99900     3.91709    0.02367     5.93975
      C    8   -0.21355      1.99900     4.19940    0.01515     6.21355
      H    9    0.22611      0.00000     0.77201    0.00188     0.77389
      H   10    0.22384      0.00000     0.77452    0.00164     0.77616
      H   11    0.21613      0.00000     0.78201    0.00186     0.78387
      H   12    0.42692      0.00000     0.57060    0.00248     0.57308
      H   13    0.23323      0.00000     0.76498    0.00178     0.76677
      N   14   -0.52341      1.99926     5.50939    0.01476     7.52341
      C   15    0.77364      1.99924     3.18130    0.04582     5.22636
      O   16   -0.61484      1.99976     6.60301    0.01208     8.61484
      O   17   -0.55355      1.99971     6.53676    0.01708     8.55355
      C   18   -0.03732      1.99921     4.01892    0.01918     6.03732
      C   19   -0.59346      1.99936     4.58531    0.00880     6.59346
      H   20    0.18726      0.00000     0.81060    0.00214     0.81274
      H   21    0.18713      0.00000     0.81073    0.00213     0.81287
      H   22    0.20928      0.00000     0.78954    0.00118     0.79072
      H   23    0.20698      0.00000     0.79139    0.00163     0.79302
      H   24    0.20698      0.00000     0.79138    0.00163     0.79302
     Cl   25   -0.00896      9.99962     6.98946    0.01987    17.00896
 =======================================================================
   * Total *    0.00000     37.98773    77.70528    0.30699   116.00000

                                 Natural Population      
 --------------------------------------------------------
   Core                      37.98773 ( 99.9677% of  38)
   Valence                   77.70528 ( 99.6221% of  78)
   Natural Minimal Basis    115.69301 ( 99.7354% of 116)
   Natural Rydberg Basis      0.30699 (  0.2646% of 116)
 --------------------------------------------------------

    Atom  No          Natural Electron Configuration
 ----------------------------------------------------------------------------
      C    1      [core]2S( 0.82)2p( 2.99)4p( 0.01)
      C    2      [core]2S( 0.87)2p( 3.21)4p( 0.01)
      C    3      [core]2S( 0.93)2p( 3.25)4p( 0.01)
      C    4      [core]2S( 0.93)2p( 3.10)3d( 0.01)4p( 0.01)
      C    5      [core]2S( 0.95)2p( 3.25)4p( 0.01)
      C    6      [core]2S( 0.94)2p( 3.27)4p( 0.01)
      C    7      [core]2S( 0.87)2p( 3.05)4p( 0.02)
      C    8      [core]2S( 0.94)2p( 3.26)4p( 0.01)
      H    9            1S( 0.77)
      H   10            1S( 0.77)
      H   11            1S( 0.78)
      H   12            1S( 0.57)
      H   13            1S( 0.76)
      N   14      [core]2S( 1.22)2p( 4.29)4p( 0.01)
      C   15      [core]2S( 0.75)2p( 2.43)3d( 0.02)4p( 0.03)
      O   16      [core]2S( 1.71)2p( 4.90)3d( 0.01)
      O   17      [core]2S( 1.62)2p( 4.91)3p( 0.01)
      C   18      [core]2S( 1.03)2p( 2.99)3d( 0.01)4p( 0.01)
      C   19      [core]2S( 1.10)2p( 3.49)
      H   20            1S( 0.81)
      H   21            1S( 0.81)
      H   22            1S( 0.79)
      H   23            1S( 0.79)
      H   24            1S( 0.79)
     Cl   25      [core]3S( 1.84)3p( 5.15)3d( 0.01)4p( 0.01)


 NBO analysis skipped by request.
 1\1\GINC-COREV3-23-050\SP\RB3LYP\6-311+G(d,p)\C11H10Cl1N1O2\ROOT\23-Ju
 l-2021\0\\# b3lyp/6-311+g(d,p) geom=connectivity pop=(hirshfeld,chelpg
 ,mbs,npa)\\Table9_6\\0,1\C,0,-0.95296,1.080197,0.000257\C,0,-0.941226,
 -0.34434,-0.00033\C,0,-2.161361,-1.045669,-0.000418\C,0,-3.328891,-0.3
 10624,0.000095\C,0,-3.336962,1.099064,0.000673\C,0,-2.14793,1.80801,0.
 000772\C,0,1.185703,0.399321,-0.000381\C,0,0.427716,-0.750745,-0.00081
 4\H,0,-2.187544,-2.127816,-0.000883\H,0,-4.284278,1.62214,0.00107\H,0,
 -2.152682,2.89173,0.001274\H,0,0.69582,2.449216,0.000911\H,0,0.817027,
 -1.755799,-0.001428\N,0,0.351543,1.501217,0.000278\C,0,2.634398,0.6265
 98,-0.000565\O,0,3.13077,1.735859,-0.000069\O,0,3.336067,-0.518713,-0.
 001268\C,0,4.781511,-0.38958,-0.001144\C,0,5.364774,-1.786971,0.00241\
 H,0,5.078069,0.182914,0.880519\H,0,5.078473,0.178422,-0.885583\H,0,6.4
 56359,-1.727096,0.002353\H,0,5.052155,-2.340612,0.890489\H,0,5.052327,
 -2.345139,-0.882893\Cl,0,-4.879402,-1.152071,-0.000024\\Version=ES64L-
 G09RevD.01\State=1-A\HF=-1090.8177838\RMSD=6.262e-09\Dipole=0.9808697,
 0.044012,0.0003758\Quadrupole=0.0428568,3.0830244,-3.1258813,-9.576725
 5,-0.0015165,0.005229\PG=C01 [X(C11H10Cl1N1O2)]\\@


 Statistics are no substitute for judgment.
                            -- Henry Clay
 Job cpu time:       0 days  0 hours 15 minutes 53.9 seconds.
 File lengths (MBytes):  RWF=    127 Int=      0 D2E=      0 Chk=      7 Scr=      1
 Normal termination of Gaussian 09 at Fri Jul 23 17:40:52 2021.
