	You are loading a legacy vmd module, please load an up to date module instead.


	 module load container_env vmd

	Please run vmd command with crun.vmd prepend to it:
	
	 crun.vmd vmd

	 
module: Command not found.
module: Command not found.
 Entering Gaussian System, Link 0=g09
 Initial command:
 /opt/gaussian/g09/l1.exe "/tmp/G09-44.com.o10577433.tmp/Gau-3711378.inp" -scrdir="/tmp/G09-44.com.o10577433.tmp/"
 Entering Link 1 = /opt/gaussian/g09/l1.exe PID=   3711379.
  
 Copyright (c) 1988,1990,1992,1993,1995,1998,2003,2009,2013,
            Gaussian, Inc.  All Rights Reserved.
  
 This is part of the Gaussian(R) 09 program.  It is based on
 the Gaussian(R) 03 system (copyright 2003, Gaussian, Inc.),
 the Gaussian(R) 98 system (copyright 1998, Gaussian, Inc.),
 the Gaussian(R) 94 system (copyright 1995, Gaussian, Inc.),
 the Gaussian 92(TM) system (copyright 1992, Gaussian, Inc.),
 the Gaussian 90(TM) system (copyright 1990, Gaussian, Inc.),
 the Gaussian 88(TM) system (copyright 1988, Gaussian, Inc.),
 the Gaussian 86(TM) system (copyright 1986, Carnegie Mellon
 University), and the Gaussian 82(TM) system (copyright 1983,
 Carnegie Mellon University). Gaussian is a federally registered
 trademark of Gaussian, Inc.
  
 This software contains proprietary and confidential information,
 including trade secrets, belonging to Gaussian, Inc.
  
 This software is provided under written license and may be
 used, copied, transmitted, or stored only in accord with that
 written license.
  
 The following legend is applicable only to US Government
 contracts under FAR:
  
                    RESTRICTED RIGHTS LEGEND
  
 Use, reproduction and disclosure by the US Government is
 subject to restrictions as set forth in subparagraphs (a)
 and (c) of the Commercial Computer Software - Restricted
 Rights clause in FAR 52.227-19.
  
 Gaussian, Inc.
 340 Quinnipiac St., Bldg. 40, Wallingford CT 06492
  
  
 ---------------------------------------------------------------
 Warning -- This program may not be used in any manner that
 competes with the business of Gaussian, Inc. or will provide
 assistance to any competitor of Gaussian, Inc.  The licensee
 of this program is prohibited from giving any competitor of
 Gaussian, Inc. access to this program.  By using this program,
 the user acknowledges that Gaussian, Inc. is engaged in the
 business of creating and licensing software in the field of
 computational chemistry and represents and warrants to the
 licensee that it is not a competitor of Gaussian, Inc. and that
 it will not use this program in any manner prohibited above.
 ---------------------------------------------------------------
  

 Cite this work as:
 Gaussian 09, Revision D.01,
 M. J. Frisch, G. W. Trucks, H. B. Schlegel, G. E. Scuseria, 
 M. A. Robb, J. R. Cheeseman, G. Scalmani, V. Barone, B. Mennucci, 
 G. A. Petersson, H. Nakatsuji, M. Caricato, X. Li, H. P. Hratchian, 
 A. F. Izmaylov, J. Bloino, G. Zheng, J. L. Sonnenberg, M. Hada, 
 M. Ehara, K. Toyota, R. Fukuda, J. Hasegawa, M. Ishida, T. Nakajima, 
 Y. Honda, O. Kitao, H. Nakai, T. Vreven, J. A. Montgomery, Jr., 
 J. E. Peralta, F. Ogliaro, M. Bearpark, J. J. Heyd, E. Brothers, 
 K. N. Kudin, V. N. Staroverov, T. Keith, R. Kobayashi, J. Normand, 
 K. Raghavachari, A. Rendell, J. C. Burant, S. S. Iyengar, J. Tomasi, 
 M. Cossi, N. Rega, J. M. Millam, M. Klene, J. E. Knox, J. B. Cross, 
 V. Bakken, C. Adamo, J. Jaramillo, R. Gomperts, R. E. Stratmann, 
 O. Yazyev, A. J. Austin, R. Cammi, C. Pomelli, J. W. Ochterski, 
 R. L. Martin, K. Morokuma, V. G. Zakrzewski, G. A. Voth, 
 P. Salvador, J. J. Dannenberg, S. Dapprich, A. D. Daniels, 
 O. Farkas, J. B. Foresman, J. V. Ortiz, J. Cioslowski, 
 and D. J. Fox, Gaussian, Inc., Wallingford CT, 2013.
 
 ******************************************
 Gaussian 09:  ES64L-G09RevD.01 24-Apr-2013
                23-Apr-2024 
 ******************************************
 %nprocshared=20
 Will use up to   20 processors via shared memory.
 %mem=4GB
 %chk=44.chk
 ----------------------------------------------------------------------
 # opt freq=noraman b3lyp/6-311+g(d,p) pop=(npa,hirshfeld,chelpg,mbs) g
 eom=connectivity
 ----------------------------------------------------------------------
 1/14=-1,18=20,19=15,26=3,38=1,57=2/1,3;
 2/9=110,12=2,17=6,18=5,40=1/2;
 3/5=4,6=6,7=111,11=2,16=1,25=1,30=1,71=1,74=-5/1,2,3;
 4//1;
 5/5=2,38=5/2;
 6/7=2,8=2,9=2,10=2,15=8,20=3,27=100,28=1,40=-1,79=1/1,2,7;
 7//1,2,3,16;
 1/14=-1,18=20,19=15,26=3/3(2);
 2/9=110/2;
 99//99;
 2/9=110/2;
 3/5=4,6=6,7=111,11=2,16=1,25=1,30=1,71=1,74=-5/1,2,3;
 4/5=5,16=3,69=1/1;
 5/5=2,38=5/2;
 7//1,2,3,16;
 1/14=-1,18=20,19=15,26=3/3(-5);
 2/9=110/2;
 6/7=2,8=2,9=2,10=2,15=8,19=2,20=3,27=100,28=1,40=-1,79=1/1,2,7;
 99/9=1/99;
 -------------------
 Title Card Required
 -------------------
 Symbolic Z-matrix:
 Charge =  0 Multiplicity = 1
 C                    -2.12069  -0.83361   0.00026 
 C                    -0.92292  -1.50439   0.00026 
 C                     0.30559  -0.78823   0.00026 
 C                     0.27725   0.63035   0.00063 
 C                    -0.97728   1.29926   0.00079 
 C                    -2.14852   0.58214   0.0005 
 H                    -0.89156  -2.60428   0.00004 
 C                     1.50628   1.34577   0.00075 
 H                    -0.98838   2.39941   0.00087 
 H                    -3.12083   1.09644   0.0006 
 C                     2.70413   0.67502   0.00048 
 C                     2.7318   -0.74093   0.00002 
 H                     3.65573   1.22673   0.0003 
 H                     3.70415  -1.25514  -0.00017 
 N                     1.56047  -1.45714   0. 
 Cl                    1.45675   3.10507   0.00116 
 Cl                   -3.64332  -1.71633   0.00014 
 

 GradGradGradGradGradGradGradGradGradGradGradGradGradGradGradGradGradGrad
 Berny optimization.
 Initialization pass.
                           ----------------------------
                           !    Initial Parameters    !
                           ! (Angstroms and Degrees)  !
 --------------------------                            --------------------------
 ! Name  Definition              Value          Derivative Info.                !
 --------------------------------------------------------------------------------
 ! R1    R(1,2)                  1.3728         estimate D2E/DX2                !
 ! R2    R(1,6)                  1.416          estimate D2E/DX2                !
 ! R3    R(1,17)                 1.76           estimate D2E/DX2                !
 ! R4    R(2,3)                  1.422          estimate D2E/DX2                !
 ! R5    R(2,7)                  1.1003         estimate D2E/DX2                !
 ! R6    R(3,4)                  1.4189         estimate D2E/DX2                !
 ! R7    R(3,15)                 1.422          estimate D2E/DX2                !
 ! R8    R(4,5)                  1.4217         estimate D2E/DX2                !
 ! R9    R(4,8)                  1.4221         estimate D2E/DX2                !
 ! R10   R(5,6)                  1.3733         estimate D2E/DX2                !
 ! R11   R(5,9)                  1.1002         estimate D2E/DX2                !
 ! R12   R(6,10)                 1.1            estimate D2E/DX2                !
 ! R13   R(8,11)                 1.3729         estimate D2E/DX2                !
 ! R14   R(8,16)                 1.76           estimate D2E/DX2                !
 ! R15   R(11,12)                1.4162         estimate D2E/DX2                !
 ! R16   R(11,13)                1.1            estimate D2E/DX2                !
 ! R17   R(12,14)                1.0999         estimate D2E/DX2                !
 ! R18   R(12,15)                1.3729         estimate D2E/DX2                !
 ! A1    A(2,1,6)              120.3763         estimate D2E/DX2                !
 ! A2    A(2,1,17)             120.6477         estimate D2E/DX2                !
 ! A3    A(6,1,17)             118.976          estimate D2E/DX2                !
 ! A4    A(1,2,3)              120.5099         estimate D2E/DX2                !
 ! A5    A(1,2,7)              120.8832         estimate D2E/DX2                !
 ! A6    A(3,2,7)              118.6069         estimate D2E/DX2                !
 ! A7    A(2,3,4)              119.0959         estimate D2E/DX2                !
 ! A8    A(2,3,15)             121.7004         estimate D2E/DX2                !
 ! A9    A(4,3,15)             119.2037         estimate D2E/DX2                !
 ! A10   A(3,4,5)              119.2103         estimate D2E/DX2                !
 ! A11   A(3,4,8)              119.0596         estimate D2E/DX2                !
 ! A12   A(5,4,8)              121.73           estimate D2E/DX2                !
 ! A13   A(4,5,6)              120.4559         estimate D2E/DX2                !
 ! A14   A(4,5,9)              118.6441         estimate D2E/DX2                !
 ! A15   A(6,5,9)              120.8999         estimate D2E/DX2                !
 ! A16   A(1,6,5)              120.3516         estimate D2E/DX2                !
 ! A17   A(1,6,10)             119.0027         estimate D2E/DX2                !
 ! A18   A(5,6,10)             120.6457         estimate D2E/DX2                !
 ! A19   A(4,8,11)             120.5491         estimate D2E/DX2                !
 ! A20   A(4,8,16)             118.5913         estimate D2E/DX2                !
 ! A21   A(11,8,16)            120.8596         estimate D2E/DX2                !
 ! A22   A(8,11,12)            120.3669         estimate D2E/DX2                !
 ! A23   A(8,11,13)            120.6492         estimate D2E/DX2                !
 ! A24   A(12,11,13)           118.9839         estimate D2E/DX2                !
 ! A25   A(11,12,14)           118.991          estimate D2E/DX2                !
 ! A26   A(11,12,15)           120.3239         estimate D2E/DX2                !
 ! A27   A(14,12,15)           120.685          estimate D2E/DX2                !
 ! A28   A(3,15,12)            120.4968         estimate D2E/DX2                !
 ! D1    D(6,1,2,3)             -0.011          estimate D2E/DX2                !
 ! D2    D(6,1,2,7)           -179.9971         estimate D2E/DX2                !
 ! D3    D(17,1,2,3)           179.9952         estimate D2E/DX2                !
 ! D4    D(17,1,2,7)             0.009          estimate D2E/DX2                !
 ! D5    D(2,1,6,5)             -0.0029         estimate D2E/DX2                !
 ! D6    D(2,1,6,10)          -179.9936         estimate D2E/DX2                !
 ! D7    D(17,1,6,5)           179.991          estimate D2E/DX2                !
 ! D8    D(17,1,6,10)            0.0003         estimate D2E/DX2                !
 ! D9    D(1,2,3,4)              0.0171         estimate D2E/DX2                !
 ! D10   D(1,2,3,15)          -179.9875         estimate D2E/DX2                !
 ! D11   D(7,2,3,4)           -179.9964         estimate D2E/DX2                !
 ! D12   D(7,2,3,15)            -0.0011         estimate D2E/DX2                !
 ! D13   D(2,3,4,5)             -0.0096         estimate D2E/DX2                !
 ! D14   D(2,3,4,8)            179.9947         estimate D2E/DX2                !
 ! D15   D(15,3,4,5)           179.995          estimate D2E/DX2                !
 ! D16   D(15,3,4,8)            -0.0008         estimate D2E/DX2                !
 ! D17   D(2,3,15,12)         -179.9995         estimate D2E/DX2                !
 ! D18   D(4,3,15,12)           -0.0042         estimate D2E/DX2                !
 ! D19   D(3,4,5,6)             -0.004          estimate D2E/DX2                !
 ! D20   D(3,4,5,9)           -179.9878         estimate D2E/DX2                !
 ! D21   D(8,4,5,6)            179.9916         estimate D2E/DX2                !
 ! D22   D(8,4,5,9)              0.0078         estimate D2E/DX2                !
 ! D23   D(3,4,8,11)             0.0014         estimate D2E/DX2                !
 ! D24   D(3,4,8,16)           179.9984         estimate D2E/DX2                !
 ! D25   D(5,4,8,11)          -179.9942         estimate D2E/DX2                !
 ! D26   D(5,4,8,16)             0.0027         estimate D2E/DX2                !
 ! D27   D(4,5,6,1)              0.0104         estimate D2E/DX2                !
 ! D28   D(4,5,6,10)          -179.999          estimate D2E/DX2                !
 ! D29   D(9,5,6,1)            179.9938         estimate D2E/DX2                !
 ! D30   D(9,5,6,10)            -0.0156         estimate D2E/DX2                !
 ! D31   D(4,8,11,12)            0.0027         estimate D2E/DX2                !
 ! D32   D(4,8,11,13)          179.9839         estimate D2E/DX2                !
 ! D33   D(16,8,11,12)        -179.9941         estimate D2E/DX2                !
 ! D34   D(16,8,11,13)          -0.013          estimate D2E/DX2                !
 ! D35   D(8,11,12,14)        -179.9982         estimate D2E/DX2                !
 ! D36   D(8,11,12,15)          -0.0078         estimate D2E/DX2                !
 ! D37   D(13,11,12,14)          0.0203         estimate D2E/DX2                !
 ! D38   D(13,11,12,15)       -179.9892         estimate D2E/DX2                !
 ! D39   D(11,12,15,3)           0.0084         estimate D2E/DX2                !
 ! D40   D(14,12,15,3)         179.9987         estimate D2E/DX2                !
 --------------------------------------------------------------------------------
 Trust Radius=3.00D-01 FncErr=1.00D-07 GrdErr=1.00D-06
 Number of steps in this run=     96 maximum allowed number of steps=    102.
 GradGradGradGradGradGradGradGradGradGradGradGradGradGradGradGradGradGrad

                          Input orientation:                          
 ---------------------------------------------------------------------
 Center     Atomic      Atomic             Coordinates (Angstroms)
 Number     Number       Type             X           Y           Z
 ---------------------------------------------------------------------
      1          6           0       -2.120686   -0.833610    0.000263
      2          6           0       -0.922922   -1.504390    0.000263
      3          6           0        0.305586   -0.788231    0.000263
      4          6           0        0.277254    0.630354    0.000633
      5          6           0       -0.977278    1.299260    0.000787
      6          6           0       -2.148519    0.582143    0.000497
      7          1           0       -0.891562   -2.604275    0.000035
      8          6           0        1.506278    1.345771    0.000748
      9          1           0       -0.988376    2.399412    0.000869
     10          1           0       -3.120832    1.096444    0.000599
     11          6           0        2.704127    0.675021    0.000475
     12          6           0        2.731802   -0.740933    0.000016
     13          1           0        3.655726    1.226725    0.000297
     14          1           0        3.704154   -1.255144   -0.000166
     15          7           0        1.560472   -1.457141    0.000000
     16         17           0        1.456753    3.105074    0.001164
     17         17           0       -3.643316   -1.716331    0.000135
 ---------------------------------------------------------------------
                    Distance matrix (angstroms):
                    1          2          3          4          5
     1  C    0.000000
     2  C    1.372801   0.000000
     3  C    2.426696   1.422011   0.000000
     4  C    2.809503   2.448990   1.418868   0.000000
     5  C    2.420024   2.804177   2.450175   1.421719   0.000000
     6  C    1.416027   2.419857   2.810793   2.426253   1.373340
     7  H    2.155458   1.100332   2.175127   3.439325   3.904476
     8  C    4.231379   3.744921   2.448597   1.422083   2.483991
     9  H    3.425575   3.904351   3.440263   2.175176   1.100209
    10  H    2.173799   3.405164   3.910542   3.429902   2.153127
    11  C    5.055174   4.231468   2.809645   2.427284   3.733954
    12  C    4.853373   3.733614   2.426677   2.811625   4.233162
    13  H    6.132855   5.331323   3.909410   3.430704   4.633571
    14  H    5.840073   4.633785   3.430492   3.911361   5.332991
    15  N    3.733593   2.483844   1.422034   2.450364   3.746722
    16  Cl   5.320837   5.187486   4.059928   2.741434   3.030754
    17  Cl   1.760000   2.728638   4.056501   4.569223   4.025115
                    6          7          8          9         10
     6  C    0.000000
     7  H    3.425376   0.000000
     8  C    3.733721   4.620877   0.000000
     9  H    2.156015   5.004624   2.708036   0.000000
    10  H    1.099953   4.320297   4.633822   2.499019   0.000000
    11  C    4.853535   4.866494   1.372861   4.075304   5.840183
    12  C    5.056488   4.074409   2.419968   4.868418   6.134271
    13  H    5.839927   5.945956   2.152742   4.789872   6.777810
    14  H    6.134282   4.789652   3.405205   5.947741   7.218754
    15  N    4.232647   2.707100   2.803436   4.622730   5.332486
    16  Cl   4.400360   6.173431   1.760000   2.544919   4.998888
    17  Cl   2.741788   2.891470   5.991226   4.897760   2.860890
                   11         12         13         14         15
    11  C    0.000000
    12  C    1.416225   0.000000
    13  H    1.099963   2.173779   0.000000
    14  H    2.173843   1.099946   2.482342   0.000000
    15  N    2.419517   1.372941   3.404883   2.153178   0.000000
    16  Cl   2.731501   4.051854   2.892002   4.905336   4.563394
    17  Cl   6.782964   6.449305   7.870044   7.361930   5.210240
                   16         17
    16  Cl   0.000000
    17  Cl   7.018309   0.000000
 Stoichiometry    C9H5Cl2N
 Framework group  C1[X(C9H5Cl2N)]
 Deg. of freedom    45
 Full point group                 C1      NOp   1
 Largest Abelian subgroup         C1      NOp   1
 Largest concise Abelian subgroup C1      NOp   1
                         Standard orientation:                         
 ---------------------------------------------------------------------
 Center     Atomic      Atomic             Coordinates (Angstroms)
 Number     Number       Type             X           Y           Z
 ---------------------------------------------------------------------
      1          6           0       -2.205524   -0.149393    0.000036
      2          6           0       -1.529404    1.045364   -0.000172
      3          6           0       -0.107612    1.070285   -0.000043
      4          6           0        0.603967   -0.157249   -0.000066
      5          6           0       -0.121660   -1.379850   -0.000010
      6          6           0       -1.494988   -1.374248    0.000149
      7          1           0       -2.073089    2.001993   -0.000214
      8          6           0        2.025816   -0.131427   -0.000052
      9          1           0        0.439487   -2.326197    0.000177
     10          1           0       -2.059519   -2.318283    0.000209
     11          6           0        2.702025    1.063349    0.000012
     12          6           0        1.991249    2.288294    0.000125
     13          1           0        3.801770    1.085244    0.000289
     14          1           0        2.555861    3.232273    0.000145
     15          7           0        0.618317    2.293073    0.000010
     16         17           0        2.896002   -1.661256   -0.000037
     17         17           0       -3.965175   -0.184467    0.000006
 ---------------------------------------------------------------------
 Rotational constants (GHZ):      1.4558593      0.4279199      0.3307135
 Standard basis: 6-311+G(d,p) (5D, 7F)
 There are   322 symmetry adapted cartesian basis functions of A   symmetry.
 There are   310 symmetry adapted basis functions of A   symmetry.
   310 basis functions,   506 primitive gaussians,   322 cartesian basis functions
    50 alpha electrons       50 beta electrons
       nuclear repulsion energy       784.7372703746 Hartrees.
 NAtoms=   17 NActive=   17 NUniq=   17 SFac= 1.00D+00 NAtFMM=   60 NAOKFM=F Big=F
 Integral buffers will be    131072 words long.
 Raffenetti 2 integral format.
 Two-electron integral symmetry is turned on.
 One-electron integrals computed using PRISM.
 NBasis=   310 RedAO= T EigKep=  1.43D-06  NBF=   310
 NBsUse=   308 1.00D-06 EigRej=  8.76D-07 NBFU=   308
 ExpMin= 4.38D-02 ExpMax= 1.06D+05 ExpMxC= 3.62D+03 IAcc=2 IRadAn=         4 AccDes= 0.00D+00
 Harris functional with IExCor=  402 and IRadAn=       4 diagonalized for initial guess.
 HarFok:  IExCor=  402 AccDes= 0.00D+00 IRadAn=         4 IDoV= 1 UseB2=F ITyADJ=14
 ICtDFT=  3500011 ScaDFX=  1.000000  1.000000  1.000000  1.000000
 FoFCou: FMM=F IPFlag=           0 FMFlag=      100000 FMFlg1=           0
         NFxFlg=           0 DoJE=T BraDBF=F KetDBF=T FulRan=T
         wScrn=  0.000000 ICntrl=     500 IOpCl=  0 I1Cent=   200000004 NGrid=           0
         NMat0=    1 NMatS0=      1 NMatT0=    0 NMatD0=    1 NMtDS0=    0 NMtDT0=    0
 Petite list used in FoFCou.
 Requested convergence on RMS density matrix=1.00D-08 within 128 cycles.
 Requested convergence on MAX density matrix=1.00D-06.
 Requested convergence on             energy=1.00D-06.
 No special actions if energy rises.
 EnCoef did     1 forward-backward iterations
 SCF Done:  E(RB3LYP) =  -1321.26240263     A.U. after   17 cycles
            NFock= 17  Conv=0.96D-09     -V/T= 2.0033

 **********************************************************************

            Population analysis using the SCF density.

 **********************************************************************

 Orbital symmetries:
       Occupied  (A) (A) (A) (A) (A) (A) (A) (A) (A) (A) (A) (A)
                 (A) (A) (A) (A) (A) (A) (A) (A) (A) (A) (A) (A)
                 (A) (A) (A) (A) (A) (A) (A) (A) (A) (A) (A) (A)
                 (A) (A) (A) (A) (A) (A) (A) (A) (A) (A) (A) (A)
                 (A) (A)
       Virtual   (A) (A) (A) (A) (A) (A) (A) (A) (A) (A) (A) (A)
                 (A) (A) (A) (A) (A) (A) (A) (A) (A) (A) (A) (A)
                 (A) (A) (A) (A) (A) (A) (A) (A) (A) (A) (A) (A)
                 (A) (A) (A) (A) (A) (A) (A) (A) (A) (A) (A) (A)
                 (A) (A) (A) (A) (A) (A) (A) (A) (A) (A) (A) (A)
                 (A) (A) (A) (A) (A) (A) (A) (A) (A) (A) (A) (A)
                 (A) (A) (A) (A) (A) (A) (A) (A) (A) (A) (A) (A)
                 (A) (A) (A) (A) (A) (A) (A) (A) (A) (A) (A) (A)
                 (A) (A) (A) (A) (A) (A) (A) (A) (A) (A) (A) (A)
                 (A) (A) (A) (A) (A) (A) (A) (A) (A) (A) (A) (A)
                 (A) (A) (A) (A) (A) (A) (A) (A) (A) (A) (A) (A)
                 (A) (A) (A) (A) (A) (A) (A) (A) (A) (A) (A) (A)
                 (A) (A) (A) (A) (A) (A) (A) (A) (A) (A) (A) (A)
                 (A) (A) (A) (A) (A) (A) (A) (A) (A) (A) (A) (A)
                 (A) (A) (A) (A) (A) (A) (A) (A) (A) (A) (A) (A)
                 (A) (A) (A) (A) (A) (A) (A) (A) (A) (A) (A) (A)
                 (A) (A) (A) (A) (A) (A) (A) (A) (A) (A) (A) (A)
                 (A) (A) (A) (A) (A) (A) (A) (A) (A) (A) (A) (A)
                 (A) (A) (A) (A) (A) (A) (A) (A) (A) (A) (A) (A)
                 (A) (A) (A) (A) (A) (A) (A) (A) (A) (A) (A) (A)
                 (A) (A) (A) (A) (A) (A) (A) (A) (A) (A) (A) (A)
                 (A) (A) (A) (A) (A) (A)
 The electronic state is 1-A.
 Alpha  occ. eigenvalues -- -101.57841-101.56877 -14.33762 -10.27239 -10.26169
 Alpha  occ. eigenvalues --  -10.24718 -10.24435 -10.22054 -10.21227 -10.21084
 Alpha  occ. eigenvalues --  -10.20899 -10.20797  -9.49295  -9.48309  -7.25758
 Alpha  occ. eigenvalues --   -7.24785  -7.24781  -7.24733  -7.23794  -7.23749
 Alpha  occ. eigenvalues --   -0.95349  -0.90530  -0.90002  -0.85061  -0.80165
 Alpha  occ. eigenvalues --   -0.77351  -0.76285  -0.66809  -0.64835  -0.62191
 Alpha  occ. eigenvalues --   -0.55219  -0.53857  -0.53141  -0.48316  -0.47132
 Alpha  occ. eigenvalues --   -0.46433  -0.44581  -0.44413  -0.43817  -0.40150
 Alpha  occ. eigenvalues --   -0.39452  -0.39204  -0.37130  -0.34237  -0.34099
 Alpha  occ. eigenvalues --   -0.33034  -0.30593  -0.27633  -0.27571  -0.25612
 Alpha virt. eigenvalues --   -0.09022  -0.05119  -0.01976  -0.01120  -0.00546
 Alpha virt. eigenvalues --    0.00205   0.01149   0.02293   0.02969   0.03673
 Alpha virt. eigenvalues --    0.03776   0.04508   0.05112   0.06355   0.06745
 Alpha virt. eigenvalues --    0.06929   0.07538   0.07750   0.09166   0.09227
 Alpha virt. eigenvalues --    0.10191   0.10642   0.10790   0.12120   0.12122
 Alpha virt. eigenvalues --    0.12760   0.13008   0.13320   0.14629   0.14725
 Alpha virt. eigenvalues --    0.15695   0.15927   0.16272   0.16531   0.17563
 Alpha virt. eigenvalues --    0.17847   0.18269   0.18787   0.19322   0.19625
 Alpha virt. eigenvalues --    0.19938   0.20155   0.21114   0.21552   0.22070
 Alpha virt. eigenvalues --    0.22151   0.22538   0.23170   0.24261   0.25205
 Alpha virt. eigenvalues --    0.25431   0.26219   0.26737   0.26810   0.27640
 Alpha virt. eigenvalues --    0.28358   0.28572   0.29639   0.30198   0.30903
 Alpha virt. eigenvalues --    0.31250   0.31946   0.33581   0.34373   0.34817
 Alpha virt. eigenvalues --    0.41395   0.42550   0.44037   0.44297   0.44812
 Alpha virt. eigenvalues --    0.45669   0.46229   0.47209   0.47948   0.51308
 Alpha virt. eigenvalues --    0.52410   0.53178   0.53817   0.53887   0.55553
 Alpha virt. eigenvalues --    0.55644   0.56521   0.56917   0.58956   0.59720
 Alpha virt. eigenvalues --    0.60505   0.60944   0.62122   0.63667   0.64825
 Alpha virt. eigenvalues --    0.66615   0.66953   0.68564   0.69183   0.69187
 Alpha virt. eigenvalues --    0.70097   0.74501   0.76475   0.78374   0.80181
 Alpha virt. eigenvalues --    0.80293   0.81148   0.83150   0.83823   0.83870
 Alpha virt. eigenvalues --    0.84552   0.85240   0.85318   0.85515   0.86887
 Alpha virt. eigenvalues --    0.87286   0.88055   0.89260   0.91856   0.91990
 Alpha virt. eigenvalues --    0.93176   0.94157   0.94797   0.95333   0.96452
 Alpha virt. eigenvalues --    0.98601   0.98694   0.99981   1.01540   1.02664
 Alpha virt. eigenvalues --    1.04402   1.05414   1.06684   1.08023   1.09490
 Alpha virt. eigenvalues --    1.13157   1.16028   1.19340   1.21135   1.24186
 Alpha virt. eigenvalues --    1.24788   1.26991   1.27881   1.28973   1.32287
 Alpha virt. eigenvalues --    1.40284   1.45668   1.47433   1.48521   1.49882
 Alpha virt. eigenvalues --    1.50474   1.54383   1.54490   1.57849   1.59582
 Alpha virt. eigenvalues --    1.60460   1.61266   1.64046   1.66190   1.68701
 Alpha virt. eigenvalues --    1.70108   1.70861   1.72670   1.74028   1.77569
 Alpha virt. eigenvalues --    1.81695   1.86447   1.86840   1.87033   1.90365
 Alpha virt. eigenvalues --    1.91129   1.94688   1.95394   1.95570   1.97712
 Alpha virt. eigenvalues --    1.99067   2.01397   2.02084   2.05437   2.06025
 Alpha virt. eigenvalues --    2.12000   2.14988   2.18135   2.19917   2.24380
 Alpha virt. eigenvalues --    2.25588   2.25593   2.27393   2.34887   2.36838
 Alpha virt. eigenvalues --    2.38398   2.38524   2.42132   2.44087   2.51311
 Alpha virt. eigenvalues --    2.51823   2.51989   2.53774   2.54645   2.61051
 Alpha virt. eigenvalues --    2.63626   2.66312   2.67230   2.67942   2.70525
 Alpha virt. eigenvalues --    2.71132   2.72507   2.73217   2.76187   2.76929
 Alpha virt. eigenvalues --    2.77745   2.79568   2.82214   2.82579   2.82774
 Alpha virt. eigenvalues --    2.87079   2.89049   2.94524   2.97408   3.05467
 Alpha virt. eigenvalues --    3.10767   3.13962   3.18309   3.20156   3.29635
 Alpha virt. eigenvalues --    3.31592   3.37215   3.40939   3.45041   3.52151
 Alpha virt. eigenvalues --    3.56505   3.64937   3.74098   3.83107   3.87845
 Alpha virt. eigenvalues --    3.91122   4.00369   4.06458   4.12766   4.35539
 Alpha virt. eigenvalues --    4.46140   4.80241   5.18226   9.76032   9.78181
 Alpha virt. eigenvalues --   23.44941  23.70511  23.85839  23.87940  23.89573
 Alpha virt. eigenvalues --   23.97351  24.06661  24.06902  24.13720  25.81144
 Alpha virt. eigenvalues --   25.81682  26.11325  26.18550  26.59259  26.64232
 Alpha virt. eigenvalues --   35.59856 215.75126 215.77645
          Condensed to atoms (all electrons):
               1          2          3          4          5          6
     1  C   10.403655  -0.342814  -1.419903  -0.299297  -1.215705  -0.069291
     2  C   -0.342814  14.339528   1.418433   0.179113  -1.558417  -4.172421
     3  C   -1.419903   1.418433  14.425248  -3.033766  -0.628786  -3.198059
     4  C   -0.299297   0.179113  -3.033766  19.086050  -4.443216   1.275850
     5  C   -1.215705  -1.558417  -0.628786  -4.443216  11.277750   0.504460
     6  C   -0.069291  -4.172421  -3.198059   1.275850   0.504460  12.563970
     7  H    0.014122   0.275927  -0.028577   0.041396   0.015039   0.019608
     8  C   -0.593740  -3.974340  -1.089579  -6.346594   4.282844  -0.488849
     9  H    0.015016  -0.020277  -0.010665  -0.045557   0.325750   0.018120
    10  H    0.029171  -0.013883   0.027963  -0.013948  -0.034057   0.340774
    11  C    0.164298   0.890815   0.530634   0.095629  -1.898885   0.199749
    12  C   -0.237083  -0.799636   0.559347  -2.099257   0.314195  -0.150913
    13  H    0.000732   0.001907   0.000762   0.038298   0.015151   0.000628
    14  H    0.000385   0.007082   0.032500  -0.006487  -0.003104  -0.000752
    15  N    0.100803  -0.438003  -0.194004   0.397519  -0.050440   0.127534
    16  Cl  -0.038129  -0.067231  -0.189270  -0.047233   0.159053  -0.238668
    17  Cl  -0.974586   0.611126  -0.171277  -0.105207   0.041087   0.011733
               7          8          9         10         11         12
     1  C    0.014122  -0.593740   0.015016   0.029171   0.164298  -0.237083
     2  C    0.275927  -3.974340  -0.020277  -0.013883   0.890815  -0.799636
     3  C   -0.028577  -1.089579  -0.010665   0.027963   0.530634   0.559347
     4  C    0.041396  -6.346594  -0.045557  -0.013948   0.095629  -2.099257
     5  C    0.015039   4.282844   0.325750  -0.034057  -1.898885   0.314195
     6  C    0.019608  -0.488849   0.018120   0.340774   0.199749  -0.150913
     7  H    0.494212   0.026953   0.000025  -0.000242  -0.002586   0.004889
     8  C    0.026953  21.549823   0.004959   0.019293  -8.391553   0.906057
     9  H    0.000025   0.004959   0.527452  -0.008645   0.045434   0.005494
    10  H   -0.000242   0.019293  -0.008645   0.512449  -0.004635   0.000806
    11  C   -0.002586  -8.391553   0.045434  -0.004635  15.155269  -0.144666
    12  C    0.004889   0.906057   0.005494   0.000806  -0.144666   6.848892
    13  H   -0.000001   0.052955  -0.000037   0.000000   0.259683  -0.025087
    14  H   -0.000048  -0.022261  -0.000004   0.000000  -0.060817   0.446648
    15  N   -0.003886   0.101300  -0.000009   0.000333   0.029050   0.185354
    16  Cl   0.000199  -0.079857  -0.025166   0.000931  -0.434408   0.170487
    17  Cl  -0.013565  -0.131133   0.001037  -0.009560   0.010913  -0.017754
              13         14         15         16         17
     1  C    0.000732   0.000385   0.100803  -0.038129  -0.974586
     2  C    0.001907   0.007082  -0.438003  -0.067231   0.611126
     3  C    0.000762   0.032500  -0.194004  -0.189270  -0.171277
     4  C    0.038298  -0.006487   0.397519  -0.047233  -0.105207
     5  C    0.015151  -0.003104  -0.050440   0.159053   0.041087
     6  C    0.000628  -0.000752   0.127534  -0.238668   0.011733
     7  H   -0.000001  -0.000048  -0.003886   0.000199  -0.013565
     8  C    0.052955  -0.022261   0.101300  -0.079857  -0.131133
     9  H   -0.000037  -0.000004  -0.000009  -0.025166   0.001037
    10  H    0.000000   0.000000   0.000333   0.000931  -0.009560
    11  C    0.259683  -0.060817   0.029050  -0.434408   0.010913
    12  C   -0.025087   0.446648   0.185354   0.170487  -0.017754
    13  H    0.511829  -0.002893   0.003209  -0.008313   0.000009
    14  H   -0.002893   0.528024  -0.068454   0.000747   0.000047
    15  N    0.003209  -0.068454   6.824433   0.003538  -0.000990
    16  Cl  -0.008313   0.000747   0.003538  17.321107  -0.002992
    17  Cl   0.000009   0.000047  -0.000990  -0.002992  17.323441
 Mulliken charges:
               1
     1  C    0.462365
     2  C   -0.336908
     3  C   -1.031000
     4  C    1.326707
     5  C   -1.102720
     6  C   -0.743473
     7  H    0.156535
     8  C    0.173724
     9  H    0.167072
    10  H    0.153250
    11  C   -0.443925
    12  C    0.032228
    13  H    0.151168
    14  H    0.149388
    15  N   -0.017286
    16  Cl   0.475204
    17  Cl   0.427670
 Sum of Mulliken charges =   0.00000
 Mulliken charges with hydrogens summed into heavy atoms:
               1
     1  C    0.462365
     2  C   -0.180373
     3  C   -1.031000
     4  C    1.326707
     5  C   -0.935649
     6  C   -0.590223
     8  C    0.173724
    11  C   -0.292757
    12  C    0.181616
    15  N   -0.017286
    16  Cl   0.475204
    17  Cl   0.427670
 Electronic spatial extent (au):  <R**2>=           2965.7388
 Charge=              0.0000 electrons
 Dipole moment (field-independent basis, Debye):
    X=              1.7274    Y=             -0.9103    Z=              0.0003  Tot=              1.9526
 Quadrupole moment (field-independent basis, Debye-Ang):
   XX=            -80.0068   YY=            -81.4408   ZZ=            -86.1364
   XY=              5.4716   XZ=              0.0012   YZ=             -0.0003
 Traceless Quadrupole moment (field-independent basis, Debye-Ang):
   XX=              2.5212   YY=              1.0872   ZZ=             -3.6084
   XY=              5.4716   XZ=              0.0012   YZ=             -0.0003
 Octapole moment (field-independent basis, Debye-Ang**2):
  XXX=             26.8466  YYY=            -26.9699  ZZZ=              0.0000  XYY=              6.9813
  XXY=             19.0948  XXZ=              0.0041  XZZ=             -1.6690  YZZ=             -3.0858
  YYZ=              0.0021  XYZ=              0.0026
 Hexadecapole moment (field-independent basis, Debye-Ang**3):
 XXXX=          -2808.3912 YYYY=           -975.5444 ZZZZ=            -99.5591 XXXY=             38.5461
 XXXZ=              0.0189 YYYX=             15.9128 YYYZ=             -0.0022 ZZZX=              0.0000
 ZZZY=              0.0005 XXYY=           -577.0725 XXZZ=           -514.9122 YYZZ=           -193.0598
 XXYZ=              0.0041 YYXZ=              0.0042 ZZXY=             -9.1803
 N-N= 7.847372703746D+02 E-N=-4.687174662012D+03  KE= 1.316928549980D+03
 There are a total of      139240 grid points.
 ElSum from          density=       99.9999363791
 ElSum from atomic densities=       99.9994604261

 Hirshfeld populations at iteration   1 (CX, CA, CB, DipXYZ):
               1          2          3          4          5          6
     1  C    0.000001   2.980113   2.980113  -0.097647  -0.024859   0.000015
     2  C    0.000000   3.019691   3.019691   0.007406   0.056313  -0.000034
     3  C    0.000000   2.969196   2.969196   0.011980   0.027698   0.000011
     4  C    0.000000   3.006032   3.006032   0.000923   0.007218  -0.000005
     5  C    0.000000   3.019405   3.019405   0.039681  -0.031798  -0.000025
     6  C    0.000000   3.020501   3.020501  -0.043878  -0.040571   0.000024
     7  H    0.000005   0.468250   0.468250  -0.080852   0.139164  -0.000007
     8  C    0.000001   2.975635   2.975635   0.021611  -0.098487  -0.000006
     9  H    0.000003   0.474880   0.474880   0.048085  -0.139361   0.000036
    10  H    0.000003   0.470475   0.470475  -0.069622  -0.148062   0.000006
    11  C    0.000000   3.026302   3.026302   0.055638   0.034776  -0.000015
    12  C    0.000000   2.979383   2.979383   0.035501   0.050856   0.000024
    13  H    0.000003   0.470484   0.470484   0.163383   0.020390   0.000052
    14  H    0.000003   0.466078   0.466078   0.095356   0.138787   0.000002
    15  N    0.000003   3.599773   3.599773   0.086474  -0.214067  -0.000008
    16  Cl   0.000009   8.521801   8.521801  -0.029218  -0.038236   0.000004
    17  Cl   0.000010   8.531970   8.531970  -0.007150   0.004177  -0.000004
       Tot   0.000044  49.999968  49.999968   0.237672  -0.256062   0.000068

 Dip from Atomic Chgs              0.441881  -0.102027   0.000069
         Total Dipole              0.679552  -0.358089   0.000137

 Hirshfeld charges, spin densities, dipoles, and CM5 charges using IRadAn=      4:
              Q-H        S-H        Dx         Dy         Dz        Q-CM5   
     1  C    0.039774   0.000000  -0.097647  -0.024859   0.000015   0.033327
     2  C   -0.039382   0.000000   0.007406   0.056313  -0.000034  -0.081728
     3  C    0.061608   0.000000   0.011980   0.027698   0.000011   0.119046
     4  C   -0.012064   0.000000   0.000923   0.007218  -0.000005  -0.010990
     5  C   -0.038809   0.000000   0.039681  -0.031798  -0.000025  -0.088688
     6  C   -0.041002   0.000000  -0.043878  -0.040571   0.000024  -0.091108
     7  H    0.063500   0.000000  -0.080852   0.139164  -0.000007   0.118863
     8  C    0.048729   0.000000   0.021611  -0.098487  -0.000006   0.046438
     9  H    0.050241   0.000000   0.048085  -0.139361   0.000036   0.102349
    10  H    0.059050   0.000000  -0.069622  -0.148062   0.000006   0.111626
    11  C   -0.052603   0.000000   0.055638   0.034776  -0.000015  -0.097327
    12  C    0.041233   0.000000   0.035501   0.050856   0.000024   0.060276
    13  H    0.059032   0.000000   0.163383   0.020390   0.000052   0.112031
    14  H    0.067845   0.000000   0.095356   0.138787   0.000002   0.128931
    15  N   -0.199546   0.000000   0.086474  -0.214067  -0.000008  -0.360493
    16  Cl  -0.043602   0.000000  -0.029218  -0.038236   0.000004  -0.040445
    17  Cl  -0.063940   0.000000  -0.007150   0.004177  -0.000004  -0.062046
       Tot   0.000064   0.000000   0.237672  -0.256062   0.000068   0.000064
 Hirshfeld charges with hydrogens summed into heavy atoms:
              Q-H       Q-CM5   
     1  C    0.039774   0.033327
     2  C    0.024118   0.037135
     3  C    0.061608   0.119046
     4  C   -0.012064  -0.010990
     5  C    0.011432   0.013661
     6  C    0.018048   0.020519
     8  C    0.048729   0.046438
    11  C    0.006429   0.014705
    12  C    0.109078   0.189207
    15  N   -0.199546  -0.360493
    16  Cl  -0.043602  -0.040445
    17  Cl  -0.063940  -0.062046
 
 EQQ= 0.000000000000E+00 EQD= 0.000000000000E+00 EDD= 0.467169514095E-02
 EQQ+QD+DD= 0.467169514095E-02
 
          MBS Condensed to atoms (all electrons):
               1          2          3          4          5          6
     1  C    4.714098   0.528354  -0.025889  -0.009702  -0.028708   0.474108
     2  C    0.528354   4.830409   0.474668  -0.034275  -0.009612  -0.032526
     3  C   -0.025889   0.474668   4.686555   0.466027  -0.027768  -0.009591
     4  C   -0.009702  -0.034275   0.466027   4.784391   0.470293  -0.030336
     5  C   -0.028708  -0.009612  -0.027768   0.470293   4.834551   0.530626
     6  C    0.474108  -0.032526  -0.009591  -0.030336   0.530626   4.820141
     7  H   -0.022971   0.380387  -0.022875   0.001347   0.000050   0.001369
     8  C    0.000043   0.000811  -0.026635   0.470642  -0.028784   0.000874
     9  H    0.001373   0.000002   0.001234  -0.024802   0.382865  -0.023030
    10  H   -0.025444   0.001359   0.000056   0.001470  -0.023529   0.385364
    11  C    0.000001  -0.000001  -0.010323  -0.031299   0.000739  -0.000009
    12  C   -0.000012   0.001026  -0.034419  -0.009726   0.000052   0.000001
    13  H    0.000000   0.000001   0.000075   0.001363  -0.000019   0.000000
    14  H    0.000000  -0.000012   0.001734  -0.000037   0.000001   0.000000
    15  N    0.000443  -0.026386   0.394013  -0.025185   0.000579   0.000012
    16  Cl  -0.000001  -0.000005   0.000539  -0.027926  -0.007597   0.000062
    17  Cl   0.265494  -0.028572   0.000618   0.000003   0.000653  -0.028690
               7          8          9         10         11         12
     1  C   -0.022971   0.000043   0.001373  -0.025444   0.000001  -0.000012
     2  C    0.380387   0.000811   0.000002   0.001359  -0.000001   0.001026
     3  C   -0.022875  -0.026635   0.001234   0.000056  -0.010323  -0.034419
     4  C    0.001347   0.470642  -0.024802   0.001470  -0.031299  -0.009726
     5  C    0.000050  -0.028784   0.382865  -0.023529   0.000739   0.000052
     6  C    0.001369   0.000874  -0.023030   0.385364  -0.000009   0.000001
     7  H    0.524101  -0.000017   0.000002  -0.000040   0.000002   0.000012
     8  C   -0.000017   4.708232  -0.004336  -0.000018   0.528153  -0.027216
     9  H    0.000002  -0.004336   0.536815  -0.004019   0.000051  -0.000003
    10  H   -0.000040  -0.000018  -0.004019   0.540477   0.000000   0.000000
    11  C    0.000002   0.528153   0.000051   0.000000   4.856093   0.466196
    12  C    0.000012  -0.027216  -0.000003   0.000000   0.466196   4.733812
    13  H    0.000000  -0.024453  -0.000002   0.000000   0.381738  -0.022515
    14  H   -0.000003   0.001214   0.000000   0.000000  -0.030674   0.386233
    15  N   -0.000498  -0.007411  -0.000013   0.000000  -0.027739   0.448742
    16  Cl   0.000000   0.266897   0.004810   0.000001  -0.028228   0.000630
    17  Cl  -0.002297   0.000000  -0.000013  -0.001673   0.000000   0.000000
              13         14         15         16         17
     1  C    0.000000   0.000000   0.000443  -0.000001   0.265494
     2  C    0.000001  -0.000012  -0.026386  -0.000005  -0.028572
     3  C    0.000075   0.001734   0.394013   0.000539   0.000618
     4  C    0.001363  -0.000037  -0.025185  -0.027926   0.000003
     5  C   -0.000019   0.000001   0.000579  -0.007597   0.000653
     6  C    0.000000   0.000000   0.000012   0.000062  -0.028690
     7  H    0.000000  -0.000003  -0.000498   0.000000  -0.002297
     8  C   -0.024453   0.001214  -0.007411   0.266897   0.000000
     9  H   -0.000002   0.000000  -0.000013   0.004810  -0.000013
    10  H    0.000000   0.000000   0.000000   0.000001  -0.001673
    11  C    0.381738  -0.030674  -0.027739  -0.028228   0.000000
    12  C   -0.022515   0.386233   0.448742   0.000630   0.000000
    13  H    0.543267  -0.002547   0.000988  -0.002281   0.000000
    14  H   -0.002547   0.533722  -0.023670  -0.000013   0.000000
    15  N    0.000988  -0.023670   6.627934  -0.000002  -0.000001
    16  Cl  -0.002281  -0.000013  -0.000002  16.977970   0.000000
    17  Cl   0.000000   0.000000  -0.000001   0.000000  16.987387
 MBS Mulliken charges:
               1
     1  C    0.128813
     2  C   -0.085628
     3  C    0.131982
     4  C   -0.002249
     5  C   -0.094394
     6  C   -0.088372
     7  H    0.141433
     8  C    0.142004
     9  H    0.129065
    10  H    0.125996
    11  C   -0.104698
    12  C    0.057187
    13  H    0.124383
    14  H    0.134051
    15  N   -0.361807
    16  Cl  -0.184857
    17  Cl  -0.192909
 Sum of MBS Mulliken charges =   0.00000
 MBS Mulliken charges with hydrogens summed into heavy atoms:
               1
     1  C    0.128813
     2  C    0.055805
     3  C    0.131982
     4  C   -0.002249
     5  C    0.034671
     6  C    0.037624
     8  C    0.142004
    11  C    0.019685
    12  C    0.191238
    15  N   -0.361807
    16  Cl  -0.184857
    17  Cl  -0.192909
 Breneman (CHELPG) radii used.
 Generate Potential Derived Charges using the Breneman model, NDens= 1.
 Grid spacing= 0.300 Box extension= 2.800
 NStep X,Y,Z=   46     39     20   Total possible points=       35880
 Number of Points to Fit=   11540

 **********************************************************************

            Electrostatic Properties Using The SCF Density

 **********************************************************************

       Atomic Center    1 is at  -2.205524 -0.149393  0.000036
       Atomic Center    2 is at  -1.529404  1.045364 -0.000172
       Atomic Center    3 is at  -0.107612  1.070285 -0.000043
       Atomic Center    4 is at   0.603967 -0.157249 -0.000066
       Atomic Center    5 is at  -0.121660 -1.379850 -0.000010
       Atomic Center    6 is at  -1.494988 -1.374248  0.000149
       Atomic Center    7 is at  -2.073089  2.001993 -0.000214
       Atomic Center    8 is at   2.025816 -0.131427 -0.000052
       Atomic Center    9 is at   0.439487 -2.326197  0.000177
       Atomic Center   10 is at  -2.059519 -2.318283  0.000209
       Atomic Center   11 is at   2.702025  1.063349  0.000012
       Atomic Center   12 is at   1.991249  2.288294  0.000125
       Atomic Center   13 is at   3.801770  1.085244  0.000289
       Atomic Center   14 is at   2.555861  3.232273  0.000145
       Atomic Center   15 is at   0.618317  2.293073  0.000010
       Atomic Center   16 is at   2.896002 -1.661256 -0.000037
       Atomic Center   17 is at  -3.965175 -0.184467  0.000006
   11540 points will be used for fitting atomic charges
 Fitting point charges to electrostatic potential
 Charges from ESP fit, RMS=   0.00513 RRMS=   0.42128:
 ESP charges:
               1
     1  C    0.097351
     2  C   -0.223463
     3  C    0.480162
     4  C   -0.008455
     5  C   -0.202140
     6  C   -0.050328
     7  H    0.140239
     8  C    0.157403
     9  H    0.139326
    10  H    0.098553
    11  C   -0.271760
    12  C    0.363118
    13  H    0.121075
    14  H    0.052529
    15  N   -0.667770
    16  Cl  -0.110157
    17  Cl  -0.115683
 Sum of ESP charges =   0.00000
 ESP charges with hydrogens summed into heavy atoms:
               1
     1  C    0.097351
     2  C   -0.083225
     3  C    0.480162
     4  C   -0.008455
     5  C   -0.062814
     6  C    0.048225
     8  C    0.157403
    11  C   -0.150685
    12  C    0.415647
    15  N   -0.667770
    16  Cl  -0.110157
    17  Cl  -0.115683
 Charge=   0.00000 Dipole=     1.7609    -0.7738     0.0005 Tot=     1.9235
 -----------------------------------------------------------------

              Electrostatic Properties (Atomic Units)

 -----------------------------------------------------------------
    Center     Electric         -------- Electric Field --------
               Potential          X             Y             Z
 -----------------------------------------------------------------
    1 Atom    -14.688560
    2 Atom    -14.743339
    3 Atom    -14.701732
    4 Atom    -14.730484
    5 Atom    -14.742268
    6 Atom    -14.740560
    7 Atom     -1.079097
    8 Atom    -14.678419
    9 Atom     -1.077812
   10 Atom     -1.077332
   11 Atom    -14.739254
   12 Atom    -14.705205
   13 Atom     -1.071084
   14 Atom     -1.072464
   15 Atom    -18.382389
   16 Atom    -64.372441
   17 Atom    -64.382068
 -----------------------------------------------------------------
 ******************************Gaussian NBO Version 3.1******************************
             N A T U R A L   A T O M I C   O R B I T A L   A N D
          N A T U R A L   B O N D   O R B I T A L   A N A L Y S I S
 ******************************Gaussian NBO Version 3.1******************************
       /RESON  / : Allow strongly delocalized NBO set

 Analyzing the SCF density

 Job title: Title Card Required                                             

 Storage needed:    289750 in NPA ( 536869331 available)


 NATURAL POPULATIONS:  Natural atomic orbital occupancies 
                                                          
   NAO  Atom  No  lang   Type(AO)    Occupancy      Energy
 ----------------------------------------------------------
     1    C    1  S      Cor( 1S)     1.99854     -10.13205
     2    C    1  S      Val( 2S)     0.93482      -0.23846
     3    C    1  S      Ryd( 4S)     0.00067       0.84583
     4    C    1  S      Ryd( 3S)     0.00029       0.56374
     5    C    1  S      Ryd( 5S)     0.00001      23.23312
     6    C    1  px     Val( 2p)     0.92633      -0.17567
     7    C    1  px     Ryd( 4p)     0.00696       0.94049
     8    C    1  px     Ryd( 3p)     0.00028       0.69794
     9    C    1  px     Ryd( 5p)     0.00041       2.74557
    10    C    1  py     Val( 2p)     1.09134      -0.09941
    11    C    1  py     Ryd( 3p)     0.00673       0.77598
    12    C    1  py     Ryd( 4p)     0.00035       0.80620
    13    C    1  py     Ryd( 5p)     0.00009       2.86657
    14    C    1  pz     Val( 2p)     1.05497      -0.16420
    15    C    1  pz     Ryd( 3p)     0.00105       0.58557
    16    C    1  pz     Ryd( 4p)     0.00028       0.73680
    17    C    1  pz     Ryd( 5p)     0.00008       2.20530
    18    C    1  dxy    Ryd( 3d)     0.00122       2.43690
    19    C    1  dxz    Ryd( 3d)     0.00152       1.46374
    20    C    1  dyz    Ryd( 3d)     0.00067       1.62149
    21    C    1  dx2y2  Ryd( 3d)     0.00188       2.17827
    22    C    1  dz2    Ryd( 3d)     0.00083       1.97172

    23    C    2  S      Cor( 1S)     1.99884     -10.05653
    24    C    2  S      Val( 2S)     0.94918      -0.18439
    25    C    2  S      Ryd( 3S)     0.00219       0.82881
    26    C    2  S      Ryd( 4S)     0.00038       0.93489
    27    C    2  S      Ryd( 5S)     0.00001      22.82007
    28    C    2  px     Val( 2p)     1.08523      -0.08115
    29    C    2  px     Ryd( 4p)     0.00578       0.82365
    30    C    2  px     Ryd( 3p)     0.00040       0.40687
    31    C    2  px     Ryd( 5p)     0.00010       3.14874
    32    C    2  py     Val( 2p)     1.17582      -0.10232
    33    C    2  py     Ryd( 4p)     0.00587       0.99856
    34    C    2  py     Ryd( 3p)     0.00072       0.35492
    35    C    2  py     Ryd( 5p)     0.00010       3.18119
    36    C    2  pz     Val( 2p)     0.98963      -0.13303
    37    C    2  pz     Ryd( 4p)     0.00105       0.50443
    38    C    2  pz     Ryd( 3p)     0.00043       0.28029
    39    C    2  pz     Ryd( 5p)     0.00002       2.69904
    40    C    2  dxy    Ryd( 3d)     0.00064       2.48006
    41    C    2  dxz    Ryd( 3d)     0.00042       1.62531
    42    C    2  dyz    Ryd( 3d)     0.00064       1.60794
    43    C    2  dx2y2  Ryd( 3d)     0.00079       2.52826
    44    C    2  dz2    Ryd( 3d)     0.00044       2.02840

    45    C    3  S      Cor( 1S)     1.99887     -10.10865
    46    C    3  S      Val( 2S)     0.84175      -0.15278
    47    C    3  S      Ryd( 3S)     0.00157       0.85271
    48    C    3  S      Ryd( 4S)     0.00027       1.01750
    49    C    3  S      Ryd( 5S)     0.00002      22.51242
    50    C    3  px     Val( 2p)     1.03659      -0.07804
    51    C    3  px     Ryd( 4p)     0.00563       1.17157
    52    C    3  px     Ryd( 3p)     0.00037       0.58960
    53    C    3  px     Ryd( 5p)     0.00011       3.09786
    54    C    3  py     Val( 2p)     0.94412      -0.06263
    55    C    3  py     Ryd( 4p)     0.00919       1.06871
    56    C    3  py     Ryd( 3p)     0.00094       0.50044
    57    C    3  py     Ryd( 5p)     0.00012       3.06133
    58    C    3  pz     Val( 2p)     0.96804      -0.13474
    59    C    3  pz     Ryd( 4p)     0.00033       0.59106
    60    C    3  pz     Ryd( 3p)     0.00057       0.40460
    61    C    3  pz     Ryd( 5p)     0.00001       2.58668
    62    C    3  dxy    Ryd( 3d)     0.00115       2.49707
    63    C    3  dxz    Ryd( 3d)     0.00092       1.60413
    64    C    3  dyz    Ryd( 3d)     0.00088       1.59626
    65    C    3  dx2y2  Ryd( 3d)     0.00154       2.49908
    66    C    3  dz2    Ryd( 3d)     0.00047       2.04068

    67    C    4  S      Cor( 1S)     1.99880     -10.06525
    68    C    4  S      Val( 2S)     0.87243      -0.14976
    69    C    4  S      Ryd( 3S)     0.00111       0.79702
    70    C    4  S      Ryd( 4S)     0.00027       0.86966
    71    C    4  S      Ryd( 5S)     0.00002      22.98921
    72    C    4  px     Val( 2p)     1.10131      -0.11027
    73    C    4  px     Ryd( 4p)     0.00480       1.17146
    74    C    4  px     Ryd( 3p)     0.00015       0.67422
    75    C    4  px     Ryd( 5p)     0.00012       3.31931
    76    C    4  py     Val( 2p)     1.11308      -0.10053
    77    C    4  py     Ryd( 4p)     0.00517       1.19342
    78    C    4  py     Ryd( 3p)     0.00022       0.60815
    79    C    4  py     Ryd( 5p)     0.00012       3.30396
    80    C    4  pz     Val( 2p)     1.02135      -0.13722
    81    C    4  pz     Ryd( 4p)     0.00072       0.55446
    82    C    4  pz     Ryd( 3p)     0.00020       0.47630
    83    C    4  pz     Ryd( 5p)     0.00001       2.63691
    84    C    4  dxy    Ryd( 3d)     0.00075       2.60349
    85    C    4  dxz    Ryd( 3d)     0.00057       1.62299
    86    C    4  dyz    Ryd( 3d)     0.00058       1.62406
    87    C    4  dx2y2  Ryd( 3d)     0.00079       2.52936
    88    C    4  dz2    Ryd( 3d)     0.00040       2.07870

    89    C    5  S      Cor( 1S)     1.99907     -10.06136
    90    C    5  S      Val( 2S)     0.94308      -0.18614
    91    C    5  S      Ryd( 3S)     0.00195       0.74665
    92    C    5  S      Ryd( 4S)     0.00016       1.29534
    93    C    5  S      Ryd( 5S)     0.00001      22.34209
    94    C    5  px     Val( 2p)     1.09190      -0.07727
    95    C    5  px     Ryd( 4p)     0.00460       0.97131
    96    C    5  px     Ryd( 3p)     0.00041       0.45306
    97    C    5  px     Ryd( 5p)     0.00012       3.10873
    98    C    5  py     Val( 2p)     1.13709      -0.08083
    99    C    5  py     Ryd( 4p)     0.00535       0.94581
   100    C    5  py     Ryd( 3p)     0.00041       0.35732
   101    C    5  py     Ryd( 5p)     0.00009       3.16723
   102    C    5  pz     Val( 2p)     0.97660      -0.13502
   103    C    5  pz     Ryd( 4p)     0.00101       0.52229
   104    C    5  pz     Ryd( 3p)     0.00057       0.31554
   105    C    5  pz     Ryd( 5p)     0.00002       2.64605
   106    C    5  dxy    Ryd( 3d)     0.00072       2.48162
   107    C    5  dxz    Ryd( 3d)     0.00060       1.63971
   108    C    5  dyz    Ryd( 3d)     0.00037       1.59644
   109    C    5  dx2y2  Ryd( 3d)     0.00066       2.55021
   110    C    5  dz2    Ryd( 3d)     0.00041       2.03436

   111    C    6  S      Cor( 1S)     1.99897     -10.06106
   112    C    6  S      Val( 2S)     0.95045      -0.19009
   113    C    6  S      Ryd( 3S)     0.00191       0.80501
   114    C    6  S      Ryd( 4S)     0.00029       1.24692
   115    C    6  S      Ryd( 5S)     0.00001      22.50954
   116    C    6  px     Val( 2p)     1.10394      -0.08312
   117    C    6  px     Ryd( 4p)     0.00636       0.82824
   118    C    6  px     Ryd( 3p)     0.00036       0.42566
   119    C    6  px     Ryd( 5p)     0.00013       3.14469
   120    C    6  py     Val( 2p)     1.14828      -0.09645
   121    C    6  py     Ryd( 4p)     0.00550       0.90981
   122    C    6  py     Ryd( 3p)     0.00027       0.31830
   123    C    6  py     Ryd( 5p)     0.00008       3.15390
   124    C    6  pz     Val( 2p)     0.99199      -0.13659
   125    C    6  pz     Ryd( 4p)     0.00109       0.49312
   126    C    6  pz     Ryd( 3p)     0.00040       0.29491
   127    C    6  pz     Ryd( 5p)     0.00001       2.67385
   128    C    6  dxy    Ryd( 3d)     0.00081       2.45309
   129    C    6  dxz    Ryd( 3d)     0.00053       1.63688
   130    C    6  dyz    Ryd( 3d)     0.00045       1.58517
   131    C    6  dx2y2  Ryd( 3d)     0.00071       2.53450
   132    C    6  dz2    Ryd( 3d)     0.00041       2.01266

   133    H    7  S      Val( 1S)     0.75360       0.02542
   134    H    7  S      Ryd( 2S)     0.00155       0.91621
   135    H    7  S      Ryd( 3S)     0.00018       1.78081
   136    H    7  px     Ryd( 2p)     0.00023       2.15268
   137    H    7  py     Ryd( 2p)     0.00037       2.50202
   138    H    7  pz     Ryd( 2p)     0.00015       1.58607

   139    C    8  S      Cor( 1S)     1.99848     -10.13953
   140    C    8  S      Val( 2S)     0.92369      -0.23690
   141    C    8  S      Ryd( 4S)     0.00093       0.83356
   142    C    8  S      Ryd( 3S)     0.00029       0.59432
   143    C    8  S      Ryd( 5S)     0.00002      23.23378
   144    C    8  px     Val( 2p)     1.03498      -0.11785
   145    C    8  px     Ryd( 4p)     0.00658       0.76326
   146    C    8  px     Ryd( 3p)     0.00038       0.67905
   147    C    8  px     Ryd( 5p)     0.00019       2.93760
   148    C    8  py     Val( 2p)     0.97229      -0.16801
   149    C    8  py     Ryd( 4p)     0.00770       0.93631
   150    C    8  py     Ryd( 3p)     0.00021       0.67636
   151    C    8  py     Ryd( 5p)     0.00038       2.85193
   152    C    8  pz     Val( 2p)     1.02581      -0.17099
   153    C    8  pz     Ryd( 3p)     0.00111       0.56507
   154    C    8  pz     Ryd( 4p)     0.00032       0.65135
   155    C    8  pz     Ryd( 5p)     0.00004       2.30370
   156    C    8  dxy    Ryd( 3d)     0.00171       2.25169
   157    C    8  dxz    Ryd( 3d)     0.00082       1.56986
   158    C    8  dyz    Ryd( 3d)     0.00134       1.50612
   159    C    8  dx2y2  Ryd( 3d)     0.00134       2.34847
   160    C    8  dz2    Ryd( 3d)     0.00084       1.95323

   161    H    9  S      Val( 1S)     0.76572       0.02210
   162    H    9  S      Ryd( 2S)     0.00099       1.02123
   163    H    9  S      Ryd( 3S)     0.00018       1.63158
   164    H    9  px     Ryd( 2p)     0.00025       2.16987
   165    H    9  py     Ryd( 2p)     0.00042       2.49273
   166    H    9  pz     Ryd( 2p)     0.00018       1.57716

   167    H   10  S      Val( 1S)     0.76933       0.01985
   168    H   10  S      Ryd( 2S)     0.00071       0.90256
   169    H   10  S      Ryd( 3S)     0.00018       1.81946
   170    H   10  px     Ryd( 2p)     0.00023       2.15286
   171    H   10  py     Ryd( 2p)     0.00035       2.46027
   172    H   10  pz     Ryd( 2p)     0.00017       1.57115

   173    C   11  S      Cor( 1S)     1.99892     -10.06371
   174    C   11  S      Val( 2S)     0.96356      -0.20260
   175    C   11  S      Ryd( 3S)     0.00203       0.72372
   176    C   11  S      Ryd( 4S)     0.00038       0.93323
   177    C   11  S      Ryd( 5S)     0.00001      22.89236
   178    C   11  px     Val( 2p)     1.19499      -0.10758
   179    C   11  px     Ryd( 4p)     0.00550       0.99564
   180    C   11  px     Ryd( 3p)     0.00042       0.29472
   181    C   11  px     Ryd( 5p)     0.00006       3.16583
   182    C   11  py     Val( 2p)     1.08067      -0.09825
   183    C   11  py     Ryd( 4p)     0.00494       0.74831
   184    C   11  py     Ryd( 3p)     0.00034       0.41697
   185    C   11  py     Ryd( 5p)     0.00016       3.10761
   186    C   11  pz     Val( 2p)     1.01398      -0.14339
   187    C   11  pz     Ryd( 4p)     0.00132       0.47559
   188    C   11  pz     Ryd( 3p)     0.00038       0.30917
   189    C   11  pz     Ryd( 5p)     0.00003       2.66245
   190    C   11  dxy    Ryd( 3d)     0.00073       2.54365
   191    C   11  dxz    Ryd( 3d)     0.00048       1.56909
   192    C   11  dyz    Ryd( 3d)     0.00043       1.64084
   193    C   11  dx2y2  Ryd( 3d)     0.00069       2.43531
   194    C   11  dz2    Ryd( 3d)     0.00042       1.98904

   195    C   12  S      Cor( 1S)     1.99921     -10.11484
   196    C   12  S      Val( 2S)     0.94444      -0.21552
   197    C   12  S      Ryd( 3S)     0.00244       0.71575
   198    C   12  S      Ryd( 4S)     0.00024       0.74499
   199    C   12  S      Ryd( 5S)     0.00001      22.95992
   200    C   12  px     Val( 2p)     0.92649      -0.05494
   201    C   12  px     Ryd( 4p)     0.00911       0.82667
   202    C   12  px     Ryd( 3p)     0.00069       0.28169
   203    C   12  px     Ryd( 5p)     0.00010       3.01919
   204    C   12  py     Val( 2p)     1.11437      -0.08552
   205    C   12  py     Ryd( 4p)     0.00706       0.87855
   206    C   12  py     Ryd( 3p)     0.00056       0.26117
   207    C   12  py     Ryd( 5p)     0.00013       3.05176
   208    C   12  pz     Val( 2p)     0.91126      -0.14170
   209    C   12  pz     Ryd( 4p)     0.00110       0.52327
   210    C   12  pz     Ryd( 3p)     0.00023       0.26846
   211    C   12  pz     Ryd( 5p)     0.00003       2.61107
   212    C   12  dxy    Ryd( 3d)     0.00180       2.40656
   213    C   12  dxz    Ryd( 3d)     0.00117       1.58604
   214    C   12  dyz    Ryd( 3d)     0.00047       1.56240
   215    C   12  dx2y2  Ryd( 3d)     0.00108       2.42019
   216    C   12  dz2    Ryd( 3d)     0.00044       1.95856

   217    H   13  S      Val( 1S)     0.76806       0.01093
   218    H   13  S      Ryd( 2S)     0.00095       0.73972
   219    H   13  S      Ryd( 3S)     0.00019       1.94114
   220    H   13  px     Ryd( 2p)     0.00044       2.65412
   221    H   13  py     Ryd( 2p)     0.00013       1.94545
   222    H   13  pz     Ryd( 2p)     0.00016       1.56583

   223    H   14  S      Val( 1S)     0.79243       0.00328
   224    H   14  S      Ryd( 2S)     0.00047       0.60269
   225    H   14  S      Ryd( 3S)     0.00015       2.12386
   226    H   14  px     Ryd( 2p)     0.00023       2.11909
   227    H   14  py     Ryd( 2p)     0.00040       2.45239
   228    H   14  pz     Ryd( 2p)     0.00015       1.55979

   229    N   15  S      Cor( 1S)     1.99945     -14.16604
   230    N   15  S      Val( 2S)     1.40240      -0.54950
   231    N   15  S      Ryd( 3S)     0.00230       1.18289
   232    N   15  S      Ryd( 4S)     0.00012       1.22480
   233    N   15  S      Ryd( 5S)     0.00000      35.24029
   234    N   15  px     Val( 2p)     1.31626      -0.18916
   235    N   15  px     Ryd( 4p)     0.00457       0.91348
   236    N   15  px     Ryd( 3p)     0.00028       0.88928
   237    N   15  px     Ryd( 5p)     0.00005       4.26988
   238    N   15  py     Val( 2p)     1.54075      -0.20872
   239    N   15  py     Ryd( 3p)     0.00591       0.66772
   240    N   15  py     Ryd( 4p)     0.00025       0.73870
   241    N   15  py     Ryd( 5p)     0.00004       4.02928
   242    N   15  pz     Val( 2p)     1.17024      -0.19536
   243    N   15  pz     Ryd( 3p)     0.00083       0.55604
   244    N   15  pz     Ryd( 4p)     0.00011       0.69967
   245    N   15  pz     Ryd( 5p)     0.00003       3.76003
   246    N   15  dxy    Ryd( 3d)     0.00122       2.67507
   247    N   15  dxz    Ryd( 3d)     0.00074       2.20736
   248    N   15  dyz    Ryd( 3d)     0.00095       2.12913
   249    N   15  dx2y2  Ryd( 3d)     0.00133       2.83830
   250    N   15  dz2    Ryd( 3d)     0.00088       2.51278

   251   Cl   16  S      Cor( 1S)     2.00000    -100.25401
   252   Cl   16  S      Cor( 2S)     1.99971     -10.49251
   253   Cl   16  S      Val( 3S)     1.83811      -1.02764
   254   Cl   16  S      Ryd( 4S)     0.00194       0.86161
   255   Cl   16  S      Ryd( 5S)     0.00007       1.21063
   256   Cl   16  S      Ryd( 6S)     0.00000      17.19341
   257   Cl   16  S      Ryd( 7S)     0.00000     207.70823
   258   Cl   16  px     Cor( 2p)     1.99997      -7.24460
   259   Cl   16  px     Val( 3p)     1.78698      -0.33180
   260   Cl   16  px     Ryd( 4p)     0.00217       0.40948
   261   Cl   16  px     Ryd( 5p)     0.00015       0.41222
   262   Cl   16  px     Ryd( 6p)     0.00002       3.27155
   263   Cl   16  px     Ryd( 7p)     0.00000      25.01953
   264   Cl   16  py     Cor( 2p)     1.99993      -7.24868
   265   Cl   16  py     Val( 3p)     1.41652      -0.30617
   266   Cl   16  py     Ryd( 4p)     0.00317       0.36947
   267   Cl   16  py     Ryd( 5p)     0.00015       0.42556
   268   Cl   16  py     Ryd( 6p)     0.00002       3.58176
   269   Cl   16  py     Ryd( 7p)     0.00000      25.04125
   270   Cl   16  pz     Cor( 2p)     1.99999      -7.24301
   271   Cl   16  pz     Val( 3p)     1.91673      -0.34210
   272   Cl   16  pz     Ryd( 4p)     0.00190       0.37621
   273   Cl   16  pz     Ryd( 5p)     0.00010       0.39385
   274   Cl   16  pz     Ryd( 6p)     0.00001       2.89286
   275   Cl   16  pz     Ryd( 7p)     0.00000      24.93185
   276   Cl   16  dxy    Ryd( 3d)     0.00358       1.20962
   277   Cl   16  dxz    Ryd( 3d)     0.00059       0.86295
   278   Cl   16  dyz    Ryd( 3d)     0.00179       0.90131
   279   Cl   16  dx2y2  Ryd( 3d)     0.00191       1.14220
   280   Cl   16  dz2    Ryd( 3d)     0.00146       0.97699

   281   Cl   17  S      Cor( 1S)     2.00000    -100.23883
   282   Cl   17  S      Cor( 2S)     1.99971     -10.48920
   283   Cl   17  S      Val( 3S)     1.83816      -1.01647
   284   Cl   17  S      Ryd( 4S)     0.00225       0.74487
   285   Cl   17  S      Ryd( 5S)     0.00007       1.15633
   286   Cl   17  S      Ryd( 6S)     0.00000      17.27408
   287   Cl   17  S      Ryd( 7S)     0.00000     207.71973
   288   Cl   17  px     Cor( 2p)     1.99991      -7.24103
   289   Cl   17  px     Val( 3p)     1.23159      -0.28394
   290   Cl   17  px     Ryd( 4p)     0.00371       0.34702
   291   Cl   17  px     Ryd( 5p)     0.00015       0.44593
   292   Cl   17  px     Ryd( 6p)     0.00002       6.02436
   293   Cl   17  px     Ryd( 7p)     0.00000      22.61014
   294   Cl   17  py     Cor( 2p)     1.99999      -7.23265
   295   Cl   17  py     Val( 3p)     1.97001      -0.33374
   296   Cl   17  py     Ryd( 4p)     0.00197       0.38484
   297   Cl   17  py     Ryd( 5p)     0.00013       0.51702
   298   Cl   17  py     Ryd( 6p)     0.00001       5.20516
   299   Cl   17  py     Ryd( 7p)     0.00000      22.81133
   300   Cl   17  pz     Cor( 2p)     1.99999      -7.23311
   301   Cl   17  pz     Val( 3p)     1.92185      -0.33218
   302   Cl   17  pz     Ryd( 4p)     0.00196       0.37865
   303   Cl   17  pz     Ryd( 5p)     0.00012       0.47721
   304   Cl   17  pz     Ryd( 6p)     0.00000       4.89214
   305   Cl   17  pz     Ryd( 7p)     0.00000      22.86456
   306   Cl   17  dxy    Ryd( 3d)     0.00109       1.12162
   307   Cl   17  dxz    Ryd( 3d)     0.00232       0.92311
   308   Cl   17  dyz    Ryd( 3d)     0.00004       0.85584
   309   Cl   17  dx2y2  Ryd( 3d)     0.00437       1.20244
   310   Cl   17  dz2    Ryd( 3d)     0.00141       0.96895

 WARNING:  1 low occupancy (<1.9990e) core orbital  found on  C    1
           1 low occupancy (<1.9990e) core orbital  found on  C    2
           1 low occupancy (<1.9990e) core orbital  found on  C    3
           1 low occupancy (<1.9990e) core orbital  found on  C    4
           1 low occupancy (<1.9990e) core orbital  found on  C    6
           1 low occupancy (<1.9990e) core orbital  found on  C    8
           1 low occupancy (<1.9990e) core orbital  found on  C   11

 WARNING:  Population inversion found on atom  C    1
           Population inversion found on atom  C    2
           Population inversion found on atom  C    3
           Population inversion found on atom  C    4
           Population inversion found on atom  C    5
           Population inversion found on atom  C    6
           Population inversion found on atom  C    8
           Population inversion found on atom  C   11
           Population inversion found on atom  C   12
           Population inversion found on atom  N   15


 Summary of Natural Population Analysis:                  
                                                          
                                       Natural Population 
                Natural  -----------------------------------------------
    Atom  No    Charge         Core      Valence    Rydberg      Total
 -----------------------------------------------------------------------
      C    1   -0.02934      1.99854     4.00746    0.02333     6.02934
      C    2   -0.21868      1.99884     4.19986    0.01998     6.21868
      C    3    0.18653      1.99887     3.79050    0.02410     5.81347
      C    4   -0.12296      1.99880     4.10817    0.01599     6.12296
      C    5   -0.16519      1.99907     4.14867    0.01745     6.16519
      C    6   -0.21295      1.99897     4.19466    0.01932     6.21295
      H    7    0.24393      0.00000     0.75360    0.00247     0.75607
      C    8    0.02056      1.99848     3.95677    0.02419     5.97944
      H    9    0.23225      0.00000     0.76572    0.00202     0.76775
      H   10    0.22904      0.00000     0.76933    0.00163     0.77096
      C   11   -0.27044      1.99892     4.25320    0.01832     6.27044
      C   12    0.07756      1.99921     3.89656    0.02666     5.92244
      H   13    0.23006      0.00000     0.76806    0.00188     0.76994
      H   14    0.20616      0.00000     0.79243    0.00141     0.79384
      N   15   -0.44870      1.99945     5.42964    0.01961     7.44870
     Cl   16    0.02300      9.99961     6.95835    0.01904    16.97700
     Cl   17    0.01916      9.99961     6.96160    0.01963    16.98084
 =======================================================================
   * Total *    0.00000     39.98840    59.75458    0.25703   100.00000

                                 Natural Population      
 --------------------------------------------------------
   Core                      39.98840 ( 99.9710% of  40)
   Valence                   59.75458 ( 99.5910% of  60)
   Natural Minimal Basis     99.74297 ( 99.7430% of 100)
   Natural Rydberg Basis      0.25703 (  0.2570% of 100)
 --------------------------------------------------------

    Atom  No          Natural Electron Configuration
 ----------------------------------------------------------------------------
      C    1      [core]2S( 0.93)2p( 3.07)3p( 0.01)3d( 0.01)4p( 0.01)
      C    2      [core]2S( 0.95)2p( 3.25)4p( 0.01)
      C    3      [core]2S( 0.84)2p( 2.95)4p( 0.02)
      C    4      [core]2S( 0.87)2p( 3.24)4p( 0.01)
      C    5      [core]2S( 0.94)2p( 3.21)4p( 0.01)
      C    6      [core]2S( 0.95)2p( 3.24)4p( 0.01)
      H    7            1S( 0.75)
      C    8      [core]2S( 0.92)2p( 3.03)3d( 0.01)4p( 0.01)
      H    9            1S( 0.77)
      H   10            1S( 0.77)
      C   11      [core]2S( 0.96)2p( 3.29)4p( 0.01)
      C   12      [core]2S( 0.94)2p( 2.95)4p( 0.02)
      H   13            1S( 0.77)
      H   14            1S( 0.79)
      N   15      [core]2S( 1.40)2p( 4.03)3p( 0.01)3d( 0.01)
     Cl   16      [core]3S( 1.84)3p( 5.12)3d( 0.01)4p( 0.01)
     Cl   17      [core]3S( 1.84)3p( 5.12)3d( 0.01)4p( 0.01)


 NBO analysis skipped by request.
 Calling FoFJK, ICntrl=      2127 FMM=F ISym2X=0 I1Cent= 0 IOpClX= 0 NMat=1 NMatS=1 NMatT=0.
 ***** Axes restored to original set *****
 -------------------------------------------------------------------
 Center     Atomic                   Forces (Hartrees/Bohr)
 Number     Number              X              Y              Z
 -------------------------------------------------------------------
      1        6           0.005777981    0.004221497    0.000013442
      2        6           0.007409142   -0.020176391   -0.000027267
      3        6           0.048755088   -0.006110435    0.000009487
      4        6          -0.008275113    0.015308414    0.000003734
      5        6          -0.002054675    0.005190123   -0.000021408
      6        6          -0.013443918    0.006574865    0.000015161
      7        1           0.000884609    0.011505317    0.000005075
      8        6          -0.000860627   -0.006373288   -0.000002895
      9        1          -0.002733149   -0.013223082    0.000007341
     10        1           0.009925134   -0.004813376   -0.000005689
     11        6           0.018023839    0.008656687   -0.000025649
     12        6          -0.060207834   -0.008073793    0.000023896
     13        1          -0.009849751   -0.003889578    0.000013407
     14        1          -0.013452171   -0.001874245   -0.000004036
     15        7           0.009282059    0.014538960   -0.000002846
     16       17           0.006541565   -0.003410663   -0.000000338
     17       17           0.004277823    0.001948988   -0.000001415
 -------------------------------------------------------------------
 Cartesian Forces:  Max     0.060207834 RMS     0.013079469

 GradGradGradGradGradGradGradGradGradGradGradGradGradGradGradGradGradGrad
 Berny optimization.
 FormGI is forming the generalized inverse of G from B-inverse, IUseBI=4.
 Internal  Forces:  Max     0.056634192 RMS     0.010393324
 Search for a local minimum.
 Step number   1 out of a maximum of   96
 All quantities printed in internal units (Hartrees-Bohrs-Radians)
 Mixed Optimization -- RFO/linear search
 Second derivative matrix not updated -- first step.
 ITU=  0
     Eigenvalues ---    0.01685   0.01758   0.01814   0.01860   0.01933
     Eigenvalues ---    0.02020   0.02023   0.02088   0.02118   0.02130
     Eigenvalues ---    0.02159   0.02206   0.02241   0.02297   0.16000
     Eigenvalues ---    0.16000   0.16000   0.16000   0.16000   0.22401
     Eigenvalues ---    0.22441   0.23510   0.24434   0.24620   0.25000
     Eigenvalues ---    0.25000   0.25000   0.29539   0.29539   0.33645
     Eigenvalues ---    0.33659   0.33686   0.33687   0.33688   0.37566
     Eigenvalues ---    0.39881   0.40461   0.41075   0.42246   0.42561
     Eigenvalues ---    0.42923   0.48473   0.48800   0.49811   0.49828
 RFO step:  Lambda=-2.46445558D-02 EMin= 1.68460229D-02
 Linear search not attempted -- first point.
 Iteration  1 RMS(Cart)=  0.06912156 RMS(Int)=  0.00146856
 Iteration  2 RMS(Cart)=  0.00203025 RMS(Int)=  0.00005572
 Iteration  3 RMS(Cart)=  0.00000183 RMS(Int)=  0.00005571
 Iteration  4 RMS(Cart)=  0.00000000 RMS(Int)=  0.00005571
 Variable       Old X    -DE/DX   Delta X   Delta X   Delta X     New X
                                 (Linear)    (Quad)   (Total)
    R1        2.59422  -0.00241   0.00000  -0.00544  -0.00544   2.58878
    R2        2.67590  -0.00173   0.00000  -0.00467  -0.00465   2.67125
    R3        3.32592  -0.00468   0.00000  -0.01462  -0.01462   3.31130
    R4        2.68721  -0.00948   0.00000  -0.02142  -0.02143   2.66578
    R5        2.07933  -0.01148   0.00000  -0.03178  -0.03178   2.04754
    R6        2.68127   0.00774   0.00000   0.02032   0.02023   2.70150
    R7        2.68725  -0.04550   0.00000  -0.10510  -0.10522   2.58203
    R8        2.68666   0.00096   0.00000   0.00318   0.00318   2.68984
    R9        2.68735  -0.00214   0.00000   0.00056   0.00061   2.68796
   R10        2.59524  -0.00302   0.00000  -0.00558  -0.00557   2.58967
   R11        2.07909  -0.01319   0.00000  -0.03652  -0.03652   2.04257
   R12        2.07861  -0.01102   0.00000  -0.03049  -0.03049   2.04812
   R13        2.59433  -0.00855   0.00000  -0.01360  -0.01348   2.58085
   R14        3.32592  -0.00359   0.00000  -0.01123  -0.01123   3.31469
   R15        2.67628  -0.00194   0.00000  -0.00651  -0.00644   2.66983
   R16        2.07863  -0.01047   0.00000  -0.02897  -0.02897   2.04966
   R17        2.07860  -0.01102   0.00000  -0.03047  -0.03047   2.04813
   R18        2.59448  -0.05663   0.00000  -0.11162  -0.11166   2.48282
    A1        2.10096   0.00629   0.00000   0.02119   0.02119   2.12215
    A2        2.10570  -0.00390   0.00000  -0.01335  -0.01335   2.09235
    A3        2.07652  -0.00238   0.00000  -0.00783  -0.00784   2.06869
    A4        2.10330  -0.00333   0.00000  -0.01422  -0.01424   2.08905
    A5        2.10981   0.00292   0.00000   0.01392   0.01393   2.12374
    A6        2.07008   0.00041   0.00000   0.00030   0.00031   2.07039
    A7        2.07862   0.00174   0.00000   0.00929   0.00933   2.08795
    A8        2.12407  -0.02281   0.00000  -0.08414  -0.08402   2.04005
    A9        2.08050   0.02106   0.00000   0.07485   0.07469   2.15519
   A10        2.08061  -0.00174   0.00000  -0.00840  -0.00843   2.07218
   A11        2.07798  -0.01483   0.00000  -0.04274  -0.04273   2.03526
   A12        2.12459   0.01656   0.00000   0.05113   0.05116   2.17575
   A13        2.10235  -0.00029   0.00000   0.00269   0.00269   2.10504
   A14        2.07073   0.00312   0.00000   0.01478   0.01478   2.08551
   A15        2.11010  -0.00283   0.00000  -0.01747  -0.01747   2.09263
   A16        2.10053  -0.00267   0.00000  -0.01055  -0.01054   2.08999
   A17        2.07699   0.00174   0.00000   0.00747   0.00746   2.08445
   A18        2.10566   0.00093   0.00000   0.00309   0.00308   2.10874
   A19        2.10398  -0.00903   0.00000  -0.01824  -0.01806   2.08592
   A20        2.06981   0.01523   0.00000   0.04815   0.04806   2.11787
   A21        2.10940  -0.00620   0.00000  -0.02991  -0.03000   2.07940
   A22        2.10080  -0.00741   0.00000  -0.02788  -0.02768   2.07311
   A23        2.10573   0.00207   0.00000   0.00509   0.00499   2.11072
   A24        2.07666   0.00534   0.00000   0.02279   0.02269   2.09935
   A25        2.07679  -0.00304   0.00000   0.00526   0.00525   2.08203
   A26        2.10005   0.02259   0.00000   0.07897   0.07899   2.17904
   A27        2.10635  -0.01956   0.00000  -0.08423  -0.08424   2.02211
   A28        2.10307  -0.01239   0.00000  -0.06496  -0.06521   2.03785
    D1       -0.00019   0.00001   0.00000   0.00011   0.00011  -0.00008
    D2       -3.14154   0.00000   0.00000  -0.00002  -0.00002  -3.14156
    D3        3.14151   0.00000   0.00000   0.00005   0.00005   3.14156
    D4        0.00016   0.00000   0.00000  -0.00008  -0.00008   0.00007
    D5       -0.00005   0.00000   0.00000   0.00002   0.00002  -0.00003
    D6       -3.14148   0.00000   0.00000  -0.00006  -0.00006  -3.14155
    D7        3.14144   0.00000   0.00000   0.00008   0.00008   3.14152
    D8        0.00001   0.00000   0.00000   0.00000   0.00000   0.00000
    D9        0.00030  -0.00001   0.00000  -0.00016  -0.00016   0.00014
   D10       -3.14138   0.00000   0.00000  -0.00010  -0.00011  -3.14148
   D11       -3.14153   0.00000   0.00000  -0.00003  -0.00003  -3.14156
   D12       -0.00002   0.00000   0.00000   0.00002   0.00002   0.00000
   D13       -0.00017   0.00000   0.00000   0.00007   0.00007  -0.00009
   D14        3.14150   0.00000   0.00000   0.00005   0.00005   3.14155
   D15        3.14150   0.00000   0.00000   0.00003   0.00003   3.14153
   D16       -0.00001   0.00000   0.00000   0.00001   0.00000  -0.00001
   D17       -3.14158   0.00000   0.00000   0.00000   0.00000  -3.14159
   D18       -0.00007   0.00000   0.00000   0.00005   0.00005  -0.00002
   D19       -0.00007   0.00000   0.00000   0.00005   0.00005  -0.00002
   D20       -3.14138   0.00000   0.00000  -0.00009  -0.00009  -3.14147
   D21        3.14145   0.00000   0.00000   0.00007   0.00007   3.14152
   D22        0.00014   0.00000   0.00000  -0.00007  -0.00007   0.00007
   D23        0.00003   0.00000   0.00000  -0.00001  -0.00001   0.00001
   D24        3.14156   0.00000   0.00000   0.00003   0.00003  -3.14159
   D25       -3.14149   0.00000   0.00000  -0.00003  -0.00003  -3.14152
   D26        0.00005   0.00000   0.00000   0.00001   0.00001   0.00006
   D27        0.00018  -0.00001   0.00000  -0.00010  -0.00010   0.00008
   D28       -3.14158   0.00000   0.00000  -0.00002  -0.00002   3.14159
   D29        3.14149   0.00000   0.00000   0.00005   0.00004   3.14153
   D30       -0.00027   0.00001   0.00000   0.00013   0.00013  -0.00014
   D31        0.00005   0.00000   0.00000  -0.00003  -0.00003   0.00002
   D32        3.14131   0.00000   0.00000   0.00012   0.00012   3.14143
   D33       -3.14149   0.00000   0.00000  -0.00008  -0.00008  -3.14157
   D34       -0.00023   0.00000   0.00000   0.00007   0.00007  -0.00015
   D35       -3.14156   0.00000   0.00000  -0.00002  -0.00002  -3.14158
   D36       -0.00014   0.00000   0.00000   0.00008   0.00008  -0.00005
   D37        0.00035  -0.00001   0.00000  -0.00017  -0.00017   0.00019
   D38       -3.14140   0.00000   0.00000  -0.00007  -0.00007  -3.14147
   D39        0.00015   0.00000   0.00000  -0.00009  -0.00009   0.00006
   D40        3.14157   0.00000   0.00000   0.00002   0.00002   3.14159
         Item               Value     Threshold  Converged?
 Maximum Force            0.056634     0.000450     NO 
 RMS     Force            0.010393     0.000300     NO 
 Maximum Displacement     0.315065     0.001800     NO 
[...]
 ! D37   D(13,11,12,14)          0.0014         -DE/DX =    0.0                 !
 ! D38   D(13,11,12,15)        179.9989         -DE/DX =    0.0                 !
 ! D39   D(11,12,15,3)           0.0019         -DE/DX =    0.0                 !
 ! D40   D(14,12,15,3)         179.9995         -DE/DX =    0.0                 !
 --------------------------------------------------------------------------------
 GradGradGradGradGradGradGradGradGradGradGradGradGradGradGradGradGradGrad

 1\1\GINC-COREV4-21-K80-003\Freq\RB3LYP\6-311+G(d,p)\C9H5Cl2N1\SWEAV003
 \23-Apr-2024\0\\#N Geom=AllCheck Guess=TCheck SCRF=Check GenChk RB3LYP
 /6-311+G(d,p) Freq\\Title Card Required\\0,1\C,-2.0724810485,-0.838767
 5358,0.0003010379\C,-0.8673514072,-1.4913908755,0.0001176097\C,0.33793
 38344,-0.7438765776,0.0002152742\C,0.2716084664,0.6872849805,0.0005291
 718\C,-0.9984409735,1.3162367844,0.0007223635\C,-2.1517641034,0.571956
 3965,0.0006036585\H,-0.7998622047,-2.5709497133,-0.0001126092\C,1.5156
 439291,1.3708540272,0.0006273206\H,-1.0548400511,2.3968244607,0.000958
 5237\H,-3.1213334869,1.0528578685,0.0007458437\C,2.6929442627,0.668128
 9496,0.0004191383\C,2.6273709956,-0.7445813341,0.000106386\H,3.6492266
 79,1.1738057108,0.0004880156\H,3.5532012029,-1.3145246996,-0.000039775
 7\N,1.5108885499,-1.4365383418,0.0000240958\Cl,1.5623689884,3.12230321
 85,0.0009981957\Cl,-3.5664531832,-1.7594744789,0.0001736199\\Version=E
 S64L-G09RevD.01\State=1-A\HF=-1321.2747939\RMSD=4.326e-09\RMSF=1.712e-
 04\ZeroPoint=0.1159054\Thermal=0.1250497\Dipole=0.4058429,0.6185444,0.
 000113\DipoleDeriv=1.0818936,0.5874336,0.0001415,0.6911457,0.4717605,0
 .0000786,0.0001611,-0.0000343,-0.0251103,-0.4242189,-0.0915981,-0.0000
 615,-0.1165062,-0.0107316,0.0000808,-0.0001286,0.0002265,-0.1125716,0.
 4627435,-0.0915423,-0.0000054,0.2985483,0.1921071,-0.0000551,0.0000854
 ,-0.0002414,0.1146807,-0.2055186,-0.0737399,0.0000136,-0.3006874,-0.49
 76605,-0.0001586,-0.0000053,-0.0003695,0.0668459,0.1446745,0.0791503,-
 0.0000429,-0.0755305,0.0247538,0.000015,0.0001081,0.001258,-0.107181,-
 0.2267094,-0.2457678,-0.0000191,-0.2471757,-0.1077064,0.0000024,-0.000
 1048,-0.0010734,-0.1117146,0.0842175,0.0037182,-0.0000091,-0.0204365,0
 .0205626,-0.0000013,-0.0000021,-0.0001677,0.1374674,0.4541166,0.019292
 6,-0.0000186,0.3019463,1.3828279,0.0001947,-0.0002404,0.0005259,-0.025
 7835,0.0654726,-0.0169938,0.0000073,0.0171418,-0.0133631,-0.0000045,-0
 .000013,-0.0000847,0.1340612,-0.007363,0.0398235,0.0000195,0.0330974,0
 .0651504,-0.0000208,0.0000036,0.0001078,0.139548,-0.2646497,0.1873462,
 0.000072,0.2703298,-0.4974005,0.0000399,0.000298,0.0003129,-0.0905165,
 0.2923697,0.0554924,-0.0000652,-0.2211464,0.5530231,0.0001358,-0.00022
 63,0.0000245,0.0106038,0.0061559,-0.0475539,-0.0000216,-0.0533715,0.05
 87432,-0.000024,0.0000221,-0.000128,0.1446098,-0.0857474,0.0510098,0.0
 000273,0.0697838,0.0210785,-0.0000266,0.0000282,-0.000081,0.1028203,-0
 .5296455,-0.070008,-0.0000083,-0.0346584,-0.5163071,-0.0000657,0.00005
 91,0.0001225,-0.2731289,-0.0781071,-0.0393134,0.0000329,-0.1672554,-0.
 8522506,-0.0001644,-0.0000959,-0.0006654,-0.0488916,-0.7696844,-0.3467
 495,-0.0000626,-0.445225,-0.2945876,-0.000026,0.0000509,0.0002674,-0.0
 557391\Polar=197.6887832,21.0219284,153.5823837,0.0021951,0.0235307,69
 .1539043\PG=C01 [X(C9H5Cl2N1)]\NImag=0\\0.57735255,-0.08681360,0.57645
 396,-0.00003981,0.00009733,0.12219791,-0.30359299,0.08817767,0.0000279
 4,0.67574507,0.14443836,-0.18582771,-0.00002989,-0.05380600,0.74703774
 ,0.00004538,-0.00002635,-0.05966772,-0.00003497,0.00012764,0.12628426,
 -0.06548030,0.03287341,0.00001036,-0.19908602,-0.10617352,-0.00001638,
 0.67788931,-0.01300442,0.04003598,0.00000893,-0.07442296,-0.18080130,-
 0.00002078,0.01954673,0.61515590,-0.00000379,0.00000440,0.00173677,-0.
 00000886,-0.00001586,-0.06386435,-0.00001797,0.00009251,0.17295303,-0.
 01986672,0.03883065,0.00000842,0.03542388,-0.02547830,-0.00000624,-0.1
 4255612,0.00138419,0.00000264,0.69143673,0.01758771,-0.02598135,-0.000
 00600,-0.03968952,-0.02279408,-0.00000326,-0.00590823,-0.23460196,-0.0
 0003718,-0.00755804,0.60575037,0.00000043,-0.00000871,-0.00437266,-0.0
 0000974,-0.00000130,0.00573045,0.00000259,-0.00003590,-0.07068820,-0.0
 0002578,0.00009887,0.14489677,0.03339522,-0.07291735,-0.00001577,-0.05
 421825,0.00029811,0.00000088,0.03086250,0.04890134,0.00001048,-0.22761
 699,0.06322247,0.00002243,0.66378246,-0.02257302,-0.03614211,-0.000008
 99,-0.00434162,-0.00065937,0.00000119,0.03220369,-0.01713709,-0.000007
 29,0.09165276,-0.16038742,-0.00002703,0.04326272,0.73913251,0.00000244
 ,-0.00000106,0.00594115,0.00000159,-0.00001050,0.00037538,0.00000391,-
 0.00000618,0.00291824,0.00003158,-0.00001531,-0.06180539,-0.00001565,0
 .00013780,0.13193179,-0.11139431,0.05465942,0.00001501,0.02451480,0.03
 031831,0.00000305,-0.01458597,-0.01619479,-0.00000135,-0.06149263,0.00
 060644,0.00000438,-0.31050284,-0.14654652,-0.00002384,0.76443710,-0.00
 741246,-0.27835090,-0.00004729,0.06743973,-0.02364018,-0.00000622,-0.0
 3334623,-0.02783033,-0.00000698,-0.03548593,0.03826007,0.00000565,-0.0
 8614468,-0.20063876,-0.00001633,-0.01006311,0.64010692,-0.00000879,-0.
 00005375,-0.06142338,0.00001343,0.00000259,0.00680799,-0.00000475,-0.0
 0000497,-0.00248730,-0.00000849,-0.00000071,0.00513791,-0.00000592,-0.
 00003172,-0.05860368,-0.00002445,0.00009992,0.12677068,0.00153868,0.02
 769881,0.00000587,-0.05566589,0.01669862,0.00000461,0.00496997,-0.0268
 4358,-0.00000586,-0.00432012,-0.00165476,-0.00000008,-0.00085679,-0.00
 017357,0.00000046,-0.00486963,0.00143347,0.00000029,0.05543596,-0.0025
 5677,-0.00903972,-0.00000245,0.01754567,-0.34432840,-0.00006593,0.0024
 2521,-0.01293379,-0.00000335,-0.00270954,0.00007537,-0.00000043,-0.000
 19652,0.00070232,-0.00000177,0.00208332,0.00098578,0.00000061,-0.01851
 080,0.36286824,-0.00000190,-0.00000445,0.00342721,0.00000461,-0.000064
 53,-0.03508602,0.00000077,-0.00000234,0.00431833,-0.00000054,-0.000001
 97,0.00477466,0.00000042,-0.00000044,-0.00124920,0.00000131,-0.0000027
 4,0.00669851,-0.00000536,0.00007221,0.02420566,0.00866232,-0.01947633,
 -0.00000236,-0.01429089,0.00139314,-0.00000210,0.04264267,-0.05292212,
 -0.00000937,-0.22473964,-0.06140188,-0.00000294,-0.06598369,-0.0122231
 6,-0.00001683,0.01088073,0.02724196,0.00002073,0.00069153,0.00076907,0
 .00000206,0.65201592,-0.00023336,-0.00425578,0.00000260,0.00056999,-0.
 00481175,-0.00000740,-0.02822315,-0.02554200,0.00000076,-0.08208286,-0
 .14187875,-0.00000926,0.00070704,0.01700476,-0.00002046,0.00809782,0.0
 0016601,0.00001978,-0.00098696,-0.00041162,0.00000261,-0.04911354,0.49
 935434,0.00001061,0.00000614,-0.00051982,0.00000054,-0.00000949,0.0056
 4771,-0.00000921,-0.00000425,0.00127410,-0.00001043,-0.00001409,-0.060
 25995,0.00000006,0.00000571,0.00037826,-0.00000369,0.00000274,0.005877
 97,-0.00000007,-0.00000026,0.00006507,-0.00003905,0.00007689,0.1239247
 2,-0.00312901,-0.00190522,-0.00000001,-0.00082303,-0.00003314,0.000000
 03,-0.00497064,0.00028683,0.00000044,0.00305921,0.02779618,0.00000601,
 -0.05833414,0.01685286,0.00000463,0.00465062,-0.02793137,-0.00000613,0
 .00007594,0.00000500,-0.00000003,0.00088796,0.00236373,0.00000049,0.05
 990752,-0.00231120,0.00073742,-0.00000104,-0.00013907,0.00050833,-0.00
 000061,0.00219851,0.00143873,0.00000034,0.00061963,-0.00994028,-0.0000
 0177,0.01697259,-0.34043365,-0.00007121,0.00259397,-0.01192196,0.00000
 050,-0.00000572,-0.00007925,0.00000067,-0.00086404,-0.00115667,-0.0000
 0112,-0.01583630,0.36128856,-0.00000006,-0.00000155,0.00834622,-0.0000
 0016,0.00000069,-0.00119993,0.00000105,-0.00000074,0.00459821,0.000000
 11,-0.00000453,0.00318431,0.00000447,-0.00006667,-0.03641468,0.0000005
 1,-0.00000293,0.00464844,-0.00000005,0.00000021,-0.00053641,0.00000026
 ,0.00000091,-0.00217092,-0.00000487,0.00007372,0.02489219,0.00072811,-
 0.00274800,-0.00000075,0.00129323,-0.00051636,0.00000042,0.00014247,-0
 .00056636,-0.00000045,-0.00198439,-0.00360520,-0.00000070,-0.01803539,
 0.01271849,0.00000441,-0.28447180,0.11595256,0.00003401,0.00018370,-0.
 00008858,-0.00000013,-0.00033123,0.00114927,0.00000105,0.00093576,-0.0
 0005528,-0.00000026,0.30065264,0.02863385,-0.01026240,-0.00000372,-0.0
 0126026,-0.00573469,-0.00000224,-0.00108669,-0.00065119,0.00000018,-0.
 00349509,-0.00165959,-0.00000203,-0.01712108,0.01159181,0.00000206,0.1
 1376461,-0.11417769,-0.00002120,0.00134644,-0.00030395,-0.00000013,-0.
 00021925,0.00087165,-0.00000009,0.00034295,0.00085289,0.00000134,-0.12
 127588,0.11853363,0.00000781,-0.00000154,0.00195707,-0.00000016,-0.000
 00356,0.00447524,-0.00000052,-0.00000007,-0.00078209,0.00000009,-0.000
 00123,0.00870138,-0.00000342,0.00000194,0.00404892,0.00003396,-0.00002
 021,-0.03567930,0.00000034,-0.00000030,0.00025218,-0.00000192,-0.00000
 276,0.00037825,-0.00000016,0.00000085,-0.00536407,-0.00003694,0.000025
 00,0.02465039,-0.00401133,0.00878264,0.00000061,0.00609832,0.00098302,
 0.00000202,-0.01641157,0.01237212,0.00000068,-0.05615089,-0.00200755,0
 .,0.01240632,-0.00538579,0.00000914,-0.00519256,-0.01011107,-0.0000113
 7,-0.00003786,-0.00000146,-0.00000118,-0.32019636,0.13440748,0.0000445
 6,0.00040632,0.00012012,-0.00000036,-0.00042426,-0.00029782,0.00000114
 ,0.76488430,0.01067061,-0.01707841,-0.00000549,-0.01918622,-0.00219096
 ,0.00000255,0.04455377,-0.02823067,-0.00000783,0.02543701,0.04042667,0
 .00000503,-0.02389989,-0.00092098,0.00000623,0.00779891,0.01785637,-0.
 00000241,0.00020807,0.00031902,-0.00000062,0.07768017,-0.16532715,-0.0
 0002418,-0.00078444,-0.00012877,-0.00000004,-0.00021040,0.00005839,0.0
 0000111,0.02310108,0.64042665,-0.00000069,-0.00000565,0.00013340,-0.00
 000379,-0.00000076,-0.00106170,0.00000993,-0.00000439,-0.00677473,0.00
 000948,0.00001088,0.00552578,-0.00000503,0.00000087,0.00604973,0.00000
 409,0.00000628,-0.00031731,0.00000024,-0.00000090,0.00008040,0.0000251
 3,-0.00003471,-0.05826053,-0.00000027,-0.00000122,-0.00038334,-0.00000
 022,0.00000020,-0.00065238,-0.00002165,0.00011404,0.11888848,-0.009895
 29,0.01305279,0.00000277,0.01672237,0.00817578,0.00000204,-0.10123420,
 0.00083846,0.00000444,-0.01766660,-0.02140266,-0.00000515,0.00915310,-
 0.00250647,0.00000337,-0.00476304,-0.01102280,-0.00000609,-0.00027444,
 -0.00032424,-0.00000063,0.03910482,0.02468312,0.00000512,0.00068100,-0
 .00005732,-0.00000027,0.00002126,-0.00016957,0.00000040,-0.13175647,0.
 03826504,0.00001246,0.76718767,-0.01279266,0.01923004,0.00000443,0.025
 67006,0.00204929,-0.00000237,-0.03102372,0.03424266,0.00000762,-0.0300
 3719,-0.02683650,-0.00000370,0.01857323,-0.00195971,0.00000029,-0.0070
 5654,-0.01834428,-0.00000479,0.00007747,0.00010372,-0.00000002,0.07910
 775,-0.03828774,-0.00001306,0.00057997,-0.00000169,0.00000002,-0.00025
 218,-0.00025635,0.00000005,-0.03452138,-0.27424891,-0.00004498,-0.0215
 1437,0.64565150,0.00000234,0.00000605,0.00013145,0.00000481,-0.0000039
 5,0.00794606,-0.00000277,0.00000619,0.00242557,-0.00000626,-0.00000431
 ,-0.00495049,0.00000271,-0.00000053,-0.00105686,-0.00000409,-0.0000028
 1,0.00058040,0.00000005,0.00000039,-0.00030511,0.00001590,-0.00000987,
 0.00535322,0.00000010,0.00000009,-0.00035092,0.00000024,-0.00000013,0.
 00010639,-0.00000517,-0.00004793,-0.06599768,-0.00003080,0.00010362,0.
 15371978,0.00003743,0.00020244,0.00000035,0.00017479,-0.00008639,-0.00
 000047,0.00007503,0.00069033,0.00000057,-0.00199923,0.00390475,0.00000
 173,-0.00025420,-0.00117664,-0.00000259,-0.00042216,0.00026286,0.00000
 209,0.00000204,-0.00001314,0.00000024,-0.01883439,-0.01484768,-0.00000
 281,-0.00003918,0.00006335,0.00000011,-0.00008501,-0.00007448,-0.00000
 029,-0.28173084,-0.11704503,-0.00001521,0.00380039,0.00219083,0.000000
 55,0.29622417,0.00014535,-0.00027992,0.00000017,-0.00052198,0.00008198
 ,-0.00000009,0.00204318,-0.00106241,0.00000014,0.00308091,-0.00169574,
 -0.00000181,0.00041728,0.00073213,-0.00000188,0.00027754,0.00012832,0.
 00000182,0.00008652,0.00006258,0.00000020,0.01672991,0.00940490,0.0000
 0029,-0.00000431,0.00003073,0.,0.00006208,0.00005418,-0.00000019,-0.12
 040493,-0.11871675,-0.00001393,-0.02904670,-0.00624155,-0.00000011,0.1
 2620230,0.12198194,-0.00000182,-0.00000119,0.00002992,-0.00000025,0.00
 000190,-0.00095174,0.00000083,-0.00000023,-0.00039358,0.00000082,-0.00
 000296,0.00747835,0.00000061,-0.00000055,0.00061805,0.00000093,-0.0000
 0117,-0.00070405,-0.00000006,0.00000018,0.00005813,0.00000626,0.000004
 27,0.00252034,0.,0.00000044,0.00028224,-0.00000012,0.00000006,-0.00005
 928,-0.00001635,-0.00001387,-0.03401973,-0.00000723,-0.00000185,0.0008
 4956,0.00001574,0.00001622,0.02395939,0.00004850,-0.00022136,0.0000001
 9,-0.00067244,0.00076115,-0.00000024,-0.00147618,-0.00209454,0.0000006
 9,-0.00014526,-0.00012637,0.00000046,0.00013073,0.00027705,-0.00000240
 ,0.00001687,-0.00006327,0.00000213,0.00005686,-0.00003830,0.00000028,0
 .00118814,-0.00084224,-0.00000062,-0.00007158,0.00003550,0.00000011,-0
 .00001293,0.00001276,-0.00000025,0.00418991,-0.00264557,-0.00000131,-0
 .23895129,0.12595267,0.00003269,0.00034423,0.00047889,0.00000026,0.270
 18697,-0.00019922,0.00013880,0.00000003,-0.00004425,0.00058467,0.00000
 022,-0.00480561,0.00050833,-0.00000223,-0.00116029,-0.00028899,-0.0000
 0006,0.00031695,0.00014345,0.00000126,-0.00010592,-0.00021139,-0.00000
 099,0.00001060,-0.00004219,-0.00000016,-0.00151645,-0.00405781,-0.0000
 0176,-0.00008531,0.00002338,-0.00000006,0.00000788,0.00000083,0.000000
 10,0.02657831,-0.01245451,-0.00000460,0.12704424,-0.14156151,-0.000025
 01,-0.00038247,0.00066424,0.00000055,-0.12726479,0.14445501,-0.0000011
 9,-0.00000054,-0.00044481,0.00000002,0.00000097,0.00042888,-0.00000005
 ,-0.00000215,0.01168798,-0.00000045,-0.00000025,-0.00077839,0.00000032
 ,-0.00000015,-0.00097228,0.00000049,-0.00000084,0.00010459,-0.00000003
 ,0.00000006,0.00012904,0.00000061,-0.00000077,0.00555683,-0.00000002,0
 .00000027,0.00010381,-0.00000008,0.00000002,0.00003580,0.00000554,-0.0
 0000494,0.00678904,0.00003138,-0.00002404,-0.04177537,-0.00000009,0.00
 000078,-0.00242376,-0.00003447,0.00002853,0.02661523,0.01815557,-0.029
 99906,-0.00000668,-0.09056559,0.01101323,0.00000622,-0.20894527,0.0929
 7489,0.00002490,0.02830013,0.05593987,0.00001136,-0.01527957,0.0012895
 2,0.00000180,0.00721886,0.02157144,0.00000379,0.00230024,0.00230821,0.
 00000019,-0.07105224,0.00460608,0.00000351,-0.00058427,-0.00015557,-0.
 00000006,0.00011294,0.00045385,0.00000010,0.02429651,-0.09113432,-0.00
 001885,-0.32798423,-0.11333919,-0.00001021,0.00162427,-0.00028405,0.00
 000019,-0.03466805,-0.01927481,-0.00000226,0.66764960,-0.00388429,0.00
 067635,-0.00000093,-0.00714007,0.01742988,0.00000376,0.07853781,-0.169
 00073,-0.00002397,0.03357808,-0.02250565,-0.00000897,-0.00283566,-0.00
 692069,-0.00000330,-0.00089476,-0.00081292,0.00000081,0.00044799,0.001
 19196,0.00000104,-0.00451881,0.00749425,0.00000247,0.00192493,-0.00074
 778,-0.00000033,0.00017714,0.00015815,0.00000006,-0.03441157,-0.035424
 81,-0.00001076,-0.13240291,-0.19970651,-0.00002125,0.00065238,-0.00650
 510,-0.00000267,0.00607664,0.01382695,0.00000344,0.06489615,0.40494600
 ,-0.00000134,0.00000018,0.00663515,0.00000277,0.00000234,-0.00041947,0
 .00002203,-0.00002428,-0.06826930,0.00000699,-0.00000929,0.01434418,0.
 00000009,-0.00000177,0.00546200,-0.00000026,0.00000040,-0.00142618,-0.
 00000009,0.00000055,-0.00360974,0.00000021,-0.00000068,-0.00398281,0.0
 0000045,-0.00000084,0.00045754,0.00000004,0.00000012,-0.00056507,-0.00
 000615,-0.00000818,0.02384910,-0.00001296,-0.00002121,-0.06288691,0.00
 000005,-0.00000291,0.00594155,0.00000216,0.00000468,-0.00456826,-0.000
 01369,0.00006079,0.09179036,-0.00016899,0.00028919,0.00000040,0.000775
 05,-0.00131171,-0.00000106,-0.00530439,0.00139279,0.00000159,0.0022952
 4,-0.02364515,-0.00000426,-0.00199225,-0.00190346,-0.00000352,0.000474
 73,-0.00142285,0.00000258,-0.00030871,-0.00015892,0.00000040,-0.042356
 27,-0.00178251,-0.00000066,-0.00196949,-0.00297064,-0.00000041,-0.0000
 2677,0.00001591,-0.00000032,0.00494284,0.02726871,0.00000502,-0.004291
 11,-0.00140245,0.00000007,0.00109588,0.00074689,0.00000037,0.00010674,
 0.00095812,0.00000042,0.00258950,0.00041703,-0.00000059,0.04434565,0.0
 0069864,0.00155683,0.00000031,0.00139620,-0.00139966,-0.00000026,-0.00
 526521,0.00542901,0.00000021,-0.00423094,-0.03579103,-0.00000847,0.004
 76142,-0.00023156,0.00000077,-0.00165750,-0.00076655,-0.00000072,-0.00
 039988,-0.00024048,-0.00000012,-0.00241535,-0.14962358,-0.00002662,-0.
 00228921,0.00008224,0.00000009,-0.00011967,-0.00007467,0.,0.00203635,-
 0.04516250,-0.00001085,0.00680274,0.00743815,-0.00000028,-0.00052061,0
 .00132510,0.00000098,-0.00022563,-0.00172197,-0.00000033,-0.00137643,-
 0.00428050,0.,0.00369047,0.22386859,-0.00000299,-0.00000147,-0.0001869
 3,0.00000014,0.00000381,-0.00035965,-0.00000001,-0.00000005,0.00498059
 ,-0.00000264,-0.00001115,0.00365048,0.00000243,-0.00000266,-0.00108681
 ,0.00000007,-0.00000470,0.00005914,-0.00000028,0.00000082,0.00010365,0
 .00000697,-0.00001677,-0.02502275,-0.00000045,0.00000201,-0.00009806,-
 0.00000030,0.00000004,0.00021953,-0.00000369,-0.00001508,0.00595151,0.
 00000035,-0.00000027,0.00694748,0.00000064,0.00000176,-0.00330207,0.00
 000090,-0.00000077,-0.00042899,-0.00000089,0.00000002,-0.00311722,0.00
 000062,0.00004507,0.01168935,-0.12237945,-0.05048609,-0.00000653,-0.04
 183242,-0.02667432,-0.00000320,0.00346873,0.00766106,0.00000121,-0.001
 97661,-0.00205807,-0.00000077,0.00334377,-0.00142684,0.00000149,-0.014
 49876,-0.01089826,-0.00000307,0.00107851,-0.00053822,-0.00000050,0.001
 71062,0.00152777,0.00000061,-0.00068300,-0.00020855,-0.00000012,0.0013
 0167,0.00042975,0.00000013,-0.00131239,-0.00007752,0.00000067,0.000146
 05,-0.00021231,-0.00000016,-0.00001319,-0.00000887,-0.00000018,-0.0002
 7120,-0.00007698,-0.00000012,-0.00316841,-0.00062007,0.00000030,-0.000
 20767,-0.00088539,-0.00000088,0.17529376,-0.05039352,-0.07161107,-0.00
 000797,-0.00024738,0.00449621,0.00000015,0.00145003,0.00098083,-0.0000
 0146,-0.00234505,-0.00015114,-0.00000010,0.00568201,-0.00387564,-0.000
 00041,-0.03768120,-0.02080850,-0.00000479,0.00056728,0.00107041,0.0000
 0077,0.00174893,0.00105692,0.00000068,-0.00128315,-0.00055221,-0.00000
 014,-0.00062952,0.00099902,0.00000076,-0.00123955,0.00079732,0.0000004
 8,-0.00041513,-0.00127059,-0.00000016,-0.00002281,0.00003538,-0.000000
 12,-0.00007260,-0.00000730,-0.00000006,0.00051018,0.00018115,0.0000000
 9,-0.00018143,-0.00040742,-0.00000062,0.08455290,0.08906665,-0.0000066
 3,-0.00000782,-0.02392094,0.00000208,-0.00000009,0.00491461,0.00000020
 ,-0.00000129,0.00636675,0.00000068,0.00000249,-0.00056920,0.00000090,0
 .00000028,0.00346539,-0.00000612,-0.00000276,0.00395556,0.00000001,0.0
 0000036,-0.00332636,-0.00000356,-0.00000514,-0.00075969,-0.00000022,-0
 .00000109,0.00000539,-0.00000024,0.00000054,-0.00172296,0.00000223,0.0
 0000160,0.00019998,0.00000079,0.00000026,-0.00073656,-0.00000060,-0.00
 000047,0.00011669,-0.00000058,0.00000026,-0.00005934,0.00000058,-0.000
 00022,0.00036508,-0.00000064,0.00000022,0.00000076,0.00001111,0.000012
 89,0.01170482\\-0.00031188,-0.00013843,-0.00000057,0.00020216,-0.00013
 869,0.00000126,-0.00030237,0.00063020,-0.00000222,0.00001947,-0.000501
 76,-0.00000030,-0.00008140,-0.00001386,0.00000103,0.00007728,0.0000959
 6,-0.00000052,-0.00004451,0.00000924,-0.00000011,0.00005928,0.00049121
 ,0.00000119,0.00005377,0.00001953,-0.00000005,0.00001101,-0.00001091,0
 .,0.00017772,0.00012656,0.00000118,-0.00018284,0.00001232,-0.00000437,
 -0.00001488,-0.00007900,0.00000012,0.00010348,-0.00004220,0.00000111,0
 .00014212,-0.00022139,0.00000265,-0.00004504,-0.00032807,-0.00000054,0
 .00013661,0.00008928,0.00000015\\\@


 THE THINKER DIES, BUT HIS THOUGHTS ARE BEYOND THE 
 REACH OF DESTRUCTION.  MEN ARE MORTAL; BUT IDEAS 
 ARE IMMORTAL.
                              -- WALTER LIPPMANN
 Job cpu time:       0 days  0 hours 52 minutes 32.0 seconds.
 File lengths (MBytes):  RWF=    177 Int=      0 D2E=      0 Chk=      8 Scr=      1
 Normal termination of Gaussian 09 at Tue Apr 23 12:20:47 2024.
