 Entering Gaussian System, Link 0=g09
 Initial command:
 /cm/shared/apps/gaussian/g09revD.01/g09/l1.exe "//home/sweav003/CHB/CHActivation_Mkhalid/OtherCharges/G09-Table9_4.com.o9447157.tmp/Gau-71588.inp" -scrdir="//home/sweav003/CHB/CHActivation_Mkhalid/OtherCharges/G09-Table9_4.com.o9447157.tmp/"
 Entering Link 1 = /cm/shared/apps/gaussian/g09revD.01/g09/l1.exe PID=     71589.
  
 Copyright (c) 1988,1990,1992,1993,1995,1998,2003,2009,2013,
            Gaussian, Inc.  All Rights Reserved.
  
 This is part of the Gaussian(R) 09 program.  It is based on
 the Gaussian(R) 03 system (copyright 2003, Gaussian, Inc.),
 the Gaussian(R) 98 system (copyright 1998, Gaussian, Inc.),
 the Gaussian(R) 94 system (copyright 1995, Gaussian, Inc.),
 the Gaussian 92(TM) system (copyright 1992, Gaussian, Inc.),
 the Gaussian 90(TM) system (copyright 1990, Gaussian, Inc.),
 the Gaussian 88(TM) system (copyright 1988, Gaussian, Inc.),
 the Gaussian 86(TM) system (copyright 1986, Carnegie Mellon
 University), and the Gaussian 82(TM) system (copyright 1983,
 Carnegie Mellon University). Gaussian is a federally registered
 trademark of Gaussian, Inc.
  
 This software contains proprietary and confidential information,
 including trade secrets, belonging to Gaussian, Inc.
  
 This software is provided under written license and may be
 used, copied, transmitted, or stored only in accord with that
 written license.
  
 The following legend is applicable only to US Government
 contracts under FAR:
  
                    RESTRICTED RIGHTS LEGEND
  
 Use, reproduction and disclosure by the US Government is
 subject to restrictions as set forth in subparagraphs (a)
 and (c) of the Commercial Computer Software - Restricted
 Rights clause in FAR 52.227-19.
  
 Gaussian, Inc.
 340 Quinnipiac St., Bldg. 40, Wallingford CT 06492
  
  
 ---------------------------------------------------------------
 Warning -- This program may not be used in any manner that
 competes with the business of Gaussian, Inc. or will provide
 assistance to any competitor of Gaussian, Inc.  The licensee
 of this program is prohibited from giving any competitor of
 Gaussian, Inc. access to this program.  By using this program,
 the user acknowledges that Gaussian, Inc. is engaged in the
 business of creating and licensing software in the field of
 computational chemistry and represents and warrants to the
 licensee that it is not a competitor of Gaussian, Inc. and that
 it will not use this program in any manner prohibited above.
 ---------------------------------------------------------------
  

 Cite this work as:
 Gaussian 09, Revision D.01,
 M. J. Frisch, G. W. Trucks, H. B. Schlegel, G. E. Scuseria, 
 M. A. Robb, J. R. Cheeseman, G. Scalmani, V. Barone, B. Mennucci, 
 G. A. Petersson, H. Nakatsuji, M. Caricato, X. Li, H. P. Hratchian, 
 A. F. Izmaylov, J. Bloino, G. Zheng, J. L. Sonnenberg, M. Hada, 
 M. Ehara, K. Toyota, R. Fukuda, J. Hasegawa, M. Ishida, T. Nakajima, 
 Y. Honda, O. Kitao, H. Nakai, T. Vreven, J. A. Montgomery, Jr., 
 J. E. Peralta, F. Ogliaro, M. Bearpark, J. J. Heyd, E. Brothers, 
 K. N. Kudin, V. N. Staroverov, T. Keith, R. Kobayashi, J. Normand, 
 K. Raghavachari, A. Rendell, J. C. Burant, S. S. Iyengar, J. Tomasi, 
 M. Cossi, N. Rega, J. M. Millam, M. Klene, J. E. Knox, J. B. Cross, 
 V. Bakken, C. Adamo, J. Jaramillo, R. Gomperts, R. E. Stratmann, 
 O. Yazyev, A. J. Austin, R. Cammi, C. Pomelli, J. W. Ochterski, 
 R. L. Martin, K. Morokuma, V. G. Zakrzewski, G. A. Voth, 
 P. Salvador, J. J. Dannenberg, S. Dapprich, A. D. Daniels, 
 O. Farkas, J. B. Foresman, J. V. Ortiz, J. Cioslowski, 
 and D. J. Fox, Gaussian, Inc., Wallingford CT, 2013.
 
 ******************************************
 Gaussian 09:  ES64L-G09RevD.01 24-Apr-2013
                23-Jul-2021 
 ******************************************
 %mem=100MW
 %nprocshared=20
 Will use up to   20 processors via shared memory.
 ---------------------------------------------------------------------
 # b3lyp/6-311+g(d,p) geom=connectivity pop=(hirshfeld,chelpg,mbs,npa)
 ---------------------------------------------------------------------
 1/38=1,57=2/1;
 2/12=2,17=6,18=5,40=1/2;
 3/5=4,6=6,7=111,11=2,16=1,25=1,30=1,74=-5/1,2,3;
 4//1;
 5/5=2,38=5/2;
 6/7=2,8=2,9=2,10=2,15=8,20=3,27=100,28=1,40=-1,79=1/1,2,7;
 99/5=1,9=1/99;
 --------
 Table9_4
 --------
 Symbolic Z-matrix:
 Charge =  0 Multiplicity = 1
 6                    -1.85107   0.63126   0.00001 
 6                    -1.63141  -0.77727  -0.00001 
 6                    -2.74222  -1.64176   0. 
 6                    -4.01387  -1.09737   0.00001 
 6                    -4.20855   0.30169   0.00001 
 6                    -3.13856   1.18144   0.00001 
 6                     0.36615   0.26925  -0.00001 
 6                    -0.21737  -0.97832  -0.00005 
 1                    -2.60027  -2.71677  -0.00001 
 1                    -4.87918  -1.75008   0.00001 
 1                    -5.21883   0.69477   0.00002 
 1                    -3.2938    2.25437   0.00003 
 1                    -0.42041   2.2261    0. 
 1                     0.31447  -1.91596  -0.00008 
 7                    -0.62134   1.23796   0.00005 
 6                     1.76498   0.70286  0. 
 8                     2.1       1.87156   0.00007 
 8                     2.62627  -0.33031  -0.00015 
 6                     4.03645   0.00654  -0.00015 
 6                     4.81553  -1.29228   0.00019 
 1                     4.24897   0.61375   0.88264 
 1                     4.24905   0.6133   -0.88323 
 1                     5.88732  -1.07655   0.00013 
 1                     4.58574  -1.88715   0.88695 
 1                     4.58574  -1.8876   -0.88627 
 
                          Input orientation:                          
 ---------------------------------------------------------------------
 Center     Atomic      Atomic             Coordinates (Angstroms)
 Number     Number       Type             X           Y           Z
 ---------------------------------------------------------------------
      1          6           0       -1.851065    0.631255    0.000005
      2          6           0       -1.631407   -0.777270   -0.000006
      3          6           0       -2.742218   -1.641761    0.000001
      4          6           0       -4.013870   -1.097372    0.000010
      5          6           0       -4.208546    0.301689    0.000010
      6          6           0       -3.138556    1.181436    0.000014
      7          6           0        0.366148    0.269249   -0.000010
      8          6           0       -0.217372   -0.978320   -0.000047
      9          1           0       -2.600266   -2.716768   -0.000007
     10          1           0       -4.879184   -1.750083    0.000010
     11          1           0       -5.218828    0.694774    0.000019
     12          1           0       -3.293797    2.254370    0.000034
     13          1           0       -0.420411    2.226099    0.000000
     14          1           0        0.314465   -1.915962   -0.000082
     15          7           0       -0.621338    1.237958    0.000046
     16          6           0        1.764984    0.702863   -0.000004
     17          8           0        2.099997    1.871560    0.000074
     18          8           0        2.626265   -0.330313   -0.000147
     19          6           0        4.036453    0.006536   -0.000153
     20          6           0        4.815529   -1.292284    0.000190
     21          1           0        4.248969    0.613751    0.882639
     22          1           0        4.249054    0.613304   -0.883232
     23          1           0        5.887318   -1.076547    0.000134
     24          1           0        4.585735   -1.887148    0.886953
     25          1           0        4.585739   -1.887597   -0.886274
 ---------------------------------------------------------------------
                    Distance matrix (angstroms):
                    1          2          3          4          5
     1  C    0.000000
     2  C    1.425550   0.000000
     3  C    2.441466   1.407567   0.000000
     4  C    2.768732   2.403871   1.383278   0.000000
     5  C    2.380406   2.793886   2.434567   1.412540   0.000000
     6  C    1.400119   2.471442   2.850881   2.441135   1.385220
     7  C    2.246571   2.255089   3.648822   4.588269   4.574809
     8  C    2.293400   1.428256   2.610556   3.798364   4.191407
     9  H    3.430825   2.168027   1.084339   2.149586   3.420182
    10  H    3.852308   3.390342   2.139710   1.083882   2.158593
    11  H    3.368362   3.877693   3.404848   2.159563   1.084060
    12  H    2.171630   3.457511   3.934981   3.428218   2.156323
    13  H    2.142498   3.238323   4.511223   4.894733   4.248920
    14  H    3.343327   2.254559   3.068957   4.405062   5.037420
    15  N    1.371247   2.254192   3.576439   4.118621   3.707379
    16  C    3.616758   3.704898   5.080564   6.052768   5.986986
    17  O    4.141165   4.575989   5.982514   6.796611   6.500939
    18  O    4.579421   4.281068   5.526346   6.684293   6.863969
    19  C    5.920569   5.721799   6.976193   8.125658   8.250280
    20  C    6.938550   6.467474   7.565823   8.831550   9.163770
    21  H    6.163584   6.106785   7.398857   8.484190   8.509170
    22  H    6.163755   6.106849   7.398872   8.484247   8.509302
    23  H    7.924592   7.524679   8.648026   9.901210  10.189505
    24  H    6.968603   6.377412   7.385512   8.681222   9.105880
    25  H    6.968684   6.377398   7.385450   8.681200   9.105928
                    6          7          8          9         10
     6  C    0.000000
     7  C    3.621469   0.000000
     8  C    3.632886   1.377289   0.000000
     9  H    3.935194   4.209027   2.949642   0.000000
    10  H    3.409339   5.620606   4.725263   2.475469   0.000000
    11  H    2.136439   5.601163   5.273880   4.300638   2.468336
    12  H    1.084107   4.163641   4.462586   5.019283   4.306866
    13  H    2.911981   2.109013   3.210845   5.402194   5.974168
    14  H    4.638667   2.185822   1.077972   3.022738   5.196297
    15  N    2.517852   1.383302   2.252793   4.422218   5.201696
    16  C    4.926838   1.464501   2.599252   5.545204   7.082508
    17  O    5.283816   2.360854   3.673148   6.568503   7.862904
    18  O    5.959744   2.338291   2.916536   5.745589   7.638554
    19  C    7.270567   3.679695   4.366345   7.173732   9.087040
    20  C    8.329871   4.715440   5.042684   7.551369   9.705516
    21  H    7.461690   3.996755   4.823072   7.667036   9.470476
    22  H    7.461882   3.996926   4.823095   7.666984   9.470504
    23  H    9.304025   5.682824   6.105480   8.644617  10.787549
    24  H    8.358681   4.820961   4.968156   7.287906   9.507373
    25  H    8.358780   4.821037   4.968104   7.287775   9.507322
                   11         12         13         14         15
    11  H    0.000000
    12  H    2.477516   0.000000
    13  H    5.036840   2.873525   0.000000
    14  H    6.118274   5.514637   4.206746   0.000000
    15  N    4.629467   2.859219   1.008362   3.289823   0.000000
    16  C    6.983817   5.291355   2.663869   2.993702   2.445580
    17  O    7.412828   5.407361   2.545222   4.187296   2.794122
    18  O    7.911782   6.459700   3.977119   2.803338   3.606439
    19  C    9.280835   7.667159   4.978965   4.189176   4.817823
    20  C   10.229209   8.850984   6.308255   4.544068   5.996803
    21  H    9.509194   7.769423   5.018150   4.760143   4.988837
    22  H    9.509341   7.769676   5.018477   4.760056   4.989097
    23  H   11.246513   9.766672   7.120036   5.635717   6.907933
    24  H   10.177545   8.945715   6.539647   4.362500   6.137304
    25  H   10.177607   8.945866   6.539841   4.362330   6.137451
                   16         17         18         19         20
    16  C    0.000000
    17  O    1.215766   0.000000
    18  O    1.345086   2.263891   0.000000
    19  C    2.375804   2.688527   1.449861   0.000000
    20  C    3.645056   4.169415   2.391289   1.514560   0.000000
    21  H    2.637647   2.641796   2.074545   1.092335   2.175471
    22  H    2.637938   2.642325   2.074535   1.092335   2.175453
    23  H    4.489982   4.799493   3.345345   2.144474   1.093286
    24  H    3.930838   4.592748   2.655222   2.162107   1.092253
    25  H    3.930982   4.593015   2.655163   2.162097   1.092254
                   21         22         23         24         25
    21  H    0.000000
    22  H    1.765871   0.000000
    23  H    2.513983   2.513929   0.000000
    24  H    2.523475   3.082072   1.771339   0.000000
    25  H    3.082079   2.523464   1.771335   1.773227   0.000000
 Stoichiometry    C11H11NO2
 Framework group  C1[X(C11H11NO2)]
 Deg. of freedom    69
 Full point group                 C1      NOp   1
 Largest Abelian subgroup         C1      NOp   1
 Largest concise Abelian subgroup C1      NOp   1
                         Standard orientation:                         
 ---------------------------------------------------------------------
 Center     Atomic      Atomic             Coordinates (Angstroms)
 Number     Number       Type             X           Y           Z
 ---------------------------------------------------------------------
      1          6           0        1.851065   -0.631255    0.000005
      2          6           0        1.631407    0.777270   -0.000006
      3          6           0        2.742218    1.641761    0.000001
      4          6           0        4.013870    1.097372    0.000010
      5          6           0        4.208546   -0.301689    0.000010
      6          6           0        3.138556   -1.181436    0.000014
      7          6           0       -0.366148   -0.269249   -0.000010
      8          6           0        0.217372    0.978320   -0.000047
      9          1           0        2.600266    2.716768   -0.000007
     10          1           0        4.879184    1.750083    0.000010
     11          1           0        5.218828   -0.694774    0.000019
     12          1           0        3.293797   -2.254370    0.000034
     13          1           0        0.420411   -2.226099    0.000000
     14          1           0       -0.314465    1.915962   -0.000082
     15          7           0        0.621338   -1.237958    0.000046
     16          6           0       -1.764984   -0.702863   -0.000004
     17          8           0       -2.099997   -1.871560    0.000074
     18          8           0       -2.626265    0.330313   -0.000147
     19          6           0       -4.036453   -0.006536   -0.000153
     20          6           0       -4.815529    1.292284    0.000190
     21          1           0       -4.248969   -0.613751    0.882639
     22          1           0       -4.249054   -0.613304   -0.883232
     23          1           0       -5.887318    1.076547    0.000134
     24          1           0       -4.585735    1.887148    0.886953
     25          1           0       -4.585739    1.887597   -0.886274
 ---------------------------------------------------------------------
 Rotational constants (GHZ):      2.1876500      0.3212417      0.2810929
 Standard basis: 6-311+G(d,p) (5D, 7F)
 There are   388 symmetry adapted cartesian basis functions of A   symmetry.
 There are   374 symmetry adapted basis functions of A   symmetry.
   374 basis functions,   592 primitive gaussians,   388 cartesian basis functions
    50 alpha electrons       50 beta electrons
       nuclear repulsion energy       824.3498176714 Hartrees.
 NAtoms=   25 NActive=   25 NUniq=   25 SFac= 1.00D+00 NAtFMM=   60 NAOKFM=F Big=F
 Integral buffers will be    131072 words long.
 Raffenetti 2 integral format.
 Two-electron integral symmetry is turned on.
 One-electron integrals computed using PRISM.
 NBasis=   374 RedAO= T EigKep=  1.25D-06  NBF=   374
 NBsUse=   372 1.00D-06 EigRej=  6.20D-07 NBFU=   372
 ExpMin= 4.38D-02 ExpMax= 8.59D+03 ExpMxC= 1.30D+03 IAcc=2 IRadAn=         4 AccDes= 0.00D+00
 Harris functional with IExCor=  402 and IRadAn=       4 diagonalized for initial guess.
 HarFok:  IExCor=  402 AccDes= 0.00D+00 IRadAn=         4 IDoV= 1 UseB2=F ITyADJ=14
 ICtDFT=  3500011 ScaDFX=  1.000000  1.000000  1.000000  1.000000
 FoFCou: FMM=F IPFlag=           0 FMFlag=      100000 FMFlg1=           0
         NFxFlg=           0 DoJE=T BraDBF=F KetDBF=T FulRan=T
         wScrn=  0.000000 ICntrl=     500 IOpCl=  0 I1Cent=   200000004 NGrid=           0
         NMat0=    1 NMatS0=      1 NMatT0=    0 NMatD0=    1 NMtDS0=    0 NMtDT0=    0
 Petite list used in FoFCou.
 Requested convergence on RMS density matrix=1.00D-08 within 128 cycles.
 Requested convergence on MAX density matrix=1.00D-06.
 Requested convergence on             energy=1.00D-06.
 No special actions if energy rises.
 DSYEVD-2 returned Info=       69983 IAlg= 4 N=   372 NDim=   372 NE2=      280626 trying  DSYEV.
 SCF Done:  E(RB3LYP) =  -631.195656000     A.U. after   15 cycles
            NFock= 15  Conv=0.54D-08     -V/T= 2.0041

 **********************************************************************

            Population analysis using the SCF density.

 **********************************************************************

 Orbital symmetries:
       Occupied  (A) (A) (A) (A) (A) (A) (A) (A) (A) (A) (A) (A)
                 (A) (A) (A) (A) (A) (A) (A) (A) (A) (A) (A) (A)
                 (A) (A) (A) (A) (A) (A) (A) (A) (A) (A) (A) (A)
                 (A) (A) (A) (A) (A) (A) (A) (A) (A) (A) (A) (A)
                 (A) (A)
       Virtual   (A) (A) (A) (A) (A) (A) (A) (A) (A) (A) (A) (A)
                 (A) (A) (A) (A) (A) (A) (A) (A) (A) (A) (A) (A)
                 (A) (A) (A) (A) (A) (A) (A) (A) (A) (A) (A) (A)
                 (A) (A) (A) (A) (A) (A) (A) (A) (A) (A) (A) (A)
                 (A) (A) (A) (A) (A) (A) (A) (A) (A) (A) (A) (A)
                 (A) (A) (A) (A) (A) (A) (A) (A) (A) (A) (A) (A)
                 (A) (A) (A) (A) (A) (A) (A) (A) (A) (A) (A) (A)
                 (A) (A) (A) (A) (A) (A) (A) (A) (A) (A) (A) (A)
                 (A) (A) (A) (A) (A) (A) (A) (A) (A) (A) (A) (A)
                 (A) (A) (A) (A) (A) (A) (A) (A) (A) (A) (A) (A)
                 (A) (A) (A) (A) (A) (A) (A) (A) (A) (A) (A) (A)
                 (A) (A) (A) (A) (A) (A) (A) (A) (A) (A) (A) (A)
                 (A) (A) (A) (A) (A) (A) (A) (A) (A) (A) (A) (A)
                 (A) (A) (A) (A) (A) (A) (A) (A) (A) (A) (A) (A)
                 (A) (A) (A) (A) (A) (A) (A) (A) (A) (A) (A) (A)
                 (A) (A) (A) (A) (A) (A) (A) (A) (A) (A) (A) (A)
                 (A) (A) (A) (A) (A) (A) (A) (A) (A) (A) (A) (A)
                 (A) (A) (A) (A) (A) (A) (A) (A) (A) (A) (A) (A)
                 (A) (A) (A) (A) (A) (A) (A) (A) (A) (A) (A) (A)
                 (A) (A) (A) (A) (A) (A) (A) (A) (A) (A) (A) (A)
                 (A) (A) (A) (A) (A) (A) (A) (A) (A) (A) (A) (A)
                 (A) (A) (A) (A) (A) (A) (A) (A) (A) (A) (A) (A)
                 (A) (A) (A) (A) (A) (A) (A) (A) (A) (A) (A) (A)
                 (A) (A) (A) (A) (A) (A) (A) (A) (A) (A) (A) (A)
                 (A) (A) (A) (A) (A) (A) (A) (A) (A) (A) (A) (A)
                 (A) (A) (A) (A) (A) (A) (A) (A) (A) (A) (A) (A)
                 (A) (A) (A) (A) (A) (A) (A) (A) (A) (A)
 The electronic state is 1-A.
 Alpha  occ. eigenvalues --  -19.17401 -19.11732 -14.36666 -10.31217 -10.23663
 Alpha  occ. eigenvalues --  -10.22196 -10.21945 -10.18375 -10.18340 -10.18109
 Alpha  occ. eigenvalues --  -10.18092 -10.18077 -10.17558 -10.17456  -1.11556
 Alpha  occ. eigenvalues --   -1.02982  -0.99491  -0.85374  -0.80525  -0.78672
 Alpha  occ. eigenvalues --   -0.75307  -0.73904  -0.67632  -0.63682  -0.61528
 Alpha  occ. eigenvalues --   -0.59797  -0.57829  -0.55505  -0.51559  -0.50436
 Alpha  occ. eigenvalues --   -0.49597  -0.47792  -0.45175  -0.45106  -0.44534
 Alpha  occ. eigenvalues --   -0.44090  -0.42114  -0.41955  -0.41013  -0.40341
 Alpha  occ. eigenvalues --   -0.37431  -0.37274  -0.36406  -0.35110  -0.34548
 Alpha  occ. eigenvalues --   -0.31558  -0.29549  -0.29385  -0.23888  -0.22470
 Alpha virt. eigenvalues --   -0.06021  -0.00426  -0.00051   0.00642   0.01043
 Alpha virt. eigenvalues --    0.01437   0.02174   0.02949   0.03525   0.03983
 Alpha virt. eigenvalues --    0.04455   0.05130   0.05776   0.06159   0.06743
 Alpha virt. eigenvalues --    0.07370   0.07653   0.07768   0.09087   0.09151
 Alpha virt. eigenvalues --    0.09534   0.09779   0.10421   0.11838   0.11955
 Alpha virt. eigenvalues --    0.12307   0.12753   0.13693   0.14228   0.14433
 Alpha virt. eigenvalues --    0.15129   0.15595   0.15745   0.16036   0.16761
 Alpha virt. eigenvalues --    0.17035   0.17769   0.17953   0.18254   0.18871
 Alpha virt. eigenvalues --    0.19170   0.19620   0.19942   0.20207   0.20524
 Alpha virt. eigenvalues --    0.20957   0.21297   0.21405   0.21446   0.21802
 Alpha virt. eigenvalues --    0.22499   0.23068   0.23818   0.23934   0.24476
 Alpha virt. eigenvalues --    0.24635   0.25012   0.26286   0.26378   0.27060
 Alpha virt. eigenvalues --    0.27775   0.27892   0.28849   0.29254   0.29758
 Alpha virt. eigenvalues --    0.30610   0.30909   0.32659   0.32748   0.32948
 Alpha virt. eigenvalues --    0.33719   0.33873   0.35742   0.36537   0.37893
 Alpha virt. eigenvalues --    0.39147   0.39651   0.40033   0.40621   0.42123
 Alpha virt. eigenvalues --    0.43395   0.46287   0.46496   0.49119   0.49184
 Alpha virt. eigenvalues --    0.50533   0.51531   0.52429   0.52890   0.53547
 Alpha virt. eigenvalues --    0.54381   0.54788   0.56195   0.56713   0.57365
 Alpha virt. eigenvalues --    0.57617   0.59034   0.60167   0.60621   0.61334
 Alpha virt. eigenvalues --    0.61540   0.63355   0.65225   0.65316   0.65466
 Alpha virt. eigenvalues --    0.65884   0.66230   0.68602   0.68635   0.70009
 Alpha virt. eigenvalues --    0.70780   0.70960   0.71354   0.72206   0.73275
 Alpha virt. eigenvalues --    0.74678   0.75824   0.77712   0.78913   0.79780
 Alpha virt. eigenvalues --    0.81094   0.82607   0.83666   0.84759   0.85917
 Alpha virt. eigenvalues --    0.86095   0.87929   0.88247   0.88646   0.89744
 Alpha virt. eigenvalues --    0.90758   0.93746   0.94431   0.95275   0.96534
 Alpha virt. eigenvalues --    0.98139   0.99228   1.00486   1.00661   1.01833
 Alpha virt. eigenvalues --    1.03990   1.05946   1.06022   1.06455   1.07673
 Alpha virt. eigenvalues --    1.08316   1.09976   1.14073   1.15366   1.15401
 Alpha virt. eigenvalues --    1.16452   1.18284   1.18769   1.20412   1.20842
 Alpha virt. eigenvalues --    1.23726   1.26034   1.29118   1.30830   1.33095
 Alpha virt. eigenvalues --    1.36281   1.37566   1.43713   1.44697   1.47614
 Alpha virt. eigenvalues --    1.48910   1.50324   1.51611   1.51795   1.53443
 Alpha virt. eigenvalues --    1.54095   1.54980   1.56326   1.56418   1.57286
 Alpha virt. eigenvalues --    1.58608   1.58870   1.60394   1.61407   1.64713
 Alpha virt. eigenvalues --    1.64891   1.65427   1.66932   1.71454   1.71775
 Alpha virt. eigenvalues --    1.71798   1.73226   1.73270   1.74182   1.75779
 Alpha virt. eigenvalues --    1.77315   1.78218   1.83325   1.83848   1.84227
 Alpha virt. eigenvalues --    1.85594   1.86706   1.88074   1.90407   1.90478
 Alpha virt. eigenvalues --    1.92856   1.94444   1.94493   1.95214   1.95847
 Alpha virt. eigenvalues --    1.98243   2.00806   2.04050   2.05363   2.08041
 Alpha virt. eigenvalues --    2.08417   2.10053   2.11099   2.11593   2.15111
 Alpha virt. eigenvalues --    2.15989   2.19018   2.23114   2.23623   2.26274
 Alpha virt. eigenvalues --    2.30021   2.34608   2.34779   2.38078   2.40320
 Alpha virt. eigenvalues --    2.41333   2.44647   2.44648   2.45627   2.49120
 Alpha virt. eigenvalues --    2.49316   2.51228   2.51773   2.53825   2.57530
 Alpha virt. eigenvalues --    2.59522   2.60397   2.62668   2.62947   2.64826
 Alpha virt. eigenvalues --    2.66079   2.68496   2.69264   2.70810   2.72936
 Alpha virt. eigenvalues --    2.73477   2.74822   2.75729   2.76847   2.78092
 Alpha virt. eigenvalues --    2.80564   2.81906   2.82350   2.83056   2.85108
 Alpha virt. eigenvalues --    2.86536   2.88155   2.89078   2.92187   2.93029
 Alpha virt. eigenvalues --    2.94161   2.97698   3.00817   3.00832   3.05073
 Alpha virt. eigenvalues --    3.06080   3.07944   3.12807   3.16379   3.20863
 Alpha virt. eigenvalues --    3.21840   3.25395   3.28299   3.30746   3.35911
 Alpha virt. eigenvalues --    3.36624   3.40698   3.42308   3.46205   3.50848
 Alpha virt. eigenvalues --    3.54369   3.59659   3.66281   3.66618   3.67962
 Alpha virt. eigenvalues --    3.78740   3.80391   3.80707   3.87714   3.88359
 Alpha virt. eigenvalues --    3.94571   4.02875   4.06220   4.06921   4.10817
 Alpha virt. eigenvalues --    4.18257   4.23975   4.30127   4.47028   4.81903
 Alpha virt. eigenvalues --    4.93268   4.97553   5.05976   5.14830   5.25364
 Alpha virt. eigenvalues --    5.36800   5.70147   5.86965  23.61936  23.81009
 Alpha virt. eigenvalues --   23.84902  23.88831  23.92470  23.96512  23.99125
 Alpha virt. eigenvalues --   24.03186  24.10518  24.14830  24.18810  35.67414
 Alpha virt. eigenvalues --   49.90691  50.03476
          Condensed to atoms (all electrons):
               1          2          3          4          5          6
     1  C   13.698433  -1.988106  -0.383598  -0.806470   0.669965  -0.139497
     2  C   -1.988106  17.692574 -10.562852   2.125718  -2.376722   1.610184
     3  C   -0.383598 -10.562852  18.895539  -2.214862   1.734173  -2.366039
     4  C   -0.806470   2.125718  -2.214862   6.583248  -0.020337   0.893547
     5  C    0.669965  -2.376722   1.734173  -0.020337   6.030676  -0.227044
     6  C   -0.139497   1.610184  -2.366039   0.893547  -0.227044  10.227850
     7  C    0.520161   1.005673  -2.952711  -0.092261  -0.296084  -0.094814
     8  C   -3.998010  -2.785974   3.285811  -0.742617   0.292432  -2.804114
     9  H   -0.007336   0.067486   0.275942  -0.006956  -0.014117   0.001794
    10  H    0.019661   0.030465  -0.076559   0.372712   0.014047  -0.034664
    11  H    0.041607   0.058405  -0.073228   0.035119   0.345063  -0.065663
    12  H   -0.035805  -0.016430  -0.004719  -0.000211   0.037684   0.356697
    13  H   -0.092454   0.059979   0.002997   0.002863  -0.001456  -0.003895
    14  H   -0.006854   0.040422  -0.015024   0.006471  -0.001986   0.012579
    15  N   -0.121394   0.171886   0.024204   0.005170  -0.042558  -0.358455
    16  C   -1.077073  -0.806529   1.459966  -0.150525   0.125194  -0.376572
    17  O    0.165662  -0.010350  -0.021379   0.002319   0.000719   0.033243
    18  O    0.078402   0.030178   0.003769  -0.002188   0.002041   0.008939
    19  C    0.081196   0.055558   0.011117  -0.000728   0.001521   0.012899
    20  C   -0.030510  -0.012746   0.008585   0.000068  -0.000112  -0.004968
    21  H    0.000611  -0.002006  -0.000339  -0.000008  -0.000005   0.000048
    22  H    0.000607  -0.002003  -0.000339  -0.000008  -0.000005   0.000049
    23  H   -0.000200  -0.000162   0.000015   0.000001   0.000000  -0.000008
    24  H    0.000567  -0.000230  -0.000222  -0.000009   0.000000   0.000027
    25  H    0.000568  -0.000230  -0.000222  -0.000009   0.000000   0.000027
               7          8          9         10         11         12
     1  C    0.520161  -3.998010  -0.007336   0.019661   0.041607  -0.035805
     2  C    1.005673  -2.785974   0.067486   0.030465   0.058405  -0.016430
     3  C   -2.952711   3.285811   0.275942  -0.076559  -0.073228  -0.004719
     4  C   -0.092261  -0.742617  -0.006956   0.372712   0.035119  -0.000211
     5  C   -0.296084   0.292432  -0.014117   0.014047   0.345063   0.037684
     6  C   -0.094814  -2.804114   0.001794  -0.034664  -0.065663   0.356697
     7  C   12.043960  -1.078849   0.022535   0.002030   0.004872   0.014184
     8  C   -1.078849  11.828580   0.004471   0.018764   0.001848   0.002780
     9  H    0.022535   0.004471   0.546851  -0.008060  -0.000226   0.000061
    10  H    0.002030   0.018764  -0.008060   0.544181  -0.007704  -0.000238
    11  H    0.004872   0.001848  -0.000226  -0.007704   0.542787  -0.007814
    12  H    0.014184   0.002780   0.000061  -0.000238  -0.007814   0.545291
    13  H   -0.064639   0.016365   0.000008   0.000000   0.000021   0.001465
    14  H   -0.041565   0.352095   0.001496  -0.000011  -0.000001   0.000010
    15  N    0.025756   0.111340  -0.001376   0.000894  -0.000440  -0.005216
    16  C   -2.694830   1.506670  -0.002541   0.000128  -0.000817  -0.000406
    17  O    0.002147  -0.122255   0.000002   0.000000   0.000000  -0.000034
    18  O   -0.163300  -0.025788  -0.000029  -0.000001   0.000000   0.000011
    19  C   -0.235427  -0.046959  -0.000042  -0.000001  -0.000003  -0.000012
    20  C   -0.042464   0.022481   0.000007   0.000001   0.000000  -0.000001
    21  H    0.010942  -0.005334   0.000000   0.000000   0.000000   0.000000
    22  H    0.010910  -0.005304   0.000000   0.000000   0.000000   0.000000
    23  H   -0.002059   0.000161   0.000000   0.000000   0.000000   0.000000
    24  H    0.007025  -0.004449   0.000000   0.000000   0.000000   0.000000
    25  H    0.007032  -0.004460   0.000000   0.000000   0.000000   0.000000
              13         14         15         16         17         18
     1  C   -0.092454  -0.006854  -0.121394  -1.077073   0.165662   0.078402
     2  C    0.059979   0.040422   0.171886  -0.806529  -0.010350   0.030178
     3  C    0.002997  -0.015024   0.024204   1.459966  -0.021379   0.003769
     4  C    0.002863   0.006471   0.005170  -0.150525   0.002319  -0.002188
     5  C   -0.001456  -0.001986  -0.042558   0.125194   0.000719   0.002041
     6  C   -0.003895   0.012579  -0.358455  -0.376572   0.033243   0.008939
     7  C   -0.064639  -0.041565   0.025756  -2.694830   0.002147  -0.163300
     8  C    0.016365   0.352095   0.111340   1.506670  -0.122255  -0.025788
     9  H    0.000008   0.001496  -0.001376  -0.002541   0.000002  -0.000029
    10  H    0.000000  -0.000011   0.000894   0.000128   0.000000  -0.000001
    11  H    0.000021  -0.000001  -0.000440  -0.000817   0.000000   0.000000
    12  H    0.001465   0.000010  -0.005216  -0.000406  -0.000034   0.000011
    13  H    0.364281  -0.000020   0.376806   0.018872   0.007371   0.002571
    14  H   -0.000020   0.516958   0.015861  -0.013360  -0.000681   0.004723
    15  N    0.376806   0.015861   6.797394   0.045781   0.030371   0.030394
    16  C    0.018872  -0.013360   0.045781   7.892465   0.234568  -0.091903
    17  O    0.007371  -0.000681   0.030371   0.234568   8.153044  -0.172491
    18  O    0.002571   0.004723   0.030394  -0.091903  -0.172491   8.399117
    19  C    0.002400   0.000543   0.008147  -0.252298  -0.038942   0.250984
    20  C   -0.000175   0.000499   0.002686   0.165189   0.022149  -0.176341
    21  H   -0.000008   0.000011  -0.000302  -0.002870   0.001453  -0.036348
    22  H   -0.000008   0.000011  -0.000303  -0.002815   0.001446  -0.036347
    23  H    0.000000  -0.000003  -0.000012   0.011224   0.000162   0.015026
    24  H    0.000000   0.000026  -0.000003  -0.010472  -0.000164  -0.004363
    25  H    0.000000   0.000027  -0.000003  -0.010497  -0.000164  -0.004369
              19         20         21         22         23         24
     1  C    0.081196  -0.030510   0.000611   0.000607  -0.000200   0.000567
     2  C    0.055558  -0.012746  -0.002006  -0.002003  -0.000162  -0.000230
     3  C    0.011117   0.008585  -0.000339  -0.000339   0.000015  -0.000222
     4  C   -0.000728   0.000068  -0.000008  -0.000008   0.000001  -0.000009
     5  C    0.001521  -0.000112  -0.000005  -0.000005   0.000000   0.000000
     6  C    0.012899  -0.004968   0.000048   0.000049  -0.000008   0.000027
     7  C   -0.235427  -0.042464   0.010942   0.010910  -0.002059   0.007025
     8  C   -0.046959   0.022481  -0.005334  -0.005304   0.000161  -0.004449
     9  H   -0.000042   0.000007   0.000000   0.000000   0.000000   0.000000
    10  H   -0.000001   0.000001   0.000000   0.000000   0.000000   0.000000
    11  H   -0.000003   0.000000   0.000000   0.000000   0.000000   0.000000
    12  H   -0.000012  -0.000001   0.000000   0.000000   0.000000   0.000000
    13  H    0.002400  -0.000175  -0.000008  -0.000008   0.000000   0.000000
    14  H    0.000543   0.000499   0.000011   0.000011  -0.000003   0.000026
    15  N    0.008147   0.002686  -0.000302  -0.000303  -0.000012  -0.000003
    16  C   -0.252298   0.165189  -0.002870  -0.002815   0.011224  -0.010472
    17  O   -0.038942   0.022149   0.001453   0.001446   0.000162  -0.000164
    18  O    0.250984  -0.176341  -0.036348  -0.036347   0.015026  -0.004363
    19  C    5.399553   0.022528   0.417178   0.417175  -0.082035  -0.019545
    20  C    0.022528   5.370219  -0.037361  -0.037426   0.439010   0.406618
    21  H    0.417178  -0.037361   0.539265  -0.040770  -0.003454  -0.008088
    22  H    0.417175  -0.037426  -0.040770   0.539278  -0.003454   0.007184
    23  H   -0.082035   0.439010  -0.003454  -0.003454   0.530296  -0.026189
    24  H   -0.019545   0.406618  -0.008088   0.007184  -0.026189   0.533915
    25  H   -0.019536   0.406647   0.007183  -0.008086  -0.026192  -0.029365
              25
     1  C    0.000568
     2  C   -0.000230
     3  C   -0.000222
     4  C   -0.000009
     5  C    0.000000
     6  C    0.000027
     7  C    0.007032
     8  C   -0.004460
     9  H    0.000000
    10  H    0.000000
    11  H    0.000000
    12  H    0.000000
    13  H    0.000000
    14  H    0.000027
    15  N   -0.000003
    16  C   -0.010497
    17  O   -0.000164
    18  O   -0.004369
    19  C   -0.019536
    20  C    0.406647
    21  H    0.007183
    22  H   -0.008086
    23  H   -0.026192
    24  H   -0.029365
    25  H    0.533914
 Mulliken charges:
               1
     1  C   -0.590133
     2  C    1.615812
     3  C   -1.030025
     4  C    0.009953
     5  C   -0.273086
     6  C   -0.682150
     7  C    0.081778
     8  C    0.180316
     9  H    0.120030
    10  H    0.124353
    11  H    0.126176
    12  H    0.112704
    13  H    0.306656
    14  H    0.127774
    15  N   -0.116626
    16  C    0.033451
    17  O   -0.288195
    18  O   -0.112687
    19  C    0.014729
    20  C   -0.524582
    21  H    0.160202
    22  H    0.160206
    23  H    0.147874
    24  H    0.147737
    25  H    0.147736
 Sum of Mulliken charges =   0.00000
 Mulliken charges with hydrogens summed into heavy atoms:
               1
     1  C   -0.590133
     2  C    1.615812
     3  C   -0.909995
     4  C    0.134306
     5  C   -0.146911
     6  C   -0.569446
     7  C    0.081778
     8  C    0.308090
    15  N    0.190030
    16  C    0.033451
    17  O   -0.288195
    18  O   -0.112687
    19  C    0.335136
    20  C   -0.081236
 Electronic spatial extent (au):  <R**2>=           3778.0923
 Charge=              0.0000 electrons
 Dipole moment (field-independent basis, Debye):
    X=             -0.5517    Y=              0.7614    Z=             -0.0002  Tot=              0.9403
 Quadrupole moment (field-independent basis, Debye-Ang):
   XX=            -69.0185   YY=            -79.3764   ZZ=            -85.8893
   XY=             -6.5474   XZ=              0.0004   YZ=              0.0004
 Traceless Quadrupole moment (field-independent basis, Debye-Ang):
   XX=              9.0762   YY=             -1.2817   ZZ=             -7.7946
   XY=             -6.5474   XZ=              0.0004   YZ=              0.0004
 Octapole moment (field-independent basis, Debye-Ang**2):
  XXX=            -59.9412  YYY=              0.4804  ZZZ=             -0.0004  XYY=             18.3262
  XXY=              8.5521  XXZ=             -0.0015  XZZ=            -24.7961  YZZ=             -4.3672
  YYZ=             -0.0012  XYZ=             -0.0009
 Hexadecapole moment (field-independent basis, Debye-Ang**3):
 XXXX=          -3884.3685 YYYY=           -665.1476 ZZZZ=           -109.3815 XXXY=            -27.1464
 XXXZ=              0.0127 YYYX=            -32.6957 YYYZ=             -0.0017 ZZZX=              0.0017
 ZZZY=              0.0012 XXYY=           -841.4641 XXZZ=           -788.1905 YYZZ=           -142.3641
 XXYZ=              0.0000 YYXZ=              0.0022 ZZXY=             -1.4248
 N-N= 8.243498176714D+02 E-N=-3.119951156771D+03  KE= 6.285909833761D+02
 There are a total of      208040 grid points.
 ElSum from          density=       99.9999961249
 ElSum from atomic densities=      100.0002496744

 Hirshfeld populations at iteration   1 (CX, CA, CB, DipXYZ):
               1          2          3          4          5          6
     1  C    0.000000   2.976919   2.976919  -0.037643  -0.063522  -0.000002
     2  C    0.000000   3.012103   3.012103   0.005559   0.030297   0.000003
     3  C    0.000000   3.023114   3.023114  -0.034366   0.062088   0.000000
     4  C    0.000000   3.030129   3.030129   0.054427   0.017287   0.000001
     5  C    0.000000   3.024743   3.024743   0.059366  -0.003672   0.000000
     6  C    0.000001   3.030717   3.030717  -0.017692  -0.067610   0.000002
     7  C    0.000001   2.990486   2.990486  -0.038736  -0.086710   0.000003
     8  C    0.000000   3.033329   3.033329  -0.002825   0.095330  -0.000004
     9  H    0.000002   0.475404   0.475404  -0.019947   0.159617  -0.000001
    10  H    0.000003   0.477769   0.477769   0.128636   0.096413   0.000000
    11  H    0.000002   0.476643   0.476643   0.150810  -0.057391   0.000002
    12  H    0.000002   0.475861   0.475861   0.026291  -0.159643   0.000004
    13  H    0.000001   0.425612   0.425612  -0.007155  -0.203945  -0.000011
    14  H    0.000001   0.471696   0.471696  -0.069757   0.154852  -0.000006
    15  N    0.000001   3.540709   3.540709  -0.001888  -0.073294  -0.000007
    16  C    0.000000   2.895166   2.895166  -0.060216   0.054022   0.000001
    17  O    0.000003   4.150771   4.150771   0.029258   0.118905  -0.000007
    18  O    0.000000   4.064286   4.064286  -0.068007  -0.115750   0.000011
    19  C    0.000000   2.986210   2.986210   0.051778   0.032293   0.000002
    20  C    0.000000   3.049157   3.049157  -0.007962  -0.014003  -0.000002
    21  H    0.000001   0.477330   0.477330  -0.050022  -0.072497   0.125228
    22  H    0.000001   0.477328   0.477328  -0.050016  -0.072451  -0.125263
    23  H    0.000000   0.477248   0.477248  -0.148603  -0.032129  -0.000008
    24  H    0.000000   0.478634   0.478634   0.026658   0.082892   0.124297
    25  H    0.000000   0.478634   0.478634   0.026658   0.082955  -0.124255
       Tot   0.000021  49.999998  49.999998  -0.055393  -0.035665  -0.000013

 Dip from Atomic Chgs             -0.161723   0.335171  -0.000048
         Total Dipole             -0.217116   0.299506  -0.000061

 Hirshfeld charges, spin densities, dipoles, and CM5 charges using IRadAn=      4:
              Q-H        S-H        Dx         Dy         Dz        Q-CM5   
     1  C    0.046162   0.000000  -0.037643  -0.063522  -0.000002   0.108077
     2  C   -0.024207   0.000000   0.005559   0.030297   0.000003  -0.022964
     3  C   -0.046228   0.000000  -0.034366   0.062088   0.000000  -0.098506
     4  C   -0.060259   0.000000   0.054427   0.017287   0.000001  -0.115712
     5  C   -0.049486   0.000000   0.059366  -0.003672   0.000000  -0.104741
     6  C   -0.061433   0.000000  -0.017692  -0.067610   0.000002  -0.110168
     7  C    0.019029   0.000000  -0.038736  -0.086710   0.000003   0.083462
     8  C   -0.066658   0.000000  -0.002825   0.095330  -0.000004  -0.108205
     9  H    0.049192   0.000000  -0.019947   0.159617  -0.000001   0.105315
    10  H    0.044463   0.000000   0.128636   0.096413   0.000000   0.100303
    11  H    0.046713   0.000000   0.150810  -0.057391   0.000002   0.102574
    12  H    0.048277   0.000000   0.026291  -0.159643   0.000004   0.105717
    13  H    0.148775   0.000000  -0.007155  -0.203945  -0.000011   0.345885
    14  H    0.056608   0.000000  -0.069757   0.154852  -0.000006   0.115162
    15  N   -0.081419   0.000000  -0.001888  -0.073294  -0.000007  -0.431061
    16  C    0.209669   0.000000  -0.060216   0.054022   0.000001   0.273106
    17  O   -0.301541   0.000000   0.029258   0.118905  -0.000007  -0.348416
    18  O   -0.128573   0.000000  -0.068007  -0.115750   0.000011  -0.208093
    19  C    0.027579   0.000000   0.051778   0.032293   0.000002  -0.056567
    20  C   -0.098314   0.000000  -0.007962  -0.014003  -0.000002  -0.245261
    21  H    0.045341   0.000000  -0.050022  -0.072497   0.125228   0.110399
    22  H    0.045344   0.000000  -0.050016  -0.072451  -0.125263   0.110398
    23  H    0.045504   0.000000  -0.148603  -0.032129  -0.000008   0.096892
    24  H    0.042733   0.000000   0.026658   0.082892   0.124297   0.096204
    25  H    0.042733   0.000000   0.026658   0.082955  -0.124255   0.096204
       Tot   0.000004   0.000000  -0.055393  -0.035665  -0.000013   0.000004
 Hirshfeld charges with hydrogens summed into heavy atoms:
              Q-H       Q-CM5   
     1  C    0.046162   0.108077
     2  C   -0.024207  -0.022964
     3  C    0.002964   0.006809
     4  C   -0.015796  -0.015409
     5  C   -0.002773  -0.002166
     6  C   -0.013156  -0.004451
     7  C    0.019029   0.083462
     8  C   -0.010051   0.006957
    15  N    0.067357  -0.085176
    16  C    0.209669   0.273106
    17  O   -0.301541  -0.348416
    18  O   -0.128573  -0.208093
    19  C    0.118263   0.164230
    20  C    0.032655   0.044039
 
 EQQ= 0.000000000000E+00 EQD= 0.000000000000E+00 EDD= 0.769181000827E-02
 EQQ+QD+DD= 0.769181000827E-02
 
          MBS Condensed to atoms (all electrons):
               1          2          3          4          5          6
     1  C    4.726047   0.477686  -0.028476  -0.012280  -0.032847   0.490775
     2  C    0.477686   4.801093   0.484881  -0.032182  -0.011470  -0.025776
     3  C   -0.028476   0.484881   4.817083   0.524540  -0.030238  -0.008936
     4  C   -0.012280  -0.032182   0.524540   4.838978   0.487822  -0.030108
     5  C   -0.032847  -0.011470  -0.030238   0.487822   4.825751   0.521706
     6  C    0.490775  -0.025776  -0.008936  -0.030108   0.521706   4.836501
     7  C   -0.063933  -0.052831   0.001008  -0.000012  -0.000013   0.001301
     8  C   -0.049994   0.471135  -0.019020   0.000748   0.000056   0.001073
     9  H    0.001452  -0.025549   0.388638  -0.024679   0.001471   0.000013
    10  H    0.000069   0.001553  -0.026107   0.390987  -0.025840   0.001445
    11  H    0.001578   0.000060   0.001463  -0.025490   0.390597  -0.026477
    12  H   -0.025035   0.001284   0.000016   0.001413  -0.023436   0.388737
    13  H   -0.022864   0.002183  -0.000029   0.000000  -0.000009  -0.001123
    14  H    0.001632  -0.018172  -0.001088  -0.000001  -0.000001  -0.000018
    15  N    0.418686  -0.050801   0.000800   0.000035   0.000552  -0.020681
    16  C    0.001271   0.000961  -0.000005   0.000000   0.000000  -0.000007
    17  O    0.000018  -0.000004   0.000000   0.000000   0.000000   0.000000
    18  O   -0.000003   0.000004   0.000000   0.000000   0.000000   0.000000
    19  C    0.000000   0.000000   0.000000   0.000000   0.000000   0.000000
    20  C    0.000000   0.000000   0.000000   0.000000   0.000000   0.000000
    21  H    0.000000   0.000000   0.000000   0.000000   0.000000   0.000000
    22  H    0.000000   0.000000   0.000000   0.000000   0.000000   0.000000
    23  H    0.000000   0.000000   0.000000   0.000000   0.000000   0.000000
    24  H    0.000000   0.000000   0.000000   0.000000   0.000000   0.000000
    25  H    0.000000   0.000000   0.000000   0.000000   0.000000   0.000000
               7          8          9         10         11         12
     1  C   -0.063933  -0.049994   0.001452   0.000069   0.001578  -0.025035
     2  C   -0.052831   0.471135  -0.025549   0.001553   0.000060   0.001284
     3  C    0.001008  -0.019020   0.388638  -0.026107   0.001463   0.000016
     4  C   -0.000012   0.000748  -0.024679   0.390987  -0.025490   0.001413
     5  C   -0.000013   0.000056   0.001471  -0.025840   0.390597  -0.023436
     6  C    0.001301   0.001073   0.000013   0.001445  -0.026477   0.388737
     7  C    4.797985   0.533101  -0.000005   0.000000   0.000000  -0.000009
     8  C    0.533101   4.879971  -0.002105  -0.000017   0.000000  -0.000030
     9  H   -0.000005  -0.002105   0.555625  -0.003979  -0.000039   0.000002
    10  H    0.000000  -0.000017  -0.003979   0.560109  -0.003702  -0.000037
    11  H    0.000000   0.000000  -0.000039  -0.003702   0.558172  -0.004016
    12  H   -0.000009  -0.000030   0.000002  -0.000037  -0.004016   0.554190
    13  H   -0.027004   0.002128   0.000001   0.000000   0.000000   0.000716
    14  H   -0.020977   0.390153   0.000514   0.000000   0.000000   0.000001
    15  N    0.407003  -0.051231  -0.000015   0.000000  -0.000010  -0.001618
    16  C    0.408507  -0.016854   0.000000   0.000000   0.000000   0.000000
    17  O   -0.029332   0.000270   0.000000   0.000000   0.000000   0.000000
    18  O   -0.034945  -0.000766   0.000000   0.000000   0.000000   0.000000
    19  C    0.001569   0.000010   0.000000   0.000000   0.000000   0.000000
    20  C   -0.000011  -0.000001   0.000000   0.000000   0.000000   0.000000
    21  H    0.000008  -0.000001   0.000000   0.000000   0.000000   0.000000
    22  H    0.000008  -0.000001   0.000000   0.000000   0.000000   0.000000
    23  H    0.000000   0.000000   0.000000   0.000000   0.000000   0.000000
    24  H   -0.000002   0.000000   0.000000   0.000000   0.000000   0.000000
    25  H   -0.000002   0.000000   0.000000   0.000000   0.000000   0.000000
              13         14         15         16         17         18
     1  C   -0.022864   0.001632   0.418686   0.001271   0.000018  -0.000003
     2  C    0.002183  -0.018172  -0.050801   0.000961  -0.000004   0.000004
     3  C   -0.000029  -0.001088   0.000800  -0.000005   0.000000   0.000000
     4  C    0.000000  -0.000001   0.000035   0.000000   0.000000   0.000000
     5  C   -0.000009  -0.000001   0.000552   0.000000   0.000000   0.000000
     6  C   -0.001123  -0.000018  -0.020681  -0.000007   0.000000   0.000000
     7  C   -0.027004  -0.020977   0.407003   0.408507  -0.029332  -0.034945
     8  C    0.002128   0.390153  -0.051231  -0.016854   0.000270  -0.000766
     9  H    0.000001   0.000514  -0.000015   0.000000   0.000000   0.000000
    10  H    0.000000   0.000000   0.000000   0.000000   0.000000   0.000000
    11  H    0.000000   0.000000  -0.000010   0.000000   0.000000   0.000000
    12  H    0.000716   0.000001  -0.001618   0.000000   0.000000   0.000000
    13  H    0.396734  -0.000043   0.339116  -0.002120   0.003728   0.000031
    14  H   -0.000043   0.516273   0.001167  -0.001438   0.000004   0.000658
    15  N    0.339116   0.001167   6.333334  -0.024314  -0.001875   0.000155
    16  C   -0.002120  -0.001438  -0.024314   4.444841   0.449329   0.296354
    17  O    0.003728   0.000004  -0.001875   0.449329   8.093410  -0.022435
    18  O    0.000031   0.000658   0.000155   0.296354  -0.022435   7.941886
    19  C   -0.000001  -0.000019  -0.000006  -0.031009  -0.002281   0.251766
    20  C    0.000000   0.000001   0.000000   0.001551   0.000019  -0.021227
    21  H    0.000000   0.000001   0.000000  -0.003475   0.001376  -0.017573
    22  H    0.000000   0.000001   0.000000  -0.003470   0.001373  -0.017575
    23  H    0.000000   0.000000   0.000000  -0.000042   0.000001   0.000791
    24  H    0.000000   0.000002   0.000000   0.000010  -0.000001  -0.000498
    25  H    0.000000   0.000002   0.000000   0.000010  -0.000001  -0.000498
              19         20         21         22         23         24
     1  C    0.000000   0.000000   0.000000   0.000000   0.000000   0.000000
     2  C    0.000000   0.000000   0.000000   0.000000   0.000000   0.000000
     3  C    0.000000   0.000000   0.000000   0.000000   0.000000   0.000000
     4  C    0.000000   0.000000   0.000000   0.000000   0.000000   0.000000
     5  C    0.000000   0.000000   0.000000   0.000000   0.000000   0.000000
     6  C    0.000000   0.000000   0.000000   0.000000   0.000000   0.000000
     7  C    0.001569  -0.000011   0.000008   0.000008   0.000000  -0.000002
     8  C    0.000010  -0.000001  -0.000001  -0.000001   0.000000   0.000000
     9  H    0.000000   0.000000   0.000000   0.000000   0.000000   0.000000
    10  H    0.000000   0.000000   0.000000   0.000000   0.000000   0.000000
    11  H    0.000000   0.000000   0.000000   0.000000   0.000000   0.000000
    12  H    0.000000   0.000000   0.000000   0.000000   0.000000   0.000000
    13  H   -0.000001   0.000000   0.000000   0.000000   0.000000   0.000000
    14  H   -0.000019   0.000001   0.000001   0.000001   0.000000   0.000002
    15  N   -0.000006   0.000000   0.000000   0.000000   0.000000   0.000000
    16  C   -0.031009   0.001551  -0.003475  -0.003470  -0.000042   0.000010
    17  O   -0.002281   0.000019   0.001376   0.001373   0.000001  -0.000001
    18  O    0.251766  -0.021227  -0.017573  -0.017575   0.000791  -0.000498
    19  C    4.696728   0.374021   0.372641   0.372643  -0.019685  -0.022027
    20  C    0.374021   4.817031  -0.022913  -0.022916   0.374150   0.377318
    21  H    0.372641  -0.022913   0.585587  -0.027068  -0.001386  -0.002909
    22  H    0.372643  -0.022916  -0.027068   0.585602  -0.001386   0.002151
    23  H   -0.019685   0.374150  -0.001386  -0.001386   0.593677  -0.020878
    24  H   -0.022027   0.377318  -0.002909   0.002151  -0.020878   0.590224
    25  H   -0.022028   0.377317   0.002151  -0.002909  -0.020878  -0.022877
              25
     1  C    0.000000
     2  C    0.000000
     3  C    0.000000
     4  C    0.000000
     5  C    0.000000
     6  C    0.000000
     7  C   -0.000002
     8  C    0.000000
     9  H    0.000000
    10  H    0.000000
    11  H    0.000000
    12  H    0.000000
    13  H    0.000000
    14  H    0.000002
    15  N    0.000000
    16  C    0.000010
    17  O   -0.000001
    18  O   -0.000498
    19  C   -0.022028
    20  C    0.377317
    21  H    0.002151
    22  H   -0.002909
    23  H   -0.020878
    24  H   -0.022877
    25  H    0.590225
 MBS Mulliken charges:
               1
     1  C    0.116216
     2  C   -0.024056
     3  C   -0.104529
     4  C   -0.119769
     5  C   -0.104103
     6  C   -0.128425
     7  C    0.078586
     8  C   -0.138626
     9  H    0.108654
    10  H    0.105518
    11  H    0.107862
    12  H    0.107821
    13  H    0.308558
    14  H    0.131349
    15  N   -0.350295
    16  C    0.479902
    17  O   -0.493597
    18  O   -0.376124
    19  C    0.027677
    20  C   -0.254339
    21  H    0.113560
    22  H    0.113547
    23  H    0.095636
    24  H    0.099489
    25  H    0.099489
 Sum of MBS Mulliken charges =   0.00000
 MBS Mulliken charges with hydrogens summed into heavy atoms:
               1
     1  C    0.116216
     2  C   -0.024056
     3  C    0.004125
     4  C   -0.014251
     5  C    0.003759
     6  C   -0.020604
     7  C    0.078586
     8  C   -0.007277
    15  N   -0.041737
    16  C    0.479902
    17  O   -0.493597
    18  O   -0.376124
    19  C    0.254784
    20  C    0.040274
 Breneman (CHELPG) radii used.
 Generate Potential Derived Charges using the Breneman model, NDens= 1.
 Grid spacing= 0.300 Box extension= 2.800
 NStep X,Y,Z=   57     37     26   Total possible points=       54834
 Number of Points to Fit=   16384

 **********************************************************************

            Electrostatic Properties Using The SCF Density

 **********************************************************************

       Atomic Center    1 is at   1.851065 -0.631255  0.000005
       Atomic Center    2 is at   1.631407  0.777270 -0.000006
       Atomic Center    3 is at   2.742218  1.641761  0.000001
       Atomic Center    4 is at   4.013870  1.097372  0.000010
       Atomic Center    5 is at   4.208546 -0.301689  0.000010
       Atomic Center    6 is at   3.138556 -1.181436  0.000014
       Atomic Center    7 is at  -0.366148 -0.269249 -0.000010
       Atomic Center    8 is at   0.217372  0.978320 -0.000047
       Atomic Center    9 is at   2.600266  2.716768 -0.000007
       Atomic Center   10 is at   4.879184  1.750083  0.000010
       Atomic Center   11 is at   5.218828 -0.694774  0.000019
       Atomic Center   12 is at   3.293797 -2.254370  0.000034
       Atomic Center   13 is at   0.420411 -2.226099  0.000000
       Atomic Center   14 is at  -0.314465  1.915962 -0.000082
       Atomic Center   15 is at   0.621338 -1.237958  0.000046
       Atomic Center   16 is at  -1.764984 -0.702863 -0.000004
       Atomic Center   17 is at  -2.099997 -1.871560  0.000074
       Atomic Center   18 is at  -2.626265  0.330313 -0.000147
       Atomic Center   19 is at  -4.036453 -0.006536 -0.000153
       Atomic Center   20 is at  -4.815529  1.292284  0.000190
       Atomic Center   21 is at  -4.248969 -0.613751  0.882639
       Atomic Center   22 is at  -4.249054 -0.613304 -0.883232
       Atomic Center   23 is at  -5.887318  1.076547  0.000134
       Atomic Center   24 is at  -4.585735  1.887148  0.886953
       Atomic Center   25 is at  -4.585739  1.887597 -0.886274
   16384 points will be used for fitting atomic charges
 Fitting point charges to electrostatic potential
 Charges from ESP fit, RMS=   0.00409 RRMS=   0.35350:
 ESP charges:
               1
     1  C    0.273544
     2  C    0.221945
     3  C   -0.261992
     4  C   -0.100402
     5  C   -0.062167
     6  C   -0.271905
     7  C   -0.018863
     8  C   -0.322451
     9  H    0.140234
    10  H    0.090974
    11  H    0.086076
    12  H    0.139878
    13  H    0.363059
    14  H    0.159223
    15  N   -0.477314
    16  C    0.811509
    17  O   -0.602619
    18  O   -0.509722
    19  C    0.423569
    20  C   -0.223276
    21  H   -0.017048
    22  H   -0.017234
    23  H    0.037063
    24  H    0.068913
    25  H    0.069005
 Sum of ESP charges =   0.00000
 ESP charges with hydrogens summed into heavy atoms:
               1
     1  C    0.273544
     2  C    0.221945
     3  C   -0.121759
     4  C   -0.009429
     5  C    0.023909
     6  C   -0.132027
     7  C   -0.018863
     8  C   -0.163228
    15  N   -0.114255
    16  C    0.811509
    17  O   -0.602619
    18  O   -0.509722
    19  C    0.389287
    20  C   -0.048294
 Charge=   0.00000 Dipole=    -0.3575     0.7732     0.0002 Tot=     0.8518
 -----------------------------------------------------------------

              Electrostatic Properties (Atomic Units)

 -----------------------------------------------------------------
    Center     Electric         -------- Electric Field --------
               Potential          X             Y             Z
 -----------------------------------------------------------------
    1 Atom    -14.730835
    2 Atom    -14.767482
    3 Atom    -14.769709
    4 Atom    -14.776011
    5 Atom    -14.770091
    6 Atom    -14.766389
    7 Atom    -14.727991
    8 Atom    -14.769370
    9 Atom     -1.104667
   10 Atom     -1.111049
   11 Atom     -1.107381
   12 Atom     -1.095419
   13 Atom     -0.995290
   14 Atom     -1.092766
   15 Atom    -18.342276
   16 Atom    -14.637908
   17 Atom    -22.381924
   18 Atom    -22.322305
   19 Atom    -14.708729
   20 Atom    -14.770471
   21 Atom     -1.107707
   22 Atom     -1.107707
   23 Atom     -1.105353
   24 Atom     -1.112244
   25 Atom     -1.112244
 -----------------------------------------------------------------
 ******************************Gaussian NBO Version 3.1******************************
             N A T U R A L   A T O M I C   O R B I T A L   A N D
          N A T U R A L   B O N D   O R B I T A L   A N A L Y S I S
 ******************************Gaussian NBO Version 3.1******************************
       /RESON  / : Allow strongly delocalized NBO set

 Analyzing the SCF density

 Job title: Table9_4                                                        

 Storage needed:    421902 in NPA ( 104854225 available)


 NATURAL POPULATIONS:  Natural atomic orbital occupancies 
                                                          
   NAO  Atom  No  lang   Type(AO)    Occupancy      Energy
 ----------------------------------------------------------
     1    C    1  S      Cor( 1S)     1.99899     -10.07558
     2    C    1  S      Val( 2S)     0.82307      -0.11417
     3    C    1  S      Ryd( 3S)     0.00148       0.83381
     4    C    1  S      Ryd( 4S)     0.00020       0.88833
     5    C    1  S      Ryd( 5S)     0.00002      22.67448
     6    C    1  px     Val( 2p)     0.95636      -0.03480
     7    C    1  px     Ryd( 4p)     0.00440       1.36253
     8    C    1  px     Ryd( 3p)     0.00030       0.63177
     9    C    1  px     Ryd( 5p)     0.00014       3.09271
    10    C    1  py     Val( 2p)     1.02209      -0.06104
    11    C    1  py     Ryd( 4p)     0.00686       1.18555
    12    C    1  py     Ryd( 3p)     0.00044       0.42725
    13    C    1  py     Ryd( 5p)     0.00011       2.94641
    14    C    1  pz     Val( 2p)     1.00744      -0.11697
    15    C    1  pz     Ryd( 4p)     0.00105       0.61984
    16    C    1  pz     Ryd( 3p)     0.00060       0.32619
    17    C    1  pz     Ryd( 5p)     0.00004       2.67831
    18    C    1  dxy    Ryd( 3d)     0.00115       2.50886
    19    C    1  dxz    Ryd( 3d)     0.00135       1.66672
    20    C    1  dyz    Ryd( 3d)     0.00075       1.61139
    21    C    1  dx2y2  Ryd( 3d)     0.00088       2.69009
    22    C    1  dz2    Ryd( 3d)     0.00048       2.09991

    23    C    2  S      Cor( 1S)     1.99901     -10.03437
    24    C    2  S      Val( 2S)     0.87103      -0.11995
    25    C    2  S      Ryd( 3S)     0.00119       0.72055
    26    C    2  S      Ryd( 4S)     0.00010       1.55672
    27    C    2  S      Ryd( 5S)     0.00001      22.36850
    28    C    2  px     Val( 2p)     1.09382      -0.05777
    29    C    2  px     Ryd( 4p)     0.00444       1.54916
    30    C    2  px     Ryd( 3p)     0.00019       0.71743
    31    C    2  px     Ryd( 5p)     0.00013       3.18277
    32    C    2  py     Val( 2p)     1.06828      -0.05835
    33    C    2  py     Ryd( 4p)     0.00588       1.21737
    34    C    2  py     Ryd( 3p)     0.00032       0.56065
    35    C    2  py     Ryd( 5p)     0.00010       3.15855
    36    C    2  pz     Val( 2p)     1.05588      -0.10537
    37    C    2  pz     Ryd( 4p)     0.00051       0.60399
    38    C    2  pz     Ryd( 3p)     0.00031       0.49089
    39    C    2  pz     Ryd( 5p)     0.00002       2.60794
    40    C    2  dxy    Ryd( 3d)     0.00063       2.51422
    41    C    2  dxz    Ryd( 3d)     0.00085       1.68919
    42    C    2  dyz    Ryd( 3d)     0.00046       1.64499
    43    C    2  dx2y2  Ryd( 3d)     0.00089       2.71642
    44    C    2  dz2    Ryd( 3d)     0.00042       2.16352

    45    C    3  S      Cor( 1S)     1.99908     -10.03123
    46    C    3  S      Val( 2S)     0.93794      -0.15092
    47    C    3  S      Ryd( 4S)     0.00155       0.94944
    48    C    3  S      Ryd( 3S)     0.00010       0.58655
    49    C    3  S      Ryd( 5S)     0.00001      23.00104
    50    C    3  px     Val( 2p)     1.06128      -0.04223
    51    C    3  px     Ryd( 4p)     0.00398       0.79225
    52    C    3  px     Ryd( 3p)     0.00045       0.41732
    53    C    3  px     Ryd( 5p)     0.00015       3.13684
    54    C    3  py     Val( 2p)     1.16930      -0.05267
    55    C    3  py     Ryd( 4p)     0.00607       1.12017
    56    C    3  py     Ryd( 3p)     0.00024       0.33935
    57    C    3  py     Ryd( 5p)     0.00007       3.13159
    58    C    3  pz     Val( 2p)     0.99158      -0.10724
    59    C    3  pz     Ryd( 4p)     0.00106       0.52033
    60    C    3  pz     Ryd( 3p)     0.00037       0.27968
    61    C    3  pz     Ryd( 5p)     0.00001       2.71807
    62    C    3  dxy    Ryd( 3d)     0.00069       2.59852
    63    C    3  dxz    Ryd( 3d)     0.00060       1.67471
    64    C    3  dyz    Ryd( 3d)     0.00038       1.62276
    65    C    3  dx2y2  Ryd( 3d)     0.00076       2.50598
    66    C    3  dz2    Ryd( 3d)     0.00040       2.10273

    67    C    4  S      Cor( 1S)     1.99918     -10.02952
    68    C    4  S      Val( 2S)     0.94967      -0.16118
    69    C    4  S      Ryd( 3S)     0.00150       0.76949
    70    C    4  S      Ryd( 4S)     0.00011       1.08188
    71    C    4  S      Ryd( 5S)     0.00000      22.75890
    72    C    4  px     Val( 2p)     1.13175      -0.04836
    73    C    4  px     Ryd( 4p)     0.00589       0.93965
    74    C    4  px     Ryd( 3p)     0.00040       0.33974
    75    C    4  px     Ryd( 5p)     0.00010       3.16706
    76    C    4  py     Val( 2p)     1.09651      -0.04725
    77    C    4  py     Ryd( 4p)     0.00545       0.86412
    78    C    4  py     Ryd( 3p)     0.00039       0.37777
    79    C    4  py     Ryd( 5p)     0.00011       3.12607
    80    C    4  pz     Val( 2p)     1.03177      -0.10756
    81    C    4  pz     Ryd( 4p)     0.00156       0.50663
    82    C    4  pz     Ryd( 3p)     0.00026       0.32121
    83    C    4  pz     Ryd( 5p)     0.00003       2.68765
    84    C    4  dxy    Ryd( 3d)     0.00079       2.50571
    85    C    4  dxz    Ryd( 3d)     0.00045       1.64088
    86    C    4  dyz    Ryd( 3d)     0.00041       1.64811
    87    C    4  dx2y2  Ryd( 3d)     0.00064       2.56925
    88    C    4  dz2    Ryd( 3d)     0.00040       2.04928

    89    C    5  S      Cor( 1S)     1.99919     -10.03578
    90    C    5  S      Val( 2S)     0.95121      -0.16616
    91    C    5  S      Ryd( 3S)     0.00140       0.83207
    92    C    5  S      Ryd( 4S)     0.00011       1.00806
    93    C    5  S      Ryd( 5S)     0.00000      22.80302
    94    C    5  px     Val( 2p)     1.15054      -0.05176
    95    C    5  px     Ryd( 4p)     0.00632       1.00894
    96    C    5  px     Ryd( 3p)     0.00034       0.31931
    97    C    5  px     Ryd( 5p)     0.00008       3.17979
    98    C    5  py     Val( 2p)     1.07175      -0.04648
    99    C    5  py     Ryd( 4p)     0.00500       0.78409
   100    C    5  py     Ryd( 3p)     0.00044       0.39750
   101    C    5  py     Ryd( 5p)     0.00014       3.11739
   102    C    5  pz     Val( 2p)     1.00399      -0.10997
   103    C    5  pz     Ryd( 4p)     0.00151       0.50507
   104    C    5  pz     Ryd( 3p)     0.00026       0.31561
   105    C    5  pz     Ryd( 5p)     0.00003       2.68652
   106    C    5  dxy    Ryd( 3d)     0.00072       2.54416
   107    C    5  dxz    Ryd( 3d)     0.00042       1.61568
   108    C    5  dyz    Ryd( 3d)     0.00052       1.66463
   109    C    5  dx2y2  Ryd( 3d)     0.00071       2.52017
   110    C    5  dz2    Ryd( 3d)     0.00041       2.04561

   111    C    6  S      Cor( 1S)     1.99907     -10.03474
   112    C    6  S      Val( 2S)     0.93907      -0.15806
   113    C    6  S      Ryd( 3S)     0.00187       0.81355
   114    C    6  S      Ryd( 4S)     0.00010       1.17973
   115    C    6  S      Ryd( 5S)     0.00001      22.50377
   116    C    6  px     Val( 2p)     1.05673      -0.05221
   117    C    6  px     Ryd( 4p)     0.00403       0.81243
   118    C    6  px     Ryd( 3p)     0.00047       0.36666
   119    C    6  px     Ryd( 5p)     0.00015       3.05162
   120    C    6  py     Val( 2p)     1.18123      -0.06597
   121    C    6  py     Ryd( 4p)     0.00548       1.12452
   122    C    6  py     Ryd( 3p)     0.00025       0.37746
   123    C    6  py     Ryd( 5p)     0.00008       3.03436
   124    C    6  pz     Val( 2p)     1.04334      -0.11542
   125    C    6  pz     Ryd( 4p)     0.00121       0.51760
   126    C    6  pz     Ryd( 3p)     0.00038       0.28539
   127    C    6  pz     Ryd( 5p)     0.00002       2.69515
   128    C    6  dxy    Ryd( 3d)     0.00063       2.61079
   129    C    6  dxz    Ryd( 3d)     0.00056       1.66816
   130    C    6  dyz    Ryd( 3d)     0.00043       1.62458
   131    C    6  dx2y2  Ryd( 3d)     0.00075       2.51833
   132    C    6  dz2    Ryd( 3d)     0.00042       2.10796

   133    C    7  S      Cor( 1S)     1.99899     -10.08649
   134    C    7  S      Val( 2S)     0.86978      -0.15211
   135    C    7  S      Ryd( 3S)     0.00196       0.82654
   136    C    7  S      Ryd( 4S)     0.00020       0.92260
   137    C    7  S      Ryd( 5S)     0.00002      22.95165
   138    C    7  px     Val( 2p)     0.98513      -0.06819
   139    C    7  px     Ryd( 4p)     0.00575       1.44292
   140    C    7  px     Ryd( 3p)     0.00026       0.75031
   141    C    7  px     Ryd( 5p)     0.00017       2.98473
   142    C    7  py     Val( 2p)     0.98390      -0.06527
   143    C    7  py     Ryd( 4p)     0.00799       1.23820
   144    C    7  py     Ryd( 3p)     0.00041       0.59861
   145    C    7  py     Ryd( 5p)     0.00014       2.90538
   146    C    7  pz     Val( 2p)     1.08505      -0.13089
   147    C    7  pz     Ryd( 4p)     0.00179       0.62456
   148    C    7  pz     Ryd( 3p)     0.00034       0.53584
   149    C    7  pz     Ryd( 5p)     0.00008       2.48945
   150    C    7  dxy    Ryd( 3d)     0.00119       2.70763
   151    C    7  dxz    Ryd( 3d)     0.00070       1.63276
   152    C    7  dyz    Ryd( 3d)     0.00117       1.62821
   153    C    7  dx2y2  Ryd( 3d)     0.00092       2.51422
   154    C    7  dz2    Ryd( 3d)     0.00051       2.05454

   155    C    8  S      Cor( 1S)     1.99900     -10.03206
   156    C    8  S      Val( 2S)     0.94154      -0.15593
   157    C    8  S      Ryd( 3S)     0.00107       0.90181
   158    C    8  S      Ryd( 4S)     0.00013       1.11916
   159    C    8  S      Ryd( 5S)     0.00001      22.66941
   160    C    8  px     Val( 2p)     1.06247      -0.04938
   161    C    8  px     Ryd( 4p)     0.00365       0.91519
   162    C    8  px     Ryd( 3p)     0.00045       0.59035
   163    C    8  px     Ryd( 5p)     0.00015       3.12364
   164    C    8  py     Val( 2p)     1.15400      -0.06464
   165    C    8  py     Ryd( 4p)     0.00432       1.07477
   166    C    8  py     Ryd( 3p)     0.00027       0.41236
   167    C    8  py     Ryd( 5p)     0.00010       3.08378
   168    C    8  pz     Val( 2p)     1.03905      -0.11397
   169    C    8  pz     Ryd( 4p)     0.00160       0.53535
   170    C    8  pz     Ryd( 3p)     0.00040       0.29728
   171    C    8  pz     Ryd( 5p)     0.00003       2.71717
   172    C    8  dxy    Ryd( 3d)     0.00078       2.58167
   173    C    8  dxz    Ryd( 3d)     0.00053       1.63839
   174    C    8  dyz    Ryd( 3d)     0.00067       1.67485
   175    C    8  dx2y2  Ryd( 3d)     0.00060       2.60259
   176    C    8  dz2    Ryd( 3d)     0.00044       2.18425

   177    H    9  S      Val( 1S)     0.78973       0.04516
   178    H    9  S      Ryd( 2S)     0.00073       0.76459
   179    H    9  S      Ryd( 3S)     0.00017       1.95481
   180    H    9  px     Ryd( 2p)     0.00012       2.02103
   181    H    9  py     Ryd( 2p)     0.00043       2.71792
   182    H    9  pz     Ryd( 2p)     0.00020       1.60515

   183    H   10  S      Val( 1S)     0.79203       0.05015
   184    H   10  S      Ryd( 2S)     0.00055       0.60258
   185    H   10  S      Ryd( 3S)     0.00016       2.15824
   186    H   10  px     Ryd( 2p)     0.00030       2.44624
   187    H   10  py     Ryd( 2p)     0.00023       2.24108
   188    H   10  pz     Ryd( 2p)     0.00021       1.59873

   189    H   11  S      Val( 1S)     0.79230       0.04735
   190    H   11  S      Ryd( 2S)     0.00050       0.61420
   191    H   11  S      Ryd( 3S)     0.00017       2.15391
   192    H   11  px     Ryd( 2p)     0.00038       2.60825
   193    H   11  py     Ryd( 2p)     0.00016       2.07144
   194    H   11  pz     Ryd( 2p)     0.00021       1.59478

   195    H   12  S      Val( 1S)     0.78709       0.03601
   196    H   12  S      Ryd( 2S)     0.00090       0.68005
   197    H   12  S      Ryd( 3S)     0.00018       1.99397
   198    H   12  px     Ryd( 2p)     0.00011       2.02297
   199    H   12  py     Ryd( 2p)     0.00042       2.70748
   200    H   12  pz     Ryd( 2p)     0.00021       1.59887

   201    H   13  S      Val( 1S)     0.57263       0.08354
   202    H   13  S      Ryd( 2S)     0.00098       1.23295
   203    H   13  S      Ryd( 3S)     0.00031       1.87859
   204    H   13  px     Ryd( 2p)     0.00019       2.04248
   205    H   13  py     Ryd( 2p)     0.00044       2.71806
   206    H   13  pz     Ryd( 2p)     0.00057       1.57383

   207    H   14  S      Val( 1S)     0.76768       0.05296
   208    H   14  S      Ryd( 3S)     0.00082       1.37796
   209    H   14  S      Ryd( 2S)     0.00021       1.27381
   210    H   14  px     Ryd( 2p)     0.00021       2.21696
   211    H   14  py     Ryd( 2p)     0.00036       2.61128
   212    H   14  pz     Ryd( 2p)     0.00020       1.61010

   213    N   15  S      Cor( 1S)     1.99926     -14.18538
   214    N   15  S      Val( 2S)     1.21912      -0.52833
   215    N   15  S      Ryd( 4S)     0.00051       1.32109
   216    N   15  S      Ryd( 3S)     0.00011       0.97477
   217    N   15  S      Ryd( 5S)     0.00000      35.38455
   218    N   15  px     Val( 2p)     1.28418      -0.24606
   219    N   15  px     Ryd( 3p)     0.00297       0.92016
   220    N   15  px     Ryd( 4p)     0.00031       0.92179
   221    N   15  px     Ryd( 5p)     0.00003       4.43116
   222    N   15  py     Val( 2p)     1.39517      -0.26823
   223    N   15  py     Ryd( 4p)     0.00276       1.08707
   224    N   15  py     Ryd( 3p)     0.00059       0.74684
   225    N   15  py     Ryd( 5p)     0.00002       4.40254
   226    N   15  pz     Val( 2p)     1.61355      -0.26657
   227    N   15  pz     Ryd( 3p)     0.00391       0.41654
   228    N   15  pz     Ryd( 4p)     0.00047       0.68413
   229    N   15  pz     Ryd( 5p)     0.00001       3.81624
   230    N   15  dxy    Ryd( 3d)     0.00083       2.99006
   231    N   15  dxz    Ryd( 3d)     0.00059       2.18085
   232    N   15  dyz    Ryd( 3d)     0.00033       2.21273
   233    N   15  dx2y2  Ryd( 3d)     0.00078       2.90736
   234    N   15  dz2    Ryd( 3d)     0.00058       2.64630

   235    C   16  S      Cor( 1S)     1.99924     -10.19157
   236    C   16  S      Val( 2S)     0.75139      -0.13442
   237    C   16  S      Ryd( 3S)     0.00312       1.20109
   238    C   16  S      Ryd( 4S)     0.00024       1.44760
   239    C   16  S      Ryd( 5S)     0.00005      21.58783
   240    C   16  px     Val( 2p)     0.89994      -0.06044
   241    C   16  px     Ryd( 4p)     0.00509       1.50856
   242    C   16  px     Ryd( 3p)     0.00048       0.53646
   243    C   16  px     Ryd( 5p)     0.00021       2.14277
   244    C   16  py     Val( 2p)     0.74415      -0.01694
   245    C   16  py     Ryd( 4p)     0.01958       1.18755
   246    C   16  py     Ryd( 3p)     0.00027       0.47820
   247    C   16  py     Ryd( 5p)     0.00015       2.41779
   248    C   16  pz     Val( 2p)     0.78635      -0.13624
   249    C   16  pz     Ryd( 4p)     0.00070       0.77472
   250    C   16  pz     Ryd( 3p)     0.00063       0.42884
   251    C   16  pz     Ryd( 5p)     0.00015       2.35144
   252    C   16  dxy    Ryd( 3d)     0.00480       2.55856
   253    C   16  dxz    Ryd( 3d)     0.00167       1.53870
   254    C   16  dyz    Ryd( 3d)     0.00505       1.62908
   255    C   16  dx2y2  Ryd( 3d)     0.00291       2.61982
   256    C   16  dz2    Ryd( 3d)     0.00069       2.05759

   257    O   17  S      Cor( 1S)     1.99976     -18.85252
   258    O   17  S      Val( 2S)     1.70553      -0.89915
   259    O   17  S      Ryd( 4S)     0.00131       1.46360
   260    O   17  S      Ryd( 3S)     0.00008       1.36832
   261    O   17  S      Ryd( 5S)     0.00000      49.70888
   262    O   17  px     Val( 2p)     1.82946      -0.27675
   263    O   17  px     Ryd( 3p)     0.00229       0.69696
   264    O   17  px     Ryd( 4p)     0.00020       1.05973
   265    O   17  px     Ryd( 5p)     0.00001       5.09452
   266    O   17  py     Val( 2p)     1.58624      -0.30461
   267    O   17  py     Ryd( 3p)     0.00083       0.60584
   268    O   17  py     Ryd( 4p)     0.00021       0.98304
   269    O   17  py     Ryd( 5p)     0.00012       5.26651
   270    O   17  pz     Val( 2p)     1.48491      -0.26218
   271    O   17  pz     Ryd( 3p)     0.00165       0.55307
   272    O   17  pz     Ryd( 4p)     0.00016       0.93859
   273    O   17  pz     Ryd( 5p)     0.00002       4.93473
   274    O   17  dxy    Ryd( 3d)     0.00148       3.36018
   275    O   17  dxz    Ryd( 3d)     0.00015       2.85822
   276    O   17  dyz    Ryd( 3d)     0.00154       3.08221
   277    O   17  dx2y2  Ryd( 3d)     0.00162       3.47644
   278    O   17  dz2    Ryd( 3d)     0.00046       3.10196

   279    O   18  S      Cor( 1S)     1.99971     -18.97110
   280    O   18  S      Val( 2S)     1.62360      -0.89702
   281    O   18  S      Ryd( 3S)     0.00313       1.03262
   282    O   18  S      Ryd( 4S)     0.00013       1.13055
   283    O   18  S      Ryd( 5S)     0.00000      49.65336
   284    O   18  px     Val( 2p)     1.41019      -0.32705
   285    O   18  px     Ryd( 4p)     0.00153       1.10210
   286    O   18  px     Ryd( 3p)     0.00075       1.00902
   287    O   18  px     Ryd( 5p)     0.00004       5.25563
   288    O   18  py     Val( 2p)     1.71078      -0.35160
   289    O   18  py     Ryd( 3p)     0.00350       0.66706
   290    O   18  py     Ryd( 4p)     0.00068       0.88714
   291    O   18  py     Ryd( 5p)     0.00017       5.10651
   292    O   18  pz     Val( 2p)     1.79406      -0.33279
   293    O   18  pz     Ryd( 3p)     0.00273       0.51404
   294    O   18  pz     Ryd( 4p)     0.00072       0.80126
   295    O   18  pz     Ryd( 5p)     0.00000       4.93950
   296    O   18  dxy    Ryd( 3d)     0.00127       3.47931
   297    O   18  dxz    Ryd( 3d)     0.00013       2.95498
   298    O   18  dyz    Ryd( 3d)     0.00091       2.91133
   299    O   18  dx2y2  Ryd( 3d)     0.00090       3.30366
   300    O   18  dz2    Ryd( 3d)     0.00061       3.23250

   301    C   19  S      Cor( 1S)     1.99921     -10.11211
   302    C   19  S      Val( 2S)     1.02733      -0.26494
   303    C   19  S      Ryd( 3S)     0.00432       0.91202
   304    C   19  S      Ryd( 4S)     0.00025       1.03025
   305    C   19  S      Ryd( 5S)     0.00000      23.04097
   306    C   19  px     Val( 2p)     0.70245      -0.07807
   307    C   19  px     Ryd( 4p)     0.00195       0.65753
   308    C   19  px     Ryd( 3p)     0.00052       0.53832
   309    C   19  px     Ryd( 5p)     0.00016       2.74406
   310    C   19  py     Val( 2p)     1.09407      -0.10814
   311    C   19  py     Ryd( 4p)     0.00279       0.66152
   312    C   19  py     Ryd( 3p)     0.00032       0.61488
   313    C   19  py     Ryd( 5p)     0.00023       2.68283
   314    C   19  pz     Val( 2p)     1.19486      -0.10987
   315    C   19  pz     Ryd( 4p)     0.00166       0.62845
   316    C   19  pz     Ryd( 3p)     0.00036       0.59462
   317    C   19  pz     Ryd( 5p)     0.00010       2.67565
   318    C   19  dxy    Ryd( 3d)     0.00125       2.08332
   319    C   19  dxz    Ryd( 3d)     0.00110       1.76837
   320    C   19  dyz    Ryd( 3d)     0.00120       2.19043
   321    C   19  dx2y2  Ryd( 3d)     0.00194       2.09874
   322    C   19  dz2    Ryd( 3d)     0.00113       2.12246

   323    C   20  S      Cor( 1S)     1.99936     -10.03561
   324    C   20  S      Val( 2S)     1.09648      -0.26925
   325    C   20  S      Ryd( 4S)     0.00109       0.78361
   326    C   20  S      Ryd( 3S)     0.00027       0.74596
   327    C   20  S      Ryd( 5S)     0.00000      23.27143
   328    C   20  px     Val( 2p)     1.16749      -0.10386
   329    C   20  px     Ryd( 4p)     0.00209       0.60059
   330    C   20  px     Ryd( 3p)     0.00011       0.28421
   331    C   20  px     Ryd( 5p)     0.00004       3.04927
   332    C   20  py     Val( 2p)     1.10542      -0.10185
   333    C   20  py     Ryd( 4p)     0.00101       0.51841
   334    C   20  py     Ryd( 3p)     0.00021       0.25933
   335    C   20  py     Ryd( 5p)     0.00010       3.00788
   336    C   20  pz     Val( 2p)     1.21550      -0.10379
   337    C   20  pz     Ryd( 4p)     0.00085       0.50919
   338    C   20  pz     Ryd( 3p)     0.00007       0.25108
   339    C   20  pz     Ryd( 5p)     0.00002       3.04573
   340    C   20  dxy    Ryd( 3d)     0.00047       2.08583
   341    C   20  dxz    Ryd( 3d)     0.00019       1.83549
   342    C   20  dyz    Ryd( 3d)     0.00095       2.19645
   343    C   20  dx2y2  Ryd( 3d)     0.00061       2.11751
   344    C   20  dz2    Ryd( 3d)     0.00069       2.12430

   345    H   21  S      Val( 1S)     0.81138       0.01329
   346    H   21  S      Ryd( 2S)     0.00125       0.68290
   347    H   21  S      Ryd( 3S)     0.00020       2.14673
   348    H   21  px     Ryd( 2p)     0.00011       1.77730
   349    H   21  py     Ryd( 2p)     0.00027       2.08144
   350    H   21  pz     Ryd( 2p)     0.00032       2.40305

   351    H   22  S      Val( 1S)     0.81140       0.01328
   352    H   22  S      Ryd( 2S)     0.00125       0.68288
   353    H   22  S      Ryd( 3S)     0.00020       2.14674
   354    H   22  px     Ryd( 2p)     0.00011       1.77739
   355    H   22  py     Ryd( 2p)     0.00027       2.08110
   356    H   22  pz     Ryd( 2p)     0.00032       2.40346

   357    H   23  S      Val( 1S)     0.79056       0.01896
   358    H   23  S      Ryd( 2S)     0.00053       0.63564
   359    H   23  S      Ryd( 3S)     0.00010       2.08759
   360    H   23  px     Ryd( 2p)     0.00032       2.64046
   361    H   23  py     Ryd( 2p)     0.00013       1.73100
   362    H   23  pz     Ryd( 2p)     0.00010       1.74139

   363    H   24  S      Val( 1S)     0.79189       0.02693
   364    H   24  S      Ryd( 2S)     0.00097       0.89118
   365    H   24  S      Ryd( 3S)     0.00015       1.85965
   366    H   24  px     Ryd( 2p)     0.00013       1.80010
   367    H   24  py     Ryd( 2p)     0.00016       1.99470
   368    H   24  pz     Ryd( 2p)     0.00024       2.37445

   369    H   25  S      Val( 1S)     0.79189       0.02693
   370    H   25  S      Ryd( 2S)     0.00097       0.89121
   371    H   25  S      Ryd( 3S)     0.00015       1.85962
   372    H   25  px     Ryd( 2p)     0.00013       1.80009
   373    H   25  py     Ryd( 2p)     0.00016       1.99514
   374    H   25  pz     Ryd( 2p)     0.00024       2.37400

 WARNING:  1 low occupancy (<1.9990e) core orbital  found on  C    1
           1 low occupancy (<1.9990e) core orbital  found on  C    7

 WARNING:  Population inversion found on atom  C    1
           Population inversion found on atom  C    2
           Population inversion found on atom  C    3
           Population inversion found on atom  C    4
           Population inversion found on atom  C    5
           Population inversion found on atom  C    6
           Population inversion found on atom  C    7
           Population inversion found on atom  C    8
           Population inversion found on atom  H   14
           Population inversion found on atom  N   15
           Population inversion found on atom  C   16
           Population inversion found on atom  O   17
           Population inversion found on atom  O   18
           Population inversion found on atom  C   19
           Population inversion found on atom  C   20


 Summary of Natural Population Analysis:                  
                                                          
                                       Natural Population 
                Natural  -----------------------------------------------
    Atom  No    Charge         Core      Valence    Rydberg      Total
 -----------------------------------------------------------------------
      C    1    0.17178      1.99899     3.80898    0.02025     5.82822
      C    2   -0.10447      1.99901     4.08900    0.01645     6.10447
      C    3   -0.17609      1.99908     4.16011    0.01690     6.17609
      C    4   -0.22738      1.99918     4.20970    0.01851     6.22738
      C    5   -0.19508      1.99919     4.17749    0.01840     6.19508
      C    6   -0.23628      1.99907     4.22037    0.01684     6.23628
      C    7    0.05354      1.99899     3.92386    0.02361     5.94646
      C    8   -0.21127      1.99900     4.19707    0.01520     6.21127
      H    9    0.20862      0.00000     0.78973    0.00165     0.79138
      H   10    0.20652      0.00000     0.79203    0.00145     0.79348
      H   11    0.20629      0.00000     0.79230    0.00141     0.79371
      H   12    0.21108      0.00000     0.78709    0.00183     0.78892
      H   13    0.42488      0.00000     0.57263    0.00249     0.57512
      H   14    0.23052      0.00000     0.76768    0.00180     0.76948
      N   15   -0.52608      1.99926     5.51202    0.01480     7.52608
      C   16    0.77313      1.99924     3.18183    0.04581     5.22687
      O   17   -0.61802      1.99976     6.60614    0.01212     8.61802
      O   18   -0.55556      1.99971     6.53864    0.01721     8.55556
      C   19   -0.03721      1.99921     4.01870    0.01930     6.03721
      C   20   -0.59302      1.99936     4.58490    0.00877     6.59302
      H   21    0.18646      0.00000     0.81138    0.00216     0.81354
      H   22    0.18645      0.00000     0.81140    0.00216     0.81355
      H   23    0.20825      0.00000     0.79056    0.00119     0.79175
      H   24    0.20647      0.00000     0.79189    0.00165     0.79353
      H   25    0.20647      0.00000     0.79189    0.00165     0.79353
 =======================================================================
   * Total *    0.00000     27.98906    71.72734    0.28360   100.00000

                                 Natural Population      
 --------------------------------------------------------
   Core                      27.98906 ( 99.9609% of  28)
   Valence                   71.72734 ( 99.6213% of  72)
   Natural Minimal Basis     99.71640 ( 99.7164% of 100)
   Natural Rydberg Basis      0.28360 (  0.2836% of 100)
 --------------------------------------------------------

    Atom  No          Natural Electron Configuration
 ----------------------------------------------------------------------------
      C    1      [core]2S( 0.82)2p( 2.99)4p( 0.01)
      C    2      [core]2S( 0.87)2p( 3.22)4p( 0.01)
      C    3      [core]2S( 0.94)2p( 3.22)4p( 0.01)
      C    4      [core]2S( 0.95)2p( 3.26)4p( 0.01)
      C    5      [core]2S( 0.95)2p( 3.23)4p( 0.01)
      C    6      [core]2S( 0.94)2p( 3.28)4p( 0.01)
      C    7      [core]2S( 0.87)2p( 3.05)4p( 0.02)
      C    8      [core]2S( 0.94)2p( 3.26)4p( 0.01)
      H    9            1S( 0.79)
      H   10            1S( 0.79)
      H   11            1S( 0.79)
      H   12            1S( 0.79)
      H   13            1S( 0.57)
      H   14            1S( 0.77)
      N   15      [core]2S( 1.22)2p( 4.29)3p( 0.01)
      C   16      [core]2S( 0.75)2p( 2.43)3d( 0.02)4p( 0.03)
      O   17      [core]2S( 1.71)2p( 4.90)3d( 0.01)
      O   18      [core]2S( 1.62)2p( 4.92)3p( 0.01)
      C   19      [core]2S( 1.03)2p( 2.99)3d( 0.01)4p( 0.01)
      C   20      [core]2S( 1.10)2p( 3.49)
      H   21            1S( 0.81)
      H   22            1S( 0.81)
      H   23            1S( 0.79)
      H   24            1S( 0.79)
      H   25            1S( 0.79)


 NBO analysis skipped by request.
 1\1\GINC-COREV2-25-047\SP\RB3LYP\6-311+G(d,p)\C11H11N1O2\ROOT\23-Jul-2
 021\0\\# b3lyp/6-311+g(d,p) geom=connectivity pop=(hirshfeld,chelpg,mb
 s,npa)\\Table9_4\\0,1\C,0,-1.851065,0.631255,0.000005\C,0,-1.631407,-0
 .77727,-0.000006\C,0,-2.742218,-1.641761,0.000001\C,0,-4.01387,-1.0973
 72,0.00001\C,0,-4.208546,0.301689,0.00001\C,0,-3.138556,1.181436,0.000
 014\C,0,0.366148,0.269249,-0.00001\C,0,-0.217372,-0.97832,-0.000047\H,
 0,-2.600266,-2.716768,-0.000007\H,0,-4.879184,-1.750083,0.00001\H,0,-5
 .218828,0.694774,0.000019\H,0,-3.293797,2.25437,0.000034\H,0,-0.420411
 ,2.226099,0.\H,0,0.314465,-1.915962,-0.000082\N,0,-0.621338,1.237958,0
 .000046\C,0,1.764984,0.702863,-0.000004\O,0,2.099997,1.87156,0.000074\
 O,0,2.626265,-0.330313,-0.000147\C,0,4.036453,0.006536,-0.000153\C,0,4
 .815529,-1.292284,0.00019\H,0,4.248969,0.613751,0.882639\H,0,4.249054,
 0.613304,-0.883232\H,0,5.887318,-1.076547,0.000134\H,0,4.585735,-1.887
 148,0.886953\H,0,4.585739,-1.887597,-0.886274\\Version=ES64L-G09RevD.0
 1\State=1-A\HF=-631.195656\RMSD=5.429e-09\Dipole=0.2170493,-0.2995635,
 -0.0000614\Quadrupole=6.7479643,-0.9528943,-5.79507,-4.867867,-0.00033
 03,-0.0003091\PG=C01 [X(C11H11N1O2)]\\@


 TOWERING GENIUS DISDAINS A BEATEN PATH.  IT SEEKS 
 REGIONS HITHERTO UNEXPLORED.

                                -- ABRAHAM LINCOLN
 Job cpu time:       0 days  0 hours 13 minutes  2.9 seconds.
 File lengths (MBytes):  RWF=    132 Int=      0 D2E=      0 Chk=      6 Scr=      1
 Normal termination of Gaussian 09 at Fri Jul 23 17:40:34 2021.
