	You are loading a legacy vmd module, please load an up to date module instead.


	 module load container_env vmd

	Please run vmd command with crun.vmd prepend to it:
	
	 crun.vmd vmd

	 
module: Command not found.
module: Command not found.
 Entering Gaussian System, Link 0=g09
 Initial command:
 /opt/gaussian/g09/l1.exe "/tmp/G09-48.com.o10577437.tmp/Gau-1705358.inp" -scrdir="/tmp/G09-48.com.o10577437.tmp/"
 Entering Link 1 = /opt/gaussian/g09/l1.exe PID=   1705359.
  
 Copyright (c) 1988,1990,1992,1993,1995,1998,2003,2009,2013,
            Gaussian, Inc.  All Rights Reserved.
  
 This is part of the Gaussian(R) 09 program.  It is based on
 the Gaussian(R) 03 system (copyright 2003, Gaussian, Inc.),
 the Gaussian(R) 98 system (copyright 1998, Gaussian, Inc.),
 the Gaussian(R) 94 system (copyright 1995, Gaussian, Inc.),
 the Gaussian 92(TM) system (copyright 1992, Gaussian, Inc.),
 the Gaussian 90(TM) system (copyright 1990, Gaussian, Inc.),
 the Gaussian 88(TM) system (copyright 1988, Gaussian, Inc.),
 the Gaussian 86(TM) system (copyright 1986, Carnegie Mellon
 University), and the Gaussian 82(TM) system (copyright 1983,
 Carnegie Mellon University). Gaussian is a federally registered
 trademark of Gaussian, Inc.
  
 This software contains proprietary and confidential information,
 including trade secrets, belonging to Gaussian, Inc.
  
 This software is provided under written license and may be
 used, copied, transmitted, or stored only in accord with that
 written license.
  
 The following legend is applicable only to US Government
 contracts under FAR:
  
                    RESTRICTED RIGHTS LEGEND
  
 Use, reproduction and disclosure by the US Government is
 subject to restrictions as set forth in subparagraphs (a)
 and (c) of the Commercial Computer Software - Restricted
 Rights clause in FAR 52.227-19.
  
 Gaussian, Inc.
 340 Quinnipiac St., Bldg. 40, Wallingford CT 06492
  
  
 ---------------------------------------------------------------
 Warning -- This program may not be used in any manner that
 competes with the business of Gaussian, Inc. or will provide
 assistance to any competitor of Gaussian, Inc.  The licensee
 of this program is prohibited from giving any competitor of
 Gaussian, Inc. access to this program.  By using this program,
 the user acknowledges that Gaussian, Inc. is engaged in the
 business of creating and licensing software in the field of
 computational chemistry and represents and warrants to the
 licensee that it is not a competitor of Gaussian, Inc. and that
 it will not use this program in any manner prohibited above.
 ---------------------------------------------------------------
  

 Cite this work as:
 Gaussian 09, Revision D.01,
 M. J. Frisch, G. W. Trucks, H. B. Schlegel, G. E. Scuseria, 
 M. A. Robb, J. R. Cheeseman, G. Scalmani, V. Barone, B. Mennucci, 
 G. A. Petersson, H. Nakatsuji, M. Caricato, X. Li, H. P. Hratchian, 
 A. F. Izmaylov, J. Bloino, G. Zheng, J. L. Sonnenberg, M. Hada, 
 M. Ehara, K. Toyota, R. Fukuda, J. Hasegawa, M. Ishida, T. Nakajima, 
 Y. Honda, O. Kitao, H. Nakai, T. Vreven, J. A. Montgomery, Jr., 
 J. E. Peralta, F. Ogliaro, M. Bearpark, J. J. Heyd, E. Brothers, 
 K. N. Kudin, V. N. Staroverov, T. Keith, R. Kobayashi, J. Normand, 
 K. Raghavachari, A. Rendell, J. C. Burant, S. S. Iyengar, J. Tomasi, 
 M. Cossi, N. Rega, J. M. Millam, M. Klene, J. E. Knox, J. B. Cross, 
 V. Bakken, C. Adamo, J. Jaramillo, R. Gomperts, R. E. Stratmann, 
 O. Yazyev, A. J. Austin, R. Cammi, C. Pomelli, J. W. Ochterski, 
 R. L. Martin, K. Morokuma, V. G. Zakrzewski, G. A. Voth, 
 P. Salvador, J. J. Dannenberg, S. Dapprich, A. D. Daniels, 
 O. Farkas, J. B. Foresman, J. V. Ortiz, J. Cioslowski, 
 and D. J. Fox, Gaussian, Inc., Wallingford CT, 2013.
 
 ******************************************
 Gaussian 09:  ES64L-G09RevD.01 24-Apr-2013
                23-Apr-2024 
 ******************************************
 %nprocshared=20
 Will use up to   20 processors via shared memory.
 %mem=4GB
 %chk=48.chk
 ----------------------------------------------------------------------
 # opt freq=noraman b3lyp/6-311+g(d,p) pop=(npa,hirshfeld,chelpg,mbs) g
 eom=connectivity
 ----------------------------------------------------------------------
 1/14=-1,18=20,19=15,26=3,38=1,57=2/1,3;
 2/9=110,12=2,17=6,18=5,40=1/2;
 3/5=4,6=6,7=111,11=2,16=1,25=1,30=1,71=1,74=-5/1,2,3;
 4//1;
 5/5=2,38=5/2;
 6/7=2,8=2,9=2,10=2,15=8,20=3,27=100,28=1,40=-1,79=1/1,2,7;
 7//1,2,3,16;
 1/14=-1,18=20,19=15,26=3/3(2);
 2/9=110/2;
 99//99;
 2/9=110/2;
 3/5=4,6=6,7=111,11=2,16=1,25=1,30=1,71=1,74=-5/1,2,3;
 4/5=5,16=3,69=1/1;
 5/5=2,38=5/2;
 7//1,2,3,16;
 1/14=-1,18=20,19=15,26=3/3(-5);
 2/9=110/2;
 6/7=2,8=2,9=2,10=2,15=8,19=2,20=3,27=100,28=1,40=-1,79=1/1,2,7;
 99/9=1/99;
 -------------------
 Title Card Required
 -------------------
 Symbolic Z-matrix:
 Charge =  0 Multiplicity = 2
 C                     0.9544    0.35016   0.39605 
 C                     2.49162   0.25822   0.40647 
 H                     2.80511  -0.38429   1.20259 
 H                     2.83151  -0.13885  -0.52718 
 H                     0.64091   0.99266  -0.40007 
 C                     0.35756  -1.05411   0.18769 
 H                     0.69746  -1.45118  -0.74597 
 H                     0.67105  -1.69662   0.98381 
 C                    -1.17965  -0.96217   0.17727 
 H                    -1.51955  -0.56511   1.11092 
 H                    -1.49314  -0.31967  -0.61886 
 C                    -1.77649  -2.36644  -0.0311 
 H                    -1.463    -3.00895   0.76502 
 C                    -3.31371  -2.2745   -0.04152 
 H                    -3.6423   -1.90165  -0.9891 
 H                    -3.63664  -1.61177   0.73398 
 C                    -3.91322  -3.67304   0.19573 
 H                    -4.7215   -3.60098   0.89315 
 H                    -4.27548  -4.06762  -0.73054 
 H                    -3.15924  -4.32221   0.58941 
 H                    -1.4366   -2.76351  -0.96475 
 C                     3.08846   1.66249   0.61483 
 H                     2.83914   2.28348  -0.2201 
 H                     2.68835   2.09085   1.51 
 C                     4.61998   1.55646   0.73651 
 H                     4.8695    0.95277   1.58397 
 H                     5.01805   1.10866  -0.15001 
 C                     5.21945   2.9638    0.91439 
 H                     4.97349   3.56622   0.06499 
 H                     4.81819   3.41324   1.79864 
 C                     6.75044   2.85723   1.04213 
 H                     7.15154   2.40634   0.15855 
 H                     6.99641   2.25611   1.89246 
 C                     7.35011   4.26476   1.21773 
 H                     8.41384   4.19072   1.30656 
 H                     7.10419   4.86586   0.36738 
 H                     6.94896   4.71568   2.10128 
 

 GradGradGradGradGradGradGradGradGradGradGradGradGradGradGradGradGradGrad
 Berny optimization.
 Initialization pass.
                           ----------------------------
                           !    Initial Parameters    !
                           ! (Angstroms and Degrees)  !
 --------------------------                            --------------------------
 ! Name  Definition              Value          Derivative Info.                !
 --------------------------------------------------------------------------------
 ! R1    R(1,2)                  1.54           estimate D2E/DX2                !
 ! R2    R(1,5)                  1.07           estimate D2E/DX2                !
 ! R3    R(1,6)                  1.54           estimate D2E/DX2                !
 ! R4    R(2,3)                  1.07           estimate D2E/DX2                !
 ! R5    R(2,4)                  1.07           estimate D2E/DX2                !
 ! R6    R(2,22)                 1.54           estimate D2E/DX2                !
 ! R7    R(6,7)                  1.07           estimate D2E/DX2                !
 ! R8    R(6,8)                  1.07           estimate D2E/DX2                !
 ! R9    R(6,9)                  1.54           estimate D2E/DX2                !
 ! R10   R(9,10)                 1.07           estimate D2E/DX2                !
 ! R11   R(9,11)                 1.07           estimate D2E/DX2                !
 ! R12   R(9,12)                 1.54           estimate D2E/DX2                !
 ! R13   R(12,13)                1.07           estimate D2E/DX2                !
 ! R14   R(12,14)                1.54           estimate D2E/DX2                !
 ! R15   R(12,21)                1.07           estimate D2E/DX2                !
 ! R16   R(14,15)                1.07           estimate D2E/DX2                !
 ! R17   R(14,16)                1.07           estimate D2E/DX2                !
 ! R18   R(14,17)                1.54           estimate D2E/DX2                !
 ! R19   R(17,18)                1.07           estimate D2E/DX2                !
 ! R20   R(17,19)                1.07           estimate D2E/DX2                !
 ! R21   R(17,20)                1.07           estimate D2E/DX2                !
 ! R22   R(22,23)                1.07           estimate D2E/DX2                !
 ! R23   R(22,24)                1.07           estimate D2E/DX2                !
 ! R24   R(22,25)                1.54           estimate D2E/DX2                !
 ! R25   R(25,26)                1.07           estimate D2E/DX2                !
 ! R26   R(25,27)                1.07           estimate D2E/DX2                !
 ! R27   R(25,28)                1.54           estimate D2E/DX2                !
 ! R28   R(28,29)                1.07           estimate D2E/DX2                !
 ! R29   R(28,30)                1.07           estimate D2E/DX2                !
 ! R30   R(28,31)                1.54           estimate D2E/DX2                !
 ! R31   R(31,32)                1.07           estimate D2E/DX2                !
 ! R32   R(31,33)                1.07           estimate D2E/DX2                !
 ! R33   R(31,34)                1.54           estimate D2E/DX2                !
 ! R34   R(34,35)                1.07           estimate D2E/DX2                !
 ! R35   R(34,36)                1.07           estimate D2E/DX2                !
 ! R36   R(34,37)                1.07           estimate D2E/DX2                !
 ! A1    A(2,1,5)              109.4712         estimate D2E/DX2                !
 ! A2    A(2,1,6)              109.4712         estimate D2E/DX2                !
 ! A3    A(5,1,6)              109.4712         estimate D2E/DX2                !
 ! A4    A(1,2,3)              109.4712         estimate D2E/DX2                !
 ! A5    A(1,2,4)              109.4712         estimate D2E/DX2                !
 ! A6    A(1,2,22)             109.4712         estimate D2E/DX2                !
 ! A7    A(3,2,4)              109.4712         estimate D2E/DX2                !
 ! A8    A(3,2,22)             109.4712         estimate D2E/DX2                !
 ! A9    A(4,2,22)             109.4712         estimate D2E/DX2                !
 ! A10   A(1,6,7)              109.4712         estimate D2E/DX2                !
 ! A11   A(1,6,8)              109.4712         estimate D2E/DX2                !
 ! A12   A(1,6,9)              109.4712         estimate D2E/DX2                !
 ! A13   A(7,6,8)              109.4712         estimate D2E/DX2                !
 ! A14   A(7,6,9)              109.4712         estimate D2E/DX2                !
 ! A15   A(8,6,9)              109.4712         estimate D2E/DX2                !
 ! A16   A(6,9,10)             109.4712         estimate D2E/DX2                !
 ! A17   A(6,9,11)             109.4712         estimate D2E/DX2                !
 ! A18   A(6,9,12)             109.4712         estimate D2E/DX2                !
 ! A19   A(10,9,11)            109.4712         estimate D2E/DX2                !
 ! A20   A(10,9,12)            109.4712         estimate D2E/DX2                !
 ! A21   A(11,9,12)            109.4712         estimate D2E/DX2                !
 ! A22   A(9,12,13)            109.4712         estimate D2E/DX2                !
 ! A23   A(9,12,14)            109.4712         estimate D2E/DX2                !
 ! A24   A(9,12,21)            109.4712         estimate D2E/DX2                !
 ! A25   A(13,12,14)           109.4712         estimate D2E/DX2                !
 ! A26   A(13,12,21)           109.4712         estimate D2E/DX2                !
 ! A27   A(14,12,21)           109.4712         estimate D2E/DX2                !
 ! A28   A(12,14,15)           109.4712         estimate D2E/DX2                !
 ! A29   A(12,14,16)           109.4712         estimate D2E/DX2                !
 ! A30   A(12,14,17)           109.4712         estimate D2E/DX2                !
 ! A31   A(15,14,16)           109.4712         estimate D2E/DX2                !
 ! A32   A(15,14,17)           109.4713         estimate D2E/DX2                !
 ! A33   A(16,14,17)           109.4712         estimate D2E/DX2                !
 ! A34   A(14,17,18)           109.4712         estimate D2E/DX2                !
 ! A35   A(14,17,19)           109.4712         estimate D2E/DX2                !
 ! A36   A(14,17,20)           109.4712         estimate D2E/DX2                !
 ! A37   A(18,17,19)           109.4713         estimate D2E/DX2                !
 ! A38   A(18,17,20)           109.4712         estimate D2E/DX2                !
 ! A39   A(19,17,20)           109.4712         estimate D2E/DX2                !
 ! A40   A(2,22,23)            109.4712         estimate D2E/DX2                !
 ! A41   A(2,22,24)            109.4712         estimate D2E/DX2                !
 ! A42   A(2,22,25)            109.4712         estimate D2E/DX2                !
 ! A43   A(23,22,24)           109.4712         estimate D2E/DX2                !
 ! A44   A(23,22,25)           109.4713         estimate D2E/DX2                !
 ! A45   A(24,22,25)           109.4712         estimate D2E/DX2                !
 ! A46   A(22,25,26)           109.4712         estimate D2E/DX2                !
 ! A47   A(22,25,27)           109.4712         estimate D2E/DX2                !
 ! A48   A(22,25,28)           109.4712         estimate D2E/DX2                !
 ! A49   A(26,25,27)           109.4712         estimate D2E/DX2                !
 ! A50   A(26,25,28)           109.4713         estimate D2E/DX2                !
 ! A51   A(27,25,28)           109.4712         estimate D2E/DX2                !
 ! A52   A(25,28,29)           109.4712         estimate D2E/DX2                !
 ! A53   A(25,28,30)           109.4712         estimate D2E/DX2                !
 ! A54   A(25,28,31)           109.4712         estimate D2E/DX2                !
 ! A55   A(29,28,30)           109.4712         estimate D2E/DX2                !
 ! A56   A(29,28,31)           109.4713         estimate D2E/DX2                !
 ! A57   A(30,28,31)           109.4712         estimate D2E/DX2                !
 ! A58   A(28,31,32)           109.4712         estimate D2E/DX2                !
 ! A59   A(28,31,33)           109.4712         estimate D2E/DX2                !
 ! A60   A(28,31,34)           109.4712         estimate D2E/DX2                !
 ! A61   A(32,31,33)           109.4712         estimate D2E/DX2                !
 ! A62   A(32,31,34)           109.4713         estimate D2E/DX2                !
 ! A63   A(33,31,34)           109.4712         estimate D2E/DX2                !
 ! A64   A(31,34,35)           109.4712         estimate D2E/DX2                !
 ! A65   A(31,34,36)           109.4712         estimate D2E/DX2                !
 ! A66   A(31,34,37)           109.4712         estimate D2E/DX2                !
 ! A67   A(35,34,36)           109.4713         estimate D2E/DX2                !
 ! A68   A(35,34,37)           109.4712         estimate D2E/DX2                !
 ! A69   A(36,34,37)           109.4712         estimate D2E/DX2                !
 ! D1    D(5,1,2,3)            180.0            estimate D2E/DX2                !
 ! D2    D(5,1,2,4)            -60.0            estimate D2E/DX2                !
 ! D3    D(5,1,2,22)            60.0            estimate D2E/DX2                !
 ! D4    D(6,1,2,3)            -60.0            estimate D2E/DX2                !
 ! D5    D(6,1,2,4)             60.0            estimate D2E/DX2                !
 ! D6    D(6,1,2,22)          -180.0            estimate D2E/DX2                !
 ! D7    D(2,1,6,7)            -60.0            estimate D2E/DX2                !
 ! D8    D(2,1,6,8)             60.0            estimate D2E/DX2                !
 ! D9    D(2,1,6,9)            180.0            estimate D2E/DX2                !
 ! D10   D(5,1,6,7)             60.0            estimate D2E/DX2                !
 ! D11   D(5,1,6,8)           -180.0            estimate D2E/DX2                !
 ! D12   D(5,1,6,9)            -60.0            estimate D2E/DX2                !
 ! D13   D(1,2,22,23)          -64.4321         estimate D2E/DX2                !
 ! D14   D(1,2,22,24)           55.5679         estimate D2E/DX2                !
 ! D15   D(1,2,22,25)          175.5679         estimate D2E/DX2                !
 ! D16   D(3,2,22,23)          175.5679         estimate D2E/DX2                !
 ! D17   D(3,2,22,24)          -64.4321         estimate D2E/DX2                !
 ! D18   D(3,2,22,25)           55.5679         estimate D2E/DX2                !
 ! D19   D(4,2,22,23)           55.5679         estimate D2E/DX2                !
 ! D20   D(4,2,22,24)          175.5679         estimate D2E/DX2                !
 ! D21   D(4,2,22,25)          -64.4321         estimate D2E/DX2                !
 ! D22   D(1,6,9,10)           -60.0            estimate D2E/DX2                !
 ! D23   D(1,6,9,11)            60.0            estimate D2E/DX2                !
 ! D24   D(1,6,9,12)           180.0            estimate D2E/DX2                !
 ! D25   D(7,6,9,10)          -180.0            estimate D2E/DX2                !
 ! D26   D(7,6,9,11)           -60.0            estimate D2E/DX2                !
 ! D27   D(7,6,9,12)            60.0            estimate D2E/DX2                !
 ! D28   D(8,6,9,10)            60.0            estimate D2E/DX2                !
 ! D29   D(8,6,9,11)           180.0            estimate D2E/DX2                !
 ! D30   D(8,6,9,12)           -60.0            estimate D2E/DX2                !
 ! D31   D(6,9,12,13)           60.0            estimate D2E/DX2                !
 ! D32   D(6,9,12,14)          180.0            estimate D2E/DX2                !
 ! D33   D(6,9,12,21)          -60.0            estimate D2E/DX2                !
 ! D34   D(10,9,12,13)         -60.0            estimate D2E/DX2                !
 ! D35   D(10,9,12,14)          60.0            estimate D2E/DX2                !
 ! D36   D(10,9,12,21)         180.0            estimate D2E/DX2                !
 ! D37   D(11,9,12,13)         180.0            estimate D2E/DX2                !
 ! D38   D(11,9,12,14)         -60.0            estimate D2E/DX2                !
 ! D39   D(11,9,12,21)          60.0            estimate D2E/DX2                !
 ! D40   D(9,12,14,15)          77.6561         estimate D2E/DX2                !
 ! D41   D(9,12,14,16)         -42.3439         estimate D2E/DX2                !
 ! D42   D(9,12,14,17)        -162.3438         estimate D2E/DX2                !
 ! D43   D(13,12,14,15)       -162.3439         estimate D2E/DX2                !
 ! D44   D(13,12,14,16)         77.6561         estimate D2E/DX2                !
 ! D45   D(13,12,14,17)        -42.3438         estimate D2E/DX2                !
 ! D46   D(21,12,14,15)        -42.3439         estimate D2E/DX2                !
 ! D47   D(21,12,14,16)       -162.3439         estimate D2E/DX2                !
 ! D48   D(21,12,14,17)         77.6562         estimate D2E/DX2                !
 ! D49   D(12,14,17,18)        136.2899         estimate D2E/DX2                !
 ! D50   D(12,14,17,19)       -103.7101         estimate D2E/DX2                !
 ! D51   D(12,14,17,20)         16.2899         estimate D2E/DX2                !
 ! D52   D(15,14,17,18)       -103.7101         estimate D2E/DX2                !
 ! D53   D(15,14,17,19)         16.2899         estimate D2E/DX2                !
 ! D54   D(15,14,17,20)        136.2899         estimate D2E/DX2                !
 ! D55   D(16,14,17,18)         16.2899         estimate D2E/DX2                !
 ! D56   D(16,14,17,19)        136.2899         estimate D2E/DX2                !
 ! D57   D(16,14,17,20)       -103.7101         estimate D2E/DX2                !
 ! D58   D(2,22,25,26)         -61.2133         estimate D2E/DX2                !
 ! D59   D(2,22,25,27)          58.7867         estimate D2E/DX2                !
 ! D60   D(2,22,25,28)         178.7867         estimate D2E/DX2                !
 ! D61   D(23,22,25,26)        178.7867         estimate D2E/DX2                !
 ! D62   D(23,22,25,27)        -61.2133         estimate D2E/DX2                !
 ! D63   D(23,22,25,28)         58.7867         estimate D2E/DX2                !
 ! D64   D(24,22,25,26)         58.7867         estimate D2E/DX2                !
 ! D65   D(24,22,25,27)        178.7867         estimate D2E/DX2                !
 ! D66   D(24,22,25,28)        -61.2133         estimate D2E/DX2                !
 ! D67   D(22,25,28,29)        -60.2413         estimate D2E/DX2                !
 ! D68   D(22,25,28,30)         59.7587         estimate D2E/DX2                !
 ! D69   D(22,25,28,31)        179.7587         estimate D2E/DX2                !
 ! D70   D(26,25,28,29)        179.7587         estimate D2E/DX2                !
 ! D71   D(26,25,28,30)        -60.2413         estimate D2E/DX2                !
 ! D72   D(26,25,28,31)         59.7587         estimate D2E/DX2                !
 ! D73   D(27,25,28,29)         59.7587         estimate D2E/DX2                !
 ! D74   D(27,25,28,30)        179.7587         estimate D2E/DX2                !
 ! D75   D(27,25,28,31)        -60.2413         estimate D2E/DX2                !
 ! D76   D(25,28,31,32)         59.9092         estimate D2E/DX2                !
 ! D77   D(25,28,31,33)        -60.0908         estimate D2E/DX2                !
 ! D78   D(25,28,31,34)        179.9092         estimate D2E/DX2                !
 ! D79   D(29,28,31,32)        -60.0908         estimate D2E/DX2                !
 ! D80   D(29,28,31,33)        179.9092         estimate D2E/DX2                !
 ! D81   D(29,28,31,34)         59.9092         estimate D2E/DX2                !
 ! D82   D(30,28,31,32)        179.9092         estimate D2E/DX2                !
 ! D83   D(30,28,31,33)         59.9092         estimate D2E/DX2                !
 ! D84   D(30,28,31,34)        -60.0908         estimate D2E/DX2                !
 ! D85   D(28,31,34,35)        179.9963         estimate D2E/DX2                !
 ! D86   D(28,31,34,36)        -60.0037         estimate D2E/DX2                !
 ! D87   D(28,31,34,37)         59.9963         estimate D2E/DX2                !
 ! D88   D(32,31,34,35)        -60.0037         estimate D2E/DX2                !
 ! D89   D(32,31,34,36)         59.9963         estimate D2E/DX2                !
 ! D90   D(32,31,34,37)        179.9963         estimate D2E/DX2                !
 ! D91   D(33,31,34,35)         59.9963         estimate D2E/DX2                !
 ! D92   D(33,31,34,36)        179.9963         estimate D2E/DX2                !
 ! D93   D(33,31,34,37)        -60.0037         estimate D2E/DX2                !
 --------------------------------------------------------------------------------
 Trust Radius=3.00D-01 FncErr=1.00D-07 GrdErr=1.00D-06
 Number of steps in this run=    208 maximum allowed number of steps=    222.
 GradGradGradGradGradGradGradGradGradGradGradGradGradGradGradGradGradGrad

                          Input orientation:                          
 ---------------------------------------------------------------------
 Center     Atomic      Atomic             Coordinates (Angstroms)
 Number     Number       Type             X           Y           Z
 ---------------------------------------------------------------------
      1          6           0        0.954401    0.350156    0.396050
      2          6           0        2.491619    0.258218    0.406470
      3          1           0        2.805107   -0.384288    1.202593
      4          1           0        2.831512   -0.138849   -0.527184
      5          1           0        0.640913    0.992662   -0.400073
      6          6           0        0.357564   -1.054112    0.187686
      7          1           0        0.697457   -1.451179   -0.745968
      8          1           0        0.671052   -1.696618    0.983809
      9          6           0       -1.179654   -0.962173    0.177265
     10          1           0       -1.519547   -0.565106    1.110920
     11          1           0       -1.493142   -0.319667   -0.618857
     12          6           0       -1.776491   -2.366442   -0.031098
     13          1           0       -1.463003   -3.008948    0.765025
     14          6           0       -3.313709   -2.274503   -0.041519
     15          1           0       -3.642297   -1.901647   -0.989099
     16          1           0       -3.636641   -1.611770    0.733981
     17          6           0       -3.913224   -3.673037    0.195727
     18          1           0       -4.721497   -3.600985    0.893153
     19          1           0       -4.275478   -4.067623   -0.730541
     20          1           0       -3.159242   -4.322210    0.589410
     21          1           0       -1.436598   -2.763508   -0.964752
     22          6           0        3.088456    1.662486    0.614834
     23          1           0        2.839137    2.283477   -0.220098
     24          1           0        2.688352    2.090855    1.509997
     25          6           0        4.619976    1.556461    0.736508
     26          1           0        4.869496    0.952768    1.583972
     27          1           0        5.018049    1.108663   -0.150011
     28          6           0        5.219447    2.963796    0.914392
     29          1           0        4.973485    3.566217    0.064986
     30          1           0        4.818186    3.413240    1.798637
     31          6           0        6.750436    2.857230    1.042134
     32          1           0        7.151541    2.406340    0.158554
     33          1           0        6.996412    2.256115    1.892461
     34          6           0        7.350111    4.264764    1.217735
     35          1           0        8.413844    4.190716    1.306556
     36          1           0        7.104190    4.865860    0.367378
     37          1           0        6.948957    4.715679    2.101280
 ---------------------------------------------------------------------
                    Distance matrix (angstroms):
                    1          2          3          4          5
     1  C    0.000000
     2  C    1.540000   0.000000
     3  H    2.148263   1.070000   0.000000
     4  H    2.148263   1.070000   1.747303   0.000000
     5  H    1.070000   2.148263   3.024610   2.468846   0.000000
     6  C    1.540000   2.514809   2.732978   2.732978   2.148263
     7  H    2.148263   2.732978   3.062243   2.514809   2.468846
     8  H    2.148263   2.732978   2.514809   3.062243   3.024610
     9  C    2.514809   3.875582   4.154945   4.154945   2.732978
    10  H    2.732978   4.154945   4.329403   4.668704   3.062243
    11  H    2.732978   4.154945   4.668704   4.329403   2.514809
    12  C    3.875582   5.029619   5.142175   5.142175   4.154945
    13  H    4.154945   5.142175   5.029619   5.324484   4.668704
    14  C    5.029619   6.349583   6.523851   6.523851   5.142175
    15  H    5.302725   6.651132   6.976741   6.725402   5.202871
    16  H    5.004101   6.415582   6.574377   6.752559   5.134844
    17  C    6.318226   7.518057   7.547556   7.648826   6.547052
    18  H    6.933574   8.195080   8.191010   8.429216   7.178403
    19  H    6.938128   8.111676   8.212104   8.123173   7.063045
    20  H    6.228198   7.276401   7.173331   7.391645   6.608186
    21  H    4.154945   5.142175   5.324484   5.029619   4.329403
    22  C    2.514809   1.540000   2.148263   2.148263   2.732978
    23  H    2.769404   2.148263   3.023604   2.441726   2.555540
    24  H    2.697683   2.148263   2.496890   3.023604   3.007724
    25  C    3.873955   2.514809   2.697683   2.769404   4.176437
    26  H    4.135489   2.742847   2.488950   3.130813   4.671075
    27  H    4.169741   2.723192   2.992582   2.545483   4.385807
    28  C    5.028957   3.875459   4.137846   4.172143   5.155207
    29  H    5.158070   4.149594   4.647850   4.320443   5.060696
    30  H    5.126262   4.159953   4.339237   4.687606   5.305010
    31  C    6.347981   5.029558   5.108699   5.176602   6.548499
    32  H    6.533669   5.137194   5.269641   5.060718   6.685718
    33  H    6.509825   5.147127   5.001468   5.379305   6.873455
    34  C    7.543503   6.349450   6.501614   6.546319   7.637885
    35  H    8.439325   7.165714   7.238744   7.298641   8.576630
    36  H    7.629699   6.519793   6.836941   6.641019   7.573941
    37  H    7.609225   6.527573   6.632405   6.886844   7.740093
                    6          7          8          9         10
     6  C    0.000000
     7  H    1.070000   0.000000
     8  H    1.070000   1.747303   0.000000
     9  C    1.540000   2.148263   2.148263   0.000000
    10  H    2.148263   3.024610   2.468846   1.070000   0.000000
    11  H    2.148263   2.468846   3.024610   1.070000   1.747303
    12  C    2.514809   2.732978   2.732978   1.540000   2.148263
    13  H    2.732978   3.062243   2.514809   2.148263   2.468846
    14  C    3.875582   4.154945   4.154945   2.514809   2.732978
    15  H    4.254648   4.369840   4.747566   2.882296   3.271466
    16  H    4.069779   4.582625   4.315766   2.601672   2.391584
    17  C    5.009836   5.204020   5.053997   3.849873   4.028212
    18  H    5.725478   6.055861   5.719651   4.474424   4.417744
    19  H    5.602630   5.619262   5.747070   4.477953   4.822215
    20  H    4.817651   4.990008   4.660518   3.921540   4.132360
    21  H    2.732978   2.514809   3.062243   2.148263   3.024610
    22  C    3.875582   4.154945   4.154945   5.029619   5.142175
    23  H    4.178995   4.337164   4.689471   5.181006   5.374399
    24  H    4.131815   4.647477   4.323346   5.104765   4.991975
    25  C    5.028365   5.160406   5.122273   6.347596   6.506534
    26  H    5.131736   5.349158   5.000638   6.499080   6.583889
    27  H    5.148956   5.057219   5.296369   6.542705   6.865246
    28  C    6.348984   6.534309   6.512463   7.543546   7.609588
    29  H    6.532169   6.642012   6.859490   7.640684   7.766678
    30  H    6.515332   6.864255   6.631238   7.599156   7.514457
    31  C    7.543042   7.641874   7.596041   8.844329   8.950404
    32  H    7.624546   7.573230   7.714405   8.986436   9.215436
    33  H    7.611712   7.770596   7.513982   8.952504   9.005090
    34  C    8.845743   8.988100   8.955592  10.057850  10.099995
    35  H    9.678003   9.776833   9.732199  10.948186  11.014917
    36  H    8.977490   9.065911   9.210395  10.130359  10.218468
    37  H    8.966537   9.231371   9.043140  10.100206  10.029111
                   11         12         13         14         15
    11  H    0.000000
    12  C    2.148263   0.000000
    13  H    3.024610   1.070000   0.000000
    14  C    2.732978   1.540000   2.148263   0.000000
    15  H    2.694180   2.148263   3.008719   1.070000   0.000000
    16  H    2.845047   2.148263   2.584138   1.070000   1.747303
    17  C    4.214906   2.514809   2.601671   1.540000   2.148263
    18  H    4.845152   3.324364   3.314318   2.148263   2.755956
    19  H    4.669159   3.102930   3.356713   2.148263   2.271392
    20  H    4.500683   2.474279   2.152376   2.148263   2.929873
    21  H    2.468846   1.070000   1.747303   2.148263   2.368229
    22  C    5.142175   6.349583   6.523851   7.544428   7.783231
    23  H    5.069913   6.554502   6.891200   7.659281   7.753427
    24  H    5.275181   6.494405   6.617909   7.582103   7.890670
    25  C    6.536596   7.542757   7.605683   8.844488   9.121480
    26  H    6.852351   7.602286   7.514414   8.945521   9.339112
    27  H    6.682480   7.632579   7.732790   8.993095   9.206934
    28  C    7.628292   8.845820   8.963879  10.058245  10.287193
    29  H    7.575289   8.987094   9.227743  10.139179  10.258672
    30  H    7.720864   8.957813   9.042466  10.092785  10.373007
    31  C    8.989335  10.057189  10.097000  11.348832  11.609553
    32  H    9.097583  10.125471  10.193307  11.466114  11.678305
    33  H    9.220298  10.101086  10.027646  11.426520  11.780174
    34  C   10.128831  11.350214  11.436032  12.572382  12.795616
    35  H   11.054372  12.191332  12.234400  13.459267  13.701732
    36  H   10.088432  11.459994  11.643346  12.636637  12.772086
    37  H   10.199161  11.438397  11.498544  12.600656  12.865229
                   16         17         18         19         20
    16  H    0.000000
    17  C    2.148263   0.000000
    18  H    2.271392   1.070000   0.000000
    19  H    2.929872   1.070000   1.747303   0.000000
    20  H    2.755956   1.070000   1.747303   1.747303   0.000000
    21  H    3.008719   2.882296   3.865714   3.132860   2.795080
    22  C    7.480768   8.812887   9.422152   9.427179   8.651645
    23  H    7.617016   9.013731   9.645175   9.550643   8.959406
    24  H    7.370019   8.861747   9.363941   9.562520   8.727499
    25  C    8.843610  10.022753  10.671781  10.625990   9.751750
    26  H    8.924893  10.023046  10.639598  10.686059   9.657908
    27  H    9.115144  10.136656  10.868657  10.653665   9.844247
    28  C    9.969888  11.312369  11.912983  11.928967  11.108282
    29  H   10.069429  11.462874  12.085004  12.018806  11.342114
    30  H    9.892842  11.358792  11.875386  12.043869  11.177601
    31  C   11.311865  12.532933  13.165712  13.140272  12.245449
    32  H   11.526543  12.624944  13.326538  13.163565  12.319548
    33  H   11.373848  12.532114  13.138250  13.188074  12.170028
    34  C   12.469018  13.817232  14.411769  14.435331  13.585927
    35  H   13.386967  14.663872  15.278046  15.276414  14.384732
    36  H   12.548289  13.940072  14.553720  14.508942  13.777081
    37  H   12.408103  13.855997  14.381445  14.531123  13.643492
                   21         22         23         24         25
    21  H    0.000000
    22  C    6.523851   0.000000
    23  H    6.656462   1.070000   0.000000
    24  H    6.834065   1.070000   1.747303   0.000000
    25  C    7.631416   1.540000   2.148263   2.148263   0.000000
    26  H    7.750712   2.148263   3.024535   2.461321   1.070000
    27  H    7.570995   2.148263   2.476440   3.024535   1.070000
    28  C    8.979762   2.514809   2.723192   2.742848   1.540000
    29  H    9.067246   2.734933   2.506419   3.080030   2.148263
    30  H    9.214709   2.731024   3.044386   2.523531   2.148263
    31  C   10.131526   3.875576   4.149780   4.160138   2.514809
    32  H   10.086886   4.155739   4.330738   4.673968   2.732242
    33  H   10.221347   4.154136   4.663323   4.328160   2.733713
    34  C   11.461506   5.029617   5.132421   5.152019   3.875581
    35  H   12.269934   5.935502   6.086509   6.101808   4.653782
    36  H   11.529392   5.142855   5.020409   5.339087   4.154479
    37  H   11.647160   5.141495   5.309898   5.039055   4.155408
                   26         27         28         29         30
    26  H    0.000000
    27  H    1.747303   0.000000
    28  C    2.148263   2.148263   0.000000
    29  H    3.024607   2.467344   1.070000   0.000000
    30  H    2.470351   3.024607   1.070000   1.747303   0.000000
    31  C    2.731025   2.734934   1.540000   2.148263   2.148263
    32  H    3.058172   2.516142   2.148263   2.469412   3.024610
    33  H    2.513493   3.066310   2.148263   3.024610   2.468280
    34  C    4.154143   4.155746   2.514809   2.732243   2.733713
    35  H    4.808708   4.811660   3.444314   3.710467   3.711519
    36  H    4.667574   4.328534   2.733007   2.514043   3.063400
    37  H    4.330273   4.669827   2.732947   3.061085   2.515577
                   31         32         33         34         35
    31  C    0.000000
    32  H    1.070000   0.000000
    33  H    1.070000   1.747303   0.000000
    34  C    1.540000   2.148263   2.148263   0.000000
    35  H    2.148263   2.468869   2.468822   1.070000   0.000000
    36  H    2.148263   2.468823   3.024610   1.070000   1.747303
    37  H    2.148263   3.024611   2.468869   1.070000   1.747303
                   36         37
    36  H    0.000000
    37  H    1.747303   0.000000
 Stoichiometry    C12H25(2)
 Framework group  C1[X(C12H25)]
 Deg. of freedom   105
 Full point group                 C1      NOp   1
 Largest Abelian subgroup         C1      NOp   1
 Largest concise Abelian subgroup C1      NOp   1
                         Standard orientation:                         
 ---------------------------------------------------------------------
 Center     Atomic      Atomic             Coordinates (Angstroms)
 Number     Number       Type             X           Y           Z
 ---------------------------------------------------------------------
      1          6           0       -0.630377   -0.466353    0.016223
      2          6           0        0.612209    0.434824    0.140550
      3          1           0        0.601186    1.167140   -0.639509
      4          1           0        0.602879    0.926052    1.091080
      5          1           0       -0.619354   -1.198668    0.796282
      6          6           0       -1.902258    0.393458    0.137247
      7          1           0       -1.911588    0.884685    1.087777
      8          1           0       -1.913281    1.125773   -0.642813
      9          6           0       -3.144845   -0.507720    0.012919
     10          1           0       -3.135514   -0.998948   -0.937611
     11          1           0       -3.133822   -1.240035    0.792979
     12          6           0       -4.416725    0.352091    0.133943
     13          1           0       -4.427748    1.084406   -0.646116
     14          6           0       -5.659312   -0.549087    0.009616
     15          1           0       -5.818746   -1.066105    0.932748
     16          1           0       -5.507299   -1.259857   -0.775622
     17          6           0       -6.891216    0.316833   -0.313176
     18          1           0       -7.470110   -0.157487   -1.077899
     19          1           0       -7.488220    0.430123    0.567535
     20          1           0       -6.571251    1.279507   -0.653440
     21          1           0       -4.426055    0.843318    1.084474
     22          6           0        1.884090   -0.424986    0.019526
     23          1           0        1.934064   -1.105854    0.843432
     24          1           0        1.856245   -0.975950   -0.897296
     25          6           0        3.124119    0.488121    0.032231
     26          1           0        3.084683    1.154844   -0.803726
     27          1           0        3.140608    1.054637    0.939804
     28          6           0        4.397176   -0.373714   -0.058136
     29          1           0        4.438749   -1.037513    0.780043
     30          1           0        4.378692   -0.943390   -0.963689
     31          6           0        5.637003    0.539733   -0.051532
     32          1           0        5.654640    1.110564    0.853311
     33          1           0        5.596223    1.202463   -0.890595
     34          6           0        6.910138   -0.322224   -0.139603
     35          1           0        7.771574    0.312447   -0.135080
     36          1           0        6.950951   -0.984909    0.699494
     37          1           0        6.892470   -0.893104   -1.044415
 ---------------------------------------------------------------------
 Rotational constants (GHZ):      6.8338569      0.1530530      0.1515255
 Standard basis: 6-311+G(d,p) (5D, 7F)
 There are   426 symmetry adapted cartesian basis functions of A   symmetry.
 There are   414 symmetry adapted basis functions of A   symmetry.
   414 basis functions,   632 primitive gaussians,   426 cartesian basis functions
    49 alpha electrons       48 beta electrons
       nuclear repulsion energy       663.3872301338 Hartrees.
 NAtoms=   37 NActive=   37 NUniq=   37 SFac= 1.00D+00 NAtFMM=   60 NAOKFM=F Big=F
 Integral buffers will be    131072 words long.
 Raffenetti 2 integral format.
 Two-electron integral symmetry is turned on.
 One-electron integrals computed using PRISM.
 NBasis=   414 RedAO= T EigKep=  2.05D-06  NBF=   414
 NBsUse=   414 1.00D-06 EigRej= -1.00D+00 NBFU=   414
 ExpMin= 4.38D-02 ExpMax= 4.56D+03 ExpMxC= 6.82D+02 IAcc=2 IRadAn=         4 AccDes= 0.00D+00
 Harris functional with IExCor=  402 and IRadAn=       4 diagonalized for initial guess.
 HarFok:  IExCor=  402 AccDes= 0.00D+00 IRadAn=         4 IDoV= 1 UseB2=F ITyADJ=14
 ICtDFT=  3500011 ScaDFX=  1.000000  1.000000  1.000000  1.000000
 FoFCou: FMM=F IPFlag=           0 FMFlag=      100000 FMFlg1=           0
         NFxFlg=           0 DoJE=T BraDBF=F KetDBF=T FulRan=T
         wScrn=  0.000000 ICntrl=     500 IOpCl=  0 I1Cent=   200000004 NGrid=           0
         NMat0=    1 NMatS0=      1 NMatT0=    0 NMatD0=    1 NMtDS0=    0 NMtDT0=    0
 Petite list used in FoFCou.
 Initial guess <Sx>= 0.0000 <Sy>= 0.0000 <Sz>= 0.5000 <S**2>= 0.7500 S= 0.5000
 Requested convergence on RMS density matrix=1.00D-08 within 128 cycles.
 Requested convergence on MAX density matrix=1.00D-06.
 Requested convergence on             energy=1.00D-06.
 No special actions if energy rises.
 SCF Done:  E(UB3LYP) =  -472.394064435     A.U. after   14 cycles
            NFock= 14  Conv=0.29D-08     -V/T= 2.0033
 <Sx>= 0.0000 <Sy>= 0.0000 <Sz>= 0.5000 <S**2>= 0.7528 S= 0.5014
 <L.S>= 0.000000000000E+00
 Annihilation of the first spin contaminant:
 S**2 before annihilation     0.7528,   after     0.7500

 **********************************************************************

            Population analysis using the SCF density.

 **********************************************************************

 Orbital symmetries:
 Alpha Orbitals:
       Occupied  (A) (A) (A) (A) (A) (A) (A) (A) (A) (A) (A) (A)
                 (A) (A) (A) (A) (A) (A) (A) (A) (A) (A) (A) (A)
                 (A) (A) (A) (A) (A) (A) (A) (A) (A) (A) (A) (A)
                 (A) (A) (A) (A) (A) (A) (A) (A) (A) (A) (A) (A)
                 (A)
       Virtual   (A) (A) (A) (A) (A) (A) (A) (A) (A) (A) (A) (A)
                 (A) (A) (A) (A) (A) (A) (A) (A) (A) (A) (A) (A)
                 (A) (A) (A) (A) (A) (A) (A) (A) (A) (A) (A) (A)
                 (A) (A) (A) (A) (A) (A) (A) (A) (A) (A) (A) (A)
                 (A) (A) (A) (A) (A) (A) (A) (A) (A) (A) (A) (A)
                 (A) (A) (A) (A) (A) (A) (A) (A) (A) (A) (A) (A)
                 (A) (A) (A) (A) (A) (A) (A) (A) (A) (A) (A) (A)
                 (A) (A) (A) (A) (A) (A) (A) (A) (A) (A) (A) (A)
                 (A) (A) (A) (A) (A) (A) (A) (A) (A) (A) (A) (A)
                 (A) (A) (A) (A) (A) (A) (A) (A) (A) (A) (A) (A)
                 (A) (A) (A) (A) (A) (A) (A) (A) (A) (A) (A) (A)
                 (A) (A) (A) (A) (A) (A) (A) (A) (A) (A) (A) (A)
                 (A) (A) (A) (A) (A) (A) (A) (A) (A) (A) (A) (A)
                 (A) (A) (A) (A) (A) (A) (A) (A) (A) (A) (A) (A)
                 (A) (A) (A) (A) (A) (A) (A) (A) (A) (A) (A) (A)
                 (A) (A) (A) (A) (A) (A) (A) (A) (A) (A) (A) (A)
                 (A) (A) (A) (A) (A) (A) (A) (A) (A) (A) (A) (A)
                 (A) (A) (A) (A) (A) (A) (A) (A) (A) (A) (A) (A)
                 (A) (A) (A) (A) (A) (A) (A) (A) (A) (A) (A) (A)
                 (A) (A) (A) (A) (A) (A) (A) (A) (A) (A) (A) (A)
                 (A) (A) (A) (A) (A) (A) (A) (A) (A) (A) (A) (A)
                 (A) (A) (A) (A) (A) (A) (A) (A) (A) (A) (A) (A)
                 (A) (A) (A) (A) (A) (A) (A) (A) (A) (A) (A) (A)
                 (A) (A) (A) (A) (A) (A) (A) (A) (A) (A) (A) (A)
                 (A) (A) (A) (A) (A) (A) (A) (A) (A) (A) (A) (A)
                 (A) (A) (A) (A) (A) (A) (A) (A) (A) (A) (A) (A)
                 (A) (A) (A) (A) (A) (A) (A) (A) (A) (A) (A) (A)
                 (A) (A) (A) (A) (A) (A) (A) (A) (A) (A) (A) (A)
                 (A) (A) (A) (A) (A) (A) (A) (A) (A) (A) (A) (A)
                 (A) (A) (A) (A) (A) (A) (A) (A) (A) (A) (A) (A)
                 (A) (A) (A) (A) (A)
 Beta  Orbitals:
       Occupied  (A) (A) (A) (A) (A) (A) (A) (A) (A) (A) (A) (A)
                 (A) (A) (A) (A) (A) (A) (A) (A) (A) (A) (A) (A)
                 (A) (A) (A) (A) (A) (A) (A) (A) (A) (A) (A) (A)
                 (A) (A) (A) (A) (A) (A) (A) (A) (A) (A) (A) (A)
       Virtual   (A) (A) (A) (A) (A) (A) (A) (A) (A) (A) (A) (A)
                 (A) (A) (A) (A) (A) (A) (A) (A) (A) (A) (A) (A)
                 (A) (A) (A) (A) (A) (A) (A) (A) (A) (A) (A) (A)
                 (A) (A) (A) (A) (A) (A) (A) (A) (A) (A) (A) (A)
                 (A) (A) (A) (A) (A) (A) (A) (A) (A) (A) (A) (A)
                 (A) (A) (A) (A) (A) (A) (A) (A) (A) (A) (A) (A)
                 (A) (A) (A) (A) (A) (A) (A) (A) (A) (A) (A) (A)
                 (A) (A) (A) (A) (A) (A) (A) (A) (A) (A) (A) (A)
                 (A) (A) (A) (A) (A) (A) (A) (A) (A) (A) (A) (A)
                 (A) (A) (A) (A) (A) (A) (A) (A) (A) (A) (A) (A)
                 (A) (A) (A) (A) (A) (A) (A) (A) (A) (A) (A) (A)
                 (A) (A) (A) (A) (A) (A) (A) (A) (A) (A) (A) (A)
                 (A) (A) (A) (A) (A) (A) (A) (A) (A) (A) (A) (A)
                 (A) (A) (A) (A) (A) (A) (A) (A) (A) (A) (A) (A)
                 (A) (A) (A) (A) (A) (A) (A) (A) (A) (A) (A) (A)
                 (A) (A) (A) (A) (A) (A) (A) (A) (A) (A) (A) (A)
                 (A) (A) (A) (A) (A) (A) (A) (A) (A) (A) (A) (A)
                 (A) (A) (A) (A) (A) (A) (A) (A) (A) (A) (A) (A)
                 (A) (A) (A) (A) (A) (A) (A) (A) (A) (A) (A) (A)
                 (A) (A) (A) (A) (A) (A) (A) (A) (A) (A) (A) (A)
                 (A) (A) (A) (A) (A) (A) (A) (A) (A) (A) (A) (A)
                 (A) (A) (A) (A) (A) (A) (A) (A) (A) (A) (A) (A)
                 (A) (A) (A) (A) (A) (A) (A) (A) (A) (A) (A) (A)
                 (A) (A) (A) (A) (A) (A) (A) (A) (A) (A) (A) (A)
                 (A) (A) (A) (A) (A) (A) (A) (A) (A) (A) (A) (A)
                 (A) (A) (A) (A) (A) (A) (A) (A) (A) (A) (A) (A)
                 (A) (A) (A) (A) (A) (A) (A) (A) (A) (A) (A) (A)
                 (A) (A) (A) (A) (A) (A) (A) (A) (A) (A) (A) (A)
                 (A) (A) (A) (A) (A) (A) (A) (A) (A) (A) (A) (A)
                 (A) (A) (A) (A) (A) (A) (A) (A) (A) (A) (A) (A)
                 (A) (A) (A) (A) (A) (A)
 The electronic state is 2-A.
 Alpha  occ. eigenvalues --  -10.17790 -10.15748 -10.15726 -10.15401 -10.15286
 Alpha  occ. eigenvalues --  -10.15235 -10.15199 -10.15194 -10.15187 -10.15166
 Alpha  occ. eigenvalues --  -10.14576 -10.14448  -0.81830  -0.80667  -0.78665
 Alpha  occ. eigenvalues --   -0.76079  -0.72691  -0.68941  -0.64843  -0.60913
 Alpha  occ. eigenvalues --   -0.58632  -0.58459  -0.58056  -0.56828  -0.49385
 Alpha  occ. eigenvalues --   -0.48655  -0.46490  -0.44716  -0.43479  -0.43344
 Alpha  occ. eigenvalues --   -0.41995  -0.41456  -0.40447  -0.39520  -0.38885
 Alpha  occ. eigenvalues --   -0.36979  -0.36498  -0.35781  -0.34943  -0.34794
 Alpha  occ. eigenvalues --   -0.33963  -0.33758  -0.33461  -0.33301  -0.33038
 Alpha  occ. eigenvalues --   -0.32962  -0.30870  -0.27338  -0.22355
 Alpha virt. eigenvalues --    0.00805   0.01248   0.01771   0.01971   0.02618
 Alpha virt. eigenvalues --    0.02742   0.02950   0.03502   0.04338   0.04486
 Alpha virt. eigenvalues --    0.05270   0.05593   0.06239   0.06342   0.06479
 Alpha virt. eigenvalues --    0.06522   0.06948   0.07316   0.08206   0.08420
 Alpha virt. eigenvalues --    0.08577   0.08885   0.09567   0.10391   0.10862
 Alpha virt. eigenvalues --    0.11202   0.11432   0.12151   0.12387   0.13471
 Alpha virt. eigenvalues --    0.13921   0.14184   0.14689   0.15860   0.16108
 Alpha virt. eigenvalues --    0.16726   0.17318   0.17437   0.17789   0.18151
 Alpha virt. eigenvalues --    0.18993   0.19317   0.19681   0.20013   0.20323
 Alpha virt. eigenvalues --    0.20467   0.20921   0.21149   0.21472   0.21525
 Alpha virt. eigenvalues --    0.22022   0.22617   0.22840   0.22982   0.23282
 Alpha virt. eigenvalues --    0.23847   0.23934   0.24401   0.24839   0.25045
 Alpha virt. eigenvalues --    0.25301   0.25639   0.25727   0.25965   0.26592
 Alpha virt. eigenvalues --    0.27022   0.27297   0.27945   0.28413   0.28932
 Alpha virt. eigenvalues --    0.29693   0.30495   0.30587   0.30813   0.32418
 Alpha virt. eigenvalues --    0.32872   0.33437   0.33863   0.35341   0.36122
 Alpha virt. eigenvalues --    0.36622   0.38332   0.38838   0.39669   0.40304
 Alpha virt. eigenvalues --    0.41055   0.41726   0.42140   0.43293   0.43439
 Alpha virt. eigenvalues --    0.44146   0.45358   0.46695   0.48098   0.49418
 Alpha virt. eigenvalues --    0.50882   0.51552   0.52712   0.53421   0.54690
 Alpha virt. eigenvalues --    0.55039   0.57984   0.58373   0.59293   0.59618
 Alpha virt. eigenvalues --    0.60320   0.61243   0.62266   0.63443   0.63737
 Alpha virt. eigenvalues --    0.64236   0.64807   0.65050   0.65555   0.65993
 Alpha virt. eigenvalues --    0.66341   0.66793   0.67166   0.67876   0.67991
 Alpha virt. eigenvalues --    0.68580   0.69061   0.69209   0.69464   0.69893
 Alpha virt. eigenvalues --    0.69942   0.70448   0.70712   0.71384   0.72055
 Alpha virt. eigenvalues --    0.72673   0.73394   0.75122   0.75627   0.75880
 Alpha virt. eigenvalues --    0.76833   0.77613   0.77948   0.78521   0.78761
 Alpha virt. eigenvalues --    0.78911   0.79987   0.80877   0.81223   0.83145
 Alpha virt. eigenvalues --    0.83388   0.92187   0.94043   0.95642   0.95885
 Alpha virt. eigenvalues --    0.97648   0.99667   1.00160   1.01012   1.01598
 Alpha virt. eigenvalues --    1.02960   1.04227   1.04940   1.07544   1.09967
 Alpha virt. eigenvalues --    1.14406   1.17908   1.21859   1.22722   1.25014
 Alpha virt. eigenvalues --    1.25586   1.26012   1.26737   1.27393   1.27855
 Alpha virt. eigenvalues --    1.27880   1.29387   1.30423   1.32541   1.34581
 Alpha virt. eigenvalues --    1.38784   1.43882   1.46763   1.46846   1.46903
 Alpha virt. eigenvalues --    1.47551   1.49233   1.50441   1.51889   1.52513
 Alpha virt. eigenvalues --    1.53439   1.53853   1.54613   1.55904   1.56329
 Alpha virt. eigenvalues --    1.57240   1.57646   1.58037   1.58062   1.59400
 Alpha virt. eigenvalues --    1.60373   1.60915   1.61551   1.62158   1.62633
 Alpha virt. eigenvalues --    1.64457   1.65061   1.65626   1.66963   1.67196
 Alpha virt. eigenvalues --    1.67812   1.68426   1.70485   1.71056   1.72078
 Alpha virt. eigenvalues --    1.73741   1.74294   1.74833   1.75253   1.75529
 Alpha virt. eigenvalues --    1.76813   1.77898   1.78564   1.78917   1.79812
 Alpha virt. eigenvalues --    1.81433   1.82497   1.84983   1.85452   1.86201
 Alpha virt. eigenvalues --    1.86782   1.89178   1.90948   1.91486   1.94204
 Alpha virt. eigenvalues --    1.95234   1.97481   2.00952   2.01430   2.02756
 Alpha virt. eigenvalues --    2.04735   2.07117   2.07954   2.09958   2.11155
 Alpha virt. eigenvalues --    2.14348   2.14757   2.15678   2.17288   2.18091
 Alpha virt. eigenvalues --    2.19005   2.19967   2.22139   2.23798   2.24924
 Alpha virt. eigenvalues --    2.25481   2.26710   2.28878   2.29792   2.31398
 Alpha virt. eigenvalues --    2.33170   2.35499   2.37105   2.38985   2.39131
 Alpha virt. eigenvalues --    2.39918   2.41251   2.42917   2.44025   2.44778
 Alpha virt. eigenvalues --    2.45133   2.47253   2.48983   2.49554   2.51195
 Alpha virt. eigenvalues --    2.51762   2.52538   2.53564   2.55240   2.56802
 Alpha virt. eigenvalues --    2.57479   2.57836   2.58326   2.58853   2.59675
 Alpha virt. eigenvalues --    2.60346   2.60534   2.62210   2.63576   2.63738
 Alpha virt. eigenvalues --    2.65006   2.65151   2.65737   2.66780   2.67175
 Alpha virt. eigenvalues --    2.68226   2.68722   2.69285   2.69551   2.71021
 Alpha virt. eigenvalues --    2.71761   2.72627   2.72858   2.73652   2.74823
 Alpha virt. eigenvalues --    2.76565   2.78876   2.79348   2.81057   2.81561
 Alpha virt. eigenvalues --    2.83064   2.83616   2.84337   2.85830   2.88566
 Alpha virt. eigenvalues --    2.91414   2.91680   2.92726   2.93341   2.95076
 Alpha virt. eigenvalues --    2.95528   2.97653   2.99274   3.00623   3.04950
 Alpha virt. eigenvalues --    3.06467   3.08398   3.11086   3.19299   3.25131
 Alpha virt. eigenvalues --    3.33103   3.38578   3.42501   3.46286   3.70314
 Alpha virt. eigenvalues --    3.82974   3.84639   3.85112   3.87347   3.87560
 Alpha virt. eigenvalues --    3.88750   3.89867   3.90665   3.92137   3.92682
 Alpha virt. eigenvalues --    3.94406   4.05522   4.06411   4.13169   4.15444
 Alpha virt. eigenvalues --    4.17853   4.20729   4.23681   4.26591   4.30645
 Alpha virt. eigenvalues --    4.32830   4.33529   4.36147  23.79474  23.91046
 Alpha virt. eigenvalues --   23.91252  23.92381  23.93250  23.94189  23.96559
 Alpha virt. eigenvalues --   23.96983  23.97283  23.98169  24.03196  24.04049
  Beta  occ. eigenvalues --  -10.16338 -10.15766 -10.15746 -10.15400 -10.15287
  Beta  occ. eigenvalues --  -10.15234 -10.15198 -10.15178 -10.15178 -10.15157
  Beta  occ. eigenvalues --  -10.14576 -10.14447  -0.81422  -0.80621  -0.78235
  Beta  occ. eigenvalues --   -0.75930  -0.72363  -0.68712  -0.64629  -0.60712
  Beta  occ. eigenvalues --   -0.58580  -0.58388  -0.57971  -0.55387  -0.49111
  Beta  occ. eigenvalues --   -0.48564  -0.46070  -0.44518  -0.43323  -0.43252
  Beta  occ. eigenvalues --   -0.41730  -0.41194  -0.40262  -0.39323  -0.38706
  Beta  occ. eigenvalues --   -0.36769  -0.36325  -0.35597  -0.34791  -0.34686
  Beta  occ. eigenvalues --   -0.33817  -0.33608  -0.33437  -0.33180  -0.32977
  Beta  occ. eigenvalues --   -0.32872  -0.30788  -0.27054
  Beta virt. eigenvalues --   -0.07040   0.00879   0.01251   0.01779   0.02035
  Beta virt. eigenvalues --    0.02700   0.02736   0.02973   0.03504   0.04350
  Beta virt. eigenvalues --    0.04544   0.05339   0.05616   0.06252   0.06345
  Beta virt. eigenvalues --    0.06472   0.06697   0.06993   0.07308   0.08246
  Beta virt. eigenvalues --    0.08469   0.08601   0.08993   0.09874   0.10389
  Beta virt. eigenvalues --    0.10901   0.11218   0.11443   0.12133   0.12477
  Beta virt. eigenvalues --    0.13541   0.13926   0.14201   0.14735   0.16048
  Beta virt. eigenvalues --    0.16202   0.16772   0.17380   0.17457   0.17807
  Beta virt. eigenvalues --    0.18265   0.19070   0.19369   0.19729   0.20228
  Beta virt. eigenvalues --    0.20457   0.20601   0.21042   0.21177   0.21515
  Beta virt. eigenvalues --    0.21663   0.22072   0.22800   0.22962   0.23020
  Beta virt. eigenvalues --    0.23440   0.23910   0.24055   0.24438   0.24944
  Beta virt. eigenvalues --    0.25129   0.25507   0.25725   0.25910   0.26207
  Beta virt. eigenvalues --    0.26923   0.27313   0.27501   0.28097   0.28547
  Beta virt. eigenvalues --    0.29033   0.29736   0.30550   0.30611   0.30888
  Beta virt. eigenvalues --    0.32466   0.32933   0.33465   0.33962   0.35569
  Beta virt. eigenvalues --    0.36504   0.36840   0.38458   0.38992   0.39873
  Beta virt. eigenvalues --    0.40360   0.41184   0.41744   0.42233   0.43375
  Beta virt. eigenvalues --    0.43532   0.44255   0.45813   0.46871   0.48486
  Beta virt. eigenvalues --    0.49494   0.50952   0.51651   0.52836   0.53654
  Beta virt. eigenvalues --    0.54715   0.55169   0.58274   0.58475   0.59468
  Beta virt. eigenvalues --    0.59754   0.60357   0.61708   0.63026   0.63560
  Beta virt. eigenvalues --    0.64297   0.64669   0.64913   0.65229   0.66031
  Beta virt. eigenvalues --    0.66066   0.66581   0.67114   0.67397   0.68038
  Beta virt. eigenvalues --    0.68084   0.68658   0.69106   0.69373   0.69598
  Beta virt. eigenvalues --    0.70027   0.70213   0.70586   0.70776   0.71672
  Beta virt. eigenvalues --    0.72264   0.73132   0.73608   0.75229   0.75669
  Beta virt. eigenvalues --    0.76284   0.76997   0.77713   0.78049   0.78584
  Beta virt. eigenvalues --    0.78868   0.78989   0.80092   0.81283   0.82189
  Beta virt. eigenvalues --    0.83281   0.83586   0.92551   0.94558   0.95785
  Beta virt. eigenvalues --    0.96012   0.97911   0.99778   1.00268   1.01123
  Beta virt. eigenvalues --    1.01682   1.03025   1.04461   1.05102   1.08011
  Beta virt. eigenvalues --    1.10172   1.14595   1.18086   1.22015   1.22871
  Beta virt. eigenvalues --    1.25252   1.25727   1.26086   1.26862   1.27439
  Beta virt. eigenvalues --    1.27907   1.28158   1.29646   1.30465   1.32880
  Beta virt. eigenvalues --    1.35930   1.39088   1.45048   1.46864   1.46901
  Beta virt. eigenvalues --    1.47148   1.47795   1.49398   1.50651   1.52052
  Beta virt. eigenvalues --    1.52918   1.53608   1.54155   1.54830   1.56075
  Beta virt. eigenvalues --    1.56512   1.57470   1.57836   1.58093   1.58690
  Beta virt. eigenvalues --    1.59501   1.60435   1.61095   1.61753   1.62375
  Beta virt. eigenvalues --    1.62742   1.64651   1.65147   1.65871   1.67249
  Beta virt. eigenvalues --    1.67647   1.67964   1.68561   1.70756   1.71517
  Beta virt. eigenvalues --    1.72181   1.73897   1.74435   1.74858   1.75302
  Beta virt. eigenvalues --    1.75611   1.76857   1.78057   1.78705   1.79000
  Beta virt. eigenvalues --    1.80037   1.81652   1.82690   1.85145   1.85783
  Beta virt. eigenvalues --    1.86346   1.86984   1.89425   1.91098   1.91770
  Beta virt. eigenvalues --    1.94344   1.95890   1.97797   2.01402   2.01995
  Beta virt. eigenvalues --    2.02954   2.05167   2.07368   2.08421   2.10270
  Beta virt. eigenvalues --    2.11878   2.14519   2.15062   2.15871   2.17455
  Beta virt. eigenvalues --    2.18201   2.19134   2.20068   2.22339   2.23991
  Beta virt. eigenvalues --    2.25075   2.25619   2.26954   2.29257   2.30076
  Beta virt. eigenvalues --    2.31698   2.33469   2.35741   2.37368   2.39103
  Beta virt. eigenvalues --    2.39308   2.40042   2.41406   2.43031   2.44067
  Beta virt. eigenvalues --    2.45007   2.45486   2.47467   2.49042   2.49588
  Beta virt. eigenvalues --    2.51202   2.51852   2.52672   2.53653   2.55410
  Beta virt. eigenvalues --    2.56851   2.57544   2.58026   2.58626   2.58919
  Beta virt. eigenvalues --    2.59752   2.60481   2.60661   2.62405   2.63718
  Beta virt. eigenvalues --    2.63969   2.65083   2.65293   2.65880   2.66912
  Beta virt. eigenvalues --    2.67371   2.68508   2.68783   2.69336   2.69613
  Beta virt. eigenvalues --    2.71241   2.71976   2.72722   2.73173   2.73743
  Beta virt. eigenvalues --    2.74945   2.76587   2.79012   2.79517   2.81156
  Beta virt. eigenvalues --    2.81755   2.83375   2.83757   2.84481   2.85895
  Beta virt. eigenvalues --    2.88869   2.91472   2.91801   2.92868   2.93475
  Beta virt. eigenvalues --    2.95461   2.96876   2.98591   2.99726   3.00921
  Beta virt. eigenvalues --    3.05152   3.06805   3.08811   3.11532   3.20041
  Beta virt. eigenvalues --    3.25269   3.33460   3.38864   3.42579   3.46826
  Beta virt. eigenvalues --    3.70315   3.82978   3.84743   3.85155   3.87426
  Beta virt. eigenvalues --    3.87561   3.88825   3.89911   3.90724   3.92222
  Beta virt. eigenvalues --    3.92824   3.94500   4.05675   4.07348   4.13206
  Beta virt. eigenvalues --    4.15624   4.17920   4.20845   4.23879   4.27029
  Beta virt. eigenvalues --    4.30707   4.32883   4.33684   4.36198  23.81129
  Beta virt. eigenvalues --   23.91052  23.91253  23.92385  23.93242  23.94186
  Beta virt. eigenvalues --   23.96567  23.96997  23.97291  23.98170  24.03196
  Beta virt. eigenvalues --   24.04049
          Condensed to atoms (all electrons):
               1          2          3          4          5          6
     1  C    6.510052   0.149979  -0.151558  -0.019985   0.405726   0.083237
     2  C    0.149979   6.963910   0.500171   0.454022  -0.055767  -0.343005
     3  H   -0.151558   0.500171   0.556777  -0.040527   0.008614  -0.028393
     4  H   -0.019985   0.454022  -0.040527   0.567757  -0.005933   0.033656
     5  H    0.405726  -0.055767   0.008614  -0.005933   0.584415  -0.070856
     6  C    0.083237  -0.343005  -0.028393   0.033656  -0.070856   6.863302
     7  H   -0.048376   0.006036  -0.000633   0.002840  -0.005845   0.447189
     8  H   -0.109975  -0.014017   0.002786  -0.000656   0.008478   0.518137
     9  C   -0.242545  -0.135873  -0.009633   0.018595  -0.013197  -0.256458
    10  H    0.012992   0.010357   0.000049  -0.000058  -0.000592  -0.053504
    11  H   -0.040904  -0.009738  -0.000061   0.000047   0.003380  -0.082947
    12  C   -0.146995  -0.306438  -0.001843   0.003555   0.007286   0.058342
    13  H   -0.004133  -0.006196  -0.000038   0.000011  -0.000067  -0.040853
    14  C   -0.161111  -0.012139  -0.000218   0.000356  -0.000854  -0.104294
    15  H    0.004357  -0.000703   0.000000   0.000000  -0.000022  -0.017730
    16  H   -0.005789   0.000037   0.000001   0.000000   0.000020   0.020587
    17  C   -0.010666  -0.008203  -0.000028   0.000022  -0.000178  -0.087550
    18  H    0.000801   0.000209   0.000000   0.000000   0.000000   0.008531
    19  H   -0.001133  -0.000063   0.000000   0.000000   0.000000  -0.001643
    20  H    0.000059  -0.000483   0.000000   0.000000   0.000000  -0.011160
    21  H   -0.005523   0.003530   0.000009  -0.000032   0.000051   0.025955
    22  C   -0.485713  -0.309702  -0.044286  -0.125376   0.002687  -0.121442
    23  H   -0.031376  -0.085249   0.008265  -0.008929   0.003184  -0.008674
    24  H    0.018684  -0.060830  -0.006373   0.008677  -0.000862   0.017482
    25  C   -0.082528  -0.180984   0.035859  -0.035036   0.011924  -0.389666
    26  H    0.010893  -0.018806   0.003131  -0.000473  -0.000063  -0.002549
    27  H   -0.015080  -0.004586  -0.000856   0.002955   0.000022  -0.000070
    28  C   -0.395167  -0.197136   0.017412  -0.007511   0.000657  -0.007315
    29  H    0.009542   0.011698  -0.000060   0.000079  -0.000035   0.000435
    30  H   -0.012499  -0.012318   0.000029  -0.000065   0.000016  -0.001259
    31  C    0.000191  -0.123875   0.001227  -0.000415  -0.000052  -0.008606
    32  H   -0.001676  -0.005598   0.000013  -0.000037   0.000001  -0.000223
    33  H    0.001010   0.007381  -0.000033   0.000009   0.000000   0.000143
    34  C   -0.009902  -0.008378   0.000173  -0.000116   0.000001  -0.000645
    35  H    0.000121   0.000724   0.000000   0.000000   0.000000   0.000003
    36  H   -0.000071  -0.000620   0.000000   0.000000   0.000000  -0.000003
    37  H   -0.000124  -0.001282   0.000000   0.000000   0.000000  -0.000012
               7          8          9         10         11         12
     1  C   -0.048376  -0.109975  -0.242545   0.012992  -0.040904  -0.146995
     2  C    0.006036  -0.014017  -0.135873   0.010357  -0.009738  -0.306438
     3  H   -0.000633   0.002786  -0.009633   0.000049  -0.000061  -0.001843
     4  H    0.002840  -0.000656   0.018595  -0.000058   0.000047   0.003555
     5  H   -0.005845   0.008478  -0.013197  -0.000592   0.003380   0.007286
     6  C    0.447189   0.518137  -0.256458  -0.053504  -0.082947   0.058342
     7  H    0.568670  -0.040440  -0.118142   0.008662  -0.007862   0.000324
     8  H   -0.040440   0.555634  -0.061490  -0.007521   0.008234   0.001798
     9  C   -0.118142  -0.061490   7.057593   0.469080   0.519657  -0.154583
    10  H    0.008662  -0.007521   0.469080   0.548449  -0.036724  -0.105565
    11  H   -0.007862   0.008234   0.519657  -0.036724   0.562343  -0.065245
    12  C    0.000324   0.001798  -0.154583  -0.105565  -0.065245   6.267970
    13  H   -0.000640   0.003339  -0.049114  -0.007654   0.008676   0.512213
    14  C    0.004471   0.000321   0.117824  -0.005134   0.009559   0.079692
    15  H    0.000060  -0.000032   0.010753  -0.000319   0.002052  -0.051984
    16  H   -0.000068   0.000017  -0.024363   0.003866  -0.001162  -0.035247
    17  C    0.001027  -0.000652   0.015022  -0.002799   0.004317  -0.067463
    18  H    0.000000   0.000004   0.007834  -0.000045   0.000017   0.044191
    19  H   -0.000007   0.000003  -0.023601  -0.000021   0.000018  -0.005287
    20  H    0.000012  -0.000060   0.017234   0.000072  -0.000058  -0.040884
    21  H    0.003150  -0.000791  -0.067763   0.008069  -0.007890   0.446690
    22  C    0.022517  -0.008727  -0.609927   0.004264  -0.006561  -0.003695
    23  H    0.000052  -0.000054  -0.000281   0.000009  -0.000031  -0.000293
    24  H   -0.000057   0.000025   0.000703  -0.000035   0.000011   0.000250
    25  C    0.005371  -0.005026  -0.014873   0.000452  -0.001166  -0.020415
    26  H    0.000011  -0.000036   0.000422   0.000000   0.000000  -0.000024
    27  H   -0.000032   0.000011  -0.001094   0.000000   0.000000  -0.000013
    28  C    0.000583  -0.000596  -0.037543   0.000073  -0.000101  -0.000292
    29  H    0.000000   0.000000   0.000167   0.000000   0.000000   0.000004
    30  H    0.000000   0.000001  -0.000239   0.000000   0.000000  -0.000009
    31  C    0.000053  -0.000058  -0.000624   0.000002  -0.000004  -0.000133
    32  H    0.000000   0.000000  -0.000014   0.000000   0.000000  -0.000001
    33  H    0.000000   0.000000   0.000008   0.000000   0.000000   0.000000
    34  C    0.000001  -0.000002  -0.000280   0.000000   0.000000  -0.000005
    35  H    0.000000   0.000000   0.000000   0.000000   0.000000   0.000000
    36  H    0.000000   0.000000   0.000000   0.000000   0.000000   0.000000
    37  H    0.000000   0.000000  -0.000001   0.000000   0.000000   0.000000
              13         14         15         16         17         18
     1  C   -0.004133  -0.161111   0.004357  -0.005789  -0.010666   0.000801
     2  C   -0.006196  -0.012139  -0.000703   0.000037  -0.008203   0.000209
     3  H   -0.000038  -0.000218   0.000000   0.000001  -0.000028   0.000000
     4  H    0.000011   0.000356   0.000000   0.000000   0.000022   0.000000
     5  H   -0.000067  -0.000854  -0.000022   0.000020  -0.000178   0.000000
     6  C   -0.040853  -0.104294  -0.017730   0.020587  -0.087550   0.008531
     7  H   -0.000640   0.004471   0.000060  -0.000068   0.001027   0.000000
     8  H    0.003339   0.000321  -0.000032   0.000017  -0.000652   0.000004
     9  C   -0.049114   0.117824   0.010753  -0.024363   0.015022   0.007834
    10  H   -0.007654  -0.005134  -0.000319   0.003866  -0.002799  -0.000045
    11  H    0.008676   0.009559   0.002052  -0.001162   0.004317   0.000017
    12  C    0.512213   0.079692  -0.051984  -0.035247  -0.067463   0.044191
    13  H    0.568307  -0.097158   0.007947  -0.003093   0.008716   0.001044
    14  C   -0.097158   5.644879   0.432364   0.460396   0.254882  -0.074411
    15  H    0.007947   0.432364   0.553219  -0.032748  -0.037548   0.003311
    16  H   -0.003093   0.460396  -0.032748   0.559354  -0.081722  -0.013647
    17  C    0.008716   0.254882  -0.037548  -0.081722   5.337013   0.390818
    18  H    0.001044  -0.074411   0.003311  -0.013647   0.390818   0.554706
    19  H   -0.000002  -0.031144  -0.015490   0.006772   0.442545  -0.024940
    20  H    0.003977  -0.031416   0.006895   0.002475   0.425716  -0.029643
    21  H   -0.038021  -0.056755  -0.011651   0.007936  -0.010633  -0.000215
    22  C   -0.000946  -0.015313   0.000054  -0.000169  -0.000780   0.000002
    23  H    0.000000  -0.000008   0.000000   0.000000   0.000000   0.000000
    24  H    0.000001   0.000008   0.000000   0.000000   0.000000   0.000000
    25  C   -0.000121  -0.000765  -0.000001  -0.000004  -0.000247   0.000001
    26  H    0.000000   0.000001   0.000000   0.000000   0.000000   0.000000
    27  H    0.000000  -0.000003   0.000000   0.000000   0.000000   0.000000
    28  C   -0.000006  -0.000310   0.000000  -0.000001  -0.000008   0.000000
    29  H    0.000000   0.000000   0.000000   0.000000   0.000000   0.000000
    30  H    0.000000   0.000000   0.000000   0.000000   0.000000   0.000000
    31  C    0.000000  -0.000002   0.000000   0.000000  -0.000001   0.000000
    32  H    0.000000   0.000000   0.000000   0.000000   0.000000   0.000000
    33  H    0.000000   0.000000   0.000000   0.000000   0.000000   0.000000
    34  C    0.000000  -0.000001   0.000000   0.000000   0.000000   0.000000
    35  H    0.000000   0.000000   0.000000   0.000000   0.000000   0.000000
    36  H    0.000000   0.000000   0.000000   0.000000   0.000000   0.000000
    37  H    0.000000   0.000000   0.000000   0.000000   0.000000   0.000000
              19         20         21         22         23         24
     1  C   -0.001133   0.000059  -0.005523  -0.485713  -0.031376   0.018684
     2  C   -0.000063  -0.000483   0.003530  -0.309702  -0.085249  -0.060830
     3  H    0.000000   0.000000   0.000009  -0.044286   0.008265  -0.006373
     4  H    0.000000   0.000000  -0.000032  -0.125376  -0.008929   0.008677
     5  H    0.000000   0.000000   0.000051   0.002687   0.003184  -0.000862
     6  C   -0.001643  -0.011160   0.025955  -0.121442  -0.008674   0.017482
     7  H   -0.000007   0.000012   0.003150   0.022517   0.000052  -0.000057
     8  H    0.000003  -0.000060  -0.000791  -0.008727  -0.000054   0.000025
     9  C   -0.023601   0.017234  -0.067763  -0.609927  -0.000281   0.000703
    10  H   -0.000021   0.000072   0.008069   0.004264   0.000009  -0.000035
    11  H    0.000018  -0.000058  -0.007890  -0.006561  -0.000031   0.000011
    12  C   -0.005287  -0.040884   0.446690  -0.003695  -0.000293   0.000250
    13  H   -0.000002   0.003977  -0.038021  -0.000946   0.000000   0.000001
    14  C   -0.031144  -0.031416  -0.056755  -0.015313  -0.000008   0.000008
    15  H   -0.015490   0.006895  -0.011651   0.000054   0.000000   0.000000
    16  H    0.006772   0.002475   0.007936  -0.000169   0.000000   0.000000
    17  C    0.442545   0.425716  -0.010633  -0.000780   0.000000   0.000000
    18  H   -0.024940  -0.029643  -0.000215   0.000002   0.000000   0.000000
    19  H    0.542282  -0.028419   0.000807  -0.000007   0.000000   0.000000
    20  H   -0.028419   0.559908  -0.000040   0.000007   0.000000   0.000000
    21  H    0.000807  -0.000040   0.558390  -0.000347   0.000000   0.000000
    22  C   -0.000007   0.000007  -0.000347   7.384877   0.477941   0.495076
    23  H    0.000000   0.000000   0.000000   0.477941   0.564489  -0.036832
    24  H    0.000000   0.000000   0.000000   0.495076  -0.036832   0.547948
    25  C    0.000000  -0.000002   0.000003  -0.232573  -0.053418  -0.113388
    26  H    0.000000   0.000000   0.000000  -0.084933   0.008552  -0.007791
    27  H    0.000000   0.000000   0.000000  -0.072257  -0.007719   0.008250
    28  C    0.000000   0.000000  -0.000002   0.040733   0.021968  -0.025476
    29  H    0.000000   0.000000   0.000000   0.016034   0.003063  -0.000522
    30  H    0.000000   0.000000   0.000000  -0.038388  -0.000873   0.003062
    31  C    0.000000   0.000000   0.000000  -0.057962   0.004267  -0.001309
    32  H    0.000000   0.000000   0.000000  -0.009047   0.000043  -0.000057
    33  H    0.000000   0.000000   0.000000   0.010923  -0.000046   0.000049
    34  C    0.000000   0.000000   0.000000  -0.104107   0.000697  -0.000718
    35  H    0.000000   0.000000   0.000000   0.006126   0.000002   0.000001
    36  H    0.000000   0.000000   0.000000  -0.001662  -0.000030   0.000006
    37  H    0.000000   0.000000   0.000000  -0.001833   0.000005  -0.000029
              25         26         27         28         29         30
     1  C   -0.082528   0.010893  -0.015080  -0.395167   0.009542  -0.012499
     2  C   -0.180984  -0.018806  -0.004586  -0.197136   0.011698  -0.012318
     3  H    0.035859   0.003131  -0.000856   0.017412  -0.000060   0.000029
     4  H   -0.035036  -0.000473   0.002955  -0.007511   0.000079  -0.000065
     5  H    0.011924  -0.000063   0.000022   0.000657  -0.000035   0.000016
     6  C   -0.389666  -0.002549  -0.000070  -0.007315   0.000435  -0.001259
     7  H    0.005371   0.000011  -0.000032   0.000583   0.000000   0.000000
     8  H   -0.005026  -0.000036   0.000011  -0.000596   0.000000   0.000001
     9  C   -0.014873   0.000422  -0.001094  -0.037543   0.000167  -0.000239
    10  H    0.000452   0.000000   0.000000   0.000073   0.000000   0.000000
    11  H   -0.001166   0.000000   0.000000  -0.000101   0.000000   0.000000
    12  C   -0.020415  -0.000024  -0.000013  -0.000292   0.000004  -0.000009
    13  H   -0.000121   0.000000   0.000000  -0.000006   0.000000   0.000000
    14  C   -0.000765   0.000001  -0.000003  -0.000310   0.000000   0.000000
    15  H   -0.000001   0.000000   0.000000   0.000000   0.000000   0.000000
    16  H   -0.000004   0.000000   0.000000  -0.000001   0.000000   0.000000
    17  C   -0.000247   0.000000   0.000000  -0.000008   0.000000   0.000000
    18  H    0.000001   0.000000   0.000000   0.000000   0.000000   0.000000
    19  H    0.000000   0.000000   0.000000   0.000000   0.000000   0.000000
    20  H   -0.000002   0.000000   0.000000   0.000000   0.000000   0.000000
    21  H    0.000003   0.000000   0.000000  -0.000002   0.000000   0.000000
    22  C   -0.232573  -0.084933  -0.072257   0.040733   0.016034  -0.038388
    23  H   -0.053418   0.008552  -0.007719   0.021968   0.003063  -0.000873
    24  H   -0.113388  -0.007791   0.008250  -0.025476  -0.000522   0.003062
    25  C    6.621950   0.490902   0.488444  -0.143206  -0.068687  -0.069993
    26  H    0.490902   0.563926  -0.039463  -0.072674   0.008470  -0.008103
    27  H    0.488444  -0.039463   0.568212  -0.069458  -0.007950   0.008588
    28  C   -0.143206  -0.072674  -0.069458   6.393744   0.443740   0.525344
    29  H   -0.068687   0.008470  -0.007950   0.443740   0.567056  -0.038943
    30  H   -0.069993  -0.008103   0.008588   0.525344  -0.038943   0.564092
    31  C    0.155464   0.001190  -0.001776   0.034535  -0.083507  -0.073731
    32  H   -0.017398  -0.000876   0.003244  -0.026349  -0.008703   0.008607
    33  H    0.008394   0.003463  -0.000808  -0.060557   0.008640  -0.008285
    34  C   -0.065420   0.003482   0.002842   0.066040  -0.001903   0.010968
    35  H    0.013806  -0.000008  -0.000009   0.045744   0.000068   0.000078
    36  H   -0.004112  -0.000021   0.000005  -0.026294   0.004357  -0.001135
    37  H   -0.008684  -0.000002  -0.000021  -0.021372  -0.001186   0.004274
              31         32         33         34         35         36
     1  C    0.000191  -0.001676   0.001010  -0.009902   0.000121  -0.000071
     2  C   -0.123875  -0.005598   0.007381  -0.008378   0.000724  -0.000620
     3  H    0.001227   0.000013  -0.000033   0.000173   0.000000   0.000000
     4  H   -0.000415  -0.000037   0.000009  -0.000116   0.000000   0.000000
     5  H   -0.000052   0.000001   0.000000   0.000001   0.000000   0.000000
     6  C   -0.008606  -0.000223   0.000143  -0.000645   0.000003  -0.000003
     7  H    0.000053   0.000000   0.000000   0.000001   0.000000   0.000000
     8  H   -0.000058   0.000000   0.000000  -0.000002   0.000000   0.000000
     9  C   -0.000624  -0.000014   0.000008  -0.000280   0.000000   0.000000
    10  H    0.000002   0.000000   0.000000   0.000000   0.000000   0.000000
    11  H   -0.000004   0.000000   0.000000   0.000000   0.000000   0.000000
    12  C   -0.000133  -0.000001   0.000000  -0.000005   0.000000   0.000000
    13  H    0.000000   0.000000   0.000000   0.000000   0.000000   0.000000
    14  C   -0.000002   0.000000   0.000000  -0.000001   0.000000   0.000000
    15  H    0.000000   0.000000   0.000000   0.000000   0.000000   0.000000
    16  H    0.000000   0.000000   0.000000   0.000000   0.000000   0.000000
    17  C   -0.000001   0.000000   0.000000   0.000000   0.000000   0.000000
    18  H    0.000000   0.000000   0.000000   0.000000   0.000000   0.000000
    19  H    0.000000   0.000000   0.000000   0.000000   0.000000   0.000000
    20  H    0.000000   0.000000   0.000000   0.000000   0.000000   0.000000
    21  H    0.000000   0.000000   0.000000   0.000000   0.000000   0.000000
    22  C   -0.057962  -0.009047   0.010923  -0.104107   0.006126  -0.001662
    23  H    0.004267   0.000043  -0.000046   0.000697   0.000002  -0.000030
    24  H   -0.001309  -0.000057   0.000049  -0.000718   0.000001   0.000006
    25  C    0.155464  -0.017398   0.008394  -0.065420   0.013806  -0.004112
    26  H    0.001190  -0.000876   0.003463   0.003482  -0.000008  -0.000021
    27  H   -0.001776   0.003244  -0.000808   0.002842  -0.000009   0.000005
    28  C    0.034535  -0.026349  -0.060557   0.066040   0.045744  -0.026294
    29  H   -0.083507  -0.008703   0.008640  -0.001903   0.000068   0.004357
    30  H   -0.073731   0.008607  -0.008285   0.010968   0.000078  -0.001135
    31  C    5.504466   0.436647   0.425750   0.179881  -0.068493  -0.022130
    32  H    0.436647   0.572353  -0.037004  -0.043822  -0.005025  -0.008818
    33  H    0.425750  -0.037004   0.569762  -0.059671  -0.005063   0.008801
    34  C    0.179881  -0.043822  -0.059671   5.389035   0.378592   0.422550
    35  H   -0.068493  -0.005025  -0.005063   0.378592   0.553730  -0.026910
    36  H   -0.022130  -0.008818   0.008801   0.422550  -0.026910   0.561199
    37  H   -0.023536   0.008847  -0.008712   0.424784  -0.026863  -0.034072
              37
     1  C   -0.000124
     2  C   -0.001282
     3  H    0.000000
     4  H    0.000000
     5  H    0.000000
     6  C   -0.000012
     7  H    0.000000
     8  H    0.000000
     9  C   -0.000001
    10  H    0.000000
    11  H    0.000000
    12  C    0.000000
    13  H    0.000000
    14  C    0.000000
    15  H    0.000000
    16  H    0.000000
    17  C    0.000000
    18  H    0.000000
    19  H    0.000000
    20  H    0.000000
    21  H    0.000000
    22  C   -0.001833
    23  H    0.000005
    24  H   -0.000029
    25  C   -0.008684
    26  H   -0.000002
    27  H   -0.000021
    28  C   -0.021372
    29  H   -0.001186
    30  H    0.004274
    31  C   -0.023536
    32  H    0.008847
    33  H   -0.008712
    34  C    0.424784
    35  H   -0.026863
    36  H   -0.034072
    37  H    0.560381
          Atomic-Atomic Spin Densities.
               1          2          3          4          5          6
     1  C    1.283892  -0.084335   0.015018  -0.076422   0.054138  -0.126883
     2  C   -0.084335  -0.026060  -0.000073   0.024244  -0.013787   0.031882
     3  H    0.015018  -0.000073   0.015445  -0.010589   0.000582  -0.018412
     4  H   -0.076422   0.024244  -0.010589   0.076258  -0.003963   0.045105
     5  H    0.054138  -0.013787   0.000582  -0.003963  -0.023462  -0.034810
     6  C   -0.126883   0.031882  -0.018412   0.045105  -0.034810   0.033621
     7  H   -0.087701   0.002813  -0.001928   0.008233  -0.003925   0.046572
     8  H    0.018294  -0.000859   0.001712  -0.001922   0.000571  -0.008161
     9  C    0.003521  -0.005188  -0.000983   0.002346  -0.000341   0.024078
    10  H   -0.003030  -0.000777  -0.000050   0.000060  -0.000196   0.000452
    11  H    0.002216  -0.000189   0.000013  -0.000063   0.000277   0.000767
    12  C   -0.029678   0.001383  -0.001575   0.002979  -0.003200   0.014647
    13  H   -0.000704  -0.000043  -0.000001   0.000001   0.000001  -0.000161
    14  C   -0.020261   0.000401  -0.000200   0.000417  -0.001192  -0.001726
    15  H   -0.000178  -0.000003   0.000000   0.000000   0.000000  -0.000155
    16  H    0.000424  -0.000001   0.000000   0.000000   0.000005   0.000421
[...]
 007441,0.00008392,-0.00002857,-0.00007193,0.00000070,-0.00000191,-0.00
 000073,-0.00000324,0.00000762,0.00000165,-0.00000034,-0.00000207,0.000
 00453,-0.00000149,-0.00000016,-0.00000082,-0.00000065,-0.00000054,-0.0
 0000526,0.00000264,0.00000003,-0.00000228,-0.00000374,-0.00000067,0.00
 000137,-0.00000028,0.00000205,-0.00000054,0.00000278,-0.00000109,0.000
 00244,-0.00000129,-0.00000002,-0.00000211,0.00000144,0.00000012,-0.000
 00123,-0.00000098,0.00000069,-0.00000044,0.00000106,-0.00000033,0.0000
 0052,0.00000002,-0.00000064,0.00000081,-0.00000032,-0.00000053,-0.0000
 0032,-0.00000013,0.,0.00000002,-0.00000002,0.00000019,-0.00000085,0.00
 000066,-0.00000009,0.00000002,0.00000006,-0.00013144,-0.00007165,0.000
 20383,0.00026717,-0.00010737,0.00021246,-0.00001330,0.00003948,-0.0000
 1744,0.00147029,0.00170521,-0.00043402,-0.00001359,-0.00104275,0.00046
 270,-0.00001934,-0.00012301,0.00003750,-0.01258434,0.02043237,-0.02640
 722,-0.00665951,-0.00034554,-0.00044160,0.00141077,0.00014505,0.000538
 54,-0.06688763,0.04393469,-0.05036514,0.00352447,-0.00842673,0.0093475
 4,0.07625226,-0.00000175,0.00001765,-0.00000174,0.00006657,-0.00001730
 ,0.00000949,0.00000043,0.00000373,0.,-0.00000263,0.00000047,-0.0000006
 4,0.00000090,0.00000143,0.00000085,0.00001021,-0.00000815,0.00000707,0
 .00000058,0.00000170,0.00000127,-0.00000082,0.00000356,-0.00000303,-0.
 00000120,0.00000683,0.00000307,0.00000072,-0.00000141,-0.00000049,-0.0
 0000114,0.00000058,-0.00000185,0.00000316,-0.00000399,0.00000086,-0.00
 000034,0.00000184,-0.00000157,-0.00000049,0.00000227,0.00000121,-0.000
 00052,0.00000049,-0.00000105,0.00000041,-0.00000062,-0.00000017,0.0000
 0121,-0.00000121,0.00000042,0.00000089,0.00000051,0.00000018,-0.000000
 07,-0.00000004,0.00000007,-0.00000044,0.00000095,-0.00000084,0.0000000
 5,-0.00000013,-0.00000006,-0.00009048,0.00022657,-0.00018676,-0.000116
 44,-0.00011550,0.00001158,0.00003291,-0.00002321,0.00000085,-0.0003592
 2,0.00066842,-0.00062305,0.00006892,0.00045825,0.00012823,0.00000570,0
 .00002123,-0.00005247,0.00040090,-0.00050490,-0.00001234,-0.00022382,0
 .00054213,-0.00033194,0.00030704,-0.00011812,-0.00003843,0.04397344,-0
 .14094180,0.11121326,-0.00364373,0.00706662,-0.00761620,-0.04591291,0.
 15686545,0.00000544,-0.00003087,0.00000091,-0.00008504,0.00001997,-0.0
 0003120,-0.00001628,-0.00002653,0.00002543,-0.00000290,0.00000182,-0.0
 0001129,0.00000694,-0.00000190,0.00000149,-0.00001056,0.00001120,-0.00
 000611,-0.00000070,-0.00000129,-0.00000380,-0.00000076,-0.00000497,0.0
 0000695,-0.00000085,-0.00000569,-0.00000091,0.00000047,0.00000078,-0.0
 0000113,0.00000287,-0.00000127,0.00000269,-0.00000247,0.00000414,-0.00
 000140,-0.00000002,-0.00000222,0.00000278,-0.00000026,-0.00000144,-0.0
 0000054,0.00000100,-0.00000080,0.00000146,0.00000006,0.00000025,-0.000
 00065,-0.00000086,0.00000129,-0.00000060,-0.00000035,-0.00000046,-0.00
 000010,-0.00000011,-0.00000008,-0.00000060,0.00000016,-0.00000098,0.00
 000132,-0.00000027,-0.00000024,-0.00000111,-0.00002448,-0.00041717,0.0
 0024435,0.00021654,0.00001474,0.00002931,0.00003245,0.00000707,-0.0000
 2755,0.00036895,0.00045049,-0.00002227,-0.00034514,-0.00063282,0.00030
 156,-0.00006175,0.00008153,-0.00009088,-0.00107497,0.00131637,-0.00222
 817,-0.00047890,-0.00036911,0.00164735,-0.00036340,-0.00031591,0.00089
 712,-0.05090343,0.11201076,-0.18338273,-0.00773525,0.01701286,-0.02144
 164,0.05782958,-0.12321257,0.19640774,0.00003511,-0.00029227,-0.000011
 22,-0.00081483,0.00025311,-0.00002613,0.00001375,-0.00000719,0.0000321
 2,0.00002258,0.00001848,-0.00002791,-0.00000950,0.00000978,-0.00000759
 ,-0.00010314,0.00006224,-0.00001052,-0.00000241,-0.00001440,-0.0000131
 1,0.00000096,-0.00000458,0.00000829,0.00001306,-0.00006111,-0.00000394
 ,-0.00000098,0.00000337,0.00000415,-0.00000111,0.00000316,-0.00000268,
 -0.00002516,0.00002365,0.00000216,0.00000111,-0.00000179,0.00000201,0.
 00000627,-0.00001875,-0.00000212,-0.00000076,0.00000133,-0.00000109,-0
 .00000075,0.00000144,0.00000158,-0.00000825,0.00000612,0.00000072,-0.0
 0000760,-0.00000371,0.00000003,0.00000169,-0.00000124,-0.00000110,0.00
 000189,-0.00000154,0.00000093,0.00000036,-0.00000123,-0.00000160,0.000
 23147,-0.00217694,-0.00042922,0.00005405,0.00005759,-0.00007409,0.0000
 5514,0.00002786,0.00009906,-0.00630428,0.00189951,-0.00008333,0.000001
 56,-0.00015676,0.00031027,0.00005514,-0.00008198,-0.00039518,-0.015020
 07,-0.03462622,-0.00717579,0.00157345,-0.00038111,0.00034127,0.0015099
 1,-0.00038586,-0.00022524,-0.09034817,-0.03185815,-0.00647514,0.004606
 43,0.01139784,0.00161367,0.00300135,0.00751968,0.00215235,0.55313323,-
 0.00002037,0.00008763,0.00000103,0.00021160,-0.00007198,0.00001518,-0.
 00000012,0.00001101,-0.00000477,-0.00000207,0.00000440,0.00000451,0.00
 000822,-0.00000385,0.00000430,0.00004068,-0.00002062,0.00000301,0.0000
 0106,0.00000664,0.00000475,0.00000043,0.00000115,-0.00000206,-0.000008
 81,0.00002741,0.00000291,0.00000099,-0.00000166,-0.00000273,0.00000157
 ,-0.00000210,0.00000255,0.00001197,-0.00001115,-0.00000211,-0.00000056
 ,0.00000029,-0.00000018,-0.00000410,0.00000987,0.00000041,0.00000078,-
 0.00000100,0.00000122,0.00000055,-0.00000079,-0.00000123,0.00000450,-0
 .00000313,-0.00000004,0.00000457,0.00000202,-0.00000014,-0.00000113,0.
 00000066,0.00000033,-0.00000110,0.00000061,-0.00000012,-0.00000027,0.0
 0000050,0.00000021,0.00033889,0.00063496,0.00001995,-0.00006855,-0.000
 01227,0.00001541,-0.00003528,-0.00000570,-0.00001222,0.00138458,-0.000
 08899,0.00017647,-0.00010084,0.00010099,-0.00019532,-0.00010753,-0.000
 05461,0.00007535,-0.00555553,-0.00129434,-0.00054006,0.00135285,0.0008
 3415,0.00019201,0.00115614,0.00056561,0.00017747,-0.03375798,-0.172043
 00,-0.01895876,-0.00488726,-0.01249752,-0.00206585,-0.00845048,-0.0211
 3120,-0.00508535,-0.03109826,0.47627584,0.00000460,-0.00000783,-0.0000
 1215,-0.00001908,0.00000879,-0.00003496,-0.00000418,0.00000390,0.00000
 795,0.00000584,-0.00000169,0.00000543,-0.00000208,0.00000163,0.0000050
 2,-0.00000221,0.00000339,-0.00000259,0.00000047,-0.00000163,-0.0000004
 1,-0.00000013,0.00000095,0.00000062,-0.00000085,0.00000096,0.00000478,
 0.00000052,-0.00000104,-0.00000211,-0.00000007,0.00000077,-0.00000126,
 0.00000057,-0.00000056,0.00000103,-0.00000028,0.00000085,-0.00000027,-
 0.00000015,0.00000063,0.00000217,-0.00000042,0.00000048,-0.00000062,0.
 00000049,-0.00000053,-0.00000105,0.00000074,-0.00000018,-0.00000010,0.
 00000028,0.00000005,0.00000036,0.00000012,-0.00000049,-0.00000047,-0.0
 0000042,0.00000053,-0.00000022,0.00000018,-0.00000092,-0.00000088,0.00
 002546,-0.00016511,0.00066700,0.00008896,0.00001049,-0.00002922,-0.000
 09386,0.00000435,-0.00003715,-0.00017363,0.00021772,-0.00052841,0.0000
 0006,-0.00037083,0.00026103,-0.00007963,0.00024598,0.00036016,-0.00203
 381,-0.00262385,-0.00121730,-0.00024763,-0.00072985,0.00007299,0.00088
 953,0.00083750,0.00040195,-0.00677118,-0.01881209,-0.08240126,-0.01133
 613,-0.02745775,-0.00482232,0.00945234,0.02268196,0.00538253,-0.005663
 99,-0.01619750,0.55343424,0.00003332,-0.00007529,-0.00000174,-0.000179
 32,0.00010280,0.00000365,0.00000531,-0.00001022,0.00000810,0.00000528,
 -0.00000234,-0.00000883,-0.00000576,0.00000201,0.00000032,-0.00003475,
 0.00002936,-0.00000383,-0.00000311,-0.00001220,-0.00000986,-0.00000078
 ,-0.00000301,0.00000566,0.00001100,-0.00002933,-0.00000181,0.00000062,
 0.00000210,0.00000072,-0.00000057,0.00000195,-0.00000065,-0.00001357,0
 .00001608,0.00000100,0.00000063,-0.00000162,0.00000197,0.00000607,-0.0
 0001208,-0.00000083,-0.00000049,0.00000091,-0.00000030,-0.00000033,0.0
 0000078,0.00000020,-0.00000609,0.00000509,0.00000057,-0.00000764,-0.00
 000272,0.00000018,0.00000182,-0.00000153,-0.00000176,0.00000196,-0.000
 00163,0.00000133,0.00000006,-0.00000179,-0.00000208,0.00009499,-0.0003
 9571,-0.00006529,0.00000156,0.00001824,-0.00001189,0.00000047,0.000013
 62,0.00001490,-0.00067457,0.00069108,0.00003128,-0.00000792,-0.0000882
 5,0.00005973,-0.00000320,-0.00007490,-0.00008625,0.00079293,-0.0033986
 2,-0.00055703,0.00029864,0.00010957,0.00007869,0.00036978,0.00011601,-
 0.00002558,-0.00971581,0.00145501,-0.00034902,0.00053385,-0.00016786,-
 0.00053496,0.00040007,-0.00033671,0.00051214,-0.30474289,0.00477060,-0
 .01796338,0.33165008,0.00002110,-0.00010816,-0.00000111,-0.00027021,0.
 00010586,-0.00000693,0.00000441,-0.00000685,0.00001111,0.00000724,0.00
 000334,-0.00000970,-0.00000542,0.00000371,-0.00000341,-0.00004071,0.00
 002593,-0.00000529,-0.00000143,-0.00000692,-0.00000586,-0.00000002,-0.
 00000150,0.00000365,0.00000716,-0.00002676,-0.00000212,-0.00000032,0.0
 0000154,0.00000202,-0.00000079,0.00000144,-0.00000151,-0.00001122,0.00
 001116,0.00000118,0.00000047,-0.00000078,0.00000095,0.00000331,-0.0000
 0881,-0.00000082,-0.00000040,0.00000058,-0.00000058,-0.00000041,0.0000
 0059,0.00000076,-0.00000399,0.00000300,0.00000024,-0.00000393,-0.00000
 185,0.00000005,0.00000089,-0.00000060,-0.00000062,0.00000098,-0.000000
 76,0.00000054,0.00000013,-0.00000060,-0.00000073,0.00001815,-0.0007417
 7,-0.00013080,0.00001639,0.00001780,-0.00002944,0.00001158,0.00000793,
 0.00003336,-0.00198063,0.00071391,-0.00011935,0.00004277,0.00002762,0.
 00010670,0.00004359,0.00003202,-0.00008233,-0.00011265,-0.00629244,-0.
 00115771,0.00001119,0.00009842,-0.00033127,0.00012020,-0.00003280,0.00
 026822,-0.03245839,0.00143383,-0.00186934,0.00061922,0.00127590,-0.000
 15970,0.00042310,0.00116056,0.00065719,0.00602571,-0.04663808,0.000515
 96,-0.00390437,0.05067278,0.00000610,-0.00002317,-0.00000425,-0.000061
 40,0.00002511,0.00000527,0.00000139,0.00000086,0.00000024,0.00000277,-
 0.00000182,-0.00000555,-0.00000135,0.00000107,-0.00000083,-0.00000931,
 0.00000664,0.00000010,-0.00000037,-0.00000228,-0.00000220,-0.00000019,
 -0.00000033,0.00000054,0.00000210,-0.00000691,-0.00000014,0.00000009,0
 .00000022,0.00000032,-0.00000037,0.00000064,-0.00000042,-0.00000290,0.
 00000299,0.00000087,0.00000006,-0.00000001,0.00000002,0.00000106,-0.00
 000242,-0.00000013,-0.00000022,0.00000034,-0.00000027,-0.00000002,0.,0
 .00000004,-0.00000111,0.00000085,0.00000040,-0.00000124,-0.00000051,0.
 00000007,0.00000033,-0.00000031,-0.00000037,0.00000026,-0.00000009,0.0
 0000004,0.00000004,-0.00000037,-0.00000051,0.00001084,-0.00015655,-0.0
 0004526,0.00000085,0.00000852,-0.00000216,0.00000377,-0.00000249,0.000
 00946,-0.00043917,0.00007340,0.00056578,-0.00002568,-0.00007621,-0.000
 01584,0.00004325,0.00008237,-0.00002695,0.00001856,-0.00140047,0.00002
 932,0.00045610,-0.00009418,0.00020373,-0.00041786,0.00004024,0.0002637
 0,-0.00629860,0.00060373,-0.00179457,-0.00022540,0.00031305,-0.0000348
 0,0.00047150,0.00006508,0.00019995,-0.01773581,0.00042703,-0.04835489,
 0.02013707,0.00049525,0.04780959,-0.00000854,0.00001333,0.00000115,0.0
 0003402,-0.00001084,-0.00000887,0.00000182,0.00000774,-0.00000066,-0.0
 0000097,0.00000298,0.00000497,0.00000037,-0.00000094,-0.00000116,0.000
 00706,-0.00000681,0.00000039,0.00000085,0.00000369,0.00000304,0.000000
 44,0.00000088,-0.00000124,-0.00000252,0.00000681,-0.00000015,-0.000000
 60,-0.00000044,0.00000043,0.00000013,-0.00000075,0.00000002,0.00000318
 ,-0.00000421,-0.00000068,-0.00000010,0.00000032,-0.00000036,-0.0000016
 0,0.00000304,0.00000012,0.00000019,-0.00000041,0.00000013,-0.00000006,
 -0.00000008,0.00000022,0.00000151,-0.00000132,-0.00000040,0.00000207,0
 .00000069,-0.00000013,-0.00000055,0.00000056,0.00000064,-0.00000046,0.
 00000032,-0.00000025,0.,0.00000083,0.00000086,-0.00001822,0.00007913,-
 0.00001823,-0.00003051,-0.00000141,-0.00001725,-0.00000314,-0.00000474
 ,0.00000298,-0.00000083,-0.00017596,-0.00004518,-0.00008043,0.00012096
 ,-0.00009588,0.00000329,0.00003365,0.00003191,0.00117100,-0.00039111,0
 .00124089,0.00001465,0.00012801,-0.00035426,-0.00005703,-0.00003114,0.
 00002362,0.00232347,-0.00749050,0.00928099,0.00017644,0.00080743,-0.00
 009145,-0.00025036,-0.00248923,-0.00029388,-0.06407945,0.04144109,-0.0
 4794524,-0.00746396,0.02047336,-0.02460640,0.06539812,0.00000847,-0.00
 001064,-0.00000093,-0.00000413,0.00001621,0.00000817,0.00000569,0.0000
 0698,-0.00000680,0.00000235,-0.00000606,0.00000046,-0.00000572,0.00000
 230,0.00000062,-0.00000592,0.00000242,0.00000196,-0.00000028,-0.000003
 04,-0.00000122,-0.00000016,0.00000261,-0.00000216,0.00000340,-0.000005
 79,0.00000054,0.00000020,-0.00000015,0.00000044,-0.00000205,0.00000149
 ,-0.00000224,-0.00000255,0.00000220,0.00000199,0.00000007,0.00000117,-
 0.00000115,0.00000152,-0.00000259,0.00000078,-0.00000082,0.00000084,-0
 .00000114,0.00000005,-0.00000010,0.00000018,-0.00000110,0.00000063,0.0
 0000048,-0.00000162,-0.00000051,0.00000018,0.00000053,-0.00000047,-0.0
 0000026,0.00000028,0.00000033,-0.00000050,0.00000020,-0.00000060,-0.00
 000026,-0.00001376,0.00004168,-0.00008125,-0.00007165,0.00000029,-0.00
 002295,-0.00000239,0.00000035,0.00000311,-0.00012318,0.00005439,-0.000
 29963,0.00010492,0.00033169,-0.00010588,0.00002960,-0.00003931,0.00001
 704,0.00167825,0.00104843,0.00073512,-0.00101811,0.00041730,-0.0005684
 5,-0.00010899,0.00002327,-0.00006210,0.00777375,-0.02094409,0.02341697
 ,0.00062489,0.00107984,-0.00030380,-0.00274647,-0.00526875,-0.00195531
 ,0.04088722,-0.14698878,0.11769706,0.00060021,-0.00065085,-0.00022278,
 -0.04375939,0.16333813,-0.00000848,0.00001881,0.00000119,0.00003820,-0
 .00001272,0.00000456,-0.00000034,-0.00000556,0.00000146,-0.00000085,-0
 .00000108,-0.00000191,0.00000478,-0.00000228,0.00000144,0.00000766,-0.
 00000292,-0.00000093,0.00000019,0.00000118,0.00000036,0.00000027,-0.00
 000264,0.00000132,-0.00000311,0.00000567,-0.00000161,-0.00000002,0.000
 00023,-0.00000129,0.00000147,-0.00000107,0.00000262,0.00000246,-0.0000
 0149,-0.00000086,0.00000004,-0.00000123,0.00000107,-0.00000158,0.00000
 240,-0.00000043,0.00000068,-0.00000073,0.00000140,0.00000002,0.0000000
 8,-0.00000065,0.00000099,-0.00000035,-0.00000040,0.00000149,0.00000046
 ,-0.00000018,-0.00000046,0.00000022,0.,-0.00000021,-0.00000043,0.00000
 057,-0.00000013,0.00000007,-0.00000017,-0.00000223,0.00011161,-0.00003
 536,-0.00000108,-0.00000005,0.00002287,0.00000237,0.00000361,-0.000008
 18,0.00027750,-0.00020472,0.00023230,-0.00009117,-0.00009073,-0.000077
 07,-0.00000285,-0.00002113,-0.00002344,0.00018001,-0.00012196,0.000278
 77,0.00043129,0.00020822,0.00018940,-0.00005517,0.00008889,-0.00008967
 ,0.00191511,-0.00460567,0.00539020,0.00041361,0.00047317,0.00088696,-0
 .00070337,-0.00176120,0.00123428,-0.04759464,0.11833757,-0.18600298,-0
 .00048371,0.00010824,-0.00155687,0.05363840,-0.12996589,0.19988225,-0.
 00000915,0.00001570,-0.00000130,0.00003816,-0.00001599,0.00000390,-0.0
 0000109,0.00000549,-0.00000317,0.00000217,0.00000543,0.00000279,0.0000
 0090,-0.00000029,-0.00000031,0.00000867,-0.00000748,0.00000348,0.00000
 098,0.00000303,0.00000217,-0.00000002,0.00000154,-0.00000186,-0.000002
 98,0.00000763,0.00000060,-0.00000006,-0.00000094,-0.00000037,-0.000000
 14,-0.00000031,-0.00000023,0.00000367,-0.00000459,0.00000040,-0.000000
 23,0.00000086,-0.00000076,-0.00000186,0.00000348,0.00000083,0.,-0.0000
 0008,-0.00000012,0.00000024,-0.00000049,-0.00000033,0.00000175,-0.0000
 0149,0.00000007,0.00000233,0.00000079,0.00000002,-0.00000047,0.0000003
 0,0.00000023,-0.00000068,0.00000069,-0.00000049,0.00000005,0.00000033,
 0.00000019,-0.00002292,0.00007973,0.00005508,-0.00000186,-0.00000381,-
 0.00000267,-0.00003066,-0.00000505,0.00000836,0.00004497,-0.00019411,-
 0.00005829,0.00000481,0.00003822,-0.00001515,-0.00011088,0.00006086,0.
 00011621,0.00132700,-0.00001826,-0.00114204,-0.00004212,0.00000220,-0.
 00003594,0.00004317,0.00000454,0.00037119,0.00384347,-0.00393197,-0.01
 090474,-0.00022106,-0.00244526,-0.00084983,0.00020341,0.00078819,0.000
 27367,-0.08284915,0.03336916,0.08186815,-0.01134765,0.01094393,0.02867
 125,0.00286070,-0.00385332,-0.00796714,0.08625653,0.00000222,-0.000000
 70,0.00000579,0.00001048,0.00001228,-0.00000207,0.00000225,-0.00000661
 ,-0.00000102,0.00000257,0.00000334,0.00000848,-0.00000080,-0.00000051,
 -0.00000232,-0.00000287,0.00000219,-0.00000524,-0.00000022,-0.00000040
 ,0.00000113,0.00000026,-0.00000199,0.00000053,0.00000244,-0.00000419,-
 0.00000193,-0.00000131,0.00000114,0.00000137,0.00000017,0.00000003,0.0
 0000037,-0.00000204,0.00000216,-0.00000077,0.00000026,-0.00000083,0.00
 000031,0.00000095,-0.00000191,-0.00000087,0.00000009,-0.00000009,0.000
 00016,-0.00000054,0.00000057,0.00000071,-0.00000095,0.00000065,-0.0000
 0024,-0.00000105,-0.00000038,-0.00000011,0.00000020,0.00000012,0.00000
 029,0.00000039,-0.00000050,0.00000020,0.00000009,0.00000047,0.00000083
 ,-0.00002797,0.00004295,0.00010325,-0.00000125,0.00000155,0.,-0.000067
 72,-0.00000279,0.00000188,-0.00004836,-0.00008030,0.00018139,0.0000285
 9,-0.00004091,-0.00001803,0.00004510,0.00021840,0.00021810,0.00167805,
 0.00108750,-0.00016480,-0.00012664,0.00002565,0.00008478,-0.00091273,0
 .00029509,0.00047716,0.01163414,-0.01189456,-0.02791196,-0.00284977,-0
 .00557650,-0.00094342,0.00068044,0.00108511,0.00047651,0.03297497,-0.0
 7769295,-0.07586207,0.00058473,-0.00107839,-0.00015648,-0.00875554,0.0
 0754919,0.01744343,-0.03484867,0.08605612,0.00000506,-0.00001447,0.000
 00799,-0.00003098,0.00001478,-0.00000137,0.00000245,-0.00000109,-0.000
 00193,-0.00000023,0.00000803,0.00000788,-0.00000254,0.00000037,-0.0000
 0638,-0.00000721,0.00000259,-0.00000387,-0.00000049,0.00000097,0.00000
 187,0.00000034,-0.00000048,-0.00000039,0.00000394,-0.00000676,-0.00000
 301,-0.00000179,0.00000106,0.00000348,-0.00000028,0.00000011,-0.000001
 03,-0.00000319,0.00000216,-0.00000066,0.00000031,-0.00000027,-0.000000
 31,0.00000178,-0.00000295,-0.00000160,-0.00000014,0.00000004,-0.000000
 58,-0.00000077,0.00000074,0.00000185,-0.00000131,0.00000056,-0.0000001
 8,-0.00000167,-0.00000054,-0.00000018,0.00000028,0.00000042,0.00000078
 ,0.00000056,-0.00000033,-0.00000014,0.00000006,0.00000124,0.00000161,-
 0.00000357,-0.00007267,-0.00002886,-0.00000217,-0.00000022,-0.00001045
 ,-0.00003085,-0.00000976,0.00002434,-0.00034682,0.00007100,0.00032366,
 0.00001754,0.00002097,-0.00002445,0.00010556,0.00020618,0.00006659,0.0
 0055872,0.00042228,0.00007484,0.00003132,-0.00004659,-0.00010605,-0.00
 078743,-0.00015306,0.00026105,0.00182483,-0.00218121,-0.00501171,-0.00
 055597,-0.00108831,0.00151070,-0.00027647,-0.00027904,0.00086548,0.081
 39283,-0.07639326,-0.23715663,-0.00074874,0.00171323,0.00275657,0.0092
 5089,-0.00828038,-0.02033102,-0.09039384,0.08606465,0.25678209\\0.0000
 0190,0.00000157,-0.00000154,0.00000079,0.00000839,-0.00000160,0.000001
 85,-0.00000363,-0.00000317,-0.00000319,0.00000139,-0.00000306,-0.00000
 353,0.00000166,0.00000483,0.00000088,-0.00000236,0.00000040,-0.0000031
 9,0.00000487,-0.00000444,0.00000071,-0.00000015,-0.00000582,-0.0000056
 3,-0.00000110,0.00000189,0.00000207,-0.00000142,0.00000364,-0.00000170
 ,0.00000384,0.00000359,0.00000485,0.00000425,-0.00000115,-0.00000075,-
 0.00000135,-0.00000366,-0.00000561,0.00000087,0.00000277,-0.00000047,0
 .00000366,0.00000492,0.00000183,-0.00000153,0.00000461,0.00000040,0.00
 000239,-0.00000103,-0.00000094,0.00000121,0.00000257,-0.00000320,0.000
 00337,-0.00000189,0.00000044,-0.00000187,-0.00000221,-0.00000349,0.000
 00373,-0.00000291,-0.00000096,-0.00000455,-0.00000027,-0.00000080,0.00
 000309,0.00000328,0.00000182,-0.00000293,0.00000337,-0.00000010,-0.000
 00086,-0.00000181,0.00000195,-0.00000333,-0.00000469,-0.00000111,0.000
 00216,-0.00000347,0.00000164,-0.00000064,0.00000061,-0.00000078,0.0000
 0104,0.00000349,0.00000309,-0.00000470,0.00000314,0.00000102,-0.000001
 49,-0.00000193,-0.00000083,0.00000053,-0.00000358,0.00000318,-0.000004
 28,-0.00000411,0.00000186,-0.00000308,0.00000226,0.00000227,-0.0000027
 8,-0.00000054,0.00000014,-0.00000068,0.00000391,0.00000359,-0.00000529
 ,0.00000361\\\@


 Mondays are the potholes in the road of life.
                                -- Tom Wilson
 Job cpu time:       0 days  5 hours 11 minutes 37.1 seconds.
 File lengths (MBytes):  RWF=   1071 Int=      0 D2E=      0 Chk=     19 Scr=      1
 Normal termination of Gaussian 09 at Tue Apr 23 12:53:06 2024.
