	You are loading a legacy vmd module, please load an up to date module instead.


	 module load container_env vmd

	Please run vmd command with crun.vmd prepend to it:
	
	 crun.vmd vmd

	 
module: Command not found.
module: Command not found.
 Entering Gaussian System, Link 0=g09
 Initial command:
 /opt/gaussian/g09/l1.exe "/tmp/G09-53.com.o10577445.tmp/Gau-1853036.inp" -scrdir="/tmp/G09-53.com.o10577445.tmp/"
 Entering Link 1 = /opt/gaussian/g09/l1.exe PID=   1853037.
  
 Copyright (c) 1988,1990,1992,1993,1995,1998,2003,2009,2013,
            Gaussian, Inc.  All Rights Reserved.
  
 This is part of the Gaussian(R) 09 program.  It is based on
 the Gaussian(R) 03 system (copyright 2003, Gaussian, Inc.),
 the Gaussian(R) 98 system (copyright 1998, Gaussian, Inc.),
 the Gaussian(R) 94 system (copyright 1995, Gaussian, Inc.),
 the Gaussian 92(TM) system (copyright 1992, Gaussian, Inc.),
 the Gaussian 90(TM) system (copyright 1990, Gaussian, Inc.),
 the Gaussian 88(TM) system (copyright 1988, Gaussian, Inc.),
 the Gaussian 86(TM) system (copyright 1986, Carnegie Mellon
 University), and the Gaussian 82(TM) system (copyright 1983,
 Carnegie Mellon University). Gaussian is a federally registered
 trademark of Gaussian, Inc.
  
 This software contains proprietary and confidential information,
 including trade secrets, belonging to Gaussian, Inc.
  
 This software is provided under written license and may be
 used, copied, transmitted, or stored only in accord with that
 written license.
  
 The following legend is applicable only to US Government
 contracts under FAR:
  
                    RESTRICTED RIGHTS LEGEND
  
 Use, reproduction and disclosure by the US Government is
 subject to restrictions as set forth in subparagraphs (a)
 and (c) of the Commercial Computer Software - Restricted
 Rights clause in FAR 52.227-19.
  
 Gaussian, Inc.
 340 Quinnipiac St., Bldg. 40, Wallingford CT 06492
  
  
 ---------------------------------------------------------------
 Warning -- This program may not be used in any manner that
 competes with the business of Gaussian, Inc. or will provide
 assistance to any competitor of Gaussian, Inc.  The licensee
 of this program is prohibited from giving any competitor of
 Gaussian, Inc. access to this program.  By using this program,
 the user acknowledges that Gaussian, Inc. is engaged in the
 business of creating and licensing software in the field of
 computational chemistry and represents and warrants to the
 licensee that it is not a competitor of Gaussian, Inc. and that
 it will not use this program in any manner prohibited above.
 ---------------------------------------------------------------
  

 Cite this work as:
 Gaussian 09, Revision D.01,
 M. J. Frisch, G. W. Trucks, H. B. Schlegel, G. E. Scuseria, 
 M. A. Robb, J. R. Cheeseman, G. Scalmani, V. Barone, B. Mennucci, 
 G. A. Petersson, H. Nakatsuji, M. Caricato, X. Li, H. P. Hratchian, 
 A. F. Izmaylov, J. Bloino, G. Zheng, J. L. Sonnenberg, M. Hada, 
 M. Ehara, K. Toyota, R. Fukuda, J. Hasegawa, M. Ishida, T. Nakajima, 
 Y. Honda, O. Kitao, H. Nakai, T. Vreven, J. A. Montgomery, Jr., 
 J. E. Peralta, F. Ogliaro, M. Bearpark, J. J. Heyd, E. Brothers, 
 K. N. Kudin, V. N. Staroverov, T. Keith, R. Kobayashi, J. Normand, 
 K. Raghavachari, A. Rendell, J. C. Burant, S. S. Iyengar, J. Tomasi, 
 M. Cossi, N. Rega, J. M. Millam, M. Klene, J. E. Knox, J. B. Cross, 
 V. Bakken, C. Adamo, J. Jaramillo, R. Gomperts, R. E. Stratmann, 
 O. Yazyev, A. J. Austin, R. Cammi, C. Pomelli, J. W. Ochterski, 
 R. L. Martin, K. Morokuma, V. G. Zakrzewski, G. A. Voth, 
 P. Salvador, J. J. Dannenberg, S. Dapprich, A. D. Daniels, 
 O. Farkas, J. B. Foresman, J. V. Ortiz, J. Cioslowski, 
 and D. J. Fox, Gaussian, Inc., Wallingford CT, 2013.
 
 ******************************************
 Gaussian 09:  ES64L-G09RevD.01 24-Apr-2013
                23-Apr-2024 
 ******************************************
 %nprocshared=20
 Will use up to   20 processors via shared memory.
 %mem=4GB
 %chk=53.chk
 ----------------------------------------------------------------------
 # opt freq=noraman b3lyp/6-311+g(d,p) pop=(npa,hirshfeld,chelpg,mbs) g
 eom=connectivity
 ----------------------------------------------------------------------
 1/14=-1,18=20,19=15,26=3,38=1,57=2/1,3;
 2/9=110,12=2,17=6,18=5,40=1/2;
 3/5=4,6=6,7=111,11=2,16=1,25=1,30=1,71=1,74=-5/1,2,3;
 4//1;
 5/5=2,38=5/2;
 6/7=2,8=2,9=2,10=2,15=8,20=3,27=100,28=1,40=-1,79=1/1,2,7;
 7//1,2,3,16;
 1/14=-1,18=20,19=15,26=3/3(2);
 2/9=110/2;
 99//99;
 2/9=110/2;
 3/5=4,6=6,7=111,11=2,16=1,25=1,30=1,71=1,74=-5/1,2,3;
 4/5=5,16=3,69=1/1;
 5/5=2,38=5/2;
 7//1,2,3,16;
 1/14=-1,18=20,19=15,26=3/3(-5);
 2/9=110/2;
 6/7=2,8=2,9=2,10=2,15=8,19=2,20=3,27=100,28=1,40=-1,79=1/1,2,7;
 99/9=1/99;
 -------------------
 Title Card Required
 -------------------
 Symbolic Z-matrix:
 Charge =  0 Multiplicity = 1
 C                    -0.84601   1.05486   0.76 
 H                    -0.00187   1.66868   0.9957 
 H                    -1.46617   1.55914   0.04866 
 C                    -0.36011  -0.27896   0.16299 
 H                    -1.05718  -0.61366  -0.57658 
 H                    -0.28513  -1.01109   0.93968 
 C                     1.02115  -0.07732  -0.48746 
 H                     0.97772   0.74665  -1.16871 
 H                     1.74686   0.12579   0.27214 
 C                     1.42042  -1.35391  -1.25068 
 H                     0.70769  -1.54364  -2.02587 
 H                     1.44043  -2.18249  -0.57397 
 C                     2.81671  -1.16488  -1.87218 
 H                     2.80005  -0.32816  -2.5389 
 H                     3.53167  -0.98823  -1.09596 
 C                     3.20796  -2.43434  -2.65127 
 H                     2.49449  -2.60947  -3.42922 
 H                     3.22197  -3.27154  -1.98509 
 C                    -1.19805   1.71675   3.14119 
 C                    -3.13297   0.94729   1.75551 
 C                    -2.02482   1.53688   4.39803 
 H                    -1.28528   2.77739   2.7865 
 H                    -0.11772   1.52666   3.37223 
 C                    -3.95979   0.7666    3.01222 
 H                    -3.31703   1.96944   1.33163 
 H                    -3.4537    0.19979   0.98426 
 C                    -3.50345   1.70256   4.11276 
 H                    -1.70478   2.28553   5.16847 
 H                    -1.83937   0.51546   4.82311 
 H                    -5.04003   0.95714   2.78133 
 H                    -3.87285  -0.29447   3.36582 
 H                    -4.09085   1.49982   5.04573 
 H                    -3.70805   2.76293   3.80926 
 N                    -1.65427   0.77946   2.04159 
 H                     4.17925  -2.30404  -3.08082 
 

 GradGradGradGradGradGradGradGradGradGradGradGradGradGradGradGradGradGrad
 Berny optimization.
 Initialization pass.
                           ----------------------------
                           !    Initial Parameters    !
                           ! (Angstroms and Degrees)  !
 --------------------------                            --------------------------
 ! Name  Definition              Value          Derivative Info.                !
 --------------------------------------------------------------------------------
 ! R1    R(1,2)                  1.07           estimate D2E/DX2                !
 ! R2    R(1,3)                  1.07           estimate D2E/DX2                !
 ! R3    R(1,4)                  1.54           estimate D2E/DX2                !
 ! R4    R(1,34)                 1.54           estimate D2E/DX2                !
 ! R5    R(4,5)                  1.07           estimate D2E/DX2                !
 ! R6    R(4,6)                  1.07           estimate D2E/DX2                !
 ! R7    R(4,7)                  1.54           estimate D2E/DX2                !
 ! R8    R(7,8)                  1.07           estimate D2E/DX2                !
 ! R9    R(7,9)                  1.07           estimate D2E/DX2                !
 ! R10   R(7,10)                 1.54           estimate D2E/DX2                !
 ! R11   R(10,11)                1.07           estimate D2E/DX2                !
 ! R12   R(10,12)                1.07           estimate D2E/DX2                !
 ! R13   R(10,13)                1.54           estimate D2E/DX2                !
 ! R14   R(13,14)                1.07           estimate D2E/DX2                !
 ! R15   R(13,15)                1.07           estimate D2E/DX2                !
 ! R16   R(13,16)                1.54           estimate D2E/DX2                !
 ! R17   R(16,17)                1.07           estimate D2E/DX2                !
 ! R18   R(16,18)                1.07           estimate D2E/DX2                !
 ! R19   R(16,35)                1.07           estimate D2E/DX2                !
 ! R20   R(19,21)                1.5151         estimate D2E/DX2                !
 ! R21   R(19,22)                1.1218         estimate D2E/DX2                !
 ! R22   R(19,23)                1.121          estimate D2E/DX2                !
 ! R23   R(19,34)                1.5152         estimate D2E/DX2                !
 ! R24   R(20,24)                1.5151         estimate D2E/DX2                !
 ! R25   R(20,25)                1.1218         estimate D2E/DX2                !
 ! R26   R(20,26)                1.1209         estimate D2E/DX2                !
 ! R27   R(20,34)                1.5154         estimate D2E/DX2                !
 ! R28   R(21,27)                1.515          estimate D2E/DX2                !
 ! R29   R(21,28)                1.1209         estimate D2E/DX2                !
 ! R30   R(21,29)                1.1218         estimate D2E/DX2                !
 ! R31   R(24,27)                1.5151         estimate D2E/DX2                !
 ! R32   R(24,30)                1.121          estimate D2E/DX2                !
 ! R33   R(24,31)                1.1218         estimate D2E/DX2                !
 ! R34   R(27,32)                1.121          estimate D2E/DX2                !
 ! R35   R(27,33)                1.1218         estimate D2E/DX2                !
 ! A1    A(2,1,3)              109.4712         estimate D2E/DX2                !
 ! A2    A(2,1,4)              109.4713         estimate D2E/DX2                !
 ! A3    A(2,1,34)             109.4712         estimate D2E/DX2                !
 ! A4    A(3,1,4)              109.4712         estimate D2E/DX2                !
 ! A5    A(3,1,34)             109.4712         estimate D2E/DX2                !
 ! A6    A(4,1,34)             109.4712         estimate D2E/DX2                !
 ! A7    A(1,4,5)              109.4712         estimate D2E/DX2                !
 ! A8    A(1,4,6)              109.4712         estimate D2E/DX2                !
 ! A9    A(1,4,7)              109.4712         estimate D2E/DX2                !
 ! A10   A(5,4,6)              109.4712         estimate D2E/DX2                !
 ! A11   A(5,4,7)              109.4713         estimate D2E/DX2                !
 ! A12   A(6,4,7)              109.4712         estimate D2E/DX2                !
 ! A13   A(4,7,8)              109.4712         estimate D2E/DX2                !
 ! A14   A(4,7,9)              109.4712         estimate D2E/DX2                !
 ! A15   A(4,7,10)             109.4712         estimate D2E/DX2                !
 ! A16   A(8,7,9)              109.4712         estimate D2E/DX2                !
 ! A17   A(8,7,10)             109.4713         estimate D2E/DX2                !
 ! A18   A(9,7,10)             109.4712         estimate D2E/DX2                !
 ! A19   A(7,10,11)            109.4712         estimate D2E/DX2                !
 ! A20   A(7,10,12)            109.4712         estimate D2E/DX2                !
 ! A21   A(7,10,13)            109.4712         estimate D2E/DX2                !
 ! A22   A(11,10,12)           109.4712         estimate D2E/DX2                !
 ! A23   A(11,10,13)           109.4713         estimate D2E/DX2                !
 ! A24   A(12,10,13)           109.4712         estimate D2E/DX2                !
 ! A25   A(10,13,14)           109.4712         estimate D2E/DX2                !
 ! A26   A(10,13,15)           109.4712         estimate D2E/DX2                !
 ! A27   A(10,13,16)           109.4712         estimate D2E/DX2                !
 ! A28   A(14,13,15)           109.4712         estimate D2E/DX2                !
 ! A29   A(14,13,16)           109.4713         estimate D2E/DX2                !
 ! A30   A(15,13,16)           109.4712         estimate D2E/DX2                !
 ! A31   A(13,16,17)           109.4712         estimate D2E/DX2                !
 ! A32   A(13,16,18)           109.4712         estimate D2E/DX2                !
 ! A33   A(13,16,35)           109.4712         estimate D2E/DX2                !
 ! A34   A(17,16,18)           109.4712         estimate D2E/DX2                !
 ! A35   A(17,16,35)           109.4712         estimate D2E/DX2                !
 ! A36   A(18,16,35)           109.4712         estimate D2E/DX2                !
 ! A37   A(21,19,22)           109.3968         estimate D2E/DX2                !
 ! A38   A(21,19,23)           109.5595         estimate D2E/DX2                !
 ! A39   A(21,19,34)           111.3625         estimate D2E/DX2                !
 ! A40   A(22,19,23)           107.4839         estimate D2E/DX2                !
 ! A41   A(22,19,34)           109.3908         estimate D2E/DX2                !
 ! A42   A(23,19,34)           109.5638         estimate D2E/DX2                !
 ! A43   A(24,20,25)           109.4233         estimate D2E/DX2                !
 ! A44   A(24,20,26)           109.5746         estimate D2E/DX2                !
 ! A45   A(24,20,34)           111.2657         estimate D2E/DX2                !
 ! A46   A(25,20,26)           107.5            estimate D2E/DX2                !
 ! A47   A(25,20,34)           109.4111         estimate D2E/DX2                !
 ! A48   A(26,20,34)           109.5868         estimate D2E/DX2                !
 ! A49   A(19,21,27)           111.3094         estimate D2E/DX2                !
 ! A50   A(19,21,28)           109.5772         estimate D2E/DX2                !
 ! A51   A(19,21,29)           109.4042         estimate D2E/DX2                !
 ! A52   A(27,21,28)           109.5749         estimate D2E/DX2                !
 ! A53   A(27,21,29)           109.4074         estimate D2E/DX2                !
 ! A54   A(28,21,29)           107.4863         estimate D2E/DX2                !
 ! A55   A(20,24,27)           111.3744         estimate D2E/DX2                !
 ! A56   A(20,24,30)           109.5589         estimate D2E/DX2                !
 ! A57   A(20,24,31)           109.3871         estimate D2E/DX2                !
 ! A58   A(27,24,30)           109.5649         estimate D2E/DX2                !
 ! A59   A(27,24,31)           109.3914         estimate D2E/DX2                !
 ! A60   A(30,24,31)           107.4801         estimate D2E/DX2                !
 ! A61   A(21,27,24)           111.2962         estimate D2E/DX2                !
 ! A62   A(21,27,32)           109.5686         estimate D2E/DX2                !
 ! A63   A(21,27,33)           109.4108         estimate D2E/DX2                !
 ! A64   A(24,27,32)           109.5728         estimate D2E/DX2                !
 ! A65   A(24,27,33)           109.42           estimate D2E/DX2                !
 ! A66   A(32,27,33)           107.4917         estimate D2E/DX2                !
 ! A67   A(1,34,19)            109.59           estimate D2E/DX2                !
 ! A68   A(1,34,20)            109.586          estimate D2E/DX2                !
 ! A69   A(19,34,20)           111.2413         estimate D2E/DX2                !
 ! D1    D(2,1,4,5)           -145.7269         estimate D2E/DX2                !
 ! D2    D(2,1,4,6)             94.2731         estimate D2E/DX2                !
 ! D3    D(2,1,4,7)            -25.7269         estimate D2E/DX2                !
 ! D4    D(3,1,4,5)            -25.7269         estimate D2E/DX2                !
 ! D5    D(3,1,4,6)           -145.7269         estimate D2E/DX2                !
 ! D6    D(3,1,4,7)             94.2732         estimate D2E/DX2                !
 ! D7    D(34,1,4,5)            94.2731         estimate D2E/DX2                !
 ! D8    D(34,1,4,6)           -25.7269         estimate D2E/DX2                !
 ! D9    D(34,1,4,7)          -145.7268         estimate D2E/DX2                !
 ! D10   D(2,1,34,19)           13.4052         estimate D2E/DX2                !
 ! D11   D(2,1,34,20)          135.7356         estimate D2E/DX2                !
 ! D12   D(3,1,34,19)         -106.5948         estimate D2E/DX2                !
 ! D13   D(3,1,34,20)           15.7356         estimate D2E/DX2                !
 ! D14   D(4,1,34,19)          133.4052         estimate D2E/DX2                !
 ! D15   D(4,1,34,20)         -104.2644         estimate D2E/DX2                !
 ! D16   D(1,4,7,8)            -52.2609         estimate D2E/DX2                !
 ! D17   D(1,4,7,9)             67.7391         estimate D2E/DX2                !
 ! D18   D(1,4,7,10)          -172.2609         estimate D2E/DX2                !
 ! D19   D(5,4,7,8)             67.7391         estimate D2E/DX2                !
 ! D20   D(5,4,7,9)           -172.2609         estimate D2E/DX2                !
 ! D21   D(5,4,7,10)           -52.2609         estimate D2E/DX2                !
 ! D22   D(6,4,7,8)           -172.2609         estimate D2E/DX2                !
 ! D23   D(6,4,7,9)            -52.2609         estimate D2E/DX2                !
 ! D24   D(6,4,7,10)            67.7391         estimate D2E/DX2                !
 ! D25   D(4,7,10,11)           61.3801         estimate D2E/DX2                !
 ! D26   D(4,7,10,12)          -58.6199         estimate D2E/DX2                !
 ! D27   D(4,7,10,13)         -178.6199         estimate D2E/DX2                !
 ! D28   D(8,7,10,11)          -58.6199         estimate D2E/DX2                !
 ! D29   D(8,7,10,12)         -178.6199         estimate D2E/DX2                !
 ! D30   D(8,7,10,13)           61.3801         estimate D2E/DX2                !
 ! D31   D(9,7,10,11)         -178.6199         estimate D2E/DX2                !
 ! D32   D(9,7,10,12)           61.3801         estimate D2E/DX2                !
 ! D33   D(9,7,10,13)          -58.6199         estimate D2E/DX2                !
 ! D34   D(7,10,13,14)         -59.244          estimate D2E/DX2                !
 ! D35   D(7,10,13,15)          60.756          estimate D2E/DX2                !
 ! D36   D(7,10,13,16)        -179.244          estimate D2E/DX2                !
 ! D37   D(11,10,13,14)         60.756          estimate D2E/DX2                !
 ! D38   D(11,10,13,15)       -179.244          estimate D2E/DX2                !
 ! D39   D(11,10,13,16)        -59.244          estimate D2E/DX2                !
 ! D40   D(12,10,13,14)       -179.244          estimate D2E/DX2                !
 ! D41   D(12,10,13,15)        -59.244          estimate D2E/DX2                !
 ! D42   D(12,10,13,16)         60.756          estimate D2E/DX2                !
 ! D43   D(10,13,16,17)         60.1559         estimate D2E/DX2                !
 ! D44   D(10,13,16,18)        -59.8441         estimate D2E/DX2                !
 ! D45   D(10,13,16,35)       -179.8441         estimate D2E/DX2                !
 ! D46   D(14,13,16,17)        -59.8441         estimate D2E/DX2                !
 ! D47   D(14,13,16,18)       -179.8441         estimate D2E/DX2                !
 ! D48   D(14,13,16,35)         60.1559         estimate D2E/DX2                !
 ! D49   D(15,13,16,17)       -179.8441         estimate D2E/DX2                !
 ! D50   D(15,13,16,18)         60.1559         estimate D2E/DX2                !
 ! D51   D(15,13,16,35)        -59.8441         estimate D2E/DX2                !
 ! D52   D(22,19,21,27)         65.8497         estimate D2E/DX2                !
 ! D53   D(22,19,21,28)        -55.5104         estimate D2E/DX2                !
 ! D54   D(22,19,21,29)       -173.1164         estimate D2E/DX2                !
 ! D55   D(23,19,21,27)       -176.5618         estimate D2E/DX2                !
 ! D56   D(23,19,21,28)         62.0781         estimate D2E/DX2                !
 ! D57   D(23,19,21,29)        -55.5279         estimate D2E/DX2                !
 ! D58   D(34,19,21,27)        -55.1928         estimate D2E/DX2                !
 ! D59   D(34,19,21,28)       -176.5529         estimate D2E/DX2                !
 ! D60   D(34,19,21,29)         65.8411         estimate D2E/DX2                !
 ! D61   D(21,19,34,1)         176.5953         estimate D2E/DX2                !
 ! D62   D(21,19,34,20)         55.2571         estimate D2E/DX2                !
 ! D63   D(22,19,34,1)          55.5492         estimate D2E/DX2                !
 ! D64   D(22,19,34,20)        -65.7889         estimate D2E/DX2                !
 ! D65   D(23,19,34,1)         -62.0382         estimate D2E/DX2                !
 ! D66   D(23,19,34,20)        176.6237         estimate D2E/DX2                !
 ! D67   D(25,20,24,27)        -65.785          estimate D2E/DX2                !
 ! D68   D(25,20,24,30)         55.5927         estimate D2E/DX2                !
 ! D69   D(25,20,24,31)        173.1705         estimate D2E/DX2                !
 ! D70   D(26,20,24,27)        176.5828         estimate D2E/DX2                !
 ! D71   D(26,20,24,30)        -62.0395         estimate D2E/DX2                !
 ! D72   D(26,20,24,31)         55.5383         estimate D2E/DX2                !
 ! D73   D(34,20,24,27)         55.2381         estimate D2E/DX2                !
 ! D74   D(34,20,24,30)        176.6158         estimate D2E/DX2                !
 ! D75   D(34,20,24,31)        -65.8064         estimate D2E/DX2                !
 ! D76   D(24,20,34,1)        -176.5771         estimate D2E/DX2                !
 ! D77   D(24,20,34,19)        -55.2366         estimate D2E/DX2                !
 ! D78   D(25,20,34,1)         -55.5468         estimate D2E/DX2                !
 ! D79   D(25,20,34,19)         65.7936         estimate D2E/DX2                !
 ! D80   D(26,20,34,1)          62.0853         estimate D2E/DX2                !
 ! D81   D(26,20,34,19)       -176.5742         estimate D2E/DX2                !
 ! D82   D(19,21,27,24)         55.0823         estimate D2E/DX2                !
 ! D83   D(19,21,27,32)        176.4253         estimate D2E/DX2                !
 ! D84   D(19,21,27,33)        -65.9633         estimate D2E/DX2                !
 ! D85   D(28,21,27,24)        176.4437         estimate D2E/DX2                !
 ! D86   D(28,21,27,32)        -62.2133         estimate D2E/DX2                !
 ! D87   D(28,21,27,33)         55.3981         estimate D2E/DX2                !
 ! D88   D(29,21,27,24)        -65.9498         estimate D2E/DX2                !
 ! D89   D(29,21,27,32)         55.3933         estimate D2E/DX2                !
 ! D90   D(29,21,27,33)        173.0046         estimate D2E/DX2                !
 ! D91   D(20,24,27,21)        -55.1527         estimate D2E/DX2                !
 ! D92   D(20,24,27,32)       -176.4932         estimate D2E/DX2                !
 ! D93   D(20,24,27,33)         65.8876         estimate D2E/DX2                !
 ! D94   D(30,24,27,21)       -176.5268         estimate D2E/DX2                !
 ! D95   D(30,24,27,32)         62.1326         estimate D2E/DX2                !
 ! D96   D(30,24,27,33)        -55.4866         estimate D2E/DX2                !
 ! D97   D(31,24,27,21)         65.8893         estimate D2E/DX2                !
 ! D98   D(31,24,27,32)        -55.4512         estimate D2E/DX2                !
 ! D99   D(31,24,27,33)       -173.0704         estimate D2E/DX2                !
 --------------------------------------------------------------------------------
 Trust Radius=3.00D-01 FncErr=1.00D-07 GrdErr=1.00D-06
 Number of steps in this run=    210 maximum allowed number of steps=    210.
 GradGradGradGradGradGradGradGradGradGradGradGradGradGradGradGradGradGrad

                          Input orientation:                          
 ---------------------------------------------------------------------
 Center     Atomic      Atomic             Coordinates (Angstroms)
 Number     Number       Type             X           Y           Z
 ---------------------------------------------------------------------
      1          6           0       -0.846007    1.054861    0.760001
      2          1           0       -0.001866    1.668678    0.995700
      3          1           0       -1.466167    1.559137    0.048659
      4          6           0       -0.360106   -0.278958    0.162986
      5          1           0       -1.057177   -0.613665   -0.576584
      6          1           0       -0.285131   -1.011093    0.939682
      7          6           0        1.021147   -0.077321   -0.487462
      8          1           0        0.977716    0.746646   -1.168706
      9          1           0        1.746858    0.125789    0.272135
     10          6           0        1.420425   -1.353907   -1.250682
     11          1           0        0.707691   -1.543638   -2.025868
     12          1           0        1.440433   -2.182493   -0.573966
     13          6           0        2.816709   -1.164878   -1.872180
     14          1           0        2.800046   -0.328158   -2.538904
     15          1           0        3.531674   -0.988229   -1.095958
     16          6           0        3.207959   -2.434343   -2.651270
     17          1           0        2.494495   -2.609472   -3.429215
     18          1           0        3.221974   -3.271545   -1.985089
     19          6           0       -1.198049    1.716751    3.141185
     20          6           0       -3.132969    0.947288    1.755509
     21          6           0       -2.024817    1.536877    4.398025
     22          1           0       -1.285276    2.777388    2.786496
     23          1           0       -0.117716    1.526661    3.372226
     24          6           0       -3.959787    0.766603    3.012223
     25          1           0       -3.317027    1.969442    1.331633
     26          1           0       -3.453699    0.199794    0.984259
     27          6           0       -3.503447    1.702564    4.112755
     28          1           0       -1.704779    2.285525    5.168472
     29          1           0       -1.839369    0.515459    4.823105
     30          1           0       -5.040034    0.957138    2.781333
     31          1           0       -3.872854   -0.294474    3.365819
     32          1           0       -4.090850    1.499822    5.045734
     33          1           0       -3.708047    2.762929    3.809257
     34          7           0       -1.654274    0.779464    2.041586
     35          1           0        4.179250   -2.304044   -3.080822
 ---------------------------------------------------------------------
                    Distance matrix (angstroms):
                    1          2          3          4          5
     1  C    0.000000
     2  H    1.070000   0.000000
     3  H    1.070000   1.747303   0.000000
     4  C    1.540000   2.148263   2.148263   0.000000
     5  H    2.148263   2.965611   2.297666   1.070000   0.000000
     6  H    2.148263   2.695283   2.965611   1.070000   1.747303
     7  C    2.514809   2.508952   3.025252   1.540000   2.148263
     8  H    2.672241   2.548407   2.848628   2.148263   2.518301
     9  H    2.797167   2.441739   3.525332   2.148263   3.021544
    10  C    3.870624   4.025564   4.301921   2.514809   2.672242
    11  H    4.114273   4.466802   4.319321   2.744210   2.465772
    12  H    4.181835   4.401772   4.778680   2.721854   2.949455
    13  C    5.027037   4.919160   5.427053   3.875424   4.121819
    14  H    5.107761   4.932696   5.334598   4.158028   4.337094
    15  H    5.175219   4.890817   5.725176   4.151380   4.633314
    16  C    6.343970   6.359100   6.714533   5.029594   5.080410
    17  H    6.491211   6.641857   6.720100   5.146256   4.973441
    18  H    6.542307   6.609391   7.032090   5.138200   5.230616
    19  C    2.496412   2.456882   3.108127   3.681668   4.390045
    20  C    2.496558   3.301745   2.462910   3.424701   3.490580
    21  C    3.854498   3.960494   4.385154   4.899396   5.505261
    22  H    2.695689   2.466441   3.002102   4.132796   4.781379
    23  H    2.752585   2.383583   3.586848   3.690289   4.588756
    24  C    3.853729   4.532686   3.953348   4.708402   4.817658
    25  H    2.696138   3.345684   2.289117   3.894152   3.926914
    26  H    2.753450   3.751387   2.583300   3.236357   2.973427
    27  C    4.326947   4.688097   4.548402   5.422887   5.773999
    28  H    4.656892   4.548894   5.176588   5.782699   6.467640
    29  H    4.217409   4.399473   4.901416   4.953386   5.571660
    30  H    4.656736   5.392394   4.538990   5.503217   5.441157
    31  H    4.215779   4.945298   4.497951   4.753712   4.855148
    32  H    5.393932   5.757697   5.644753   6.397167   6.729076
    33  H    4.517381   4.780091   4.540621   5.810084   6.137109
    34  N    1.540000   2.148263   2.148263   2.514809   3.025252
    35  H    7.161520   7.062739   7.522536   5.935404   6.045556
                    6          7          8          9         10
     6  H    0.000000
     7  C    2.148263   0.000000
     8  H    3.021544   1.070000   0.000000
     9  H    2.422210   1.070000   1.747303   0.000000
    10  C    2.797166   1.540000   2.148263   2.148263   0.000000
    11  H    3.172348   2.148263   2.460293   3.024512   1.070000
    12  H    2.576991   2.148263   3.024513   2.477489   1.070000
    13  C    4.189466   2.514809   2.744211   2.721854   1.540000
    14  H    4.699498   2.726869   2.520622   3.035987   2.148263
    15  H    4.325778   2.739118   3.088331   2.509638   2.148263
    16  C    5.207903   3.875534   4.158205   4.151553   2.514809
    17  H    5.419262   4.151681   4.321348   4.662682   2.734241
    18  H    5.095460   4.158076   4.674295   4.337385   2.731715
    19  C    3.622316   4.616342   4.924451   4.408525   5.964382
    20  C    3.551198   4.830882   5.048665   5.166040   5.921662
    21  C    4.634522   5.979257   6.374022   5.765386   7.220403
    22  H    4.331698   4.918105   4.988855   4.748351   6.378655
    23  H    3.519303   4.332085   4.735869   3.879387   5.659932
    24  C    4.578070   6.145706   6.469892   6.362745   7.184400
    25  H    4.269614   5.130117   5.117786   5.492224   6.336912
    26  H    3.392352   4.718792   4.956989   5.249609   5.582655
    27  C    5.271611   6.693425   6.992026   6.693451   7.896391
    28  H    5.546689   6.708451   7.051507   6.368075   8.013608
    29  H    4.452751   6.061029   6.625044   5.807254   7.142246
    30  H    5.465776   6.963694   7.201418   7.283483   7.958367
    31  H    4.389924   6.232670   6.721151   6.428737   7.103047
    32  H    6.135785   7.696503   8.054620   7.665120   8.840972
    33  H    5.847568   6.992431   7.127544   7.015820   8.297744
    34  N    2.508951   3.779953   4.151436   3.889209   4.984383
    35  H    6.145476   4.653754   4.817958   4.802389   3.444312
                   11         12         13         14         15
    11  H    0.000000
    12  H    1.747303   0.000000
    13  C    2.148263   2.148263   0.000000
    14  H    2.473570   3.024581   1.070000   0.000000
    15  H    3.024581   2.464149   1.070000   1.747303   0.000000
    16  C    2.726870   2.739118   1.540000   2.148263   2.148263
    17  H    2.509592   3.073403   2.148263   2.467875   3.024609
    18  H    3.051056   2.520157   2.148263   3.024609   2.469818
    19  C    6.400034   5.997337   7.039595   7.240845   6.902216
    20  C    5.937525   6.011488   7.281486   7.434340   7.502970
    21  C    7.630372   7.110723   8.369906   8.653245   8.211858
    22  H    6.767721   6.581993   7.353299   7.395551   7.242675
    23  H    6.264779   5.635432   6.584757   6.848004   6.293440
    24  C    7.246029   7.121819   8.573733   8.815263   8.722303
    25  H    6.309747   6.595703   7.596782   7.594643   7.845108
    26  H    5.423798   5.661792   7.024214   7.197273   7.384723
    27  C    8.121220   7.842256   9.164390   9.386290   9.157729
    28  H    8.499473   7.926610   9.050962   9.302066   8.796647
    29  H    7.591827   6.867636   8.326430   8.742714   8.132926
    30  H    7.899330   7.944292   9.374782   9.561578   9.606873
    31  H    7.184156   6.878775   8.540754   8.910358   8.672703
    32  H    9.071726   8.702619  10.132745  10.409260  10.100181
    33  H    8.490816   8.377153   9.501517   9.602564   9.515560
    34  N    5.245938   5.019115   6.252017   6.484496   6.313714
    35  H    3.707137   3.714865   2.148263   2.469818   2.467875
                   16         17         18         19         20
    16  C    0.000000
    17  H    1.070000   0.000000
    18  H    1.070000   1.747303   0.000000
    19  C    8.378367   8.690296   8.408234   0.000000
    20  C    8.429857   8.438024   8.495642   2.501217   0.000000
    21  C    9.635616   9.943947   9.560015   1.515106   2.925493
    22  H    8.770440   9.052072   8.925969   1.121768   2.797529
    23  H    7.939281   8.377998   7.929511   1.120996   3.470042
    24  C    9.679762   9.723567   9.636257   2.923459   1.515125
    25  H    8.822260   8.798063   9.012609   2.797928   1.121761
    26  H    8.033270   7.921599   8.088994   3.470079   1.120911
    27  C   10.387926  10.557001  10.351655   2.501802   2.502859
    28  H   10.371139  10.747796  10.311516   2.165680   3.934326
    29  H    9.489106   9.830990   9.290323   2.164081   3.357085
    30  H   10.442447  10.395227  10.433663   3.932856   2.165481
    31  H    9.535319   9.595563   9.371860   3.354112   2.163908
    32  H   11.313450  11.492512  11.210523   3.470254   3.471082
    33  H   10.797277  10.942106  10.863448   2.800160   2.800919
    34  N    7.482831   7.656816   7.510165   1.515180   1.515435
    35  H    1.070000   1.747303   1.747303   9.153989   9.350391
                   21         22         23         24         25
    21  C    0.000000
    22  H    2.163981   0.000000
    23  H    2.165502   1.808479   0.000000
    24  C    2.501576   3.353688   3.933039   0.000000
    25  H    3.355545   2.626293   3.820427   2.164334   0.000000
    26  H    3.934882   3.820223   4.311814   2.165649   1.808590
    27  C    1.514985   2.799016   3.470230   1.515071   2.800110
    28  H    1.120931   2.468141   2.514188   3.470100   4.173797
    29  H    1.121775   3.093722   2.468130   2.799739   4.060531
    30  H    3.470061   4.172714   4.990262   1.120958   2.468834
    31  H    2.799024   4.058018   4.173443   1.121816   3.093892
    32  H    2.165501   3.821986   4.311281   2.165631   3.822812
    33  H    2.164050   2.629841   3.822280   2.164245   2.630806
    34  N    2.502755   2.163967   2.165621   2.501538   2.164446
    35  H   10.448745   9.492493   8.647546  10.620640   9.691574
                   26         27         28         29         30
    26  H    0.000000
    27  C    3.471063   0.000000
    28  H    4.991656   2.165546   0.000000
    29  H    4.176415   2.164017   1.808460   0.000000
    30  H    2.513863   2.165512   4.311260   3.822063   0.000000
    31  H    2.468161   2.163916   3.821845   2.629588   1.808443
    32  H    4.311800   1.120980   2.515100   2.467327   2.514551
    33  H    3.822953   1.121760   2.467480   3.093697   2.468136
    34  N    2.166076   2.925970   3.471050   2.800144   3.470182
    35  H    9.003110  11.261629  11.123704  10.326928  11.401551
                   31         32         33         34         35
    31  H    0.000000
    32  H    2.467617   0.000000
    33  H    3.093785   1.808550   0.000000
    34  N    2.798040   3.934555   3.358091   0.000000
    35  H   10.508755  12.202658  11.634296   8.353268   0.000000
 Stoichiometry    C11H23N
 Framework group  C1[X(C11H23N)]
 Deg. of freedom    99
 Full point group                 C1      NOp   1
 Largest Abelian subgroup         C1      NOp   1
 Largest concise Abelian subgroup C1      NOp   1
                         Standard orientation:                         
 ---------------------------------------------------------------------
 Center     Atomic      Atomic             Coordinates (Angstroms)
 Number     Number       Type             X           Y           Z
 ---------------------------------------------------------------------
      1          6           0        0.247693   -0.005729    0.848580
      2          1           0        0.068298    0.986245    1.207335
      3          1           0        0.372508   -0.668349    1.679396
      4          6           0       -0.949984   -0.468522   -0.001711
      5          1           0       -1.097623   -1.519762    0.132437
      6          1           0       -0.754662   -0.264624   -1.033784
      7          6           0       -2.216287    0.288226    0.440341
      8          1           0       -2.336324    0.194513    1.499448
      9          1           0       -2.122175    1.322341    0.182174
     10          6           0       -3.445276   -0.308502   -0.270364
     11          1           0       -3.553346   -1.336348    0.006678
     12          1           0       -3.314430   -0.236547   -1.329893
     13          6           0       -4.707045    0.470540    0.145127
     14          1           0       -4.830576    0.409597    1.206223
     15          1           0       -4.604517    1.495703   -0.143717
     16          6           0       -5.938583   -0.138171   -0.550850
     17          1           0       -6.042683   -1.162576   -0.259887
     18          1           0       -5.813836   -0.079689   -1.611943
     19          6           0        2.286103    1.276572    0.190812
     20          6           0        2.372948   -1.217938    0.351949
     21          6           0        3.592967    1.273929   -0.575769
     22          1           0        2.495635    1.416955    1.283859
     23          1           0        1.655791    2.140626   -0.144973
     24          6           0        3.679468   -1.220993   -0.415255
     25          1           0        2.586938   -1.202295    1.452999
     26          1           0        1.806135   -2.159651    0.132084
     27          6           0        4.441702    0.072633   -0.212842
     28          1           0        4.160129    2.215119   -0.354468
     29          1           0        3.379119    1.260260   -1.676887
     30          1           0        4.309984   -2.084732   -0.079175
     31          1           0        3.469252   -1.362357   -1.508094
     32          1           0        5.369301    0.064363   -0.842197
     33          1           0        4.762278    0.152831    0.859140
     34          7           0        1.523925   -0.016959   -0.013224
     35          1           0       -6.814910    0.404815   -0.264287
 ---------------------------------------------------------------------
 Rotational constants (GHZ):      3.0074777      0.2531557      0.2444623
 Standard basis: 6-311+G(d,p) (5D, 7F)
 There are   414 symmetry adapted cartesian basis functions of A   symmetry.
 There are   402 symmetry adapted basis functions of A   symmetry.
   402 basis functions,   616 primitive gaussians,   414 cartesian basis functions
    48 alpha electrons       48 beta electrons
       nuclear repulsion energy       719.8253002449 Hartrees.
 NAtoms=   35 NActive=   35 NUniq=   35 SFac= 1.00D+00 NAtFMM=   60 NAOKFM=F Big=F
 Integral buffers will be    131072 words long.
 Raffenetti 2 integral format.
 Two-electron integral symmetry is turned on.
 One-electron integrals computed using PRISM.
 NBasis=   402 RedAO= T EigKep=  5.31D-06  NBF=   402
 NBsUse=   402 1.00D-06 EigRej= -1.00D+00 NBFU=   402
 ExpMin= 4.38D-02 ExpMax= 6.29D+03 ExpMxC= 9.49D+02 IAcc=2 IRadAn=         4 AccDes= 0.00D+00
 Harris functional with IExCor=  402 and IRadAn=       4 diagonalized for initial guess.
 HarFok:  IExCor=  402 AccDes= 0.00D+00 IRadAn=         4 IDoV= 1 UseB2=F ITyADJ=14
 ICtDFT=  3500011 ScaDFX=  1.000000  1.000000  1.000000  1.000000
 FoFCou: FMM=F IPFlag=           0 FMFlag=      100000 FMFlg1=           0
         NFxFlg=           0 DoJE=T BraDBF=F KetDBF=T FulRan=T
         wScrn=  0.000000 ICntrl=     500 IOpCl=  0 I1Cent=   200000004 NGrid=           0
         NMat0=    1 NMatS0=      1 NMatT0=    0 NMatD0=    1 NMtDS0=    0 NMtDT0=    0
 Petite list used in FoFCou.
 Requested convergence on RMS density matrix=1.00D-08 within 128 cycles.
 Requested convergence on MAX density matrix=1.00D-06.
 Requested convergence on             energy=1.00D-06.
 No special actions if energy rises.
 SCF Done:  E(RB3LYP) =  -487.894113962     A.U. after   12 cycles
            NFock= 12  Conv=0.54D-08     -V/T= 2.0049

 **********************************************************************

            Population analysis using the SCF density.

 **********************************************************************

 Orbital symmetries:
       Occupied  (A) (A) (A) (A) (A) (A) (A) (A) (A) (A) (A) (A)
                 (A) (A) (A) (A) (A) (A) (A) (A) (A) (A) (A) (A)
                 (A) (A) (A) (A) (A) (A) (A) (A) (A) (A) (A) (A)
                 (A) (A) (A) (A) (A) (A) (A) (A) (A) (A) (A) (A)
       Virtual   (A) (A) (A) (A) (A) (A) (A) (A) (A) (A) (A) (A)
                 (A) (A) (A) (A) (A) (A) (A) (A) (A) (A) (A) (A)
                 (A) (A) (A) (A) (A) (A) (A) (A) (A) (A) (A) (A)
                 (A) (A) (A) (A) (A) (A) (A) (A) (A) (A) (A) (A)
                 (A) (A) (A) (A) (A) (A) (A) (A) (A) (A) (A) (A)
                 (A) (A) (A) (A) (A) (A) (A) (A) (A) (A) (A) (A)
                 (A) (A) (A) (A) (A) (A) (A) (A) (A) (A) (A) (A)
                 (A) (A) (A) (A) (A) (A) (A) (A) (A) (A) (A) (A)
                 (A) (A) (A) (A) (A) (A) (A) (A) (A) (A) (A) (A)
                 (A) (A) (A) (A) (A) (A) (A) (A) (A) (A) (A) (A)
                 (A) (A) (A) (A) (A) (A) (A) (A) (A) (A) (A) (A)
                 (A) (A) (A) (A) (A) (A) (A) (A) (A) (A) (A) (A)
                 (A) (A) (A) (A) (A) (A) (A) (A) (A) (A) (A) (A)
                 (A) (A) (A) (A) (A) (A) (A) (A) (A) (A) (A) (A)
                 (A) (A) (A) (A) (A) (A) (A) (A) (A) (A) (A) (A)
                 (A) (A) (A) (A) (A) (A) (A) (A) (A) (A) (A) (A)
                 (A) (A) (A) (A) (A) (A) (A) (A) (A) (A) (A) (A)
                 (A) (A) (A) (A) (A) (A) (A) (A) (A) (A) (A) (A)
                 (A) (A) (A) (A) (A) (A) (A) (A) (A) (A) (A) (A)
                 (A) (A) (A) (A) (A) (A) (A) (A) (A) (A) (A) (A)
                 (A) (A) (A) (A) (A) (A) (A) (A) (A) (A) (A) (A)
                 (A) (A) (A) (A) (A) (A) (A) (A) (A) (A) (A) (A)
                 (A) (A) (A) (A) (A) (A) (A) (A) (A) (A) (A) (A)
                 (A) (A) (A) (A) (A) (A) (A) (A) (A) (A) (A) (A)
                 (A) (A) (A) (A) (A) (A) (A) (A) (A) (A) (A) (A)
                 (A) (A) (A) (A) (A) (A) (A) (A) (A) (A) (A) (A)
                 (A) (A) (A) (A) (A) (A) (A) (A) (A) (A) (A) (A)
                 (A) (A) (A) (A) (A) (A) (A) (A) (A) (A) (A) (A)
                 (A) (A) (A) (A) (A) (A) (A) (A) (A) (A) (A) (A)
                 (A) (A) (A) (A) (A) (A)
 The electronic state is 1-A.
 Alpha  occ. eigenvalues --  -14.30181 -10.19348 -10.19319 -10.18147 -10.16683
 Alpha  occ. eigenvalues --  -10.16663 -10.16646 -10.15416 -10.15315 -10.15227
 Alpha  occ. eigenvalues --  -10.14855 -10.14582  -0.89858  -0.81044  -0.79390
 Alpha  occ. eigenvalues --   -0.75918  -0.74897  -0.70242  -0.64573  -0.61491
 Alpha  occ. eigenvalues --   -0.60941  -0.58356  -0.58100  -0.54301  -0.49096
 Alpha  occ. eigenvalues --   -0.48044  -0.46130  -0.44772  -0.44211  -0.43324
 Alpha  occ. eigenvalues --   -0.42726  -0.41915  -0.40673  -0.39685  -0.38569
 Alpha  occ. eigenvalues --   -0.37610  -0.37222  -0.36214  -0.34621  -0.34362
 Alpha  occ. eigenvalues --   -0.33738  -0.33327  -0.33146  -0.32480  -0.31488
 Alpha  occ. eigenvalues --   -0.31039  -0.28917  -0.21499
 Alpha virt. eigenvalues --    0.00298   0.01028   0.01420   0.01721   0.02180
 Alpha virt. eigenvalues --    0.02892   0.03256   0.03815   0.04554   0.04919
 Alpha virt. eigenvalues --    0.05422   0.05675   0.05975   0.06529   0.06822
 Alpha virt. eigenvalues --    0.07352   0.07626   0.08462   0.08662   0.08887
 Alpha virt. eigenvalues --    0.09070   0.09510   0.10278   0.10444   0.10741
 Alpha virt. eigenvalues --    0.11531   0.12179   0.12808   0.13295   0.13834
 Alpha virt. eigenvalues --    0.14029   0.14522   0.14926   0.15540   0.16314
 Alpha virt. eigenvalues --    0.16975   0.17080   0.17346   0.18096   0.18454
 Alpha virt. eigenvalues --    0.18799   0.19032   0.19625   0.19667   0.20111
 Alpha virt. eigenvalues --    0.20335   0.20665   0.21650   0.21689   0.22012
 Alpha virt. eigenvalues --    0.22135   0.22718   0.22947   0.23204   0.23444
 Alpha virt. eigenvalues --    0.24068   0.24462   0.24943   0.24979   0.25486
 Alpha virt. eigenvalues --    0.26018   0.26532   0.26670   0.27026   0.27451
 Alpha virt. eigenvalues --    0.28083   0.28796   0.29118   0.29649   0.30029
 Alpha virt. eigenvalues --    0.30310   0.30671   0.30922   0.31719   0.32026
 Alpha virt. eigenvalues --    0.32892   0.33523   0.34569   0.35009   0.35804
 Alpha virt. eigenvalues --    0.37080   0.38230   0.40178   0.41291   0.41715
 Alpha virt. eigenvalues --    0.42479   0.43743   0.44290   0.45066   0.46546
 Alpha virt. eigenvalues --    0.47688   0.48522   0.49512   0.51741   0.52521
 Alpha virt. eigenvalues --    0.53211   0.53870   0.53949   0.55918   0.56464
 Alpha virt. eigenvalues --    0.57067   0.58383   0.59926   0.60176   0.61326
 Alpha virt. eigenvalues --    0.61960   0.62556   0.63200   0.64364   0.64769
 Alpha virt. eigenvalues --    0.65067   0.66160   0.66761   0.67013   0.67836
 Alpha virt. eigenvalues --    0.68156   0.68506   0.69007   0.69485   0.69833
 Alpha virt. eigenvalues --    0.70191   0.70894   0.71174   0.71744   0.72368
 Alpha virt. eigenvalues --    0.73082   0.73349   0.73961   0.74911   0.75103
 Alpha virt. eigenvalues --    0.76031   0.76476   0.78131   0.79072   0.79802
 Alpha virt. eigenvalues --    0.80242   0.81234   0.81962   0.86695   0.87340
 Alpha virt. eigenvalues --    0.89582   0.91616   0.92762   0.93752   0.96156
 Alpha virt. eigenvalues --    0.97445   0.98775   1.01306   1.02060   1.03064
 Alpha virt. eigenvalues --    1.04188   1.05977   1.07455   1.09602   1.14337
 Alpha virt. eigenvalues --    1.16233   1.19508   1.20732   1.22735   1.24858
 Alpha virt. eigenvalues --    1.26239   1.26602   1.27171   1.27971   1.30154
 Alpha virt. eigenvalues --    1.31074   1.34455   1.38751   1.39503   1.40775
 Alpha virt. eigenvalues --    1.46924   1.47184   1.47981   1.50323   1.51300
 Alpha virt. eigenvalues --    1.51674   1.53223   1.53966   1.54725   1.55751
 Alpha virt. eigenvalues --    1.56112   1.56553   1.56897   1.57687   1.58009
 Alpha virt. eigenvalues --    1.58751   1.59782   1.60045   1.60242   1.60962
 Alpha virt. eigenvalues --    1.61902   1.62605   1.62876   1.64251   1.65429
 Alpha virt. eigenvalues --    1.65752   1.66151   1.68247   1.68602   1.69118
 Alpha virt. eigenvalues --    1.70081   1.71227   1.71833   1.72531   1.74229
 Alpha virt. eigenvalues --    1.74740   1.75259   1.76109   1.76953   1.77374
 Alpha virt. eigenvalues --    1.78202   1.78850   1.80247   1.82095   1.82331
 Alpha virt. eigenvalues --    1.84014   1.85023   1.86166   1.88630   1.89086
 Alpha virt. eigenvalues --    1.91732   1.93721   1.95890   1.98861   1.99675
 Alpha virt. eigenvalues --    2.01588   2.02859   2.03813   2.05860   2.07805
 Alpha virt. eigenvalues --    2.08660   2.10579   2.12134   2.14550   2.16347
 Alpha virt. eigenvalues --    2.16910   2.17602   2.19776   2.20563   2.21568
 Alpha virt. eigenvalues --    2.22981   2.24415   2.25089   2.26095   2.27570
 Alpha virt. eigenvalues --    2.27779   2.29050   2.30588   2.32388   2.33851
 Alpha virt. eigenvalues --    2.38117   2.38957   2.40081   2.40488   2.41279
 Alpha virt. eigenvalues --    2.43621   2.45181   2.45772   2.47546   2.48699
 Alpha virt. eigenvalues --    2.50064   2.50722   2.51362   2.52734   2.54984
 Alpha virt. eigenvalues --    2.55748   2.56983   2.58198   2.59267   2.59800
 Alpha virt. eigenvalues --    2.59906   2.62263   2.63324   2.64446   2.65568
 Alpha virt. eigenvalues --    2.66191   2.66926   2.67437   2.68057   2.69173
 Alpha virt. eigenvalues --    2.71141   2.71696   2.72245   2.72372   2.73850
 Alpha virt. eigenvalues --    2.76147   2.76571   2.77921   2.78558   2.80376
 Alpha virt. eigenvalues --    2.81428   2.82577   2.84005   2.84726   2.85675
 Alpha virt. eigenvalues --    2.86566   2.87164   2.87892   2.91820   2.92325
 Alpha virt. eigenvalues --    2.93658   2.94245   2.97531   2.99745   3.02266
 Alpha virt. eigenvalues --    3.02375   3.05957   3.08956   3.12722   3.18312
 Alpha virt. eigenvalues --    3.21394   3.31906   3.33859   3.42474   3.43195
 Alpha virt. eigenvalues --    3.52856   3.58049   3.64167   3.73091   3.75641
 Alpha virt. eigenvalues --    3.77239   3.79635   3.80955   3.85526   3.86147
 Alpha virt. eigenvalues --    3.86973   3.87536   3.91623   3.91793   3.95724
 Alpha virt. eigenvalues --    4.09799   4.10840   4.11767   4.14318   4.20020
 Alpha virt. eigenvalues --    4.23755   4.30906   4.33519   4.34484   4.37779
 Alpha virt. eigenvalues --    4.78346   4.78812  23.81776  23.85413  23.87118
 Alpha virt. eigenvalues --   23.90162  23.91104  23.92705  23.92773  23.94241
 Alpha virt. eigenvalues --   23.97263  23.98079  24.03961  35.54838
          Condensed to atoms (all electrons):
               1          2          3          4          5          6
     1  C    7.258098   0.424469   0.393365  -0.651078  -0.070639  -0.108403
     2  H    0.424469   0.550004  -0.031275  -0.052698   0.007382   0.001190
     3  H    0.393365  -0.031275   0.563738  -0.019200  -0.013619   0.005994
     4  C   -0.651078  -0.052698  -0.019200   6.871131   0.485681   0.528834
     5  H   -0.070639   0.007382  -0.013619   0.485681   0.561597  -0.033126
     6  H   -0.108403   0.001190   0.005994   0.528834  -0.033126   0.510373
     7  C    0.146720  -0.021232  -0.025948  -0.671206  -0.088538  -0.054406
     8  H   -0.008221  -0.001650   0.001695  -0.086676  -0.005493   0.007830
     9  H   -0.002581   0.003062   0.000065  -0.093706   0.008127  -0.008814
    10  C   -0.144414   0.011747  -0.007181  -0.039666  -0.008959  -0.006457
    11  H   -0.000452   0.000021   0.000128  -0.004890   0.003795  -0.000394
    12  H    0.004229  -0.000070  -0.000055  -0.018560  -0.001122   0.003540
    13  C   -0.081107  -0.000242   0.000716  -0.060511   0.003110   0.001874
    14  H   -0.000306  -0.000008  -0.000016   0.001713  -0.000009  -0.000036
    15  H    0.002076  -0.000012   0.000004   0.004055  -0.000030   0.000062
    16  C   -0.004469  -0.000129  -0.000071  -0.083939  -0.000432   0.000507
    17  H   -0.000090   0.000000   0.000000   0.000431  -0.000022   0.000004
    18  H   -0.000582   0.000000   0.000000  -0.001520   0.000004  -0.000022
    19  C    0.071932   0.005388  -0.012873  -0.207660  -0.003612  -0.003938
    20  C   -0.250324   0.001791   0.039754   0.092631   0.010741   0.005561
    21  C   -0.150924   0.006053  -0.000089   0.007704  -0.000608   0.003807
    22  H    0.010016   0.000702   0.005684   0.019169   0.000012  -0.000063
    23  H   -0.009235   0.000016  -0.000659   0.006401  -0.000072   0.000653
    24  C   -0.126312  -0.000690   0.000053  -0.030370   0.003138  -0.000271
    25  H    0.003768   0.000911   0.010526   0.007853  -0.000034  -0.000211
    26  H   -0.018519  -0.000048  -0.003990   0.030851  -0.000234   0.000871
    27  C    0.028436  -0.000856  -0.003173   0.020955   0.000392  -0.002006
    28  H    0.004204  -0.000090   0.000054  -0.001021  -0.000001   0.000010
    29  H   -0.008896  -0.000023   0.000013   0.005760   0.000001  -0.000047
    30  H    0.000418   0.000038  -0.000007   0.001362  -0.000002   0.000005
    31  H   -0.012066  -0.000001   0.000061   0.007346   0.000007  -0.000055
    32  H   -0.000156  -0.000002  -0.000005  -0.001221   0.000000   0.000000
    33  H   -0.004121  -0.000003   0.000004   0.002655   0.000000   0.000002
    34  N    0.056041  -0.059196  -0.055168  -0.060778   0.006328  -0.019949
    35  H    0.000312   0.000000   0.000000   0.002339   0.000002   0.000000
               7          8          9         10         11         12
     1  C    0.146720  -0.008221  -0.002581  -0.144414  -0.000452   0.004229
     2  H   -0.021232  -0.001650   0.003062   0.011747   0.000021  -0.000070
     3  H   -0.025948   0.001695   0.000065  -0.007181   0.000128  -0.000055
     4  C   -0.671206  -0.086676  -0.093706  -0.039666  -0.004890  -0.018560
     5  H   -0.088538  -0.005493   0.008127  -0.008959   0.003795  -0.001122
     6  H   -0.054406   0.007830  -0.008814  -0.006457  -0.000394   0.003540
     7  C    6.198969   0.493389   0.476713  -0.219895  -0.074144  -0.079145
     8  H    0.493389   0.562375  -0.038863  -0.074608  -0.007788   0.008336
     9  H    0.476713  -0.038863   0.559710  -0.057054   0.008311  -0.007651
    10  C   -0.219895  -0.074608  -0.057054   6.025408   0.482127   0.498669
    11  H   -0.074144  -0.007788   0.008311   0.482127   0.563524  -0.038176
    12  H   -0.079145   0.008336  -0.007651   0.498669  -0.038176   0.559329
    13  C    0.128248   0.000685   0.000177  -0.046747  -0.082673  -0.078979
    14  H   -0.010833   0.003121  -0.000933  -0.039720  -0.008286   0.008467
    15  H   -0.004751  -0.000593   0.003498  -0.041837   0.008597  -0.008311
    16  C   -0.077664   0.003197   0.004285   0.061922   0.006362   0.005134
    17  H   -0.002268   0.000022  -0.000012  -0.024769   0.004354  -0.001024
    18  H   -0.003787  -0.000021  -0.000008  -0.028420  -0.001228   0.004253
    19  C    0.029300  -0.000872  -0.000189  -0.017978   0.000389  -0.000218
    20  C   -0.043825   0.000812   0.000794  -0.004121   0.000391  -0.000483
    21  C    0.011051   0.000080   0.000114   0.001080  -0.000004  -0.000014
    22  H   -0.003214  -0.000032   0.000023   0.001039   0.000000  -0.000001
    23  H   -0.000088   0.000034  -0.000068   0.000017  -0.000001   0.000003
    24  C    0.023268   0.000239   0.000023  -0.005091   0.000010   0.000033
    25  H   -0.012124  -0.000022   0.000006  -0.000876   0.000001  -0.000001
    26  H    0.001075   0.000023  -0.000006   0.003820  -0.000006   0.000003
    27  C   -0.001855  -0.000039   0.000118   0.001447   0.000001  -0.000004
    28  H   -0.000224   0.000000  -0.000001  -0.000031   0.000000   0.000000
    29  H   -0.000422   0.000000   0.000001   0.000169   0.000000   0.000000
    30  H    0.000055   0.000000   0.000000   0.000018   0.000000   0.000000
    31  H   -0.000272   0.000000   0.000000   0.000180   0.000000   0.000000
    32  H   -0.000036   0.000000   0.000000  -0.000011   0.000000   0.000000
    33  H   -0.000023   0.000000   0.000000   0.000030   0.000000   0.000000
    34  N    0.023850  -0.000878   0.000688  -0.018212   0.000684  -0.001014
    35  H    0.008919  -0.000017  -0.000010   0.043056   0.000100   0.000036
              13         14         15         16         17         18
     1  C   -0.081107  -0.000306   0.002076  -0.004469  -0.000090  -0.000582
     2  H   -0.000242  -0.000008  -0.000012  -0.000129   0.000000   0.000000
     3  H    0.000716  -0.000016   0.000004  -0.000071   0.000000   0.000000
     4  C   -0.060511   0.001713   0.004055  -0.083939   0.000431  -0.001520
     5  H    0.003110  -0.000009  -0.000030  -0.000432  -0.000022   0.000004
     6  H    0.001874  -0.000036   0.000062   0.000507   0.000004  -0.000022
     7  C    0.128248  -0.010833  -0.004751  -0.077664  -0.002268  -0.003787
     8  H    0.000685   0.003121  -0.000593   0.003197   0.000022  -0.000021
     9  H    0.000177  -0.000933   0.003498   0.004285  -0.000012  -0.000008
    10  C   -0.046747  -0.039720  -0.041837   0.061922  -0.024769  -0.028420
    11  H   -0.082673  -0.008286   0.008597   0.006362   0.004354  -0.001228
    12  H   -0.078979   0.008467  -0.008311   0.005134  -0.001024   0.004253
    13  C    5.568825   0.434330   0.421854   0.138020  -0.023921  -0.018624
    14  H    0.434330   0.571381  -0.036730  -0.052516  -0.008741   0.008793
    15  H    0.421854  -0.036730   0.569709  -0.048934   0.008691  -0.008769
    16  C    0.138020  -0.052516  -0.048934   5.401683   0.418465   0.420503
    17  H   -0.023921  -0.008741   0.008691   0.418465   0.560375  -0.033809
    18  H   -0.018624   0.008793  -0.008769   0.420503  -0.033809   0.560267
    19  C   -0.002794  -0.000032   0.000175   0.000095   0.000003  -0.000003
    20  C    0.000853  -0.000058   0.000030  -0.000260   0.000000  -0.000006
    21  C    0.000287  -0.000001   0.000005   0.000028   0.000000   0.000000
    22  H    0.000021   0.000000   0.000000  -0.000002   0.000000   0.000000
    23  H    0.000216   0.000000   0.000000   0.000004   0.000000   0.000000
    24  C    0.000348   0.000001   0.000000   0.000060   0.000000   0.000000
    25  H   -0.000039   0.000000   0.000000  -0.000008   0.000000   0.000000
    26  H    0.000031   0.000000   0.000000   0.000007   0.000000   0.000000
    27  C    0.000202   0.000000   0.000000   0.000007   0.000000   0.000000
    28  H   -0.000002   0.000000   0.000000   0.000000   0.000000   0.000000
    29  H    0.000008   0.000000   0.000000   0.000000   0.000000   0.000000
    30  H    0.000000   0.000000   0.000000   0.000000   0.000000   0.000000
    31  H    0.000005   0.000000   0.000000   0.000000   0.000000   0.000000
    32  H    0.000000   0.000000   0.000000   0.000000   0.000000   0.000000
    33  H    0.000001   0.000000   0.000000   0.000000   0.000000   0.000000
    34  N   -0.001210  -0.000043   0.000122  -0.000105   0.000001  -0.000004
    35  H   -0.071986  -0.004893  -0.004930   0.393763  -0.026907  -0.026738
              19         20         21         22         23         24
     1  C    0.071932  -0.250324  -0.150924   0.010016  -0.009235  -0.126312
     2  H    0.005388   0.001791   0.006053   0.000702   0.000016  -0.000690
     3  H   -0.012873   0.039754  -0.000089   0.005684  -0.000659   0.000053
     4  C   -0.207660   0.092631   0.007704   0.019169   0.006401  -0.030370
     5  H   -0.003612   0.010741  -0.000608   0.000012  -0.000072   0.003138
     6  H   -0.003938   0.005561   0.003807  -0.000063   0.000653  -0.000271
     7  C    0.029300  -0.043825   0.011051  -0.003214  -0.000088   0.023268
     8  H   -0.000872   0.000812   0.000080  -0.000032   0.000034   0.000239
     9  H   -0.000189   0.000794   0.000114   0.000023  -0.000068   0.000023
    10  C   -0.017978  -0.004121   0.001080   0.001039   0.000017  -0.005091
    11  H    0.000389   0.000391  -0.000004   0.000000  -0.000001   0.000010
    12  H   -0.000218  -0.000483  -0.000014  -0.000001   0.000003   0.000033
    13  C   -0.002794   0.000853   0.000287   0.000021   0.000216   0.000348
    14  H   -0.000032  -0.000058  -0.000001   0.000000   0.000000   0.000001
    15  H    0.000175   0.000030   0.000005   0.000000   0.000000   0.000000
    16  C    0.000095  -0.000260   0.000028  -0.000002   0.000004   0.000060
    17  H    0.000003   0.000000   0.000000   0.000000   0.000000   0.000000
    18  H   -0.000003  -0.000006   0.000000   0.000000   0.000000   0.000000
    19  C    5.927896  -0.392724  -0.070211   0.417924   0.378485   0.261482
    20  C   -0.392724   5.921762   0.247674   0.014455   0.009882  -0.082143
    21  C   -0.070211   0.247674   5.729366  -0.078013  -0.002708  -0.219775
    22  H    0.417924   0.014455  -0.078013   0.621447  -0.045808  -0.018082
    23  H    0.378485   0.009882  -0.002708  -0.045808   0.566600  -0.005343
    24  C    0.261482  -0.082143  -0.219775  -0.018082  -0.005343   5.800853
    25  H    0.013067   0.448163  -0.025044   0.015850  -0.001155  -0.057821
    26  H    0.003848   0.379066  -0.001385  -0.000938  -0.000246  -0.018570
    27  C   -0.203007  -0.231181   0.159315  -0.006476   0.017802   0.121098
    28  H   -0.006885  -0.010331   0.365365  -0.006725  -0.005201   0.031077
    29  H   -0.088123   0.001838   0.490477   0.008509  -0.009006  -0.033288
    30  H   -0.013850  -0.006626   0.031523   0.000097   0.000096   0.368351
    31  H    0.003391  -0.101045  -0.028892   0.000417  -0.000225   0.494602
    32  H    0.030330   0.026586  -0.045765  -0.000332  -0.000391  -0.033640
    33  H   -0.026078  -0.024022  -0.052919   0.004017  -0.000230  -0.062075
    34  N    0.172201   0.226166  -0.086779  -0.088017  -0.047814  -0.082898
    35  H    0.000000   0.000002   0.000000   0.000000   0.000000   0.000000
              25         26         27         28         29         30
     1  C    0.003768  -0.018519   0.028436   0.004204  -0.008896   0.000418
     2  H    0.000911  -0.000048  -0.000856  -0.000090  -0.000023   0.000038
     3  H    0.010526  -0.003990  -0.003173   0.000054   0.000013  -0.000007
     4  C    0.007853   0.030851   0.020955  -0.001021   0.005760   0.001362
     5  H   -0.000034  -0.000234   0.000392  -0.000001   0.000001  -0.000002
     6  H   -0.000211   0.000871  -0.002006   0.000010  -0.000047   0.000005
     7  C   -0.012124   0.001075  -0.001855  -0.000224  -0.000422   0.000055
     8  H   -0.000022   0.000023  -0.000039   0.000000   0.000000   0.000000
     9  H    0.000006  -0.000006   0.000118  -0.000001   0.000001   0.000000
    10  C   -0.000876   0.003820   0.001447  -0.000031   0.000169   0.000018
    11  H    0.000001  -0.000006   0.000001   0.000000   0.000000   0.000000
    12  H   -0.000001   0.000003  -0.000004   0.000000   0.000000   0.000000
    13  C   -0.000039   0.000031   0.000202  -0.000002   0.000008   0.000000
    14  H    0.000000   0.000000   0.000000   0.000000   0.000000   0.000000
    15  H    0.000000   0.000000   0.000000   0.000000   0.000000   0.000000
    16  C   -0.000008   0.000007   0.000007   0.000000   0.000000   0.000000
    17  H    0.000000   0.000000   0.000000   0.000000   0.000000   0.000000
    18  H    0.000000   0.000000   0.000000   0.000000   0.000000   0.000000
    19  C    0.013067   0.003848  -0.203007  -0.006885  -0.088123  -0.013850
    20  C    0.448163   0.379066  -0.231181  -0.010331   0.001838  -0.006626
    21  C   -0.025044  -0.001385   0.159315   0.365365   0.490477   0.031523
    22  H    0.015850  -0.000938  -0.006476  -0.006725   0.008509   0.000097
    23  H   -0.001155  -0.000246   0.017802  -0.005201  -0.009006   0.000096
    24  C   -0.057821  -0.018570   0.121098   0.031077  -0.033288   0.368351
    25  H    0.613597  -0.046087  -0.004902   0.000042   0.000403  -0.006432
    26  H   -0.046087   0.565056   0.017882   0.000096  -0.000192  -0.005077
    27  C   -0.004902   0.017882   5.594602  -0.045300  -0.031545  -0.047408
    28  H    0.000042   0.000096  -0.045300   0.565419  -0.031984  -0.000420
    29  H    0.000403  -0.000192  -0.031545  -0.031984   0.540205  -0.000207
    30  H   -0.006432  -0.005077  -0.047408  -0.000420  -0.000207   0.565332
    31  H    0.008321  -0.008314  -0.028559  -0.000288   0.004195  -0.030739
    32  H   -0.000374  -0.000387   0.380309  -0.004863  -0.008302  -0.005097
    33  H    0.003834  -0.000162   0.497282  -0.009081   0.007235  -0.008681
    34  N   -0.099740  -0.049054   0.029000   0.012178   0.002347   0.012574
    35  H    0.000000   0.000000   0.000000   0.000000   0.000000   0.000000
              31         32         33         34         35
     1  C   -0.012066  -0.000156  -0.004121   0.056041   0.000312
     2  H   -0.000001  -0.000002  -0.000003  -0.059196   0.000000
     3  H    0.000061  -0.000005   0.000004  -0.055168   0.000000
     4  C    0.007346  -0.001221   0.002655  -0.060778   0.002339
     5  H    0.000007   0.000000   0.000000   0.006328   0.000002
     6  H   -0.000055   0.000000   0.000002  -0.019949   0.000000
     7  C   -0.000272  -0.000036  -0.000023   0.023850   0.008919
     8  H    0.000000   0.000000   0.000000  -0.000878  -0.000017
     9  H    0.000000   0.000000   0.000000   0.000688  -0.000010
    10  C    0.000180  -0.000011   0.000030  -0.018212   0.043056
    11  H    0.000000   0.000000   0.000000   0.000684   0.000100
    12  H    0.000000   0.000000   0.000000  -0.001014   0.000036
    13  C    0.000005   0.000000   0.000001  -0.001210  -0.071986
    14  H    0.000000   0.000000   0.000000  -0.000043  -0.004893
    15  H    0.000000   0.000000   0.000000   0.000122  -0.004930
    16  C    0.000000   0.000000   0.000000  -0.000105   0.393763
    17  H    0.000000   0.000000   0.000000   0.000001  -0.026907
    18  H    0.000000   0.000000   0.000000  -0.000004  -0.026738
    19  C    0.003391   0.030330  -0.026078   0.172201   0.000000
    20  C   -0.101045   0.026586  -0.024022   0.226166   0.000002
    21  C   -0.028892  -0.045765  -0.052919  -0.086779   0.000000
    22  H    0.000417  -0.000332   0.004017  -0.088017   0.000000
    23  H   -0.000225  -0.000391  -0.000230  -0.047814   0.000000
    24  C    0.494602  -0.033640  -0.062075  -0.082898   0.000000
    25  H    0.008321  -0.000374   0.003834  -0.099740   0.000000
    26  H   -0.008314  -0.000387  -0.000162  -0.049054   0.000000
    27  C   -0.028559   0.380309   0.497282   0.029000   0.000000
    28  H   -0.000288  -0.004863  -0.009081   0.012178   0.000000
    29  H    0.004195  -0.008302   0.007235   0.002347   0.000000
    30  H   -0.030739  -0.005097  -0.008681   0.012574   0.000000
    31  H    0.540809  -0.008520   0.007328   0.002438   0.000000
    32  H   -0.008520   0.564548  -0.030930  -0.005147   0.000000
    33  H    0.007328  -0.030930   0.554004   0.002378   0.000000
    34  N    0.002438  -0.005147   0.002378   6.902253   0.000001
    35  H    0.000000   0.000000   0.000000   0.000001   0.553830
 Mulliken charges:
               1
     1  C   -0.751188
     2  H    0.155454
     3  H    0.151476
     4  C   -0.012170
     5  H    0.136234
     6  H    0.167076
     7  C   -0.145656
     8  H    0.143934
     9  H    0.144178
    10  C   -0.344683
    11  H    0.139247
    12  H    0.142795
    13  C   -0.230975
    14  H    0.135356
    15  H    0.136019
    16  C   -0.585515
    17  H    0.129216
    18  H    0.129721
    19  C   -0.264862
    20  C   -0.281803
    21  C   -0.290801
    22  H    0.128322
    23  H    0.148040
    24  C   -0.328263
    25  H    0.128529
    26  H    0.150585
    27  C   -0.262536
    28  H    0.144002
    29  H    0.150874
    30  H    0.144678
    31  H    0.149878
    32  H    0.143407
    33  H    0.139554
    34  N    0.226757
    35  H    0.133121
 Sum of Mulliken charges =   0.00000
 Mulliken charges with hydrogens summed into heavy atoms:
               1
     1  C   -0.444257
     4  C    0.291140
     7  C    0.142456
    10  C   -0.062641
    13  C    0.040400
    16  C   -0.193458
    19  C    0.011500
    20  C   -0.002689
    21  C    0.004075
    24  C   -0.033708
    27  C    0.020425
    34  N    0.226757
 Electronic spatial extent (au):  <R**2>=           4643.4397
 Charge=              0.0000 electrons
 Dipole moment (field-independent basis, Debye):
    X=              0.2822    Y=              0.0900    Z=              0.6964  Tot=              0.7567
 Quadrupole moment (field-independent basis, Debye-Ang):
   XX=            -80.6950   YY=            -78.7022   ZZ=            -81.0030
   XY=             -0.2638   XZ=             -0.2589   YZ=             -1.0149
 Traceless Quadrupole moment (field-independent basis, Debye-Ang):
   XX=             -0.5616   YY=              1.4312   ZZ=             -0.8696
   XY=             -0.2638   XZ=             -0.2589   YZ=             -1.0149
 Octapole moment (field-independent basis, Debye-Ang**2):
  XXX=             25.1725  YYY=             -0.4231  ZZZ=             -1.8753  XYY=              1.5644
  XXY=              1.9611  XXZ=              2.9154  XZZ=             -1.5451  YZZ=             -0.0809
  YYZ=             -0.0755  XYZ=              2.2624
 Hexadecapole moment (field-independent basis, Debye-Ang**3):
 XXXX=          -5987.9659 YYYY=           -472.5295 ZZZZ=           -269.8656 XXXY=            -23.8977
 XXXZ=            -49.8100 YYYX=              1.2446 YYYZ=             -3.6152 ZZZX=             -3.8607
 ZZZY=             -1.7994 XXYY=          -1044.5646 XXZZ=          -1018.4353 YYZZ=           -130.3014
 XXYZ=            -11.3708 YYXZ=             -0.2902 ZZXY=             -1.2356
 N-N= 7.198253002449D+02 E-N=-2.570147290365D+03  KE= 4.855120149308D+02
 There are a total of      292300 grid points.
 ElSum from          density=       95.9997649156
 ElSum from atomic densities=       95.9992562367

 Hirshfeld populations at iteration   1 (CX, CA, CB, DipXYZ):
               1          2          3          4          5          6
     1  C    0.000000   3.004806   3.004806   0.015495  -0.002785  -0.031132
     2  H    0.000000   0.482959   0.482959  -0.029996   0.127368   0.043925
     3  H    0.000000   0.485530   0.485530   0.004742  -0.089535   0.101347
     4  C    0.000000   3.031622   3.031622  -0.004365   0.007733   0.012699
     5  H    0.000000   0.485535   0.485535  -0.019536  -0.138814   0.024363
     6  H    0.000000   0.484080   0.484080   0.008869   0.031856  -0.134312
     7  C    0.000000   3.030139   3.030139  -0.002375  -0.007965  -0.009565
     8  H    0.000000   0.485165   0.485165  -0.016634  -0.020987   0.138905
     9  H    0.000000   0.484241   0.484241   0.012925   0.135935  -0.044207
    10  C    0.000000   3.029334   3.029334   0.000675   0.007154   0.004114
    11  H    0.000000   0.484263   0.484263  -0.015497  -0.134623   0.044686
    12  H    0.000000   0.483730   0.483730   0.018204   0.017820  -0.141249
    13  C    0.000000   3.029130   3.029130  -0.005016  -0.008207  -0.007766
    14  H    0.000000   0.484556   0.484556  -0.021458  -0.015329   0.141069
    15  H    0.000000   0.484436   0.484436   0.010202   0.135766  -0.046650
    16  C    0.000000   3.051931   3.051931   0.014568   0.007348   0.008062
    17  H    0.000000   0.483776   0.483776  -0.011797  -0.137707   0.044851
    18  H    0.000000   0.483654   0.483654   0.020186   0.013028  -0.143532
    19  C    0.000000   3.007302   3.007302  -0.008970  -0.031358  -0.023276
    20  C    0.000000   3.006932   3.006932  -0.012011   0.026482  -0.027771
    21  C    0.000000   3.031811   3.031811  -0.003784  -0.010676   0.011068
    22  H    0.000000   0.490476   0.490476   0.023254   0.017174   0.113329
    23  H    0.000000   0.480405   0.480405  -0.073279   0.112709  -0.048884
    24  C    0.000000   3.031695   3.031695  -0.004995   0.011812   0.009858
    25  H    0.000000   0.490511   0.490511   0.025314  -0.001094   0.113348
    26  H    0.000000   0.479957   0.479957  -0.064753  -0.123031  -0.033372
    27  C    0.000000   3.031944   3.031944  -0.015610  -0.001204  -0.010415
    28  H    0.000000   0.482185   0.482185   0.073487   0.115737   0.030756
    29  H    0.000000   0.483037   0.483037  -0.020753   0.002041  -0.134548
    30  H    0.000000   0.482170   0.482170   0.081155  -0.105603   0.044803
    31  H    0.000000   0.482942   0.482942  -0.020512  -0.020564  -0.133191
    32  H    0.000000   0.482906   0.482906   0.111741  -0.001502  -0.084444
    33  H    0.000000   0.485261   0.485261   0.042063   0.009548   0.124356
    34  N    0.000000   3.577157   3.577157   0.041724   0.007838   0.165711
    35  H    0.000000   0.484305   0.484305  -0.113763   0.079726   0.044543
       Tot   0.000005  47.999882  47.999882   0.039501   0.016092   0.167476

 Dip from Atomic Chgs              0.073701   0.019159   0.106820
         Total Dipole              0.113201   0.035251   0.274296

 Hirshfeld charges, spin densities, dipoles, and CM5 charges using IRadAn=      4:
              Q-H        S-H        Dx         Dy         Dz        Q-CM5   
     1  C   -0.009611   0.000000   0.015495  -0.002785  -0.031132  -0.076497
     2  H    0.034082   0.000000  -0.029996   0.127368   0.043925   0.102096
     3  H    0.028940   0.000000   0.004742  -0.089535   0.101347   0.096012
     4  C   -0.063245   0.000000  -0.004365   0.007733   0.012699  -0.175583
     5  H    0.028930   0.000000  -0.019536  -0.138814   0.024363   0.088482
     6  H    0.031840   0.000000   0.008869   0.031856  -0.134312   0.094451
     7  C   -0.060278   0.000000  -0.002375  -0.007965  -0.009565  -0.177988
     8  H    0.029670   0.000000  -0.016634  -0.020987   0.138905   0.088699
     9  H    0.031519   0.000000   0.012925   0.135935  -0.044207   0.090419
    10  C   -0.058668   0.000000   0.000675   0.007154   0.004114  -0.176484
    11  H    0.031474   0.000000  -0.015497  -0.134623   0.044686   0.090307
    12  H    0.032540   0.000000   0.018204   0.017820  -0.141249   0.091393
    13  C   -0.058260   0.000000  -0.005016  -0.008207  -0.007766  -0.177778
    14  H    0.030887   0.000000  -0.021458  -0.015329   0.141069   0.088916
    15  H    0.031129   0.000000   0.010202   0.135766  -0.046650   0.089133
    16  C   -0.103862   0.000000   0.014568   0.007348   0.008062  -0.263125
    17  H    0.032448   0.000000  -0.011797  -0.137707   0.044851   0.086978
    18  H    0.032692   0.000000   0.020186   0.013028  -0.143532   0.087226
    19  C   -0.014603   0.000000  -0.008970  -0.031358  -0.023276  -0.065148
    20  C   -0.013865   0.000000  -0.012011   0.026482  -0.027771  -0.064422
    21  C   -0.063622   0.000000  -0.003784  -0.010676   0.011068  -0.162319
    22  H    0.019048   0.000000   0.023254   0.017174   0.113329   0.079632
    23  H    0.039190   0.000000  -0.073279   0.112709  -0.048884   0.098483
    24  C   -0.063390   0.000000  -0.004995   0.011812   0.009858  -0.162062
    25  H    0.018979   0.000000   0.025314  -0.001094   0.113348   0.079563
    26  H    0.040086   0.000000  -0.064753  -0.123031  -0.033372   0.099523
    27  C   -0.063887   0.000000  -0.015610  -0.001204  -0.010415  -0.165881
    28  H    0.035630   0.000000   0.073487   0.115737   0.030756   0.087162
    29  H    0.033926   0.000000  -0.020753   0.002041  -0.134548   0.087878
    30  H    0.035659   0.000000   0.081155  -0.105603   0.044803   0.087192
    31  H    0.034116   0.000000  -0.020512  -0.020564  -0.133191   0.088081
    32  H    0.034187   0.000000   0.111741  -0.001502  -0.084444   0.085514
    33  H    0.029479   0.000000   0.042063   0.009548   0.124356   0.082295
    34  N   -0.154314   0.000000   0.041724   0.007838   0.165711  -0.387133
    35  H    0.031391   0.000000  -0.113763   0.079726   0.044543   0.085224
       Tot   0.000235   0.000000   0.039501   0.016092   0.167476   0.000235
 Hirshfeld charges with hydrogens summed into heavy atoms:
              Q-H       Q-CM5   
     1  C    0.053410   0.121611
     4  C   -0.002475   0.007349
     7  C    0.000911   0.001129
    10  C    0.005347   0.005216
    13  C    0.003756   0.000271
    16  C   -0.007331  -0.003698
    19  C    0.043634   0.112967
    20  C    0.045199   0.114664
    21  C    0.005934   0.012720
    24  C    0.006385   0.013211
    27  C   -0.000221   0.001928
    34  N   -0.154314  -0.387133
 
 EQQ= 0.000000000000E+00 EQD= 0.000000000000E+00 EDD=-0.412563747048E-02
 EQQ+QD+DD=-0.412563747048E-02
 
          MBS Condensed to atoms (all electrons):
               1          2          3          4          5          6
     1  C    4.782984   0.378750   0.374131   0.363242  -0.023972  -0.024223
     2  H    0.378750   0.605080  -0.024001  -0.026711   0.002347   0.000349
     3  H    0.374131  -0.024001   0.616272  -0.026290  -0.005917   0.002269
     4  C    0.363242  -0.026711  -0.026290   4.826841   0.380988   0.378033
     5  H   -0.023972   0.002347  -0.005917   0.380988   0.617348  -0.024509
     6  H   -0.024223   0.000349   0.002269   0.378033  -0.024509   0.592943
     7  C   -0.023126  -0.005907   0.000541   0.362304  -0.024173  -0.022106
     8  H   -0.003101   0.000060   0.000496  -0.024098  -0.002049   0.002382
     9  H   -0.002284   0.001388   0.000016  -0.023797   0.002391  -0.003626
    10  C    0.000872   0.000045  -0.000030  -0.023779  -0.003269  -0.001977
    11  H    0.000002   0.000003   0.000005  -0.002623   0.001344  -0.000041
    12  H    0.000007   0.000002  -0.000001  -0.002424  -0.000095   0.001034
    13  C   -0.000007  -0.000001   0.000000   0.000865   0.000019   0.000004
    14  H    0.000000   0.000000   0.000000   0.000008   0.000003   0.000000
    15  H    0.000000   0.000000   0.000000   0.000006   0.000000   0.000004
    16  C    0.000000   0.000000   0.000000  -0.000008   0.000000   0.000000
    17  H    0.000000   0.000000   0.000000   0.000000   0.000000   0.000000
    18  H    0.000000   0.000000   0.000000   0.000000   0.000000   0.000000
    19  C   -0.026897  -0.006667   0.000536   0.000941  -0.000016   0.000081
    20  C   -0.026932   0.001356  -0.007399   0.000631  -0.000057   0.000009
    21  C    0.000918   0.000067  -0.000036  -0.000008   0.000000  -0.000007
    22  H   -0.003652   0.000912   0.000746  -0.000048   0.000000   0.000014
    23  H   -0.002430   0.000596  -0.000028   0.000117  -0.000002   0.000008
    24  C    0.000921  -0.000033   0.000054  -0.000007  -0.000002  -0.000005
    25  H   -0.004714   0.000196   0.003383  -0.000089   0.000028   0.000016
    26  H   -0.001594   0.000008  -0.000381   0.000278   0.000100  -0.000007
    27  C    0.000016   0.000002   0.000001   0.000000   0.000000   0.000000
    28  H   -0.000024  -0.000004   0.000002   0.000000   0.000000   0.000000
    29  H   -0.000006   0.000003   0.000000   0.000000   0.000000   0.000001
    30  H   -0.000024   0.000001  -0.000002   0.000000   0.000000   0.000000
    31  H   -0.000008   0.000000   0.000004   0.000000   0.000001   0.000001
    32  H    0.000001   0.000000   0.000000   0.000000   0.000000   0.000000
    33  H   -0.000007   0.000000   0.000001   0.000000   0.000000   0.000000
    34  N    0.303588  -0.018012  -0.019338  -0.026394   0.000645  -0.000737
    35  H    0.000000   0.000000   0.000000   0.000000   0.000000   0.000000
               7          8          9         10         11         12
     1  C   -0.023126  -0.003101  -0.002284   0.000872   0.000002   0.000007
     2  H   -0.005907   0.000060   0.001388   0.000045   0.000003   0.000002
     3  H    0.000541   0.000496   0.000016  -0.000030   0.000005  -0.000001
     4  C    0.362304  -0.024098  -0.023797  -0.023779  -0.002623  -0.002424
     5  H   -0.024173  -0.002049   0.002391  -0.003269   0.001344  -0.000095
     6  H   -0.022106   0.002382  -0.003626  -0.001977  -0.000041   0.001034
     7  C    4.817494   0.380773   0.381634   0.365301  -0.023688  -0.023869
     8  H    0.380773   0.620117  -0.025937  -0.023882  -0.002865   0.002395
     9  H    0.381634  -0.025937   0.615838  -0.023879   0.002364  -0.002617
    10  C    0.365301  -0.023882  -0.023879   4.815432   0.381040   0.381084
    11  H   -0.023688  -0.002865   0.002364   0.381040   0.615862  -0.025469
    12  H   -0.023869   0.002395  -0.002617   0.381084  -0.025469   0.614484
    13  C   -0.024229  -0.002458  -0.002612   0.366771  -0.023954  -0.023947
    14  H   -0.002570   0.001186  -0.000047  -0.024217  -0.002643   0.002391
    15  H   -0.002497  -0.000034   0.001193  -0.024125   0.002390  -0.002793
    16  C    0.000895   0.000007   0.000009  -0.025436  -0.002575  -0.002413
    17  H    0.000010   0.000004   0.000000  -0.002812   0.001314  -0.000056
    18  H    0.000009   0.000000   0.000003  -0.002797  -0.000061   0.001281
    19  C   -0.000016   0.000000  -0.000002   0.000000   0.000000   0.000000
    20  C   -0.000005   0.000000  -0.000001   0.000000   0.000000   0.000000
[...]
 ,0.00036782,0.00091807,0.00044620,0.00007676,-0.00027161,-0.00003284,0
 .00004107,-0.00002448,-0.00000110,0.00008412,0.00004986,-0.00002134,-0
 .00003337,-0.00003382,0.00000080,-0.00001543,0.00000082,-0.00000821,-0
 .00004540,-0.00002332,-0.00000092,0.00000271,0.00000456,-0.00002027,0.
 00000177,0.00000378,0.00000401,0.00001009,-0.00000888,0.00000022,-0.00
 000489,-0.00000384,0.00000072,-0.00000304,0.00000005,-0.00000215,-0.00
 000812,-0.00000085,0.00000005,0.00000051,0.00000020,0.00000025,0.00000
 074,0.00000059,0.00000236,0.00000165,-0.00000164,0.00000028,-0.0000002
 5,0.00000019,-0.00000023,-0.00000037,-0.00000003,0.00040575,-0.0002036
 9,-0.00074116,0.02140109,0.00098131,0.01151445,0.00156938,-0.00431425,
 -0.00290412,-0.00004625,0.00008256,0.00013833,-0.00001171,0.00010113,0
 .00010505,-0.09945158,-0.00463565,-0.09526313,-0.00073962,0.00012497,0
 .00087278,-0.00066775,-0.00042307,0.00093714,-0.02140042,-0.00020330,-
 0.00987833,-0.00160039,-0.00049319,-0.00036518,0.00046163,0.00011327,0
 .00019702,0.10673238,0.00789858,0.10371069,-0.00024561,0.00001609,0.00
 050283,-0.00000647,0.00008843,-0.00007730,-0.00006112,0.00023445,-0.00
 026159,0.00002811,-0.00001826,-0.00000618,-0.00000530,-0.00002792,-0.0
 0000943,-0.00002435,0.00003866,-0.00000768,-0.00001655,-0.00000230,-0.
 00000750,0.00001060,0.00000551,-0.00001003,-0.00000253,-0.00000140,-0.
 00000145,0.00000994,0.00000971,0.00000166,-0.00000307,-0.00000202,-0.0
 0000410,-0.00000188,0.00000173,0.00000113,-0.00000363,-0.00000565,-0.0
 0000036,0.00000100,0.00000087,-0.00000093,-0.00000122,-0.00000009,-0.0
 0000015,0.00000406,0.00000264,-0.00000067,-0.00000177,-0.00000061,-0.0
 0000132,-0.00000011,-0.00000044,0.00000101,-0.00013293,-0.00043340,-0.
 00000283,0.00298955,-0.02143593,0.01193303,0.00037324,-0.00081270,0.00
 042796,-0.00009077,0.00025912,-0.00008872,-0.00000821,-0.00000257,-0.0
 0003044,-0.05832014,0.04343381,-0.02351705,-0.00262621,-0.00103282,0.0
 0312673,0.00086429,0.00029004,-0.00081805,-0.00069355,0.00057471,0.000
 26475,-0.00000937,0.00008981,0.00001847,0.00029499,-0.00008449,-0.0000
 7456,-0.00518216,0.02574047,-0.01236346,0.05972728,-0.00018983,0.00014
 099,-0.00009759,-0.00005823,0.00001944,-0.00000339,0.00015317,0.000077
 82,-0.00011835,0.00002983,-0.00006142,0.00009095,-0.00001476,-0.000031
 99,-0.00002582,-0.00004018,0.00003961,-0.00001892,-0.00001697,0.000017
 89,-0.00001840,0.00000992,0.00000776,-0.00001141,-0.00000738,-0.000002
 86,0.00000571,0.00000015,-0.00001302,0.00000739,0.00000015,-0.00000180
 ,0.00000070,-0.00000558,0.00000841,-0.00000392,0.00000033,0.00000479,0
 .00000133,0.00000094,0.00000275,-0.00000337,-0.00000030,-0.00000080,0.
 00000039,-0.00000043,-0.00000300,0.00000197,0.00000033,-0.00000055,0.0
 0000067,-0.00000145,0.00000285,-0.00000169,-0.00013915,-0.00025172,-0.
 00020102,0.00129059,-0.00534385,0.00359906,0.00060228,0.00054793,0.001
 24415,0.00016026,0.00013875,-0.00007466,-0.00009641,-0.00002051,0.0000
 3891,0.04147558,-0.24279362,0.09544841,-0.00070404,0.00108588,0.000744
 38,-0.00032351,0.00090923,0.00008869,0.00548564,-0.02298345,0.00917047
 ,0.00003183,0.00043634,-0.00021717,-0.00091843,0.00024380,-0.00053905,
 0.00041780,0.00227906,-0.00094881,-0.04730998,0.26636310,0.00005129,-0
 .00016616,0.00004058,0.00007413,-0.00007629,0.00004711,-0.00019920,-0.
 00017403,0.00020110,-0.00001736,0.00005670,-0.00003316,0.00000227,0.00
 005770,-0.00002785,0.00007088,-0.00005315,0.00003095,0.00000481,-0.000
 03162,-0.00000247,-0.00001844,-0.00001431,0.00002314,-0.00000170,-0.00
 000119,0.00000177,0.00000643,0.00002008,-0.00000597,-0.00000312,0.0000
 0407,-0.00000777,0.00001122,-0.00001188,0.00000639,-0.00000078,-0.0000
 0982,-0.00000333,-0.00000215,-0.00000361,0.00000520,-0.00000168,0.0000
 0005,0.00000009,0.00000268,0.00000447,-0.00000222,-0.00000117,0.000000
 88,-0.00000243,0.00000265,-0.00000356,0.00000238,0.00002259,-0.0001629
 1,-0.00021112,-0.00456748,0.02272085,-0.01411197,0.00075135,0.00017554
 ,0.00108338,-0.00010090,-0.00000912,-0.00018393,-0.00000425,0.00006025
 ,0.00006562,-0.02193765,0.09543871,-0.09348862,0.00418693,0.00075044,-
 0.00276965,-0.00063047,-0.00018922,0.00038736,0.00499457,-0.02278805,0
 .00953658,0.00024742,0.00029709,-0.00001143,-0.00013936,0.00032247,-0.
 00015214,-0.00230443,0.01159851,-0.00647024,0.02082854,-0.10324296,0.1
 0590527,0.00018329,0.00013078,-0.00003214,0.00013418,-0.00000986,-0.00
 001847,0.00001294,-0.00004324,0.00005263,0.00001306,-0.00003239,0.0000
 7617,-0.00001374,0.00003781,0.00003129,-0.00000728,0.00000740,-0.00001
 164,0.00002691,0.00004797,0.00000147,-0.00000024,-0.00000225,-0.000000
 98,0.00000400,-0.00000456,-0.00000387,-0.00002210,-0.00002963,0.000008
 45,0.00000346,0.00000248,0.00000391,-0.00000180,0.00000533,-0.00000301
 ,0.00000915,0.00002004,-0.00000063,-0.00000031,-0.00000107,0.00000003,
 -0.00000046,-0.00000130,-0.00000014,-0.00000901,-0.00000798,0.00000468
 ,0.00000368,0.00000149,0.00000090,0.00000076,0.00000319,-0.00000284,-0
 .00500502,-0.00060943,-0.00521980,0.00058960,0.00002937,-0.00058712,-0
 .01994248,-0.00724332,0.02364371,0.00021026,-0.00008910,-0.00004423,-0
 .00126182,-0.00008291,0.00153257,0.00099421,0.00098862,-0.00119721,-0.
 00004493,-0.00017028,0.00016920,0.00014249,-0.00020726,-0.00006092,-0.
 14737262,-0.03541305,0.11861584,0.00099207,-0.00041931,-0.00014376,0.0
 0104328,0.00078049,0.00013232,0.00038060,0.00045250,0.00016017,0.00002
 904,0.00030463,0.00014464,0.16191765,0.00000317,0.00007167,0.00009596,
 0.00009137,0.00002007,-0.00000630,-0.00003517,-0.00000573,-0.00000337,
 -0.00002552,-0.00002540,-0.00006441,0.00003296,0.00004424,0.00007262,0
 .00000680,-0.00000352,0.00000865,0.00001963,0.00001646,0.00004119,-0.0
 0000185,-0.00000037,-0.00000304,0.00002087,0.00000165,-0.00001134,-0.0
 0000475,0.00000402,-0.00000080,0.00000055,0.00000178,0.00000370,0.0000
 0052,-0.00000146,0.00000098,-0.00000093,-0.00000160,0.00000107,-0.0000
 0029,-0.00000030,-0.00000004,0.00000149,0.00000033,-0.00000010,0.00000
 041,0.00000111,-0.00000119,0.00000018,0.00000018,0.00000043,0.00000011
 ,-0.00000059,0.00000031,-0.00104179,0.00013903,-0.00090870,-0.00127855
 ,-0.00409077,-0.00295024,-0.00119828,-0.00164914,0.00314061,0.00031593
 ,0.00033153,-0.00045664,-0.00040637,0.00032303,0.00030206,0.01701201,0
 .00535143,-0.01954192,0.00006209,0.00023187,-0.00028637,0.00091221,0.0
 0030294,-0.00104112,-0.03663844,-0.06112168,0.04429002,-0.00005735,-0.
 00020613,0.00022790,0.00016978,0.00044869,-0.00045987,-0.00034284,0.00
 079770,0.00075500,0.00031647,0.00101194,0.00074946,0.04002382,0.064412
 81,-0.00010293,0.00008081,0.00023178,0.00013777,0.00001421,0.00000323,
 -0.00001766,-0.00001053,-0.00003088,-0.00001447,-0.00001203,-0.0001021
 5,0.00004429,0.00005896,0.00009870,0.00000743,-0.00000599,0.00001371,0
 .00000147,-0.00000700,0.00005422,-0.00000247,0.00000232,-0.00000540,0.
 00003354,0.00000338,-0.00001255,0.00001106,0.00002799,-0.00000564,-0.0
 0000163,0.00000155,0.00000397,0.00000055,-0.00000482,0.00000268,-0.000
 01253,-0.00001755,0.00000277,-0.00000015,0.00000123,-0.00000093,0.0000
 0398,0.00000124,0.00000049,0.00000921,0.00000816,-0.00000500,-0.000003
 64,-0.00000104,0.00000056,-0.00000148,-0.00000341,0.00000306,-0.002454
 16,-0.00050013,-0.00089884,-0.00185238,-0.00494423,-0.00232322,-0.0092
 5772,-0.00300927,0.01086773,-0.00010490,-0.00008529,0.00010525,-0.0005
 5947,-0.00011073,0.00044985,0.01403670,0.00623212,-0.01689295,-0.00028
 564,-0.00008552,0.00045550,0.00135708,0.00011487,-0.00090383,0.1196491
 7,0.04321718,-0.18812329,0.00083314,0.00011369,0.00051699,0.00075271,-
 0.00004439,0.00070464,-0.00049121,0.00049381,0.00008377,0.00000211,-0.
 00018256,0.00118501,-0.12956720,-0.04493604,0.20466226,-0.00005903,0.0
 0009588,0.00002102,0.00001266,0.00000793,0.00001370,0.00000517,-0.0000
 2680,0.00003926,-0.00001316,-0.00000412,-0.00000246,0.00000717,0.00000
 205,0.00000896,0.00000166,-0.00001444,-0.00000265,-0.00000647,0.000002
 82,0.00000469,-0.00000006,-0.00000203,0.00000399,0.00000562,0.00000211
 ,-0.00000132,0.00000025,0.00000636,-0.00000197,0.00000027,0.00000034,0
 .00000074,0.00000070,-0.00000362,0.00000080,-0.00000267,-0.00000245,-0
 .00000089,0.00000009,-0.00000071,0.00000136,0.00000107,0.00000072,-0.0
 0000004,0.00000134,0.00000167,-0.00000083,-0.00000034,-0.00000006,0.00
 000017,-0.00000011,-0.00000149,0.00000083,0.00156826,0.00181890,-0.000
 86964,-0.00022767,0.00072495,-0.00058226,-0.01204262,0.02708323,-0.014
 42997,-0.00008654,-0.00080741,0.00082411,0.00037236,-0.00048119,0.0000
 0036,-0.00003760,-0.00161564,0.00038646,0.00007588,-0.00000940,0.00017
 454,-0.00001903,-0.00012884,0.00009888,-0.07113217,0.06408412,-0.02840
 901,0.00132837,-0.00035064,0.00022954,-0.00562520,-0.00096697,-0.00206
 785,0.00040691,-0.00027692,0.00042468,0.00094240,-0.00032987,-0.000443
 54,0.00654651,-0.01776336,0.00790249,0.07802341,0.00002221,-0.00002955
 ,0.00009476,0.00002482,0.00000738,-0.00000948,-0.00001242,0.00004742,-
 0.00004428,0.00001977,-0.00000544,0.00000264,-0.00000653,-0.00000160,0
 .00001528,-0.00001870,0.00001683,-0.00000692,-0.00000686,-0.00000861,0
 .00000732,0.00000375,0.00000750,-0.00001041,0.00000418,0.00000023,-0.0
 0000006,0.00000768,0.00000288,0.00000060,-0.00000028,-0.00000197,0.000
 00219,-0.00000424,0.00000469,-0.00000235,-0.00000472,-0.00000603,0.000
 00334,0.00000069,0.00000342,-0.00000376,0.00000141,0.,0.00000039,0.000
 00383,0.00000137,-0.00000103,-0.00000156,-0.00000122,0.00000094,-0.000
 00201,0.00000114,-0.00000035,-0.00001250,-0.00012997,-0.00001494,-0.00
 024255,0.00029463,0.00170268,-0.00149686,0.00390613,-0.00184708,0.0003
 0109,0.00020524,-0.00046612,0.00009987,0.00015314,-0.00018432,0.006823
 33,-0.02375279,0.00933959,0.00049917,0.00092048,-0.00088669,-0.0003038
 2,0.00041383,-0.00016084,0.06470648,-0.22735725,0.08770753,0.00053571,
 0.00090965,0.00019760,-0.00130955,0.00117237,-0.00037493,-0.00057407,0
 .00071869,0.00005195,-0.00013319,-0.00248683,-0.00420771,0.00154648,-0
 .00651898,0.00340342,-0.07045687,0.25132109,0.00009883,0.00002173,-0.0
 0001456,0.00001701,0.00000646,-0.00000181,0.00001449,-0.00000846,0.000
 01902,-0.00001596,-0.00000910,0.00002560,-0.00000337,-0.00000446,0.000
 00095,-0.00000689,-0.00000003,-0.00000655,0.00000607,0.00001654,-0.000
 00621,0.00000091,-0.00000093,0.00000157,-0.00000148,0.,-0.00000031,-0.
 00000852,-0.00001056,0.00000187,0.00000197,0.00000037,0.00000206,-0.00
 000104,0.00000042,-0.00000096,0.00000352,0.00000802,-0.00000063,0.0000
 0019,-0.00000118,0.00000092,0.00000025,0.00000010,-0.00000031,-0.00000
 379,-0.00000253,0.00000123,0.00000180,0.00000068,0.00000051,0.00000040
 ,0.00000048,-0.00000084,0.00089642,-0.00032212,0.00024935,-0.00008244,
 -0.00043492,0.00166909,-0.00511600,0.01114974,-0.00706035,-0.00007337,
 -0.00026526,0.00065719,0.00009523,-0.00018658,-0.00001249,0.00726947,-
 0.02180464,0.00897452,-0.00021806,0.00035900,-0.00011701,-0.00031677,0
 .00020377,0.00010924,-0.02902060,0.08834239,-0.09057363,0.00021009,-0.
 00001296,-0.00000609,-0.00276304,-0.00083168,0.00007998,-0.00003170,0.
 00079446,0.00113201,0.00038353,-0.00389978,-0.00281851,-0.00756082,0.0
 2068107,-0.01033300,0.03640631,-0.09392446,0.09825097,-0.13892905,-0.0
 3511942,0.05814011,-0.02844248,-0.00600082,0.02376733,-0.00139037,-0.0
 0646014,0.00901952,-0.00710260,0.00332082,0.00744701,0.00035235,0.0000
 2170,-0.00005554,0.00053000,-0.00097833,-0.00075742,0.00079963,0.00090
 828,0.00037924,-0.00016797,-0.00005419,0.00005341,0.00055088,0.0000369
 9,-0.00019841,0.00004501,-0.00076171,0.00015150,0.00004849,0.00016224,
 0.00016643,-0.00003575,0.00008176,-0.00002034,0.00011675,0.00027711,0.
 00003494,0.00000691,-0.00002136,-0.00000849,0.00002409,-0.00001385,-0.
 00000748,-0.00012082,-0.00008659,0.00003385,0.00003904,0.00001800,0.00
 001754,0.00000467,0.00002507,-0.00001916,-0.09856764,-0.01269764,0.003
 22135,-0.16985199,0.01341915,-0.04311524,0.00168304,0.02194057,0.01821
 282,0.00165587,0.00458847,0.00414170,-0.00228461,-0.02739714,-0.020967
 26,-0.03377819,-0.00302171,-0.00888161,-0.02686839,0.00661118,-0.01593
 474,-0.00319139,-0.00267823,-0.00338095,0.00240658,-0.00030522,-0.0029
 2964,-0.00349347,-0.00022784,0.00469684,0.00083223,0.00037628,-0.00092
 265,-0.00279246,0.00028171,0.00364074,0.00216049,0.00019336,-0.0010291
 3,0.00045170,-0.00019521,-0.00006164,-0.00004864,-0.00001760,-0.000179
 50,0.50541844,-0.00568426,-0.07472166,-0.01523819,-0.00671142,-0.00197
 078,0.00621673,-0.01847449,-0.00257948,0.01885490,0.02270168,0.0067677
 1,-0.01905641,-0.00063302,0.00080713,0.00024073,-0.00033268,0.00286506
 ,0.00018050,-0.00105311,-0.00548741,-0.00253514,0.00025190,0.00020967,
 -0.00079494,0.00017531,-0.00001722,0.00028864,0.00167858,0.00109657,-0
 .00103205,-0.00007422,0.00004383,0.00000856,-0.00004953,0.00009320,0.0
 0016010,-0.00016084,-0.00080150,-0.00017995,-0.00001876,0.00005226,-0.
 00006088,0.00004198,0.00000229,0.00004117,0.00026212,0.00013094,-0.000
 14948,-0.00003400,-0.00000980,0.00000767,-0.00002121,-0.00000205,0.000
 02020,-0.00660499,-0.13677574,-0.04057916,-0.02180986,-0.07173606,-0.0
 2689743,0.00416511,0.00201041,-0.00292426,0.00094603,-0.03998646,-0.02
 515740,-0.00235811,-0.00623877,-0.00533928,-0.00507236,0.00038958,-0.0
 0100906,0.02352240,0.00415759,0.01078197,-0.02630947,-0.00122940,-0.01
 172871,-0.00030756,-0.00024097,-0.00072471,-0.00086489,0.00064147,0.00
 209279,0.00007529,0.00169975,0.00001547,-0.00064658,0.00073012,0.00063
 787,0.00020286,0.00065575,-0.00110911,-0.00001994,0.00011369,0.0001900
 2,-0.00058756,0.00019320,0.00013266,0.04372202,0.31923830,0.04234124,0
 .00979039,-0.13862321,-0.00829494,-0.00211678,0.00880152,0.02387468,0.
 00884034,-0.02760202,0.01875226,0.00030494,-0.01900127,-0.00037932,0.0
 0089679,0.00065117,-0.00063155,0.00074816,0.00152399,-0.00178948,-0.00
 377224,-0.00192953,-0.00019565,-0.00025544,0.00043829,0.00055539,0.000
 02370,0.00032401,0.00139869,0.00098719,-0.00014072,-0.00008098,0.00009
 290,-0.00000221,0.00007134,-0.00023533,-0.00000725,-0.00016206,-0.0006
 3729,-0.00017990,-0.00003458,0.00001131,0.00003118,0.00004862,0.000014
 66,0.00003696,0.00022030,0.00013588,-0.00011188,-0.00002965,-0.0000029
 7,-0.00000049,-0.00000701,-0.00004300,0.00003021,0.00286254,-0.0808083
 0,-0.11620744,-0.02536135,-0.00904939,-0.11384416,0.00302320,-0.023988
 52,-0.02353928,0.00198505,-0.00428474,0.00607555,-0.00186094,-0.014182
 81,-0.01195077,0.02282752,0.00262350,0.01434744,-0.02378282,0.00225342
 ,-0.01190120,-0.02562765,-0.00138960,-0.01190070,-0.00317793,-0.000605
 81,0.00185162,0.00417566,0.00028582,-0.00287269,-0.00144314,-0.0005356
 0,0.00188068,0.00543722,0.00114614,-0.00367782,-0.00020557,-0.00083524
 ,0.00178263,-0.00013091,0.00030090,0.00020046,0.00027099,-0.00038122,-
 0.00022598,-0.03472232,0.11475748,0.44585032,-0.00001934,-0.00011924,-
 0.00001463,0.00000252,-0.00000404,0.00000006,-0.00001029,0.00001354,0.
 00000355,0.00005914,0.00024955,0.00004276,-0.00000128,-0.00001310,-0.0
 0001298,0.00000633,-0.00000883,0.00000072,-0.00009111,-0.00058138,0.00
 029141,-0.00002474,0.00003783,-0.00004481,0.00000928,0.00009291,0.0000
 8063,0.00082339,0.00193606,0.00040695,0.00053837,-0.00004528,-0.000165
 29,0.00001971,-0.00014435,0.00001157,-0.00399604,-0.00114353,0.0015784
 1,-0.00011306,0.00037611,-0.00022888,0.00071107,0.00030263,0.00010438,
 -0.21118675,-0.02652314,0.12208406,-0.01999702,-0.00346289,0.01533639,
 0.00564047,0.00015886,-0.00429756,-0.00002598,-0.00005335,-0.00002382,
 0.00003169,-0.00001962,0.00002355,0.00000249,0.00001193,-0.00000083,-0
 .00000283,0.00001860,-0.00000254,0.00000156,-0.00000052,-0.00000357,0.
 00000401,0.00000837,-0.00000499,-0.00000644,0.00001179,-0.00000625,0.0
 0001352,0.00001067,0.00000394,0.00000047,-0.00000989,0.00000405,-0.000
 00487,0.00000658,0.00001005,-0.00000050,-0.00000349,-0.00000132,-0.000
 00925,-0.00000015,0.00000043,0.00000198,-0.00000030,0.00000041,-0.0000
 0703,0.00000034,0.00000859,0.00000122,0.00000385,-0.00000313,-0.000060
 36,0.00008356,0.00007317,0.22768966,0.00012372,0.00016598,-0.00004884,
 -0.00000687,0.00000691,-0.00000360,0.00000951,-0.00001352,0.00000335,-
 0.00003416,-0.00065289,-0.00023078,-0.00000024,0.00000099,0.00003677,-
 0.00002804,0.00001385,-0.00000815,0.00137420,0.00080201,-0.00102518,0.
 00001641,0.00003119,0.00011615,-0.00006714,0.00003355,-0.00002948,-0.0
 0049911,-0.00527586,-0.00207867,-0.00000439,-0.00010381,0.00025378,-0.
 00011810,0.00016781,-0.00033302,0.02408026,0.00430018,-0.01710163,0.00
 006737,0.00102411,0.00084961,-0.00053253,0.00115429,0.00047930,-0.0274
 5806,-0.05099446,0.02064339,-0.00511985,-0.00198490,0.00460115,-0.0206
 7901,-0.00319758,0.01372684,0.00003859,0.00003742,0.00000945,-0.000031
 20,0.00000380,-0.00002781,-0.00000380,-0.00001500,-0.00000218,0.000001
 67,-0.00001302,0.00000107,-0.00000174,0.00000090,0.00000293,-0.0000001
 6,-0.00000745,0.00000614,0.00000639,-0.00000787,0.00000570,-0.00001121
 ,-0.00000517,0.00000083,-0.00000095,0.00000577,-0.00000402,0.00000541,
 -0.00000257,-0.00000780,0.00000030,0.00000259,-0.00000021,0.00000831,-
 0.00000028,-0.00000105,-0.00000159,0.00000134,-0.00000254,0.00000448,-
 0.00000049,-0.00000443,-0.00000070,-0.00000105,0.00000180,0.00005229,-
 0.00010123,-0.00008926,0.02880993,0.05462446,0.00007827,0.00016945,-0.
 00000208,-0.00000864,0.00000398,-0.00000438,0.00001029,-0.00001139,-0.
 00000382,-0.00007503,-0.00049234,-0.00015103,0.00000105,0.00000399,0.0
 0002875,-0.00001171,0.00001890,-0.00000078,0.00117147,0.00058209,-0.00
 011906,0.00003384,-0.00010495,0.00000373,-0.00008079,0.00004268,-0.000
 03898,-0.00067862,-0.00409113,-0.00100375,0.00023914,0.00005670,0.0001
 6082,-0.00036671,-0.00007423,0.00040691,0.01293352,0.00351214,-0.01044
 312,-0.00027220,-0.00006150,0.00085384,-0.00037533,0.00045714,-0.00007
 595,0.12166672,0.01989495,-0.13754670,-0.01508506,-0.00233422,0.012311
 52,0.01599958,0.00226842,-0.01211487,0.00004202,0.00005989,0.00002609,
 -0.00004003,0.00001333,-0.00003090,-0.00000424,-0.00001661,-0.00000071
 ,0.00000269,-0.00002072,0.00000180,-0.00000294,0.00000099,0.00000386,-
 0.00000371,-0.00000899,0.00000673,0.00000778,-0.00001159,0.00000741,-0
 .00001615,-0.00001047,-0.00000311,-0.00000051,0.00001007,-0.00000465,0
 .00000677,-0.00000702,-0.00001185,0.00000063,0.00000461,0.00000090,0.0
 0001123,-0.00000049,-0.00000092,-0.00000236,0.00000096,-0.00000177,0.0
 0000773,-0.00000043,-0.00000896,-0.00000145,-0.00000328,0.00000314,0.0
 0006721,-0.00011128,-0.00010751,-0.13525447,-0.01973962,0.14785941\\-0
 .00000355,-0.00000404,-0.00000317,0.00000153,-0.00000092,0.00000399,0.
 00000269,0.00000276,0.00000290,0.00000919,0.00000426,-0.00000334,-0.00
 000113,-0.00000048,-0.00000114,-0.00000298,-0.00000067,0.00000186,-0.0
 0000581,-0.00000622,0.00000454,0.00000534,0.00000144,0.00000248,0.0000
 0329,-0.00000042,0.00000508,0.00000630,0.00000439,0.00000071,0.0000019
 0,0.00000043,0.00000014,-0.00000054,-0.00000207,0.00000221,0.00000017,
 -0.00000414,0.00000591,0.00000679,0.00000150,0.00000420,0.00000432,-0.
 00000121,0.00000619,0.00000338,0.00000231,0.00000370,0.00000511,0.0000
 0111,0.00000181,0.00000230,-0.00000180,0.00000349,-0.00000330,0.000003
 62,-0.00000061,-0.00001202,0.00000139,-0.00000621,-0.00000147,-0.00000
 130,-0.00000447,-0.00000108,-0.00000287,0.00000078,-0.00000320,-0.0000
 0383,0.00000171,-0.00000066,0.00000026,-0.00000968,0.00000282,0.000002
 52,-0.00000250,0.00000057,0.00000391,-0.00000327,-0.00000578,0.0000024
 1,-0.00000176,-0.00000535,-0.00000243,0.00000015,-0.00000695,-0.000002
 55,-0.00000238,-0.00000179,0.00000258,-0.00000722,-0.00000532,0.000001
 17,-0.00000534,-0.00000482,0.00000137,-0.00000590,-0.00000188,0.000001
 34,-0.00000481,0.00000618,-0.00000322,0.00000466,0.00000576,-0.0000006
 1,0.00000530\\\@


  THE LARGE PRINT GIVETH,
  AND THE SMALL PRINT TAKETH AWAY.

                     -- TOM WAITS
 Job cpu time:       0 days  3 hours  3 minutes 36.4 seconds.
 File lengths (MBytes):  RWF=    496 Int=      0 D2E=      0 Chk=     14 Scr=      1
 Normal termination of Gaussian 09 at Tue Apr 23 12:58:35 2024.
