 Entering Gaussian System, Link 0=g09
 Initial command:
 /cm/shared/apps/gaussian/g09revD.01/g09/l1.exe "//home/sweav003/HartwigDocs/DiverseFunctionalization_Hartwig/G09-Figure2_1.com.o9616024.tmp/Gau-52746.inp" -scrdir="//home/sweav003/HartwigDocs/DiverseFunctionalization_Hartwig/G09-Figure2_1.com.o9616024.tmp/"
 Entering Link 1 = /cm/shared/apps/gaussian/g09revD.01/g09/l1.exe PID=     52747.
  
 Copyright (c) 1988,1990,1992,1993,1995,1998,2003,2009,2013,
            Gaussian, Inc.  All Rights Reserved.
  
 This is part of the Gaussian(R) 09 program.  It is based on
 the Gaussian(R) 03 system (copyright 2003, Gaussian, Inc.),
 the Gaussian(R) 98 system (copyright 1998, Gaussian, Inc.),
 the Gaussian(R) 94 system (copyright 1995, Gaussian, Inc.),
 the Gaussian 92(TM) system (copyright 1992, Gaussian, Inc.),
 the Gaussian 90(TM) system (copyright 1990, Gaussian, Inc.),
 the Gaussian 88(TM) system (copyright 1988, Gaussian, Inc.),
 the Gaussian 86(TM) system (copyright 1986, Carnegie Mellon
 University), and the Gaussian 82(TM) system (copyright 1983,
 Carnegie Mellon University). Gaussian is a federally registered
 trademark of Gaussian, Inc.
  
 This software contains proprietary and confidential information,
 including trade secrets, belonging to Gaussian, Inc.
  
 This software is provided under written license and may be
 used, copied, transmitted, or stored only in accord with that
 written license.
  
 The following legend is applicable only to US Government
 contracts under FAR:
  
                    RESTRICTED RIGHTS LEGEND
  
 Use, reproduction and disclosure by the US Government is
 subject to restrictions as set forth in subparagraphs (a)
 and (c) of the Commercial Computer Software - Restricted
 Rights clause in FAR 52.227-19.
  
 Gaussian, Inc.
 340 Quinnipiac St., Bldg. 40, Wallingford CT 06492
  
  
 ---------------------------------------------------------------
 Warning -- This program may not be used in any manner that
 competes with the business of Gaussian, Inc. or will provide
 assistance to any competitor of Gaussian, Inc.  The licensee
 of this program is prohibited from giving any competitor of
 Gaussian, Inc. access to this program.  By using this program,
 the user acknowledges that Gaussian, Inc. is engaged in the
 business of creating and licensing software in the field of
 computational chemistry and represents and warrants to the
 licensee that it is not a competitor of Gaussian, Inc. and that
 it will not use this program in any manner prohibited above.
 ---------------------------------------------------------------
  

 Cite this work as:
 Gaussian 09, Revision D.01,
 M. J. Frisch, G. W. Trucks, H. B. Schlegel, G. E. Scuseria, 
 M. A. Robb, J. R. Cheeseman, G. Scalmani, V. Barone, B. Mennucci, 
 G. A. Petersson, H. Nakatsuji, M. Caricato, X. Li, H. P. Hratchian, 
 A. F. Izmaylov, J. Bloino, G. Zheng, J. L. Sonnenberg, M. Hada, 
 M. Ehara, K. Toyota, R. Fukuda, J. Hasegawa, M. Ishida, T. Nakajima, 
 Y. Honda, O. Kitao, H. Nakai, T. Vreven, J. A. Montgomery, Jr., 
 J. E. Peralta, F. Ogliaro, M. Bearpark, J. J. Heyd, E. Brothers, 
 K. N. Kudin, V. N. Staroverov, T. Keith, R. Kobayashi, J. Normand, 
 K. Raghavachari, A. Rendell, J. C. Burant, S. S. Iyengar, J. Tomasi, 
 M. Cossi, N. Rega, J. M. Millam, M. Klene, J. E. Knox, J. B. Cross, 
 V. Bakken, C. Adamo, J. Jaramillo, R. Gomperts, R. E. Stratmann, 
 O. Yazyev, A. J. Austin, R. Cammi, C. Pomelli, J. W. Ochterski, 
 R. L. Martin, K. Morokuma, V. G. Zakrzewski, G. A. Voth, 
 P. Salvador, J. J. Dannenberg, S. Dapprich, A. D. Daniels, 
 O. Farkas, J. B. Foresman, J. V. Ortiz, J. Cioslowski, 
 and D. J. Fox, Gaussian, Inc., Wallingford CT, 2013.
 
 ******************************************
 Gaussian 09:  ES64L-G09RevD.01 24-Apr-2013
                13-Oct-2021 
 ******************************************
 %mem=100MW
 %nprocshared=20
 Will use up to   20 processors via shared memory.
 %chk=Figure2_1.chk
 ----------------------------------------------------------------------
 # opt freq b3lyp/6-311+g(d,p) geom=connectivity pop=(hirshfeld,chelpg,
 mbs,npa)
 ----------------------------------------------------------------------
 1/14=-1,18=20,19=15,26=3,38=1,57=2/1,3;
 2/9=110,12=2,17=6,18=5,40=1/2;
 3/5=4,6=6,7=111,11=2,16=1,25=1,30=1,71=1,74=-5/1,2,3;
 4//1;
 5/5=2,38=5/2;
 6/7=2,8=2,9=2,10=2,15=8,20=3,27=100,28=1,40=-1,79=1/1,2,7;
 7//1,2,3,16;
 1/14=-1,18=20,19=15,26=3/3(2);
 2/9=110/2;
 99//99;
 2/9=110/2;
 3/5=4,6=6,7=111,11=2,16=1,25=1,30=1,71=1,74=-5/1,2,3;
 4/5=5,16=3,69=1/1;
 5/5=2,38=5/2;
 7//1,2,3,16;
 1/14=-1,18=20,19=15,26=3/3(-5);
 2/9=110/2;
 6/7=2,8=2,9=2,10=2,15=8,19=2,20=3,27=100,28=1,40=-1,79=1/1,2,7;
 99/9=1/99;
 ---------
 Figure2_1
 ---------
 Symbolic Z-matrix:
 Charge =  0 Multiplicity = 1
 N                     0.78732   0.68554  -0.92665 
 C                     1.01566  -0.75539  -1.14487 
 C                     0.06879  -1.51288  -0.21281 
 H                     2.02703  -1.02937  -0.90869 
 H                     0.81762  -0.98222  -2.16596 
 C                     0.20507  -3.04141  -0.3859 
 H                     0.30651  -1.2596    0.80383 
 H                    -0.93681  -1.21796  -0.43738 
 C                    -0.75342  -3.70527   0.58908 
 H                    -0.04899  -3.32185  -1.38404 
 H                     1.20943  -3.36354  -0.17953 
 H                    -0.6722   -4.7692    0.51041 
 H                    -0.50124  -3.40498   1.57307 
 H                    -1.74881  -3.39067   0.36634 
 C                     0.97896   1.01876   0.49629 
 C                     0.55171   2.48572   0.75543 
 H                     2.02098   0.85893   0.77177 
 H                     0.36083   0.38402   1.09232 
 C                     0.77732   2.77681   2.26323 
 H                     1.12814   3.17041   0.15631 
 H                    -0.5017    2.60215   0.51144 
 C                     0.23162   4.19361   2.60948 
 H                     0.24453   2.05157   2.86175 
 H                     1.83903   2.71598   2.48286 
 H                     0.41284   4.36347   3.66039 
 H                     0.74161   4.94582   2.01437 
 H                    -0.83592   4.25126   2.41139 
 C                     1.71758   1.43699  -1.72758 
 O                     1.45846   1.7592   -2.89875 
 O                     2.96545   1.81483  -1.15176 
 C                     3.92357   1.86988  -2.20824 
 C                     4.11894   0.45025  -2.77146 
 C                     3.39083   2.81181  -3.30227 
 C                     5.2749    2.40732  -1.69745 
 H                     4.53393  -0.18531  -2.00004 
 H                     3.16626   0.06353  -3.08426 
 H                     4.78868   0.48389  -3.60951 
 H                     3.25048   3.78939  -2.87851 
 H                     4.10544   2.87402  -4.12056 
 H                     2.44399   2.43019  -3.66998 
 H                     5.97217   2.46765  -2.51804 
 H                     5.1372    3.3818   -1.28155 
 H                     5.65214   1.74338  -0.9418 
 

 GradGradGradGradGradGradGradGradGradGradGradGradGradGradGradGradGradGrad
 Berny optimization.
 Initialization pass.
                           ----------------------------
                           !    Initial Parameters    !
                           ! (Angstroms and Degrees)  !
 --------------------------                            --------------------------
 ! Name  Definition              Value          Derivative Info.                !
 --------------------------------------------------------------------------------
 ! R1    R(1,2)                  1.4751         estimate D2E/DX2                !
 ! R2    R(1,15)                 1.4739         estimate D2E/DX2                !
 ! R3    R(1,28)                 1.4393         estimate D2E/DX2                !
 ! R4    R(2,3)                  1.5294         estimate D2E/DX2                !
 ! R5    R(2,4)                  1.0741         estimate D2E/DX2                !
 ! R6    R(2,5)                  1.0646         estimate D2E/DX2                !
 ! R7    R(3,6)                  1.5443         estimate D2E/DX2                !
 ! R8    R(3,7)                  1.0743         estimate D2E/DX2                !
 ! R9    R(3,8)                  1.0717         estimate D2E/DX2                !
 ! R10   R(6,9)                  1.5199         estimate D2E/DX2                !
 ! R11   R(6,10)                 1.0675         estimate D2E/DX2                !
 ! R12   R(6,11)                 1.0748         estimate D2E/DX2                !
 ! R13   R(9,12)                 1.0699         estimate D2E/DX2                !
 ! R14   R(9,13)                 1.0592         estimate D2E/DX2                !
 ! R15   R(9,14)                 1.0674         estimate D2E/DX2                !
 ! R16   R(15,16)                1.5497         estimate D2E/DX2                !
 ! R17   R(15,17)                1.0896         estimate D2E/DX2                !
 ! R18   R(15,18)                1.0678         estimate D2E/DX2                !
 ! R19   R(16,19)                1.5521         estimate D2E/DX2                !
 ! R20   R(16,20)                1.077          estimate D2E/DX2                !
 ! R21   R(16,21)                1.0875         estimate D2E/DX2                !
 ! R22   R(19,22)                1.5572         estimate D2E/DX2                !
 ! R23   R(19,23)                1.0808         estimate D2E/DX2                !
 ! R24   R(19,24)                1.0859         estimate D2E/DX2                !
 ! R25   R(22,25)                1.0799         estimate D2E/DX2                !
 ! R26   R(22,26)                1.0863         estimate D2E/DX2                !
 ! R27   R(22,27)                1.0873         estimate D2E/DX2                !
 ! R28   R(28,29)                1.242          estimate D2E/DX2                !
 ! R29   R(28,30)                1.4253         estimate D2E/DX2                !
 ! R30   R(30,31)                1.4273         estimate D2E/DX2                !
 ! R31   R(31,32)                1.5397         estimate D2E/DX2                !
 ! R32   R(31,33)                1.5388         estimate D2E/DX2                !
 ! R33   R(31,34)                1.5414         estimate D2E/DX2                !
 ! R34   R(32,35)                1.0822         estimate D2E/DX2                !
 ! R35   R(32,36)                1.0747         estimate D2E/DX2                !
 ! R36   R(32,37)                1.0733         estimate D2E/DX2                !
 ! R37   R(33,38)                1.0747         estimate D2E/DX2                !
 ! R38   R(33,39)                1.0882         estimate D2E/DX2                !
 ! R39   R(33,40)                1.0851         estimate D2E/DX2                !
 ! R40   R(34,41)                1.0785         estimate D2E/DX2                !
 ! R41   R(34,42)                1.0684         estimate D2E/DX2                !
 ! R42   R(34,43)                1.0743         estimate D2E/DX2                !
 ! A1    A(2,1,15)             110.0913         estimate D2E/DX2                !
 ! A2    A(2,1,28)             109.1246         estimate D2E/DX2                !
 ! A3    A(15,1,28)            109.5814         estimate D2E/DX2                !
 ! A4    A(1,2,3)              107.3263         estimate D2E/DX2                !
 ! A5    A(1,2,4)              111.2466         estimate D2E/DX2                !
 ! A6    A(1,2,5)              108.7373         estimate D2E/DX2                !
 ! A7    A(3,2,4)              108.8204         estimate D2E/DX2                !
 ! A8    A(3,2,5)              111.3358         estimate D2E/DX2                !
 ! A9    A(4,2,5)              109.3731         estimate D2E/DX2                !
 ! A10   A(2,3,6)              111.5482         estimate D2E/DX2                !
 ! A11   A(2,3,7)              108.8405         estimate D2E/DX2                !
 ! A12   A(2,3,8)              108.4759         estimate D2E/DX2                !
 ! A13   A(6,3,7)              108.6557         estimate D2E/DX2                !
 ! A14   A(6,3,8)              109.3708         estimate D2E/DX2                !
 ! A15   A(7,3,8)              109.9387         estimate D2E/DX2                !
 ! A16   A(3,6,9)              107.7446         estimate D2E/DX2                !
 ! A17   A(3,6,10)             110.1102         estimate D2E/DX2                !
 ! A18   A(3,6,11)             110.9528         estimate D2E/DX2                !
 ! A19   A(9,6,10)             109.5718         estimate D2E/DX2                !
 ! A20   A(9,6,11)             109.5875         estimate D2E/DX2                !
 ! A21   A(10,6,11)            108.8575         estimate D2E/DX2                !
 ! A22   A(6,9,12)             109.8345         estimate D2E/DX2                !
 ! A23   A(6,9,13)             108.7809         estimate D2E/DX2                !
 ! A24   A(6,9,14)             108.9956         estimate D2E/DX2                !
 ! A25   A(12,9,13)            109.398          estimate D2E/DX2                !
 ! A26   A(12,9,14)            110.3968         estimate D2E/DX2                !
 ! A27   A(13,9,14)            109.4085         estimate D2E/DX2                !
 ! A28   A(1,15,16)            109.8517         estimate D2E/DX2                !
 ! A29   A(1,15,17)            109.588          estimate D2E/DX2                !
 ! A30   A(1,15,18)            109.2211         estimate D2E/DX2                !
 ! A31   A(16,15,17)           111.114          estimate D2E/DX2                !
 ! A32   A(16,15,18)           108.0443         estimate D2E/DX2                !
 ! A33   A(17,15,18)           108.9822         estimate D2E/DX2                !
 ! A34   A(15,16,19)           107.4517         estimate D2E/DX2                !
 ! A35   A(15,16,20)           111.1735         estimate D2E/DX2                !
 ! A36   A(15,16,21)           109.321          estimate D2E/DX2                !
 ! A37   A(19,16,20)           110.082          estimate D2E/DX2                !
 ! A38   A(19,16,21)           109.7951         estimate D2E/DX2                !
 ! A39   A(20,16,21)           108.998          estimate D2E/DX2                !
 ! A40   A(16,19,22)           109.6151         estimate D2E/DX2                !
 ! A41   A(16,19,23)           109.9051         estimate D2E/DX2                !
 ! A42   A(16,19,24)           109.1529         estimate D2E/DX2                !
 ! A43   A(22,19,23)           108.3388         estimate D2E/DX2                !
 ! A44   A(22,19,24)           110.4031         estimate D2E/DX2                !
 ! A45   A(23,19,24)           109.4141         estimate D2E/DX2                !
 ! A46   A(19,22,25)           107.4994         estimate D2E/DX2                !
 ! A47   A(19,22,26)           110.1003         estimate D2E/DX2                !
 ! A48   A(19,22,27)           110.5969         estimate D2E/DX2                !
 ! A49   A(25,22,26)           110.2084         estimate D2E/DX2                !
 ! A50   A(25,22,27)           109.4957         estimate D2E/DX2                !
 ! A51   A(26,22,27)           108.9303         estimate D2E/DX2                !
 ! A52   A(1,28,29)            121.6904         estimate D2E/DX2                !
 ! A53   A(1,28,30)            118.6506         estimate D2E/DX2                !
 ! A54   A(29,28,30)           119.659          estimate D2E/DX2                !
 ! A55   A(28,30,31)           107.3916         estimate D2E/DX2                !
 ! A56   A(30,31,32)           108.6862         estimate D2E/DX2                !
 ! A57   A(30,31,33)           108.5094         estimate D2E/DX2                !
 ! A58   A(30,31,34)           110.8962         estimate D2E/DX2                !
 ! A59   A(32,31,33)           110.379          estimate D2E/DX2                !
 ! A60   A(32,31,34)           109.3569         estimate D2E/DX2                !
 ! A61   A(33,31,34)           109.0073         estimate D2E/DX2                !
 ! A62   A(31,32,35)           109.2307         estimate D2E/DX2                !
 ! A63   A(31,32,36)           109.0117         estimate D2E/DX2                !
 ! A64   A(31,32,37)           109.6274         estimate D2E/DX2                !
 ! A65   A(35,32,36)           109.6364         estimate D2E/DX2                !
 ! A66   A(35,32,37)           109.6144         estimate D2E/DX2                !
 ! A67   A(36,32,37)           109.7042         estimate D2E/DX2                !
 ! A68   A(31,33,38)           108.7644         estimate D2E/DX2                !
 ! A69   A(31,33,39)           110.0151         estimate D2E/DX2                !
 ! A70   A(31,33,40)           109.1322         estimate D2E/DX2                !
 ! A71   A(38,33,39)           109.2853         estimate D2E/DX2                !
 ! A72   A(38,33,40)           109.8523         estimate D2E/DX2                !
 ! A73   A(39,33,40)           109.775          estimate D2E/DX2                !
 ! A74   A(31,34,41)           109.5222         estimate D2E/DX2                !
 ! A75   A(31,34,42)           109.5127         estimate D2E/DX2                !
 ! A76   A(31,34,43)           108.9933         estimate D2E/DX2                !
 ! A77   A(41,34,42)           109.176          estimate D2E/DX2                !
 ! A78   A(41,34,43)           110.0429         estimate D2E/DX2                !
 ! A79   A(42,34,43)           109.5803         estimate D2E/DX2                !
 ! D1    D(15,1,2,3)            56.2432         estimate D2E/DX2                !
 ! D2    D(15,1,2,4)           -62.6958         estimate D2E/DX2                !
 ! D3    D(15,1,2,5)           176.7924         estimate D2E/DX2                !
 ! D4    D(28,1,2,3)           176.5444         estimate D2E/DX2                !
 ! D5    D(28,1,2,4)            57.6054         estimate D2E/DX2                !
 ! D6    D(28,1,2,5)           -62.9064         estimate D2E/DX2                !
 ! D7    D(2,1,15,16)         -172.311          estimate D2E/DX2                !
 ! D8    D(2,1,15,17)           65.3461         estimate D2E/DX2                !
 ! D9    D(2,1,15,18)          -53.9751         estimate D2E/DX2                !
 ! D10   D(28,1,15,16)          67.6638         estimate D2E/DX2                !
 ! D11   D(28,1,15,17)         -54.6791         estimate D2E/DX2                !
 ! D12   D(28,1,15,18)        -174.0002         estimate D2E/DX2                !
 ! D13   D(2,1,28,29)           88.1538         estimate D2E/DX2                !
 ! D14   D(2,1,28,30)          -91.8041         estimate D2E/DX2                !
 ! D15   D(15,1,28,29)        -151.2322         estimate D2E/DX2                !
 ! D16   D(15,1,28,30)          28.8099         estimate D2E/DX2                !
 ! D17   D(1,2,3,6)            178.7031         estimate D2E/DX2                !
 ! D18   D(1,2,3,7)            -61.4207         estimate D2E/DX2                !
 ! D19   D(1,2,3,8)             58.1774         estimate D2E/DX2                !
 ! D20   D(4,2,3,6)            -60.8076         estimate D2E/DX2                !
 ! D21   D(4,2,3,7)             59.0686         estimate D2E/DX2                !
 ! D22   D(4,2,3,8)            178.6667         estimate D2E/DX2                !
 ! D23   D(5,2,3,6)             59.8142         estimate D2E/DX2                !
 ! D24   D(5,2,3,7)            179.6904         estimate D2E/DX2                !
 ! D25   D(5,2,3,8)            -60.7115         estimate D2E/DX2                !
 ! D26   D(2,3,6,9)            179.189          estimate D2E/DX2                !
 ! D27   D(2,3,6,10)           -61.3571         estimate D2E/DX2                !
 ! D28   D(2,3,6,11)            59.2255         estimate D2E/DX2                !
 ! D29   D(7,3,6,9)             59.2038         estimate D2E/DX2                !
 ! D30   D(7,3,6,10)           178.6577         estimate D2E/DX2                !
 ! D31   D(7,3,6,11)           -60.7597         estimate D2E/DX2                !
 ! D32   D(8,3,6,9)            -60.8111         estimate D2E/DX2                !
 ! D33   D(8,3,6,10)            58.6429         estimate D2E/DX2                !
 ! D34   D(8,3,6,11)           179.2254         estimate D2E/DX2                !
 ! D35   D(3,6,9,12)          -178.9012         estimate D2E/DX2                !
 ! D36   D(3,6,9,13)           -59.1926         estimate D2E/DX2                !
 ! D37   D(3,6,9,14)            60.034          estimate D2E/DX2                !
 ! D38   D(10,6,9,12)           61.3032         estimate D2E/DX2                !
 ! D39   D(10,6,9,13)         -178.9882         estimate D2E/DX2                !
 ! D40   D(10,6,9,14)          -59.7615         estimate D2E/DX2                !
 ! D41   D(11,6,9,12)          -58.0779         estimate D2E/DX2                !
 ! D42   D(11,6,9,13)           61.6307         estimate D2E/DX2                !
 ! D43   D(11,6,9,14)         -179.1427         estimate D2E/DX2                !
 ! D44   D(1,15,16,19)        -179.922          estimate D2E/DX2                !
 ! D45   D(1,15,16,20)         -59.4073         estimate D2E/DX2                !
 ! D46   D(1,15,16,21)          60.9734         estimate D2E/DX2                !
 ! D47   D(17,15,16,19)        -58.4889         estimate D2E/DX2                !
 ! D48   D(17,15,16,20)         62.0258         estimate D2E/DX2                !
 ! D49   D(17,15,16,21)       -177.5935         estimate D2E/DX2                !
 ! D50   D(18,15,16,19)         61.0172         estimate D2E/DX2                !
 ! D51   D(18,15,16,20)       -178.4681         estimate D2E/DX2                !
 ! D52   D(18,15,16,21)        -58.0874         estimate D2E/DX2                !
 ! D53   D(15,16,19,22)       -174.4082         estimate D2E/DX2                !
 ! D54   D(15,16,19,23)        -55.4425         estimate D2E/DX2                !
 ! D55   D(15,16,19,24)         64.5567         estimate D2E/DX2                !
 ! D56   D(20,16,19,22)         64.3895         estimate D2E/DX2                !
 ! D57   D(20,16,19,23)       -176.6449         estimate D2E/DX2                !
 ! D58   D(20,16,19,24)        -56.6456         estimate D2E/DX2                !
 ! D59   D(21,16,19,22)        -55.608          estimate D2E/DX2                !
 ! D60   D(21,16,19,23)         63.3577         estimate D2E/DX2                !
 ! D61   D(21,16,19,24)       -176.6431         estimate D2E/DX2                !
 ! D62   D(16,19,22,25)       -179.5346         estimate D2E/DX2                !
 ! D63   D(16,19,22,26)        -59.4637         estimate D2E/DX2                !
 ! D64   D(16,19,22,27)         60.9725         estimate D2E/DX2                !
 ! D65   D(23,19,22,25)         60.5378         estimate D2E/DX2                !
 ! D66   D(23,19,22,26)       -179.3913         estimate D2E/DX2                !
 ! D67   D(23,19,22,27)        -58.9551         estimate D2E/DX2                !
 ! D68   D(24,19,22,25)        -59.258          estimate D2E/DX2                !
 ! D69   D(24,19,22,26)         60.8128         estimate D2E/DX2                !
 ! D70   D(24,19,22,27)       -178.7509         estimate D2E/DX2                !
 ! D71   D(1,28,30,31)         149.6395         estimate D2E/DX2                !
 ! D72   D(29,28,30,31)        -30.3193         estimate D2E/DX2                !
 ! D73   D(28,30,31,32)        -65.3611         estimate D2E/DX2                !
 ! D74   D(28,30,31,33)         54.6975         estimate D2E/DX2                !
 ! D75   D(28,30,31,34)        174.3968         estimate D2E/DX2                !
 ! D76   D(30,31,32,35)        -63.5508         estimate D2E/DX2                !
 ! D77   D(30,31,32,36)         56.2271         estimate D2E/DX2                !
 ! D78   D(30,31,32,37)        176.3259         estimate D2E/DX2                !
 ! D79   D(33,31,32,35)        177.5585         estimate D2E/DX2                !
 ! D80   D(33,31,32,36)        -62.6636         estimate D2E/DX2                !
 ! D81   D(33,31,32,37)         57.4352         estimate D2E/DX2                !
 ! D82   D(34,31,32,35)         57.6408         estimate D2E/DX2                !
 ! D83   D(34,31,32,36)        177.4187         estimate D2E/DX2                !
 ! D84   D(34,31,32,37)        -62.4825         estimate D2E/DX2                !
 ! D85   D(30,31,33,38)         60.1738         estimate D2E/DX2                !
 ! D86   D(30,31,33,39)        179.8428         estimate D2E/DX2                !
 ! D87   D(30,31,33,40)        -59.66           estimate D2E/DX2                !
 ! D88   D(32,31,33,38)        179.1721         estimate D2E/DX2                !
 ! D89   D(32,31,33,39)        -61.1589         estimate D2E/DX2                !
 ! D90   D(32,31,33,40)         59.3383         estimate D2E/DX2                !
 ! D91   D(34,31,33,38)        -60.6997         estimate D2E/DX2                !
 ! D92   D(34,31,33,39)         58.9693         estimate D2E/DX2                !
 ! D93   D(34,31,33,40)        179.4664         estimate D2E/DX2                !
 ! D94   D(30,31,34,41)       -178.3091         estimate D2E/DX2                !
 ! D95   D(30,31,34,42)        -58.614          estimate D2E/DX2                !
 ! D96   D(30,31,34,43)         61.2532         estimate D2E/DX2                !
 ! D97   D(32,31,34,41)         61.8487         estimate D2E/DX2                !
 ! D98   D(32,31,34,42)       -178.4563         estimate D2E/DX2                !
 ! D99   D(32,31,34,43)        -58.5891         estimate D2E/DX2                !
 ! D100  D(33,31,34,41)        -58.908          estimate D2E/DX2                !
 ! D101  D(33,31,34,42)         60.7871         estimate D2E/DX2                !
 ! D102  D(33,31,34,43)       -179.3457         estimate D2E/DX2                !
 --------------------------------------------------------------------------------
 Trust Radius=3.00D-01 FncErr=1.00D-07 GrdErr=1.00D-06
 Number of steps in this run=    233 maximum allowed number of steps=    258.
 GradGradGradGradGradGradGradGradGradGradGradGradGradGradGradGradGradGrad

                          Input orientation:                          
 ---------------------------------------------------------------------
 Center     Atomic      Atomic             Coordinates (Angstroms)
 Number     Number       Type             X           Y           Z
 ---------------------------------------------------------------------
      1          7           0        0.787317    0.685539   -0.926654
      2          6           0        1.015657   -0.755390   -1.144873
      3          6           0        0.068790   -1.512883   -0.212811
      4          1           0        2.027030   -1.029371   -0.908690
      5          1           0        0.817616   -0.982223   -2.165963
      6          6           0        0.205067   -3.041410   -0.385896
      7          1           0        0.306509   -1.259597    0.803828
      8          1           0       -0.936810   -1.217958   -0.437380
      9          6           0       -0.753418   -3.705266    0.589078
     10          1           0       -0.048989   -3.321850   -1.384036
     11          1           0        1.209428   -3.363536   -0.179527
     12          1           0       -0.672200   -4.769198    0.510412
     13          1           0       -0.501237   -3.404985    1.573066
     14          1           0       -1.748813   -3.390670    0.366343
     15          6           0        0.978958    1.018759    0.496289
     16          6           0        0.551712    2.485718    0.755434
     17          1           0        2.020979    0.858929    0.771769
     18          1           0        0.360831    0.384019    1.092321
     19          6           0        0.777319    2.776814    2.263229
     20          1           0        1.128138    3.170408    0.156308
     21          1           0       -0.501698    2.602149    0.511439
     22          6           0        0.231619    4.193609    2.609485
     23          1           0        0.244525    2.051569    2.861746
     24          1           0        1.839028    2.715978    2.482858
     25          1           0        0.412838    4.363469    3.660385
     26          1           0        0.741615    4.945819    2.014367
     27          1           0       -0.835917    4.251260    2.411389
     28          6           0        1.717585    1.436992   -1.727577
     29          8           0        1.458461    1.759203   -2.898749
     30          8           0        2.965453    1.814831   -1.151760
     31          6           0        3.923566    1.869878   -2.208235
     32          6           0        4.118941    0.450255   -2.771465
     33          6           0        3.390827    2.811808   -3.302273
     34          6           0        5.274904    2.407316   -1.697449
     35          1           0        4.533931   -0.185309   -2.000041
     36          1           0        3.166264    0.063528   -3.084257
     37          1           0        4.788676    0.483891   -3.609507
     38          1           0        3.250479    3.789388   -2.878511
     39          1           0        4.105441    2.874020   -4.120557
     40          1           0        2.443989    2.430186   -3.669982
     41          1           0        5.972174    2.467646   -2.518038
     42          1           0        5.137204    3.381799   -1.281553
     43          1           0        5.652141    1.743380   -0.941797
 ---------------------------------------------------------------------
                    Distance matrix (angstroms):
                    1          2          3          4          5
     1  N    0.000000
     2  C    1.475139   0.000000
     3  C    2.420519   1.529409   0.000000
     4  H    2.116158   1.074116   2.133714   0.000000
     5  H    2.078036   1.064565   2.158041   1.745176   0.000000
     6  C    3.810720   2.541455   1.544320   2.764266   2.790001
     7  H    2.647508   2.134139   1.074346   2.438425   3.026189
     8  H    2.614442   2.127591   1.071748   3.007000   2.474183
     9  C    4.893923   3.852010   2.474994   4.139398   4.180115
    10  H    4.119195   2.788797   2.158240   3.129100   2.614625
    11  H    4.139008   2.787807   2.174184   2.578465   3.125715
    12  H    5.826620   4.658271   3.416973   4.825557   4.870699
    13  H    4.964006   4.087605   2.663520   4.265535   4.646448
    14  H    4.971849   4.107404   2.676786   4.632325   4.335868
    15  C    1.473950   2.417098   2.782165   2.695785   3.334298
    16  C    2.474990   3.785656   4.142406   4.159534   4.542233
    17  H    2.106330   2.700040   3.225823   2.527777   3.669904
    18  H    2.085441   2.594627   2.320969   2.962759   3.562539
    19  C    3.814300   4.914105   5.003428   5.109784   5.809451
    20  H    2.731948   4.137344   4.815775   4.424971   4.767988
    21  H    2.720858   4.039654   4.217048   4.647491   4.664418
    22  C    5.011949   6.261190   6.368353   6.548326   7.066649
    23  H    4.063575   4.952440   4.710532   5.185143   5.900016
    24  H    4.105307   5.088100   5.318236   5.056242   6.027562
    25  H    5.891378   7.046745   7.046385   7.250158   7.917487
    26  H    5.177033   6.523777   6.864972   6.774913   7.254144
    27  H    5.147017   6.414193   6.397677   6.863269   7.146724
    28  C    1.439291   2.374612   3.703350   2.617112   2.618153
    29  O    2.343576   3.097634   4.455558   3.472715   2.909137
    30  O    2.463787   3.226110   4.510650   3.004864   3.669513
    31  C    3.589034   4.059397   5.503098   3.700177   4.217013
    32  C    3.815547   3.705368   5.177290   3.167856   3.649297
    33  C    4.116169   4.797990   6.267667   4.726926   4.723059
    34  C    4.867964   5.333782   6.683990   4.793917   5.619243
    35  H    3.993451   3.665318   4.989401   2.861474   3.804418
    36  H    3.271320   3.009476   4.508283   2.688005   2.730020
    37  H    4.821746   4.673961   6.148330   4.148621   4.472430
    38  H    4.417102   5.353030   6.733734   5.347659   5.403223
    39  H    5.099059   5.619081   7.128109   5.465559   5.431468
    40  H    3.648864   4.308620   5.756857   4.446023   4.068378
    41  H    5.708866   6.069647   7.483891   5.512104   6.212490
    42  H    5.130037   5.841418   7.126636   5.410233   6.203685
    43  H    4.978531   5.270871   6.504497   4.564064   5.683321
                    6          7          8          9         10
     6  C    0.000000
     7  H    2.144899   0.000000
     8  H    2.152095   1.757320   0.000000
     9  C    1.519860   2.674110   2.697026   0.000000
    10  H    1.067462   3.027542   2.471992   2.129885   0.000000
    11  H    1.074753   2.491748   3.045707   2.135485   1.742468
    12  H    2.134998   3.655306   3.685055   1.069923   2.464172
    13  H    2.113902   2.418030   3.002449   1.059243   2.992639
    14  H    2.122615   2.992861   2.454791   1.067423   2.440894
    15  C    4.226361   2.395344   3.089467   5.032510   4.840783
    16  C    5.654374   3.753645   4.166020   6.329244   6.218201
    17  H    4.455375   2.725543   3.811039   5.344393   5.139180
    18  H    3.734027   1.669627   2.567136   4.268145   4.475909
    19  C    6.418494   4.317885   5.117590   6.867554   7.153952
    20  H    6.303390   4.551846   4.886127   7.141599   6.775522
    21  H    5.757994   3.956233   3.960152   6.312914   6.236308
    22  C    7.830614   5.744864   6.319309   8.212464   8.515226
    23  H    6.040462   3.899063   4.792661   6.269136   6.854667
    24  H    6.636798   4.579623   5.631067   7.179105   7.414367
    25  H    8.440841   6.307939   7.054471   8.711921   9.204542
    26  H    8.357330   6.337342   6.842537   8.894259   8.973769
    27  H    7.879815   5.853114   6.167496   8.162961   8.507438
    28  C    4.913645   3.958628   3.969783   6.157562   5.087767
    29  O    5.561593   4.914186   4.545234   6.849655   5.512156
    30  O    5.638205   4.510700   4.993576   6.879825   5.960394
    31  C    6.424088   5.652366   6.024443   7.796241   6.588971
    32  C    5.762037   5.499176   5.813046   7.231976   5.790109
    33  C    7.274234   6.553580   6.570774   8.648100   7.289288
    34  C    7.557250   6.662400   7.301765   8.884398   7.827222
    35  H    5.431559   5.185254   5.782498   6.859278   5.587531
    36  H    5.068578   5.004604   5.048107   6.562096   4.968841
    37  H    6.620339   6.527410   6.763126   8.117386   6.545180
    38  H    7.883366   6.907881   6.968933   9.177429   7.980579
    39  H    8.009552   7.467813   7.465546   9.438018   7.945856
    40  H    6.762867   6.180477   5.931988   8.124456   6.672811
    41  H    8.255620   7.551615   8.102276   9.643268   8.429628
    42  H    8.147747   7.016194   7.665771   9.403466   8.476202
    43  H    7.271442   6.375019   7.241426   8.547662   7.639046
                   11         12         13         14         15
    11  H    0.000000
    12  H    2.447943   0.000000
    13  H    2.449423   1.737682   0.000000
    14  H    3.008305   1.755046   1.735750   0.000000
    15  C    4.440085   6.018884   4.787477   5.186587   0.000000
    16  C    5.959909   7.361508   6.039669   6.322638   1.549730
    17  H    4.403725   6.244784   5.018427   5.695155   1.089607
    18  H    4.047455   5.287856   3.915460   4.384737   1.067816
    19  C    6.622513   7.881356   6.350250   6.929457   2.500699
    20  H    6.543074   8.148862   6.920828   7.167197   2.183446
    21  H    6.244581   7.373319   6.100222   6.122927   2.167879
    22  C    8.114502   9.249589   7.703887   8.153225   3.886359
    23  H    6.285201   7.272690   5.656045   6.310183   2.683557
    24  H    6.666722   8.137853   6.615946   7.392116   2.750768
    25  H    8.665223   9.721380   8.095759   8.697708   4.638867
    26  H    8.606823   9.931883   8.454310   8.855239   4.216953
    27  H    8.299482   9.220042   7.709273   7.963334   4.172582
    28  C    5.069492   7.016870   6.265952   6.301328   2.380350
    29  O    5.805053   7.666950   7.106784   6.889748   3.507772
    30  O    5.553769   7.703556   6.832942   7.185136   2.701103
    31  C    6.234648   8.519944   7.855018   8.153386   4.087734
    32  C    5.452376   7.808228   7.421850   7.683038   4.567374
    33  C    7.255682   9.408316   8.807134   8.851292   4.843677
    34  C    7.220451   9.578364   8.822863   9.338548   5.019534
    35  H    4.946485   7.376870   6.963212   7.439555   4.507690
    36  H    4.900146   7.142177   6.868173   6.927922   4.303148
    37  H    6.275227   8.624955   8.364544   8.576617   5.626508
    38  H    7.912947  10.006078   9.254777   9.331411   4.921937
    39  H    7.926267  10.133632   9.647006   9.677340   5.876406
    40  H    6.875656   8.889177   8.379328   8.231275   4.636406
    41  H    7.883849  10.280619   9.650387  10.112031   6.009796
    42  H    7.882984  10.168533   9.273689   9.797914   5.102518
    43  H    6.811707   9.193470   8.407988   9.101859   4.942854
                   16         17         18         19         20
    16  C    0.000000
    17  H    2.192135   0.000000
    18  H    2.137070   1.756242   0.000000
    19  C    1.552122   2.729364   2.696285   0.000000
    20  H    1.077042   2.553212   3.037901   2.171890   0.000000
    21  H    1.087549   3.077416   2.449792   2.176042   1.762215
    22  C    2.541034   4.207030   4.102615   1.557238   2.805132
    23  H    2.172419   2.991017   2.434156   1.080774   3.058099
    24  H    2.166609   2.531711   3.091389   1.085893   2.474814
    25  H    3.461788   4.817885   4.736420   2.145312   3.770094
    26  H    2.770031   4.459091   4.669601   2.183527   2.598820
    27  H    2.790133   4.728437   4.257663   2.190542   3.179803
    28  C    2.936738   2.583203   3.301721   4.313439   2.627014
    29  O    3.834458   3.820945   4.361716   5.305234   3.381418
    30  O    3.148590   2.346432   3.723866   4.168392   2.631417
    31  C    4.531224   3.677265   5.078832   5.542147   3.885468
    32  C    5.413617   4.137990   5.390419   6.475141   4.991592
    33  C    4.963053   4.721021   5.864085   6.148696   4.148511
    34  C    5.322718   4.368360   6.002055   6.004313   4.605908
    35  H    5.530379   3.884365   5.225094   6.407946   5.245007
    36  H    5.238904   4.100400   5.041525   6.454811   4.930306
    37  H    6.404052   5.195804   6.459332   7.472450   5.899006
    38  H    4.710462   4.839814   5.976128   5.794766   3.754676
    39  H    6.046077   5.686864   6.884497   7.199900   5.219554
    40  H    4.813326   4.730428   5.586223   6.172596   4.113379
    41  H    6.332247   5.387276   6.990234   7.067010   5.577696
    42  H    5.096961   4.504649   6.118472   5.651556   4.264357
    43  H    5.426420   4.111436   5.829534   5.924869   4.869173
                   21         22         23         24         25
    21  H    0.000000
    22  C    2.733549   0.000000
    23  H    2.526644   2.156881   0.000000
    24  H    3.062425   2.187051   1.768455   0.000000
    25  H    3.722161   1.079854   2.451741   2.476856   0.000000
    26  H    3.049164   1.086315   3.056441   2.529030   1.776683
    27  H    2.537928   1.087290   2.491750   3.085050   1.769738
    28  C    3.360953   5.349499   4.858961   4.402081   6.268714
    29  O    4.022706   6.145902   5.894271   5.479228   7.134267
    30  O    3.925205   5.222968   4.854660   3.910415   6.013995
    31  C    5.245552   6.499279   6.266822   5.202647   7.279005
    32  C    6.062872   7.620931   7.021992   6.159497   8.391492
    33  C    5.453450   6.843892   6.962206   5.990409   7.730115
    34  C    6.187591   6.868424   6.798347   5.419915   7.494839
    35  H    6.279731   7.676753   6.858542   5.981333   8.349563
    36  H    5.729535   7.621575   6.916923   6.307917   8.459376
    37  H    7.032586   8.555970   8.061268   7.127379   9.330081
    38  H    5.194240   6.276544   6.708675   5.647006   7.151149
    39  H    6.538733   7.876628   8.020951   6.983315   8.740528
    40  H    5.117708   6.887376   6.902498   6.189111   7.848404
    41  H    7.148905   7.888245   7.869000   6.492575   8.524862
    42  H    5.968240   6.313792   6.547881   5.048967   6.906957
    43  H    6.381154   6.928007   6.618477   5.216708   7.449513
                   26         27         28         29         30
    26  H    0.000000
    27  H    1.768798   0.000000
    28  C    5.221736   5.618854   0.000000
    29  O    5.899754   6.298578   1.242018   0.000000
    30  O    4.977238   5.751750   1.425308   2.307832   0.000000
    31  C    6.116910   7.047310   2.298864   2.562382   1.427288
    32  C    7.383807   8.115432   2.798189   2.967777   2.411648
    33  C    6.311814   7.251436   2.677597   2.237151   2.408238
    34  C    6.385318   7.591101   3.687405   4.053197   2.445890
    35  H    7.538276   8.244946   3.261580   3.747975   2.679602
    36  H    7.464024   7.984778   2.413639   2.413776   2.615709
    37  H    8.241083   9.059818   3.725810   3.636197   3.337074
    38  H    5.618895   6.700373   3.034498   2.708023   2.638519
    39  H    7.296914   8.305427   3.673317   3.121239   3.351896
    40  H    6.445022   7.145430   2.299356   1.419959   2.644245
    41  H    7.351380   8.592476   4.448439   4.584805   3.366491
    42  H    5.712307   7.076154   3.959168   4.333738   2.681182
    43  H    6.565652   7.721931   4.023936   4.627836   2.695828
                   31         32         33         34         35
    31  C    0.000000
    32  C    1.539718   0.000000
    33  C    1.538818   2.527615   0.000000
    34  C    1.541381   2.513931   2.507751   0.000000
    35  H    2.153993   1.082245   3.461966   2.713357   0.000000
    36  H    2.145652   1.074705   2.766044   3.444262   1.762941
    37  H    2.152426   1.073308   2.732685   2.755348   1.761563
    38  H    2.141689   3.451883   1.074679   2.720905   4.268159
    39  H    2.167569   2.773963   1.088178   2.730734   3.746958
    40  H    2.154019   2.744618   1.085056   3.450433   3.741307
    41  H    2.156409   2.751103   2.719711   1.078514   3.061868
    42  H    2.148851   3.442477   2.730940   1.068432   3.688418
    43  H    2.146588   2.714878   3.439030   1.074304   2.467817
                   36         37         38         39         40
    36  H    0.000000
    37  H    1.756364   0.000000
    38  H    3.732486   3.718429   0.000000
    39  H    3.139241   2.537853   1.763954   0.000000
    40  H    2.542799   3.047832   1.767564   1.777759   0.000000
    41  H    3.738118   2.554850   3.047059   2.493572   3.711667
    42  H    4.259726   3.733458   2.505221   3.063057   3.723381
    43  H    3.686683   3.073851   3.702025   3.711488   4.266959
                   41         42         43
    41  H    0.000000
    42  H    1.749785   0.000000
    43  H    1.763949   1.750717   0.000000
 Stoichiometry    C13H27NO2
 Framework group  C1[X(C13H27NO2)]
 Deg. of freedom   123
 Full point group                 C1      NOp   1
 Largest Abelian subgroup         C1      NOp   1
 Largest concise Abelian subgroup C1      NOp   1
                         Standard orientation:                         
 ---------------------------------------------------------------------
 Center     Atomic      Atomic             Coordinates (Angstroms)
 Number     Number       Type             X           Y           Z
 ---------------------------------------------------------------------
      1          7           0        0.607708   -0.016550    0.724138
      2          6           0        1.391834   -1.177249    0.261580
      3          6           0        2.848790   -0.726334    0.147360
      4          1           0        1.056893   -1.514325   -0.701706
      5          1           0        1.284764   -1.965933    0.968553
      6          6           0        3.767117   -1.883633   -0.302374
      7          1           0        2.911575    0.063874   -0.577793
      8          1           0        3.169991   -0.369458    1.105542
      9          6           0        5.182015   -1.338504   -0.406629
     10          1           0        3.740210   -2.673559    0.415098
     11          1           0        3.458774   -2.270363   -1.256553
     12          1           0        5.845315   -2.110876   -0.735582
     13          1           0        5.190868   -0.544829   -1.108053
     14          1           0        5.483973   -0.970809    0.548890
     15          6           0        0.796290    1.120483   -0.194623
     16          6           0        0.130493    2.389597    0.395061
     17          1           0        0.377893    0.875035   -1.170298
     18          1           0        1.840576    1.315022   -0.303489
     19          6           0        0.359868    3.546926   -0.613433
     20          1           0       -0.924445    2.238690    0.551112
     21          1           0        0.598002    2.632138    1.346571
     22          6           0       -0.165929    4.881136   -0.006466
     23          1           0        1.416327    3.657149   -0.812974
     24          1           0       -0.160695    3.321120   -1.539279
     25          1           0        0.002399    5.658653   -0.736685
     26          1           0       -1.226050    4.798054    0.215622
     27          1           0        0.368539    5.121570    0.909358
     28          6           0       -0.785376   -0.375693    0.767593
     29          8           0       -1.295135   -0.891173    1.776074
     30          8           0       -1.590731   -0.129656   -0.382352
     31          6           0       -2.611356   -1.127015   -0.409730
     32          6           0       -1.952417   -2.501260   -0.628774
     33          6           0       -3.357940   -1.099041    0.935555
     34          6           0       -3.615616   -0.854876   -1.546945
     35          1           0       -1.469892   -2.514886   -1.597401
     36          1           0       -1.221079   -2.665598    0.141374
     37          1           0       -2.700090   -3.270222   -0.587853
     38          1           0       -3.794592   -0.126100    1.068428
     39          1           0       -4.145394   -1.850057    0.940193
     40          1           0       -2.654470   -1.299781    1.736916
     41          1           0       -4.392074   -1.603191   -1.528837
     42          1           0       -4.054691    0.109784   -1.412064
     43          1           0       -3.096281   -0.885831   -2.486872
 ---------------------------------------------------------------------
 Rotational constants (GHZ):      0.4715849      0.3317236      0.2216504
 Standard basis: 6-311+G(d,p) (5D, 7F)
 There are   530 symmetry adapted cartesian basis functions of A   symmetry.
 There are   514 symmetry adapted basis functions of A   symmetry.
   514 basis functions,   792 primitive gaussians,   530 cartesian basis functions
    64 alpha electrons       64 beta electrons
       nuclear repulsion energy      1229.8754855153 Hartrees.
 NAtoms=   43 NActive=   43 NUniq=   43 SFac= 1.00D+00 NAtFMM=   60 NAOKFM=F Big=F
 Integral buffers will be    131072 words long.
 Raffenetti 2 integral format.
 Two-electron integral symmetry is turned on.
 One-electron integrals computed using PRISM.
 NBasis=   514 RedAO= T EigKep=  4.06D-06  NBF=   514
 NBsUse=   514 1.00D-06 EigRej= -1.00D+00 NBFU=   514
 ExpMin= 4.38D-02 ExpMax= 8.59D+03 ExpMxC= 1.30D+03 IAcc=2 IRadAn=         4 AccDes= 0.00D+00
 Harris functional with IExCor=  402 and IRadAn=       4 diagonalized for initial guess.
 HarFok:  IExCor=  402 AccDes= 0.00D+00 IRadAn=         4 IDoV= 1 UseB2=F ITyADJ=14
 ICtDFT=  3500011 ScaDFX=  1.000000  1.000000  1.000000  1.000000
 FoFCou: FMM=F IPFlag=           0 FMFlag=      100000 FMFlg1=           0
         NFxFlg=           0 DoJE=T BraDBF=F KetDBF=T FulRan=T
         wScrn=  0.000000 ICntrl=     500 IOpCl=  0 I1Cent=   200000004 NGrid=           0
         NMat0=    1 NMatS0=      1 NMatT0=    0 NMatD0=    1 NMtDS0=    0 NMtDT0=    0
 Petite list used in FoFCou.
 Requested convergence on RMS density matrix=1.00D-08 within 128 cycles.
 Requested convergence on MAX density matrix=1.00D-06.
 Requested convergence on             energy=1.00D-06.
 No special actions if energy rises.
 SCF Done:  E(RB3LYP) =  -716.977519207     A.U. after   14 cycles
            NFock= 14  Conv=0.64D-08     -V/T= 2.0033

 **********************************************************************

            Population analysis using the SCF density.

 **********************************************************************

 Orbital symmetries:
       Occupied  (A) (A) (A) (A) (A) (A) (A) (A) (A) (A) (A) (A)
                 (A) (A) (A) (A) (A) (A) (A) (A) (A) (A) (A) (A)
                 (A) (A) (A) (A) (A) (A) (A) (A) (A) (A) (A) (A)
                 (A) (A) (A) (A) (A) (A) (A) (A) (A) (A) (A) (A)
                 (A) (A) (A) (A) (A) (A) (A) (A) (A) (A) (A) (A)
                 (A) (A) (A) (A)
       Virtual   (A) (A) (A) (A) (A) (A) (A) (A) (A) (A) (A) (A)
                 (A) (A) (A) (A) (A) (A) (A) (A) (A) (A) (A) (A)
                 (A) (A) (A) (A) (A) (A) (A) (A) (A) (A) (A) (A)
                 (A) (A) (A) (A) (A) (A) (A) (A) (A) (A) (A) (A)
                 (A) (A) (A) (A) (A) (A) (A) (A) (A) (A) (A) (A)
                 (A) (A) (A) (A) (A) (A) (A) (A) (A) (A) (A) (A)
                 (A) (A) (A) (A) (A) (A) (A) (A) (A) (A) (A) (A)
                 (A) (A) (A) (A) (A) (A) (A) (A) (A) (A) (A) (A)
                 (A) (A) (A) (A) (A) (A) (A) (A) (A) (A) (A) (A)
                 (A) (A) (A) (A) (A) (A) (A) (A) (A) (A) (A) (A)
                 (A) (A) (A) (A) (A) (A) (A) (A) (A) (A) (A) (A)
                 (A) (A) (A) (A) (A) (A) (A) (A) (A) (A) (A) (A)
                 (A) (A) (A) (A) (A) (A) (A) (A) (A) (A) (A) (A)
                 (A) (A) (A) (A) (A) (A) (A) (A) (A) (A) (A) (A)
                 (A) (A) (A) (A) (A) (A) (A) (A) (A) (A) (A) (A)
                 (A) (A) (A) (A) (A) (A) (A) (A) (A) (A) (A) (A)
                 (A) (A) (A) (A) (A) (A) (A) (A) (A) (A) (A) (A)
                 (A) (A) (A) (A) (A) (A) (A) (A) (A) (A) (A) (A)
                 (A) (A) (A) (A) (A) (A) (A) (A) (A) (A) (A) (A)
                 (A) (A) (A) (A) (A) (A) (A) (A) (A) (A) (A) (A)
                 (A) (A) (A) (A) (A) (A) (A) (A) (A) (A) (A) (A)
                 (A) (A) (A) (A) (A) (A) (A) (A) (A) (A) (A) (A)
                 (A) (A) (A) (A) (A) (A) (A) (A) (A) (A) (A) (A)
                 (A) (A) (A) (A) (A) (A) (A) (A) (A) (A) (A) (A)
                 (A) (A) (A) (A) (A) (A) (A) (A) (A) (A) (A) (A)
                 (A) (A) (A) (A) (A) (A) (A) (A) (A) (A) (A) (A)
                 (A) (A) (A) (A) (A) (A) (A) (A) (A) (A) (A) (A)
                 (A) (A) (A) (A) (A) (A) (A) (A) (A) (A) (A) (A)
                 (A) (A) (A) (A) (A) (A) (A) (A) (A) (A) (A) (A)
                 (A) (A) (A) (A) (A) (A) (A) (A) (A) (A) (A) (A)
                 (A) (A) (A) (A) (A) (A) (A) (A) (A) (A) (A) (A)
                 (A) (A) (A) (A) (A) (A) (A) (A) (A) (A) (A) (A)
                 (A) (A) (A) (A) (A) (A) (A) (A) (A) (A) (A) (A)
                 (A) (A) (A) (A) (A) (A) (A) (A) (A) (A) (A) (A)
                 (A) (A) (A) (A) (A) (A) (A) (A) (A) (A) (A) (A)
                 (A) (A) (A) (A) (A) (A) (A) (A) (A) (A) (A) (A)
                 (A) (A) (A) (A) (A) (A) (A) (A) (A) (A) (A) (A)
                 (A) (A) (A) (A) (A) (A)
 The electronic state is 1-A.
 Alpha  occ. eigenvalues --  -19.17030 -19.11707 -14.33741 -10.34171 -10.23307
 Alpha  occ. eigenvalues --  -10.20490 -10.19482 -10.17030 -10.16806 -10.16803
 Alpha  occ. eigenvalues --  -10.16558 -10.15715 -10.15683 -10.15635 -10.15458
 Alpha  occ. eigenvalues --  -10.11140  -1.11075  -1.02620  -0.94818  -0.81440
 Alpha  occ. eigenvalues --   -0.79985  -0.79449  -0.74219  -0.72192  -0.70095
 Alpha  occ. eigenvalues --   -0.68386  -0.65091  -0.64667  -0.60910  -0.59645
 Alpha  occ. eigenvalues --   -0.59124  -0.54689  -0.51939  -0.50354  -0.49547
 Alpha  occ. eigenvalues --   -0.49220  -0.47659  -0.47039  -0.45491  -0.44815
 Alpha  occ. eigenvalues --   -0.43652  -0.43134  -0.42841  -0.41989  -0.41116
 Alpha  occ. eigenvalues --   -0.39932  -0.39506  -0.39015  -0.38629  -0.37812
 Alpha  occ. eigenvalues --   -0.37187  -0.36743  -0.36257  -0.35212  -0.35139
 Alpha  occ. eigenvalues --   -0.34882  -0.34393  -0.33793  -0.33527  -0.33170
 Alpha  occ. eigenvalues --   -0.32050  -0.29277  -0.26005  -0.23276
 Alpha virt. eigenvalues --   -0.03172  -0.00217   0.00571   0.00790   0.01709
 Alpha virt. eigenvalues --    0.02094   0.02540   0.03074   0.03462   0.03899
 Alpha virt. eigenvalues --    0.04145   0.04284   0.05142   0.05402   0.05694
 Alpha virt. eigenvalues --    0.06168   0.06481   0.06750   0.07129   0.07448
 Alpha virt. eigenvalues --    0.07849   0.07954   0.08290   0.08781   0.09280
 Alpha virt. eigenvalues --    0.09897   0.10381   0.10506   0.11107   0.11218
 Alpha virt. eigenvalues --    0.11306   0.11747   0.12658   0.12801   0.12956
 Alpha virt. eigenvalues --    0.13393   0.14005   0.14310   0.15084   0.15470
 Alpha virt. eigenvalues --    0.15669   0.15725   0.16755   0.16883   0.17184
 Alpha virt. eigenvalues --    0.17343   0.17777   0.17902   0.18540   0.18791
 Alpha virt. eigenvalues --    0.18983   0.19415   0.19817   0.20000   0.20108
 Alpha virt. eigenvalues --    0.20630   0.20938   0.21402   0.21542   0.21793
 Alpha virt. eigenvalues --    0.22270   0.22691   0.23192   0.23324   0.23422
 Alpha virt. eigenvalues --    0.23661   0.23925   0.24031   0.24722   0.25119
 Alpha virt. eigenvalues --    0.25566   0.25705   0.25880   0.26460   0.26651
 Alpha virt. eigenvalues --    0.27075   0.27318   0.27847   0.28002   0.28367
 Alpha virt. eigenvalues --    0.28870   0.28997   0.29188   0.29692   0.30206
 Alpha virt. eigenvalues --    0.30520   0.30880   0.31100   0.31647   0.32407
 Alpha virt. eigenvalues --    0.32933   0.33695   0.34320   0.35147   0.36393
 Alpha virt. eigenvalues --    0.36841   0.37664   0.38128   0.38691   0.39258
 Alpha virt. eigenvalues --    0.40183   0.40571   0.41510   0.41713   0.42192
 Alpha virt. eigenvalues --    0.42268   0.42858   0.43196   0.44359   0.45031
 Alpha virt. eigenvalues --    0.45204   0.45846   0.47367   0.48110   0.49351
 Alpha virt. eigenvalues --    0.49528   0.50054   0.51037   0.51909   0.52309
 Alpha virt. eigenvalues --    0.53573   0.53880   0.54662   0.55180   0.55413
 Alpha virt. eigenvalues --    0.56350   0.56891   0.57649   0.59584   0.60541
 Alpha virt. eigenvalues --    0.61257   0.61926   0.62281   0.63834   0.64055
 Alpha virt. eigenvalues --    0.64161   0.64993   0.65700   0.65972   0.66703
 Alpha virt. eigenvalues --    0.66796   0.67099   0.67742   0.68254   0.68457
 Alpha virt. eigenvalues --    0.68910   0.69522   0.69819   0.70284   0.70948
 Alpha virt. eigenvalues --    0.71367   0.71770   0.72419   0.73647   0.74142
 Alpha virt. eigenvalues --    0.74459   0.74624   0.75073   0.75705   0.76000
 Alpha virt. eigenvalues --    0.77006   0.77108   0.77391   0.78116   0.78625
 Alpha virt. eigenvalues --    0.79312   0.79921   0.80464   0.81449   0.83628
 Alpha virt. eigenvalues --    0.84049   0.84214   0.85824   0.87679   0.89311
 Alpha virt. eigenvalues --    0.90388   0.93062   0.93359   0.95556   0.96257
 Alpha virt. eigenvalues --    0.97367   0.99105   1.00578   1.01006   1.03723
 Alpha virt. eigenvalues --    1.04439   1.05066   1.06192   1.06815   1.08424
 Alpha virt. eigenvalues --    1.11211   1.12060   1.14175   1.16531   1.17101
 Alpha virt. eigenvalues --    1.18338   1.19738   1.21650   1.22787   1.24415
 Alpha virt. eigenvalues --    1.25331   1.26413   1.26774   1.27853   1.30118
 Alpha virt. eigenvalues --    1.30165   1.31889   1.33179   1.34446   1.36497
 Alpha virt. eigenvalues --    1.38541   1.40500   1.43520   1.44263   1.45513
 Alpha virt. eigenvalues --    1.45922   1.46215   1.47149   1.48052   1.48657
 Alpha virt. eigenvalues --    1.49530   1.49804   1.51071   1.51923   1.52383
 Alpha virt. eigenvalues --    1.52515   1.53636   1.54037   1.54653   1.55001
 Alpha virt. eigenvalues --    1.56017   1.56246   1.57026   1.57110   1.58502
 Alpha virt. eigenvalues --    1.58915   1.59158   1.60175   1.61235   1.61630
 Alpha virt. eigenvalues --    1.62317   1.62834   1.63016   1.63245   1.64603
 Alpha virt. eigenvalues --    1.65550   1.66655   1.67657   1.68243   1.68540
 Alpha virt. eigenvalues --    1.68773   1.69956   1.71517   1.71928   1.72486
 Alpha virt. eigenvalues --    1.73833   1.74128   1.74347   1.75490   1.75833
 Alpha virt. eigenvalues --    1.77042   1.77513   1.78014   1.78554   1.78860
 Alpha virt. eigenvalues --    1.80282   1.80689   1.82069   1.84994   1.85939
 Alpha virt. eigenvalues --    1.86764   1.87867   1.89099   1.90204   1.91259
 Alpha virt. eigenvalues --    1.92327   1.93662   1.94464   1.95851   1.97325
 Alpha virt. eigenvalues --    1.98255   1.99085   2.02004   2.02196   2.02966
 Alpha virt. eigenvalues --    2.05234   2.05826   2.07352   2.08935   2.09436
 Alpha virt. eigenvalues --    2.10530   2.12797   2.14251   2.16010   2.17181
 Alpha virt. eigenvalues --    2.17783   2.19495   2.20103   2.21887   2.23038
 Alpha virt. eigenvalues --    2.24170   2.26323   2.26815   2.27866   2.28585
 Alpha virt. eigenvalues --    2.30248   2.32157   2.33104   2.36660   2.37457
 Alpha virt. eigenvalues --    2.37507   2.39589   2.41050   2.42015   2.43767
 Alpha virt. eigenvalues --    2.45657   2.46480   2.48074   2.49569   2.49915
 Alpha virt. eigenvalues --    2.50362   2.51512   2.52131   2.53250   2.53772
 Alpha virt. eigenvalues --    2.54343   2.55695   2.55905   2.55999   2.56205
 Alpha virt. eigenvalues --    2.57039   2.57643   2.57833   2.58459   2.59300
 Alpha virt. eigenvalues --    2.59455   2.60767   2.61127   2.61429   2.62513
 Alpha virt. eigenvalues --    2.63103   2.63912   2.64488   2.64654   2.65929
 Alpha virt. eigenvalues --    2.66741   2.66772   2.67677   2.69301   2.69548
 Alpha virt. eigenvalues --    2.70565   2.71310   2.73016   2.73546   2.74700
 Alpha virt. eigenvalues --    2.75620   2.76293   2.76944   2.78016   2.78415
 Alpha virt. eigenvalues --    2.78933   2.79946   2.80774   2.83380   2.85521
 Alpha virt. eigenvalues --    2.86981   2.89679   2.91496   2.92387   2.92707
 Alpha virt. eigenvalues --    2.94364   2.94523   2.95093   2.97395   2.99694
 Alpha virt. eigenvalues --    3.02335   3.04133   3.05518   3.06440   3.09636
 Alpha virt. eigenvalues --    3.11236   3.14606   3.15028   3.17765   3.19033
 Alpha virt. eigenvalues --    3.21504   3.23645   3.25129   3.28208   3.34033
 Alpha virt. eigenvalues --    3.36212   3.37739   3.41918   3.49601   3.55253
 Alpha virt. eigenvalues --    3.59270   3.63984   3.68387   3.80160   3.82053
 Alpha virt. eigenvalues --    3.83056   3.83935   3.84153   3.84785   3.84945
 Alpha virt. eigenvalues --    3.86439   3.87404   3.87643   3.87876   3.88619
 Alpha virt. eigenvalues --    3.90036   3.91045   3.92576   3.92983   3.94176
 Alpha virt. eigenvalues --    4.10535   4.11562   4.13553   4.18507   4.23528
 Alpha virt. eigenvalues --    4.24625   4.26568   4.28952   4.29951   4.30999
 Alpha virt. eigenvalues --    4.35899   4.83214   4.84947   5.12702   5.16948
 Alpha virt. eigenvalues --    5.29187   5.43436   5.66934   5.85635  23.74475
 Alpha virt. eigenvalues --   23.78222  23.87625  23.90385  23.90905  23.93884
 Alpha virt. eigenvalues --   23.95989  23.97980  23.99058  24.01314  24.02713
 Alpha virt. eigenvalues --   24.04046  24.06137  35.57778  49.94596  50.02171
          Condensed to atoms (all electrons):
               1          2          3          4          5          6
     1  N    7.463690   0.645918  -0.159042  -0.068647  -0.080594   0.089374
     2  C    0.645918   7.977759  -1.365707   0.466526   0.397553   0.496475
     3  C   -0.159042  -1.365707   7.483861  -0.133742  -0.014141  -0.574287
     4  H   -0.068647   0.466526  -0.133742   0.589677  -0.044626  -0.001396
     5  H   -0.080594   0.397553  -0.014141  -0.044626   0.516147  -0.028337
     6  C    0.089374   0.496475  -0.574287  -0.001396  -0.028337   5.990191
     7  H   -0.024784  -0.014982   0.426282  -0.007813   0.007660  -0.089289
     8  H    0.007780  -0.102343   0.528246   0.008231  -0.007426  -0.078487
     9  C   -0.028527  -0.134030   0.128271  -0.002779   0.004959  -0.019756
    10  H   -0.002904  -0.008491  -0.054776  -0.001477   0.003647   0.443871
    11  H   -0.000248  -0.005907  -0.013709   0.004397  -0.000855   0.405536
    12  H    0.000285   0.007339   0.037604  -0.000004  -0.000018  -0.062892
    13  H    0.000341   0.000634  -0.050081  -0.000077  -0.000004  -0.003795
    14  H   -0.000366   0.000062  -0.015011   0.000043  -0.000016  -0.031201
    15  C   -0.540697  -0.974384   0.498572  -0.063672   0.043132  -0.305336
    16  C    0.110694   0.105459  -0.189264   0.056859  -0.019230   0.069931
    17  H   -0.053177   0.046422  -0.011932   0.017471  -0.001043   0.006610
    18  H   -0.085303   0.051180  -0.064357  -0.000615   0.000388   0.003892
    19  C   -0.030784  -0.001236  -0.030791  -0.000258   0.000909  -0.007582
    20  H   -0.032425   0.019388  -0.012772  -0.000013   0.000025  -0.000612
    21  H    0.013426  -0.013022   0.015730   0.000037   0.000007   0.000261
    22  C   -0.036314  -0.014211  -0.006505   0.000567  -0.000059  -0.002143
    23  H   -0.004455  -0.000938  -0.004616   0.000007   0.000001  -0.000255
    24  H    0.002640  -0.002593   0.003415   0.000003   0.000001   0.000132
    25  H    0.000259  -0.000128   0.000227   0.000000   0.000000   0.000005
    26  H   -0.000017   0.000329  -0.000225   0.000000   0.000000   0.000004
    27  H    0.000255  -0.000396   0.000339   0.000000   0.000000   0.000013
    28  C   -0.478876  -1.699808  -0.336447   0.004540   0.063147  -0.059421
    29  O   -0.032380  -0.105603  -0.017702   0.003285   0.001031   0.000895
    30  O   -0.236981  -0.065161   0.020308   0.020242  -0.003310   0.001526
    31  C    0.298725   0.415115   0.052420  -0.019174  -0.012440   0.013622
    32  C   -0.026005  -0.099576  -0.001594   0.005044   0.003928  -0.006885
    33  C   -0.069225  -0.135105   0.007801   0.002172   0.003300  -0.000904
    34  C   -0.016283   0.075153  -0.005327   0.001789  -0.000331   0.003884
    35  H    0.002562   0.010233  -0.004216   0.000675   0.000083   0.000757
    36  H   -0.011856   0.005281   0.008847   0.000197   0.000956  -0.001062
    37  H   -0.000171  -0.003930   0.000442   0.000096  -0.000030  -0.000071
    38  H    0.001827   0.001099   0.000251   0.000004  -0.000001  -0.000015
    39  H    0.000490   0.000314  -0.000348  -0.000006  -0.000002  -0.000009
    40  H   -0.013334  -0.007890   0.000087   0.000343   0.000046   0.000025
    41  H    0.000626   0.000912  -0.000015  -0.000018   0.000000   0.000004
    42  H   -0.000131   0.000302  -0.000048   0.000005   0.000001   0.000000
    43  H    0.000314  -0.000441   0.000089  -0.000015   0.000000   0.000025
               7          8          9         10         11         12
     1  N   -0.024784   0.007780  -0.028527  -0.002904  -0.000248   0.000285
     2  C   -0.014982  -0.102343  -0.134030  -0.008491  -0.005907   0.007339
     3  C    0.426282   0.528246   0.128271  -0.054776  -0.013709   0.037604
     4  H   -0.007813   0.008231  -0.002779  -0.001477   0.004397  -0.000004
     5  H    0.007660  -0.007426   0.004959   0.003647  -0.000855  -0.000018
     6  C   -0.089289  -0.078487  -0.019756   0.443871   0.405536  -0.062892
     7  H    0.585603  -0.036490   0.006807   0.008766  -0.008367  -0.000005
     8  H   -0.036490   0.521745   0.005071  -0.008473   0.008169  -0.000014
     9  C    0.006807   0.005071   5.417714  -0.040147  -0.053121   0.397760
    10  H    0.008766  -0.008473  -0.040147   0.558980  -0.036773  -0.005027
    11  H   -0.008367   0.008169  -0.053121  -0.036773   0.565448  -0.005282
    12  H   -0.000005  -0.000014   0.397760  -0.005027  -0.005282   0.544595
    13  H    0.006422  -0.001678   0.423318   0.009060  -0.009252  -0.026726
    14  H   -0.001600   0.005946   0.411804  -0.008968   0.008940  -0.024374
    15  C   -0.024956   0.012987   0.032247  -0.003660   0.009555  -0.000290
    16  C   -0.010960   0.008317  -0.016780  -0.001171   0.000164   0.000042
    17  H    0.000442   0.000426   0.000802  -0.000011   0.000022   0.000000
    18  H    0.002436   0.001073  -0.001615  -0.000139   0.000183  -0.000001
    19  C    0.000214   0.001231   0.000685   0.000023   0.000164   0.000005
    20  H   -0.000101   0.000048   0.000022  -0.000001   0.000001   0.000000
    21  H    0.000102  -0.000177   0.000199   0.000000   0.000000   0.000000
    22  C   -0.000929   0.000466  -0.000215  -0.000003   0.000013   0.000001
    23  H   -0.000213   0.000013  -0.000161   0.000000   0.000000   0.000000
    24  H    0.000025  -0.000005   0.000016   0.000000   0.000000   0.000000
    25  H    0.000000   0.000000   0.000001   0.000000   0.000000   0.000000
    26  H    0.000000   0.000000  -0.000001   0.000000   0.000000   0.000000
    27  H    0.000002  -0.000001   0.000000   0.000000   0.000000   0.000000
    28  C    0.047734  -0.032926  -0.018324   0.002475  -0.008487  -0.000078
    29  O   -0.000036   0.000419  -0.000048  -0.000048   0.000028   0.000001
    30  O   -0.000432   0.000341   0.000860  -0.000009   0.000036   0.000000
    31  C   -0.003459   0.001285   0.002035  -0.000083   0.000351  -0.000009
    32  C    0.000738  -0.000536  -0.001742   0.000260  -0.000245   0.000014
    33  C    0.000269  -0.000058  -0.000023   0.000007  -0.000002   0.000000
    34  C    0.000006  -0.000003   0.000055   0.000020  -0.000043   0.000000
    35  H    0.000003   0.000002  -0.000088  -0.000003   0.000001   0.000000
    36  H   -0.000013   0.000015   0.000150  -0.000013   0.000015   0.000000
    37  H    0.000000   0.000000   0.000003   0.000000   0.000001   0.000000
    38  H    0.000000   0.000000   0.000001   0.000000   0.000000   0.000000
    39  H    0.000000   0.000000  -0.000001   0.000000   0.000000   0.000000
    40  H    0.000000   0.000003   0.000013   0.000000   0.000000   0.000000
    41  H    0.000000   0.000000   0.000000   0.000000   0.000000   0.000000
    42  H    0.000000   0.000000   0.000001   0.000000   0.000000   0.000000
    43  H    0.000000   0.000000  -0.000001   0.000000   0.000000   0.000000
              13         14         15         16         17         18
     1  N    0.000341  -0.000366  -0.540697   0.110694  -0.053177  -0.085303
     2  C    0.000634   0.000062  -0.974384   0.105459   0.046422   0.051180
     3  C   -0.050081  -0.015011   0.498572  -0.189264  -0.011932  -0.064357
     4  H   -0.000077   0.000043  -0.063672   0.056859   0.017471  -0.000615
     5  H   -0.000004  -0.000016   0.043132  -0.019230  -0.001043   0.000388
     6  C   -0.003795  -0.031201  -0.305336   0.069931   0.006610   0.003892
     7  H    0.006422  -0.001600  -0.024956  -0.010960   0.000442   0.002436
     8  H   -0.001678   0.005946   0.012987   0.008317   0.000426   0.001073
     9  C    0.423318   0.411804   0.032247  -0.016780   0.000802  -0.001615
    10  H    0.009060  -0.008968  -0.003660  -0.001171  -0.000011  -0.000139
    11  H   -0.009252   0.008940   0.009555   0.000164   0.000022   0.000183
    12  H   -0.026726  -0.024374  -0.000290   0.000042   0.000000  -0.000001
    13  H    0.562289  -0.032884  -0.005341   0.000217   0.000004  -0.000259
    14  H   -0.032884   0.552039   0.003351   0.000316  -0.000003   0.000108
    15  C   -0.005341   0.003351   9.585270  -2.050478   0.256381   0.496279
    16  C    0.000217   0.000316  -2.050478   7.383602   0.050525  -0.041043
    17  H    0.000004  -0.000003   0.256381   0.050525   0.542920  -0.038026
    18  H   -0.000259   0.000108   0.496279  -0.041043  -0.038026   0.557118
    19  C   -0.000298   0.000076   0.546509  -0.561138  -0.033363   0.001160
    20  H    0.000000   0.000000   0.037757   0.402152  -0.006057   0.007266
    21  H    0.000000   0.000000  -0.141511   0.551531   0.006008  -0.007295
    22  C   -0.000015   0.000005  -0.134319   0.108974   0.000442   0.001307
    23  H    0.000002  -0.000001  -0.020449  -0.052677  -0.001479   0.005037
    24  H    0.000000   0.000000  -0.016139  -0.020513   0.003575  -0.000318
    25  H    0.000000   0.000000   0.004668   0.039902   0.000000  -0.000021
    26  H    0.000000   0.000000  -0.001227  -0.035657  -0.000067   0.000025
    27  H    0.000000   0.000000  -0.001492  -0.021396   0.000047   0.000029
    28  C    0.000804  -0.000937  -0.587493   0.093499   0.041209  -0.041637
    29  O   -0.000001   0.000000  -0.023396   0.026837   0.002921  -0.000616
    30  O   -0.000003   0.000000   0.023333   0.039287  -0.000067   0.005021
    31  C    0.000021   0.000011  -0.015631  -0.036633  -0.019846   0.004998
    32  C   -0.000010  -0.000005   0.085613  -0.024334  -0.001214  -0.000448
    33  C    0.000000  -0.000001  -0.061821   0.021134   0.003161  -0.001434
    34  C    0.000004   0.000000  -0.020456   0.010371   0.004917  -0.000618
    35  H    0.000000   0.000000  -0.004468   0.004760   0.000109   0.000007
    36  H    0.000000   0.000000   0.005000   0.000160   0.000197   0.000019
    37  H    0.000000   0.000000  -0.001173   0.000169  -0.000022  -0.000002
    38  H    0.000000   0.000000   0.008745  -0.008019  -0.000033   0.000000
    39  H    0.000000   0.000000   0.000121   0.000082   0.000000   0.000001
    40  H    0.000000   0.000000  -0.001306   0.002341   0.000237  -0.000028
    41  H    0.000000   0.000000   0.000506  -0.000317  -0.000019   0.000000
    42  H    0.000000   0.000000   0.003389  -0.002071  -0.000038  -0.000001
    43  H    0.000000   0.000000  -0.004789   0.002850   0.000056   0.000002
              19         20         21         22         23         24
     1  N   -0.030784  -0.032425   0.013426  -0.036314  -0.004455   0.002640
     2  C   -0.001236   0.019388  -0.013022  -0.014211  -0.000938  -0.002593
     3  C   -0.030791  -0.012772   0.015730  -0.006505  -0.004616   0.003415
     4  H   -0.000258  -0.000013   0.000037   0.000567   0.000007   0.000003
     5  H    0.000909   0.000025   0.000007  -0.000059   0.000001   0.000001
     6  C   -0.007582  -0.000612   0.000261  -0.002143  -0.000255   0.000132
     7  H    0.000214  -0.000101   0.000102  -0.000929  -0.000213   0.000025
     8  H    0.001231   0.000048  -0.000177   0.000466   0.000013  -0.000005
     9  C    0.000685   0.000022   0.000199  -0.000215  -0.000161   0.000016
    10  H    0.000023  -0.000001   0.000000  -0.000003   0.000000   0.000000
    11  H    0.000164   0.000001   0.000000   0.000013   0.000000   0.000000
    12  H    0.000005   0.000000   0.000000   0.000001   0.000000   0.000000
    13  H   -0.000298   0.000000   0.000000  -0.000015   0.000002   0.000000
    14  H    0.000076   0.000000   0.000000   0.000005  -0.000001   0.000000
    15  C    0.546509   0.037757  -0.141511  -0.134319  -0.020449  -0.016139
    16  C   -0.561138   0.402152   0.551531   0.108974  -0.052677  -0.020513
    17  H   -0.033363  -0.006057   0.006008   0.000442  -0.001479   0.003575
    18  H    0.001160   0.007266  -0.007295   0.001307   0.005037  -0.000318
    19  C    5.841905  -0.021578  -0.098555   0.009530   0.457414   0.404270
    20  H   -0.021578   0.536844  -0.036069  -0.001373   0.007393  -0.007786
    21  H   -0.098555  -0.036069   0.528275   0.005171  -0.006874   0.007483
    22  C    0.009530  -0.001373   0.005171   5.471924  -0.039108  -0.045669
    23  H    0.457414   0.007393  -0.006874  -0.039108   0.572235  -0.036142
    24  H    0.404270  -0.007786   0.007483  -0.045669  -0.036142   0.556173
    25  H   -0.067274  -0.000188   0.000060   0.394074  -0.004749  -0.005216
    26  H   -0.020941   0.004429  -0.001228   0.427461   0.008038  -0.007284
    27  H   -0.019832  -0.000448   0.004871   0.406777  -0.007655   0.007563
    28  C   -0.076816  -0.058781   0.022569   0.008790  -0.005213   0.011910
    29  O   -0.005489  -0.000144  -0.000274   0.000757   0.000037  -0.000037
    30  O   -0.018722   0.003873   0.002090   0.005635   0.000230  -0.000339
    31  C    0.011697   0.020959  -0.000281  -0.004884   0.000629  -0.001843
    32  C   -0.005510  -0.001470   0.000363   0.002407  -0.000111   0.000401
    33  C   -0.010233  -0.008873  -0.000074  -0.000956   0.000052  -0.000034
    34  C    0.005593   0.000469  -0.000120  -0.000332  -0.000063   0.000328
    35  H   -0.000103   0.000004  -0.000001   0.000032   0.000000   0.000000
    36  H    0.000090   0.000056   0.000000   0.000029   0.000000   0.000000
    37  H   -0.000058  -0.000004   0.000000  -0.000003   0.000000   0.000000
    38  H    0.000918   0.000231   0.000013  -0.000239   0.000000   0.000001
    39  H   -0.000003  -0.000015   0.000000   0.000000   0.000000   0.000000
    40  H    0.000131  -0.000178   0.000037   0.000101  -0.000001   0.000003
    41  H   -0.000013   0.000007   0.000000   0.000001   0.000000   0.000000
    42  H    0.000302   0.000003   0.000002  -0.000028   0.000000   0.000005
    43  H   -0.000166  -0.000018   0.000000   0.000031   0.000000  -0.000001
              25         26         27         28         29         30
     1  N    0.000259  -0.000017   0.000255  -0.478876  -0.032380  -0.236981
     2  C   -0.000128   0.000329  -0.000396  -1.699808  -0.105603  -0.065161
     3  C    0.000227  -0.000225   0.000339  -0.336447  -0.017702   0.020308
     4  H    0.000000   0.000000   0.000000   0.004540   0.003285   0.020242
     5  H    0.000000   0.000000   0.000000   0.063147   0.001031  -0.003310
     6  C    0.000005   0.000004   0.000013  -0.059421   0.000895   0.001526
     7  H    0.000000   0.000000   0.000002   0.047734  -0.000036  -0.000432
     8  H    0.000000   0.000000  -0.000001  -0.032926   0.000419   0.000341
     9  C    0.000001  -0.000001   0.000000  -0.018324  -0.000048   0.000860
    10  H    0.000000   0.000000   0.000000   0.002475  -0.000048  -0.000009
    11  H    0.000000   0.000000   0.000000  -0.008487   0.000028   0.000036
    12  H    0.000000   0.000000   0.000000  -0.000078   0.000001   0.000000
    13  H    0.000000   0.000000   0.000000   0.000804  -0.000001  -0.000003
    14  H    0.000000   0.000000   0.000000  -0.000937   0.000000   0.000000
    15  C    0.004668  -0.001227  -0.001492  -0.587493  -0.023396   0.023333
    16  C    0.039902  -0.035657  -0.021396   0.093499   0.026837   0.039287
    17  H    0.000000  -0.000067   0.000047   0.041209   0.002921  -0.000067
    18  H   -0.000021   0.000025   0.000029  -0.041637  -0.000616   0.005021
    19  C   -0.067274  -0.020941  -0.019832  -0.076816  -0.005489  -0.018722
    20  H   -0.000188   0.004429  -0.000448  -0.058781  -0.000144   0.003873
    21  H    0.000060  -0.001228   0.004871   0.022569  -0.000274   0.002090
    22  C    0.394074   0.427461   0.406777   0.008790   0.000757   0.005635
    23  H   -0.004749   0.008038  -0.007655  -0.005213   0.000037   0.000230
    24  H   -0.005216  -0.007284   0.007563   0.011910  -0.000037  -0.000339
    25  H    0.552545  -0.024586  -0.026096   0.000388  -0.000002  -0.000008
    26  H   -0.024586   0.551055  -0.032395  -0.004081   0.000024   0.000028
    27  H   -0.026096  -0.032395   0.551493   0.002463  -0.000005  -0.000004
    28  C    0.000388  -0.004081   0.002463  10.028218   0.710696   0.230179
    29  O   -0.000002   0.000024  -0.000005   0.710696   8.105011  -0.143509
    30  O   -0.000008   0.000028  -0.000004   0.230179  -0.143509   8.186304
    31  C   -0.000026   0.000599  -0.000125  -1.290757  -0.015019  -0.063333
    32  C   -0.000002  -0.000020   0.000000   0.138091  -0.052396  -0.015744
    33  C    0.000017  -0.000112   0.000012   0.185382  -0.256310  -0.002146
    34  C    0.000006  -0.000045   0.000010  -0.087687  -0.027840  -0.158829
    35  H    0.000000   0.000000   0.000000  -0.044548   0.000321  -0.008196
    36  H    0.000000   0.000000   0.000000   0.014709  -0.004930  -0.016980
    37  H    0.000000   0.000000   0.000000   0.016033  -0.001935   0.015270
    38  H    0.000000   0.000001   0.000000  -0.017098   0.000004  -0.011275
    39  H    0.000000   0.000000   0.000000   0.022299   0.020113   0.008971
    40  H    0.000000  -0.000001   0.000000   0.028394  -0.098354   0.008839
    41  H    0.000000   0.000000   0.000000  -0.004848   0.000072   0.016164
    42  H    0.000000   0.000000   0.000000  -0.001563  -0.000732  -0.010226
    43  H    0.000000   0.000000   0.000000  -0.000225   0.000079  -0.009633
              31         32         33         34         35         36
     1  N    0.298725  -0.026005  -0.069225  -0.016283   0.002562  -0.011856
     2  C    0.415115  -0.099576  -0.135105   0.075153   0.010233   0.005281
     3  C    0.052420  -0.001594   0.007801  -0.005327  -0.004216   0.008847
     4  H   -0.019174   0.005044   0.002172   0.001789   0.000675   0.000197
     5  H   -0.012440   0.003928   0.003300  -0.000331   0.000083   0.000956
     6  C    0.013622  -0.006885  -0.000904   0.003884   0.000757  -0.001062
     7  H   -0.003459   0.000738   0.000269   0.000006   0.000003  -0.000013
     8  H    0.001285  -0.000536  -0.000058  -0.000003   0.000002   0.000015
     9  C    0.002035  -0.001742  -0.000023   0.000055  -0.000088   0.000150
    10  H   -0.000083   0.000260   0.000007   0.000020  -0.000003  -0.000013
    11  H    0.000351  -0.000245  -0.000002  -0.000043   0.000001   0.000015
    12  H   -0.000009   0.000014   0.000000   0.000000   0.000000   0.000000
    13  H    0.000021  -0.000010   0.000000   0.000004   0.000000   0.000000
    14  H    0.000011  -0.000005  -0.000001   0.000000   0.000000   0.000000
    15  C   -0.015631   0.085613  -0.061821  -0.020456  -0.004468   0.005000
    16  C   -0.036633  -0.024334   0.021134   0.010371   0.004760   0.000160
    17  H   -0.019846  -0.001214   0.003161   0.004917   0.000109   0.000197
    18  H    0.004998  -0.000448  -0.001434  -0.000618   0.000007   0.000019
    19  C    0.011697  -0.005510  -0.010233   0.005593  -0.000103   0.000090
    20  H    0.020959  -0.001470  -0.008873   0.000469   0.000004   0.000056
    21  H   -0.000281   0.000363  -0.000074  -0.000120  -0.000001   0.000000
    22  C   -0.004884   0.002407  -0.000956  -0.000332   0.000032   0.000029
    23  H    0.000629  -0.000111   0.000052  -0.000063   0.000000   0.000000
    24  H   -0.001843   0.000401  -0.000034   0.000328   0.000000   0.000000
    25  H   -0.000026  -0.000002   0.000017   0.000006   0.000000   0.000000
    26  H    0.000599  -0.000020  -0.000112  -0.000045   0.000000   0.000000
    27  H   -0.000125   0.000000   0.000012   0.000010   0.000000   0.000000
    28  C   -1.290757   0.138091   0.185382  -0.087687  -0.044548   0.014709
    29  O   -0.015019  -0.052396  -0.256310  -0.027840   0.000321  -0.004930
    30  O   -0.063333  -0.015744  -0.002146  -0.158829  -0.008196  -0.016980
    31  C    7.305512  -0.107526  -0.297599   0.031144   0.021095   0.002356
    32  C   -0.107526   5.839921  -0.260673  -0.274176   0.348604   0.394491
    33  C   -0.297599  -0.260673   6.153335  -0.063408   0.008655  -0.032854
    34  C    0.031144  -0.274176  -0.063408   5.667860   0.028550  -0.001582
    35  H    0.021095   0.348604   0.008655   0.028550   0.541539  -0.027661
    36  H    0.002356   0.394491  -0.032854  -0.001582  -0.027661   0.527966
    37  H   -0.083636   0.425861   0.015061  -0.003320  -0.025373  -0.023367
    38  H    0.009555   0.027099   0.356511  -0.004401  -0.000665   0.000026
    39  H    0.001400   0.002132   0.366811  -0.050461   0.000124  -0.000198
    40  H   -0.068449  -0.030737   0.520206   0.036908  -0.000007   0.003094
    41  H   -0.084613   0.002478  -0.008244   0.457610  -0.000311   0.000142
    42  H    0.000314   0.026725  -0.044397   0.400389  -0.000111  -0.000573
    43  H    0.015939  -0.043564   0.031481   0.376912   0.003008   0.000159
[...]
 0000211,0.00000980,0.00000207,0.00000063,0.00000483,-0.00166264,-0.003
 52040,-0.00045466,0.00029726,0.00042739,0.00104858,-0.00307442,0.00356
 299,-0.00446916,0.01088979,0.01021698,-0.01571023,0.00083960,-0.000265
 37,0.00034934,0.06932792,0.10523031,-0.20123296,0.00120900,0.00037580,
 0.00043484,-0.00010687,-0.00024609,0.00017132,0.00002616,-0.00003519,-
 0.00001228,-0.00053024,-0.00000406,0.00058682,0.00405764,0.00679154,-0
 .01026553,-0.07689682,-0.11748289,0.21937933,-0.00009072,0.00019246,0.
 00044550,0.00006092,0.00006667,-0.00002515,0.00002056,-0.00002859,0.00
 006836,-0.00002027,0.00000812,0.00001264,0.00000477,0.00001780,-0.0000
 1030,-0.00001706,0.00000295,-0.00002329,-0.00000595,0.00000210,-0.0000
 0228,-0.00001106,-0.00001993,-0.00000337,0.00000011,-0.00000732,0.0000
 1629,0.00000306,0.00000135,0.00000542,0.00000226,0.00001087,-0.0000054
 5,-0.00000150,0.00000693,-0.00000460,-0.00000070,-0.00000245,-0.000002
 25,-0.00000564,-0.00000390,-0.00000573,-0.00005300,-0.00007038,0.00000
 955,0.00002334,0.00000857,0.00000927,0.00000791,-0.00000194,0.00000507
 ,0.00000814,0.00000757,0.00002045,-0.00002909,-0.00000309,-0.00000071,
 -0.00000028,0.00001245,-0.00000727,-0.00000304,-0.00000606,0.00001015,
 0.00000618,0.00000896,-0.00000317,0.00000431,0.00000137,-0.00000102,0.
 00000554,0.00000338,0.00000124,-0.00000226,0.00000244,0.00000573,-0.00
 000114,-0.00000181,-0.00000095,0.00000129,-0.00000153,0.00000101,0.000
 11981,-0.00108468,-0.00154004,-0.00019028,-0.00009075,0.00145580,0.001
 24337,0.00090953,0.00104481,-0.01011658,-0.02305343,-0.00638383,0.0010
 2631,-0.00127131,0.00021906,-0.08340905,-0.08264143,-0.03156692,-0.003
 30259,0.00205478,-0.00327236,0.00033466,0.00019639,0.00013378,-0.00037
 298,0.00073049,-0.00000918,-0.00010331,-0.00002548,-0.00006721,0.01008
 827,0.02199461,0.00761698,-0.00473138,-0.00907688,-0.00392705,0.089497
 24,0.00000104,0.00002873,-0.00050771,-0.00009871,-0.00011930,0.0000155
 4,-0.00000920,0.00002730,-0.00001443,0.00002103,0.00001543,-0.00001883
 ,0.00001286,0.00000460,0.00000518,0.00001424,-0.00002009,0.00001373,0.
 00000187,0.00000154,-0.00001380,-0.00002106,0.00000980,0.00002207,-0.0
 0000403,0.00001538,-0.00001272,-0.00000083,-0.00000254,-0.00000017,0.0
 0000157,-0.00000198,-0.00000044,0.00000882,0.00000225,0.00000247,0.000
 00112,-0.00000179,-0.00000157,-0.00000012,-0.00000050,0.00000770,0.000
 04842,0.00007175,0.00006219,-0.00002802,-0.00000655,-0.00003039,0.0000
 0580,-0.00000990,-0.00000114,0.00000628,-0.00000105,-0.00003626,0.0000
 2021,-0.00000956,0.00001548,-0.00001785,-0.00000865,0.00000332,0.00001
 218,0.00000986,-0.00001142,-0.00000764,-0.00000365,-0.00000512,-0.0000
 0005,0.00000262,-0.00000264,0.00000443,0.00000196,0.00000330,0.0000035
 6,-0.00000747,-0.00000649,-0.00000327,-0.00000058,0.00000247,0.0000044
 0,0.00000350,-0.00000213,0.00022858,0.00066940,0.00167728,0.00038885,-
 0.00348040,0.00144767,-0.00064324,-0.00028585,-0.00086665,0.00252008,0
 .00606508,0.00153341,0.00004004,0.00056786,0.00032048,-0.08626483,-0.2
 5565437,-0.08187464,0.00084360,0.00055847,0.00068170,-0.00003000,0.000
 06045,-0.00000307,0.00006783,0.00012792,0.00007549,-0.00010841,-0.0000
 5166,-0.00003147,-0.00550223,-0.01264037,-0.00387155,-0.00427601,-0.01
 236336,-0.00486211,0.09235440,0.27594033,-0.00025340,0.00016507,0.0012
 0788,0.00009809,0.00025968,-0.00001757,-0.00001042,-0.00005722,-0.0000
 7635,-0.00002033,-0.00001571,0.00007076,0.00000127,0.00003290,-0.00004
 541,-0.00000931,0.00004503,0.00001381,-0.00001116,0.00000085,0.0000245
 2,0.00006240,0.00002044,0.00001146,0.00000748,-0.00002545,0.00000111,0
 .00000370,0.00000063,-0.00000582,-0.00000558,-0.00002142,0.00001288,-0
 .00002030,-0.00001688,0.00000158,-0.00000247,0.00000652,0.00000183,0.0
 0000435,0.00000926,-0.00000026,-0.00017477,-0.00021924,-0.00021336,0.0
 0005475,0.00002460,0.00012117,0.00002055,0.00002499,0.00002529,-0.0000
 0262,0.00002248,0.00007019,-0.00007076,-0.00000096,-0.00002506,-0.0000
 1649,-0.00002186,-0.00001834,0.00000860,0.00000599,-0.00001727,0.00002
 515,0.00000301,0.00003464,0.00000432,0.00000432,0.00000020,0.00002096,
 0.00000977,0.00001036,-0.00000928,0.00001890,0.00001430,-0.00000941,0.
 00000557,-0.00000968,0.00000183,-0.00000006,-0.00000704,-0.00091888,-0
 .00211886,-0.00479920,0.00091046,0.00100211,0.00214469,0.00169327,0.00
 141022,0.00133767,-0.00830693,-0.02116319,-0.00779277,0.00132180,-0.00
 004562,0.00023561,-0.03047142,-0.07761551,-0.07620661,-0.00312102,0.00
 178189,-0.00268520,0.00016774,0.00005324,-0.00010483,-0.00031615,0.000
 34074,0.00049530,0.00010752,0.00013855,-0.00001270,-0.00554142,-0.0118
 1039,-0.00513125,0.00904721,0.02288161,0.00996129,0.03672345,0.0858133
 1,0.08113511,-0.00021622,-0.00037950,0.00013632,0.00002179,0.00011560,
 0.00005744,-0.00000107,-0.00003901,0.00001253,-0.00001780,-0.00002664,
 0.00001542,-0.00000301,-0.00000294,-0.00001284,-0.00001299,0.00001675,
 -0.00000510,-0.00000039,0.00000245,0.00000202,0.00000699,0.00000118,-0
 .00000042,0.00000358,-0.00001200,0.00000389,0.00000095,-0.00000143,-0.
 00000064,-0.00000037,-0.00000066,0.00000087,-0.00000806,-0.00000543,-0
 .00000074,-0.00000081,0.00000254,0.00000130,-0.00000064,0.00000250,-0.
 00000346,-0.00005704,-0.00005391,-0.00009512,-0.00000175,0.00005910,-0
 .00004412,-0.00001336,0.00001325,0.00000418,0.00000282,-0.00001210,0.0
 0002281,-0.00001393,-0.00002019,-0.00001102,0.00005554,-0.00001456,0.0
 0001094,0.00000053,-0.00002542,0.00002561,0.00000832,0.00000851,0.0000
 0078,-0.00000174,-0.00000047,0.00001606,-0.00000509,0.00000886,-0.0000
 1021,-0.00000290,0.00000561,0.00001010,0.00000780,-0.00000805,-0.00000
 394,-0.00000294,-0.00000499,0.00000217,0.00095851,0.00096579,0.0007441
 6,-0.00025915,-0.00031109,-0.00050611,-0.00107931,-0.00389515,-0.00010
 942,-0.00546376,-0.00296452,0.00911252,-0.00011765,0.00062221,0.000304
 41,0.00003172,0.00025549,0.00054315,-0.08673996,-0.05373196,0.07735761
 ,0.00005856,0.00009789,-0.00012262,-0.00009747,0.00002892,-0.00015936,
 0.00041777,0.00038452,-0.00000201,-0.00006531,-0.00016712,0.00003143,-
 0.00017812,-0.00025719,-0.00078298,0.00014267,0.00018158,-0.00017078,0
 .09095274,-0.00043918,-0.00081791,0.00028727,0.00008790,0.00018014,0.0
 0015704,0.00001141,-0.00006402,0.00001045,-0.00003657,-0.00007094,0.00
 002825,-0.00000726,-0.00000480,-0.00001869,-0.00002767,0.00002975,-0.0
 0000491,-0.00000826,0.00000397,0.00000824,0.00000959,0.00000276,-0.000
 00157,0.00000513,-0.00001984,0.00000319,0.00000255,-0.00000028,-0.0000
 0142,0.00000065,-0.00000150,0.00000186,-0.00001297,-0.00000803,-0.0000
 0083,-0.00000179,0.00000368,0.00000185,-0.00000095,0.00000364,-0.00000
 362,-0.00002057,-0.00014435,-0.00023123,0.00004175,-0.00001101,0.00007
 005,0.00001409,0.00000352,-0.00002796,-0.00001915,0.00000332,0.0000470
 7,-0.00005524,-0.00000042,-0.00001387,-0.00001843,-0.00001484,-0.00002
 415,-0.00000208,0.00001392,-0.00000908,0.00001535,0.00000124,0.0000250
 1,0.00000795,0.00000573,-0.00000612,0.00002030,0.00000392,0.00001651,-
 0.00000613,0.00001017,0.00000349,-0.00001033,0.00000817,-0.00000454,0.
 00000294,0.00000093,-0.00000540,0.00044977,0.00223503,0.00157537,-0.00
 006804,-0.00068170,-0.00086929,-0.00416414,-0.00807323,-0.00019748,-0.
 00836531,-0.01031700,0.02260705,0.00000654,0.00082988,0.00082180,0.000
 61040,0.00071364,0.00088980,-0.05300587,-0.11679141,0.10021438,-0.0000
 3734,-0.00006770,-0.00004926,-0.00000896,0.00033120,-0.00027149,0.0004
 8740,-0.00049229,-0.00086269,0.00003429,0.00002841,-0.00012833,-0.0002
 6878,0.00032621,-0.00063233,0.00032793,0.00003697,-0.00017721,0.059842
 40,0.12562640,-0.00001002,-0.00006999,-0.00006668,-0.00004815,-0.00007
 816,0.00005986,0.00000947,0.00001182,-0.00000272,-0.00000094,-0.000011
 35,-0.00000252,0.00000760,0.00000966,0.00001190,0.00000148,-0.00001510
 ,0.00000309,-0.00000583,-0.00000082,0.00000164,-0.00000614,0.,-0.00000
 100,-0.00000379,0.00000865,-0.00000347,0.00000006,0.00000291,0.0000019
 0,0.00000106,0.00000208,-0.00000257,0.00000764,0.00000825,0.00000022,0
 .,-0.00000363,-0.00000089,-0.00000025,-0.00000341,0.00000280,-0.000104
 89,-0.00009159,-0.00004162,0.00001456,-0.00002019,0.00005608,0.0000376
 8,-0.00005141,0.00006978,0.00002091,0.00003180,-0.00001203,-0.00005082
 ,-0.00001624,0.00001973,-0.00006282,0.00000577,-0.00002359,0.00002883,
 0.00001839,-0.00002865,0.00000170,0.00001296,0.00000222,0.00001478,0.0
 0001125,-0.00002125,0.00003109,0.00002068,0.00003343,0.00000044,-0.000
 00901,-0.00001441,-0.00001018,0.00000720,0.00000640,0.00001595,0.00000
 105,-0.00000385,-0.00053932,-0.00109157,0.00072970,0.00013280,0.000458
 84,0.00029113,-0.00080989,-0.00163900,0.00079465,-0.00394483,-0.004814
 16,0.00601323,0.00009768,0.00002849,-0.00008772,-0.00014579,0.00000078
 ,-0.00009924,0.07901292,0.10369207,-0.20006700,0.00013023,-0.00001018,
 -0.00000013,-0.00018974,0.00010703,0.00021915,-0.00009953,-0.00050468,
 0.00031063,-0.00010506,0.00004271,-0.00000662,-0.00044734,-0.00049436,
 0.00017246,0.00012592,0.00000561,0.00026982,-0.08624031,-0.11212032,0.
 21681356,0.00009583,0.00010683,-0.00018580,-0.00002062,-0.00003088,-0.
 00002812,-0.00000624,0.00001392,0.00001059,0.00000412,0.00001771,-0.00
 000863,-0.00000184,-0.00000725,-0.00000051,0.00000422,-0.00000425,-0.0
 0000011,0.00000938,-0.00000267,-0.00000764,-0.00000429,-0.00000116,-0.
 00000158,-0.00000454,0.00000409,0.00000216,0.00000093,-0.00000456,-0.0
 0000213,-0.00000009,0.00000210,-0.00000044,0.00000321,0.00000318,-0.00
 000013,0.00000299,-0.00000309,-0.00000378,-0.00000025,-0.00000081,0.00
 000160,0.00002923,0.00010314,0.00009068,-0.00001120,-0.00000315,0.0000
 0032,-0.00004394,0.00005049,-0.00000628,-0.00000534,-0.00001280,-0.000
 00969,0.00009561,0.00004231,0.00000176,0.00006576,0.00000876,0.0000208
 0,-0.00001294,-0.00002288,0.00000500,-0.00001943,-0.00001351,-0.000028
 52,-0.00002499,-0.00002536,0.00001123,-0.00005608,-0.00000850,-0.00004
 072,0.00000806,-0.00000087,-0.00000895,0.00002515,-0.00000331,0.000017
 47,-0.00001746,-0.00000919,0.00001092,-0.00005136,-0.00023389,-0.00003
 154,0.00002637,-0.00005127,-0.00010985,0.00091404,0.00061814,-0.000856
 86,0.00754581,-0.00701716,-0.00483246,-0.00005717,-0.00144769,-0.00046
 495,0.00096761,-0.00036586,-0.00010286,-0.19140527,0.10529727,0.079617
 03,0.00014994,-0.00033838,0.00008102,0.00051959,-0.00043144,-0.0000664
 0,-0.00002978,-0.00010190,-0.00023135,0.00011560,-0.00025488,-0.000066
 20,-0.00004329,0.00007247,-0.00011333,0.00018227,0.00002900,0.00009086
 ,-0.00886604,0.00606343,0.00366388,0.20594955,0.00002898,0.00009875,0.
 00012836,0.00000173,-0.00006351,0.00000478,0.00001237,0.00001145,-0.00
 000982,0.00000336,-0.00000255,-0.00000283,0.00000986,0.00002003,0.0000
 1379,0.00000135,-0.00001425,-0.00000007,-0.00001549,0.00000184,0.00001
 100,-0.00000085,-0.00000330,-0.00000357,0.00000258,0.00000579,-0.00000
 191,-0.00000141,0.00000946,0.00000544,0.00000060,0.00000245,-0.0000035
 3,0.00000403,0.00000364,-0.00000011,-0.00000441,-0.00000005,0.00000423
 ,-0.00000053,-0.00000240,-0.00000194,-0.00000650,-0.00013774,-0.000067
 22,0.00004390,-0.00012236,0.00018004,0.00004781,-0.00008225,0.00005155
 ,-0.00000058,0.00005533,-0.00000451,-0.00004721,0.00003502,0.00001569,
 -0.00010219,0.00003953,-0.00005391,0.00002051,0.00005447,-0.00006812,-
 0.00000381,0.00000271,0.00001434,0.00001322,0.00000554,-0.00004731,0.0
 0003067,0.00000792,0.00004090,0.00000017,-0.00000823,-0.00002331,-0.00
 001119,0.00002189,0.00000512,0.00001420,0.00000260,-0.00000410,-0.0003
 7102,-0.00064291,-0.00048144,-0.00002189,0.00048547,0.00064045,0.00033
 907,0.00262283,-0.00036677,0.02316374,-0.01704834,-0.01235134,-0.00382
 725,-0.00501129,-0.00135537,0.00136386,0.00094059,0.00116070,0.1024265
 4,-0.12108280,-0.05680598,-0.00021016,0.00022051,0.00016366,0.00149974
 ,-0.00088247,-0.00093931,-0.00003177,0.00031076,-0.00012187,-0.0008189
 4,0.00043300,-0.00016602,-0.00013876,0.00002652,0.00002836,-0.00014256
 ,0.00004462,0.00038559,-0.01325659,0.01020141,0.00630523,-0.11315132,0
 .13247240,-0.00003621,-0.00009514,0.00001978,0.00004538,0.00003986,0.0
 0000157,-0.00000287,-0.00001026,0.00001389,-0.00000858,-0.00000598,0.0
 0000270,-0.00000355,-0.00000508,-0.00000379,-0.00000277,0.00000482,-0.
 00000673,0.00000242,0.00000176,0.00000176,0.00000206,-0.00000280,-0.00
 000611,0.00000410,-0.00000497,0.00000457,-0.00000021,-0.00000008,0.000
 00128,-0.00000063,0.00000186,-0.00000157,-0.00000500,-0.00000398,-0.00
 000079,-0.00000140,0.00000194,0.00000262,-0.00000106,0.00000107,-0.000
 00488,0.00004604,0.00003295,0.00001615,-0.00000316,0.00002183,-0.00003
 395,-0.00004373,0.00005386,-0.00002984,-0.00001292,-0.00001640,0.00000
 726,0.00006443,0.00003175,-0.00001477,0.00001693,0.00000483,0.00005081
 ,-0.00001621,-0.00002744,0.00002362,-0.00000347,-0.00001766,-0.0000037
 5,-0.00002248,-0.00001565,0.00001632,-0.00004342,-0.00001096,-0.000033
 76,0.00000001,0.00000560,0.00000361,0.00002273,0.00000078,-0.00000553,
 -0.00001716,-0.00000500,0.00000873,-0.00006050,0.00015927,0.00002458,-
 0.00013954,-0.00000150,-0.00002367,-0.00041116,0.00120796,0.00032238,0
 .00925242,-0.00489876,-0.00630218,-0.00167463,-0.00205885,-0.00051648,
 0.00099334,0.00020289,0.00015775,0.07796905,-0.05789635,-0.09083483,0.
 00025086,-0.00014089,0.00014480,0.00076638,-0.00055448,0.00022775,-0.0
 0033032,0.00015428,0.00032662,-0.00073618,-0.00014108,0.00002264,0.000
 03508,-0.00013461,-0.00012597,-0.00019161,0.00019398,0.00018663,0.0172
 3813,-0.01402822,-0.00960902,-0.08647215,0.06542664,0.09566522,0.00002
 250,0.00003790,0.00018613,-0.00003582,-0.00004400,0.00003233,0.0000035
 8,0.00001485,-0.00002627,0.00000292,-0.00000870,0.00001002,0.00000657,
 0.00001711,0.00000134,0.00000674,-0.00000553,0.00000558,-0.00000713,-0
 .00000079,0.00000210,0.00000558,0.00000181,0.00001005,-0.00000521,0.00
 000620,-0.00000752,-0.00000056,0.00000347,-0.00000108,0.00000038,-0.00
 000513,0.00000523,0.00000554,0.00000372,0.00000077,0.00000061,-0.00000
 120,-0.00000151,0.00000343,-0.00000210,0.00000728,-0.00026433,-0.00016
 904,-0.00008355,0.00000951,0.00007270,-0.00001502,0.00005016,-0.000082
 68,0.00012064,0.00004619,0.00002395,0.00000226,-0.00011144,-0.00007333
 ,0.00001678,-0.00003169,-0.00001688,-0.00001525,0.00004618,-0.00000217
 ,-0.00000779,0.00000973,0.00004528,-0.00001321,0.00002837,0.00001680,-
 0.00000098,0.00005339,0.00004528,0.00003855,-0.00000193,-0.00000734,0.
 00000476,-0.00000861,-0.00001272,0.00000483,0.00002587,-0.00000331,-0.
 00000509,-0.00008644,-0.00046925,-0.00033156,0.00014028,0.00032707,0.0
 0057480,0.00107605,0.00079637,0.00029491,-0.01012537,0.00243918,-0.008
 60108,0.00028064,0.00086462,0.00095220,-0.00019890,-0.00335857,-0.0001
 8682,-0.17940612,0.02971565,-0.12740300,0.00076149,-0.00008857,0.00006
 180,0.00000606,-0.00011761,0.00021460,0.00002686,-0.00005912,0.0001292
 2,0.00047677,0.00002085,0.00018234,0.00015149,0.00022343,-0.00004011,-
 0.00031508,0.00019371,-0.00091285,0.01055657,-0.00145674,0.00946898,-0
 .01603311,0.00313616,-0.01646844,0.19282828,0.00006729,0.00012767,-0.0
 0006795,-0.00003085,-0.00005250,-0.00000676,-0.00000389,0.00001803,-0.
 00000982,0.00000535,0.00001167,-0.00000435,-0.00000096,0.00000349,0.00
 000096,0.00000861,-0.00000885,0.00000384,0.00000233,-0.00000224,-0.000
 00047,-0.00000005,-0.00000008,0.00000158,-0.00000308,0.00000661,-0.000
 00318,-0.00000076,0.00000014,-0.00000082,-0.00000040,-0.00000061,0.000
 00055,0.00000475,0.00000357,0.00000065,0.00000121,-0.00000190,-0.00000
 072,0.00000135,-0.00000161,0.00000242,-0.00004804,0.00000152,0.0000477
 6,0.00000622,0.00000903,0.00002221,-0.00003655,0.00000349,0.00007427,0
 .00000908,0.00000959,-0.00001134,0.00005378,0.00002584,0.00000926,-0.0
 0000831,-0.00000129,0.00000076,0.00000848,-0.00000889,-0.00001441,-0.0
 0000943,-0.00001521,-0.00000118,-0.00001165,-0.00000572,-0.00000224,-0
 .00002019,-0.00000190,-0.00000416,0.00000541,-0.00000421,-0.00001219,0
 .00000569,0.00000598,0.00000399,-0.00000622,-0.00000021,0.00000169,-0.
 00018488,-0.00062563,-0.00030601,0.00012140,0.00020640,0.00035162,0.00
 150272,0.00208007,-0.00081736,-0.02145810,0.00382920,-0.02082148,-0.00
 103785,0.00161265,0.00009425,-0.00150606,-0.00516854,-0.00106636,0.031
 76220,-0.05382624,0.02991005,0.00037970,-0.00035933,0.00007180,-0.0000
 4896,0.00011765,0.00032693,0.00013308,-0.00003947,-0.00000649,-0.00016
 683,-0.00004898,0.00014966,0.00022335,-0.00000410,-0.00014631,-0.00138
 862,0.00040379,-0.00115771,0.01257577,-0.00302274,0.01025191,0.0111152
 2,-0.00303209,0.01252823,-0.03202134,0.05775593,-0.00007326,-0.0001054
 1,0.00008297,-0.00000441,0.00005101,0.00001202,-0.00000152,-0.00001147
 ,-0.00000936,-0.00000612,-0.00000590,0.00001257,-0.00000402,-0.0000013
 9,-0.00001089,-0.00000411,0.00001131,-0.00000013,0.00000134,-0.0000006
 6,0.00000098,0.00000686,0.00000113,0.00000469,-0.00000343,-0.00000394,
 -0.00000301,0.00000079,-0.00000180,-0.00000378,0.00000015,-0.00000411,
 0.00000617,-0.00000233,-0.00000188,0.00000014,0.00000187,0.00000035,-0
 .00000171,0.00000266,0.00000043,0.00000447,0.00001571,-0.00000063,-0.0
 0002011,0.00001345,0.00000929,0.00000532,-0.00000265,0.00004986,-0.000
 02210,-0.00001492,-0.00001306,0.00001765,0.00001844,0.00001066,-0.0000
 1133,0.00000994,-0.00000887,0.00000461,-0.00000643,-0.00000351,-0.0000
 0005,0.00000062,-0.00001088,0.00000216,-0.00000632,-0.00000487,0.00000
 687,-0.00000537,-0.00000570,-0.00001439,-0.00000010,0.00000648,0.00000
 695,0.00000080,-0.00000090,-0.00000315,-0.00000520,0.00000202,-0.00000
 100,0.00016218,0.00000433,0.00002392,0.00011077,-0.00004283,0.00014434
 ,0.00114351,0.00038665,0.00094750,-0.00734787,0.00319401,-0.00959905,-
 0.00033546,0.00099549,0.00011635,-0.00029232,-0.00310375,-0.00019569,-
 0.12770012,0.02714379,-0.17007062,0.00050101,-0.00061037,0.00026133,0.
 00022895,-0.00004482,0.00029644,-0.00010019,-0.00007685,-0.00010411,-0
 .00013685,0.00013994,0.00007655,0.00023406,-0.00003830,0.00046609,-0.0
 0087673,0.00027238,-0.00021937,-0.01737268,0.00292131,-0.01578838,0.01
 005568,-0.00170550,0.01030462,0.14179361,-0.02939305,0.18327350\\0.000
 01699,-0.00000178,-0.00001108,-0.00001307,0.00000179,-0.00000047,0.000
 00811,-0.00000152,-0.00000109,0.00000679,0.,-0.00000038,0.00000561,-0.
 00000408,-0.00000422,-0.00000085,-0.00000467,0.00000033,-0.00000201,-0
 .00000298,0.00000176,0.00000363,-0.00000061,0.00000063,0.00001001,-0.0
 0000531,0.00000112,0.00000581,-0.00000113,-0.00000269,0.00000522,-0.00
 000119,0.00000050,0.00000356,-0.00000663,-0.00000034,0.00000025,-0.000
 00267,0.00000167,0.00000084,-0.00000374,-0.00000308,-0.00000330,0.0000
 1333,0.00000827,0.00000037,-0.00000153,0.00000051,0.00000026,0.0000003
 1,-0.00000140,-0.00000072,-0.00000015,0.00000008,-0.00000529,-0.000001
 88,0.00000018,-0.00000161,-0.00000065,0.00000267,0.00000095,-0.0000037
 6,-0.00000055,0.00000017,-0.00000266,0.00000023,-0.00000032,-0.0000018
 6,-0.00000011,-0.00000165,0.00000242,0.00000111,-0.00000336,-0.0000007
 7,0.00000224,-0.00000302,-0.00000165,0.00000050,-0.00000202,-0.0000025
 8,0.00000115,-0.00001788,-0.00000950,-0.00001502,0.00000572,0.00001177
 ,0.00001499,0.00001652,0.00000130,-0.00000202,-0.00001235,-0.00000278,
 0.00000081,-0.00000235,0.00001013,0.00000336,0.00000102,-0.00000197,0.
 00000464,-0.00000319,0.00000066,-0.00000154,-0.00000036,0.00000401,0.0
 0000053,-0.00000025,0.00000089,-0.00000271,0.00000033,0.00000285,-0.00
 000255,-0.00000452,0.00000149,-0.00000014,-0.00000122,0.00000253,0.000
 00015,-0.00000327,0.00000032,-0.00000140,-0.00000230,0.00000568,0.0000
 0002,-0.00000623,0.00000375,0.00000174,-0.00000104,0.00000481,0.000001
 58\\\@


 KEEP CLOSE TO NATURES HEART, YOURSELF;
 AND BREAK CLEAR AWAY, ONCE IN A WHILE, AND
 CLIMB A MOUNTAIN OR SPEND A WEEK IN THE
 WOODS.  WASH YOUR SPIRIT CLEAN...
                                         -- JOHN MUIR
 Job cpu time:       0 days 11 hours 29 minutes 34.7 seconds.
 File lengths (MBytes):  RWF=    952 Int=      0 D2E=      0 Chk=     22 Scr=      1
 Normal termination of Gaussian 09 at Wed Oct 13 17:19:59 2021.
