 Entering Gaussian System, Link 0=g09
 Initial command:
 /cm/shared/apps/gaussian/g09revD.01/g09/l1.exe "//home/sweav003/CHB/CHActivation_Mkhalid/OtherCharges/G09-Chart2_2.com.o9641715.tmp/Gau-92910.inp" -scrdir="//home/sweav003/CHB/CHActivation_Mkhalid/OtherCharges/G09-Chart2_2.com.o9641715.tmp/"
 Entering Link 1 = /cm/shared/apps/gaussian/g09revD.01/g09/l1.exe PID=     92911.
  
 Copyright (c) 1988,1990,1992,1993,1995,1998,2003,2009,2013,
            Gaussian, Inc.  All Rights Reserved.
  
 This is part of the Gaussian(R) 09 program.  It is based on
 the Gaussian(R) 03 system (copyright 2003, Gaussian, Inc.),
 the Gaussian(R) 98 system (copyright 1998, Gaussian, Inc.),
 the Gaussian(R) 94 system (copyright 1995, Gaussian, Inc.),
 the Gaussian 92(TM) system (copyright 1992, Gaussian, Inc.),
 the Gaussian 90(TM) system (copyright 1990, Gaussian, Inc.),
 the Gaussian 88(TM) system (copyright 1988, Gaussian, Inc.),
 the Gaussian 86(TM) system (copyright 1986, Carnegie Mellon
 University), and the Gaussian 82(TM) system (copyright 1983,
 Carnegie Mellon University). Gaussian is a federally registered
 trademark of Gaussian, Inc.
  
 This software contains proprietary and confidential information,
 including trade secrets, belonging to Gaussian, Inc.
  
 This software is provided under written license and may be
 used, copied, transmitted, or stored only in accord with that
 written license.
  
 The following legend is applicable only to US Government
 contracts under FAR:
  
                    RESTRICTED RIGHTS LEGEND
  
 Use, reproduction and disclosure by the US Government is
 subject to restrictions as set forth in subparagraphs (a)
 and (c) of the Commercial Computer Software - Restricted
 Rights clause in FAR 52.227-19.
  
 Gaussian, Inc.
 340 Quinnipiac St., Bldg. 40, Wallingford CT 06492
  
  
 ---------------------------------------------------------------
 Warning -- This program may not be used in any manner that
 competes with the business of Gaussian, Inc. or will provide
 assistance to any competitor of Gaussian, Inc.  The licensee
 of this program is prohibited from giving any competitor of
 Gaussian, Inc. access to this program.  By using this program,
 the user acknowledges that Gaussian, Inc. is engaged in the
 business of creating and licensing software in the field of
 computational chemistry and represents and warrants to the
 licensee that it is not a competitor of Gaussian, Inc. and that
 it will not use this program in any manner prohibited above.
 ---------------------------------------------------------------
  

 Cite this work as:
 Gaussian 09, Revision D.01,
 M. J. Frisch, G. W. Trucks, H. B. Schlegel, G. E. Scuseria, 
 M. A. Robb, J. R. Cheeseman, G. Scalmani, V. Barone, B. Mennucci, 
 G. A. Petersson, H. Nakatsuji, M. Caricato, X. Li, H. P. Hratchian, 
 A. F. Izmaylov, J. Bloino, G. Zheng, J. L. Sonnenberg, M. Hada, 
 M. Ehara, K. Toyota, R. Fukuda, J. Hasegawa, M. Ishida, T. Nakajima, 
 Y. Honda, O. Kitao, H. Nakai, T. Vreven, J. A. Montgomery, Jr., 
 J. E. Peralta, F. Ogliaro, M. Bearpark, J. J. Heyd, E. Brothers, 
 K. N. Kudin, V. N. Staroverov, T. Keith, R. Kobayashi, J. Normand, 
 K. Raghavachari, A. Rendell, J. C. Burant, S. S. Iyengar, J. Tomasi, 
 M. Cossi, N. Rega, J. M. Millam, M. Klene, J. E. Knox, J. B. Cross, 
 V. Bakken, C. Adamo, J. Jaramillo, R. Gomperts, R. E. Stratmann, 
 O. Yazyev, A. J. Austin, R. Cammi, C. Pomelli, J. W. Ochterski, 
 R. L. Martin, K. Morokuma, V. G. Zakrzewski, G. A. Voth, 
 P. Salvador, J. J. Dannenberg, S. Dapprich, A. D. Daniels, 
 O. Farkas, J. B. Foresman, J. V. Ortiz, J. Cioslowski, 
 and D. J. Fox, Gaussian, Inc., Wallingford CT, 2013.
 
 ******************************************
 Gaussian 09:  ES64L-G09RevD.01 24-Apr-2013
                17-Nov-2021 
 ******************************************
 %mem=100MW
 %nprocshared=20
 Will use up to   20 processors via shared memory.
 %chk=Chart2_2.chk
 ----------------------------------------------------------------------
 # opt freq b3lyp/6-311+g(d,p) geom=connectivity pop=(hirshfeld,chelpg,
 mbs,npa)
 ----------------------------------------------------------------------
 1/14=-1,18=20,19=15,26=3,38=1,57=2/1,3;
 2/9=110,12=2,17=6,18=5,40=1/2;
 3/5=4,6=6,7=111,11=2,16=1,25=1,30=1,71=1,74=-5/1,2,3;
 4//1;
 5/5=2,38=5/2;
 6/7=2,8=2,9=2,10=2,15=8,20=3,27=100,28=1,40=-1,79=1/1,2,7;
 7//1,2,3,16;
 1/14=-1,18=20,19=15,26=3/3(2);
 2/9=110/2;
 99//99;
 2/9=110/2;
 3/5=4,6=6,7=111,11=2,16=1,25=1,30=1,71=1,74=-5/1,2,3;
 4/5=5,16=3,69=1/1;
 5/5=2,38=5/2;
 7//1,2,3,16;
 1/14=-1,18=20,19=15,26=3/3(-5);
 2/9=110/2;
 6/7=2,8=2,9=2,10=2,15=8,19=2,20=3,27=100,28=1,40=-1,79=1/1,2,7;
 99/9=1/99;
 --------
 Chart2_2
 --------
 Symbolic Z-matrix:
 Charge =  0 Multiplicity = 1
 C                    -1.86644  -1.03047  -0.23958 
 C                    -0.42249  -1.35179   0.12312 
 C                     0.10355   1.11417   0.16632 
 C                    -1.35225   1.40354  -0.19368 
 C                    -2.31059   0.32492   0.31151 
 H                    -0.30783  -1.54385   1.193 
 H                    -0.07681  -2.23185  -0.4405 
 H                    -1.95743  -1.03318  -1.3312 
 H                    -2.4966   -1.84337   0.13605 
 H                     0.28194   1.21567   1.24024 
 H                     0.75706   1.81204  -0.37055 
 H                    -1.60556   2.38827   0.21174 
 H                    -1.42864   1.47838  -1.28369 
 H                    -2.32499   0.30705   1.4089 
 H                    -3.33237   0.54794  -0.01348 
 N                     0.53195  -0.25653  -0.24805 
 C                     1.91746  -0.63671   0.19877 
 C                     2.98842   0.41319  -0.05843 
 H                     2.14892  -1.54148  -0.37768 
 H                     1.85676  -0.89894   1.25732 
 H                     3.9611   -0.02795   0.18105 
 H                     3.00102   0.70125  -1.11145 
 H                     2.86633   1.30765   0.55497 
 

 GradGradGradGradGradGradGradGradGradGradGradGradGradGradGradGradGradGrad
 Berny optimization.
 Initialization pass.
                           ----------------------------
                           !    Initial Parameters    !
                           ! (Angstroms and Degrees)  !
 --------------------------                            --------------------------
 ! Name  Definition              Value          Derivative Info.                !
 --------------------------------------------------------------------------------
 ! R1    R(1,2)                  1.5231         estimate D2E/DX2                !
 ! R2    R(1,5)                  1.5291         estimate D2E/DX2                !
 ! R3    R(1,8)                  1.0954         estimate D2E/DX2                !
 ! R4    R(1,9)                  1.095          estimate D2E/DX2                !
 ! R5    R(2,6)                  1.093          estimate D2E/DX2                !
 ! R6    R(2,7)                  1.1008         estimate D2E/DX2                !
 ! R7    R(2,16)                 1.4994         estimate D2E/DX2                !
 ! R8    R(3,4)                  1.5273         estimate D2E/DX2                !
 ! R9    R(3,10)                 1.0934         estimate D2E/DX2                !
 ! R10   R(3,11)                 1.0965         estimate D2E/DX2                !
 ! R11   R(3,16)                 1.4947         estimate D2E/DX2                !
 ! R12   R(4,5)                  1.5287         estimate D2E/DX2                !
 ! R13   R(4,12)                 1.0946         estimate D2E/DX2                !
 ! R14   R(4,13)                 1.0952         estimate D2E/DX2                !
 ! R15   R(5,14)                 1.0976         estimate D2E/DX2                !
 ! R16   R(5,15)                 1.0952         estimate D2E/DX2                !
 ! R17   R(16,17)                1.5046         estimate D2E/DX2                !
 ! R18   R(17,18)                1.5217         estimate D2E/DX2                !
 ! R19   R(17,19)                1.0975         estimate D2E/DX2                !
 ! R20   R(17,20)                1.0922         estimate D2E/DX2                !
 ! R21   R(18,21)                1.0946         estimate D2E/DX2                !
 ! R22   R(18,22)                1.0918         estimate D2E/DX2                !
 ! R23   R(18,23)                1.0914         estimate D2E/DX2                !
 ! A1    A(2,1,5)              112.1203         estimate D2E/DX2                !
 ! A2    A(2,1,8)              108.3929         estimate D2E/DX2                !
 ! A3    A(2,1,9)              107.8959         estimate D2E/DX2                !
 ! A4    A(5,1,8)              109.7081         estimate D2E/DX2                !
 ! A5    A(5,1,9)              111.547          estimate D2E/DX2                !
 ! A6    A(8,1,9)              106.9907         estimate D2E/DX2                !
 ! A7    A(1,2,6)              111.6917         estimate D2E/DX2                !
 ! A8    A(1,2,7)              110.1484         estimate D2E/DX2                !
 ! A9    A(1,2,16)             112.9805         estimate D2E/DX2                !
 ! A10   A(6,2,7)              109.1332         estimate D2E/DX2                !
 ! A11   A(6,2,16)             107.6908         estimate D2E/DX2                !
 ! A12   A(7,2,16)             104.9131         estimate D2E/DX2                !
 ! A13   A(4,3,10)             111.6813         estimate D2E/DX2                !
 ! A14   A(4,3,11)             109.396          estimate D2E/DX2                !
 ! A15   A(4,3,16)             112.4331         estimate D2E/DX2                !
 ! A16   A(10,3,11)            108.9401         estimate D2E/DX2                !
 ! A17   A(10,3,16)            108.0999         estimate D2E/DX2                !
 ! A18   A(11,3,16)            106.0875         estimate D2E/DX2                !
 ! A19   A(3,4,5)              112.7032         estimate D2E/DX2                !
 ! A20   A(3,4,12)             107.681          estimate D2E/DX2                !
 ! A21   A(3,4,13)             108.301          estimate D2E/DX2                !
 ! A22   A(5,4,12)             111.5468         estimate D2E/DX2                !
 ! A23   A(5,4,13)             109.4735         estimate D2E/DX2                !
 ! A24   A(12,4,13)            106.9171         estimate D2E/DX2                !
 ! A25   A(1,5,4)              108.9192         estimate D2E/DX2                !
 ! A26   A(1,5,14)             110.4695         estimate D2E/DX2                !
 ! A27   A(1,5,15)             110.1552         estimate D2E/DX2                !
 ! A28   A(4,5,14)             110.4935         estimate D2E/DX2                !
 ! A29   A(4,5,15)             110.0677         estimate D2E/DX2                !
 ! A30   A(14,5,15)            106.7235         estimate D2E/DX2                !
 ! A31   A(2,16,3)             114.7582         estimate D2E/DX2                !
 ! A32   A(2,16,17)            109.1516         estimate D2E/DX2                !
 ! A33   A(3,16,17)            114.414          estimate D2E/DX2                !
 ! A34   A(16,17,18)           115.06           estimate D2E/DX2                !
 ! A35   A(16,17,19)           104.2728         estimate D2E/DX2                !
 ! A36   A(16,17,20)           107.2956         estimate D2E/DX2                !
 ! A37   A(18,17,19)           109.3659         estimate D2E/DX2                !
 ! A38   A(18,17,20)           111.6281         estimate D2E/DX2                !
 ! A39   A(19,17,20)           108.8351         estimate D2E/DX2                !
 ! A40   A(17,18,21)           108.082          estimate D2E/DX2                !
 ! A41   A(17,18,22)           110.6827         estimate D2E/DX2                !
 ! A42   A(17,18,23)           113.062          estimate D2E/DX2                !
 ! A43   A(21,18,22)           107.8853         estimate D2E/DX2                !
 ! A44   A(21,18,23)           107.8628         estimate D2E/DX2                !
 ! A45   A(22,18,23)           109.0946         estimate D2E/DX2                !
 ! D1    D(5,1,2,6)             69.1961         estimate D2E/DX2                !
 ! D2    D(5,1,2,7)           -169.3585         estimate D2E/DX2                !
 ! D3    D(5,1,2,16)           -52.3994         estimate D2E/DX2                !
 ! D4    D(8,1,2,6)           -169.5536         estimate D2E/DX2                !
 ! D5    D(8,1,2,7)            -48.1082         estimate D2E/DX2                !
 ! D6    D(8,1,2,16)            68.8509         estimate D2E/DX2                !
 ! D7    D(9,1,2,6)            -54.0239         estimate D2E/DX2                !
 ! D8    D(9,1,2,7)             67.4215         estimate D2E/DX2                !
 ! D9    D(9,1,2,16)          -175.6194         estimate D2E/DX2                !
 ! D10   D(2,1,5,4)             56.0937         estimate D2E/DX2                !
 ! D11   D(2,1,5,14)           -65.4386         estimate D2E/DX2                !
 ! D12   D(2,1,5,15)           176.9035         estimate D2E/DX2                !
 ! D13   D(8,1,5,4)            -64.3969         estimate D2E/DX2                !
 ! D14   D(8,1,5,14)           174.0708         estimate D2E/DX2                !
 ! D15   D(8,1,5,15)            56.4129         estimate D2E/DX2                !
 ! D16   D(9,1,5,4)            177.2331         estimate D2E/DX2                !
 ! D17   D(9,1,5,14)            55.7009         estimate D2E/DX2                !
 ! D18   D(9,1,5,15)           -61.957          estimate D2E/DX2                !
 ! D19   D(1,2,16,3)            47.6972         estimate D2E/DX2                !
 ! D20   D(1,2,16,17)          177.6379         estimate D2E/DX2                !
 ! D21   D(6,2,16,3)           -76.1284         estimate D2E/DX2                !
 ! D22   D(6,2,16,17)           53.8124         estimate D2E/DX2                !
 ! D23   D(7,2,16,3)           167.7056         estimate D2E/DX2                !
 ! D24   D(7,2,16,17)          -62.3536         estimate D2E/DX2                !
 ! D25   D(10,3,4,5)           -69.5588         estimate D2E/DX2                !
 ! D26   D(10,3,4,12)           53.8915         estimate D2E/DX2                !
 ! D27   D(10,3,4,13)          169.1763         estimate D2E/DX2                !
 ! D28   D(11,3,4,5)           169.7584         estimate D2E/DX2                !
 ! D29   D(11,3,4,12)          -66.7912         estimate D2E/DX2                !
 ! D30   D(11,3,4,13)           48.4935         estimate D2E/DX2                !
 ! D31   D(16,3,4,5)            52.1656         estimate D2E/DX2                !
 ! D32   D(16,3,4,12)          175.616          estimate D2E/DX2                !
 ! D33   D(16,3,4,13)          -69.0993         estimate D2E/DX2                !
 ! D34   D(4,3,16,2)           -47.2462         estimate D2E/DX2                !
 ! D35   D(4,3,16,17)         -174.5534         estimate D2E/DX2                !
 ! D36   D(10,3,16,2)           76.4946         estimate D2E/DX2                !
 ! D37   D(10,3,16,17)         -50.8126         estimate D2E/DX2                !
 ! D38   D(11,3,16,2)         -166.7837         estimate D2E/DX2                !
 ! D39   D(11,3,16,17)          65.9091         estimate D2E/DX2                !
 ! D40   D(3,4,5,1)            -56.2368         estimate D2E/DX2                !
 ! D41   D(3,4,5,14)            65.2808         estimate D2E/DX2                !
 ! D42   D(3,4,5,15)          -177.1003         estimate D2E/DX2                !
 ! D43   D(12,4,5,1)          -177.5128         estimate D2E/DX2                !
 ! D44   D(12,4,5,14)          -55.9951         estimate D2E/DX2                !
 ! D45   D(12,4,5,15)           61.6237         estimate D2E/DX2                !
 ! D46   D(13,4,5,1)            64.3586         estimate D2E/DX2                !
 ! D47   D(13,4,5,14)         -174.1238         estimate D2E/DX2                !
 ! D48   D(13,4,5,15)          -56.5049         estimate D2E/DX2                !
 ! D49   D(2,16,17,18)        -177.443          estimate D2E/DX2                !
 ! D50   D(2,16,17,19)          62.7773         estimate D2E/DX2                !
 ! D51   D(2,16,17,20)         -52.5708         estimate D2E/DX2                !
 ! D52   D(3,16,17,18)         -47.3148         estimate D2E/DX2                !
 ! D53   D(3,16,17,19)        -167.0945         estimate D2E/DX2                !
 ! D54   D(3,16,17,20)          77.5574         estimate D2E/DX2                !
 ! D55   D(16,17,18,21)       -172.4476         estimate D2E/DX2                !
 ! D56   D(16,17,18,22)        -54.505          estimate D2E/DX2                !
 ! D57   D(16,17,18,23)         68.2309         estimate D2E/DX2                !
 ! D58   D(19,17,18,21)        -55.5221         estimate D2E/DX2                !
 ! D59   D(19,17,18,22)         62.4204         estimate D2E/DX2                !
 ! D60   D(19,17,18,23)       -174.8437         estimate D2E/DX2                !
 ! D61   D(20,17,18,21)         64.9744         estimate D2E/DX2                !
 ! D62   D(20,17,18,22)       -177.083          estimate D2E/DX2                !
 ! D63   D(20,17,18,23)        -54.3471         estimate D2E/DX2                !
 --------------------------------------------------------------------------------
 Trust Radius=3.00D-01 FncErr=1.00D-07 GrdErr=1.00D-06
 Number of steps in this run=    138 maximum allowed number of steps=    138.
 GradGradGradGradGradGradGradGradGradGradGradGradGradGradGradGradGradGrad

                          Input orientation:                          
 ---------------------------------------------------------------------
 Center     Atomic      Atomic             Coordinates (Angstroms)
 Number     Number       Type             X           Y           Z
 ---------------------------------------------------------------------
      1          6           0       -1.866443   -1.030469   -0.239578
      2          6           0       -0.422489   -1.351785    0.123118
      3          6           0        0.103549    1.114168    0.166316
      4          6           0       -1.352252    1.403540   -0.193679
      5          6           0       -2.310585    0.324923    0.311508
      6          1           0       -0.307831   -1.543846    1.192999
      7          1           0       -0.076814   -2.231849   -0.440505
      8          1           0       -1.957429   -1.033181   -1.331205
      9          1           0       -2.496602   -1.843369    0.136048
     10          1           0        0.281940    1.215674    1.240236
     11          1           0        0.757057    1.812043   -0.370548
     12          1           0       -1.605560    2.388268    0.211741
     13          1           0       -1.428645    1.478382   -1.283687
     14          1           0       -2.324987    0.307053    1.408903
     15          1           0       -3.332374    0.547944   -0.013479
     16          7           0        0.531952   -0.256531   -0.248052
     17          6           0        1.917456   -0.636715    0.198771
     18          6           0        2.988424    0.413195   -0.058432
     19          1           0        2.148920   -1.541479   -0.377675
     20          1           0        1.856757   -0.898938    1.257320
     21          1           0        3.961097   -0.027949    0.181048
     22          1           0        3.001017    0.701254   -1.111446
     23          1           0        2.866333    1.307652    0.554974
 ---------------------------------------------------------------------
                    Distance matrix (angstroms):
                    1          2          3          4          5
     1  C    0.000000
     2  C    1.523088   0.000000
     3  C    2.940253   2.521806   0.000000
     4  C    2.488152   2.925173   1.527314   0.000000
     5  C    1.529067   2.532143   2.544019   1.528735   0.000000
     6  H    2.178326   1.093013   2.878949   3.420639   2.877559
     7  H    2.164823   1.100761   3.405376   3.860533   3.477404
     8  H    1.095415   2.138365   3.331862   2.756413   2.160479
     9  H    1.094989   2.131611   3.938111   3.458421   2.183318
    10  H    3.442464   2.887216   1.093358   2.182198   2.894332
    11  H    3.870372   3.412454   1.096506   2.155769   3.476659
    12  H    3.458252   3.923711   2.132240   1.094632   2.182752
    13  H    2.752484   3.316820   2.140742   1.095242   2.157067
    14  H    2.171800   2.832752   2.844863   2.171812   1.097635
    15  H    2.165979   3.477796   3.486905   2.164579   1.095175
    16  N    2.520188   1.499435   1.494672   2.511775   2.954862
    17  C    3.829502   2.447937   2.521290   3.873971   4.337487
    18  C    5.068206   3.844794   2.977310   4.454272   5.312640
    19  H    4.050104   2.626580   3.395869   4.578777   4.883198
    20  H    4.015000   2.585816   2.883856   4.207676   4.445125
    21  H    5.928086   4.579490   4.023099   5.515547   6.282956
    22  H    5.239388   4.178458   3.193508   4.504048   5.511764
    23  H    5.338285   4.251524   2.796688   4.285573   5.274990
                    6          7          8          9         10
     6  H    0.000000
     7  H    1.787471   0.000000
     8  H    3.058359   2.401430   0.000000
     9  H    2.448995   2.517678   1.760666   0.000000
    10  H    2.822235   3.852143   4.084658   4.277530   0.000000
    11  H    3.852357   4.129563   4.048036   4.919854   1.782138
    12  H    4.255406   4.909986   3.769722   4.325093   2.448558
    13  H    4.064980   4.037848   2.567065   3.766990   3.060278
    14  H    2.746153   3.862721   3.072380   2.504780   2.765883
    15  H    3.870276   4.302124   2.475244   2.537568   3.883418
    16  N    2.106903   2.075937   2.823725   3.440599   2.108291
    17  C    2.600631   2.632535   4.184824   4.576446   2.681586
    18  C    4.032541   4.066684   5.307863   5.934257   3.107340
    19  H    2.915930   2.331190   4.246138   4.683580   3.702046
    20  H    2.259532   2.897922   4.611561   4.593575   2.636650
    21  H    4.641738   4.642007   6.190828   6.708178   4.025503
    22  H    4.615129   4.304218   5.257637   6.185075   3.631586
    23  H    4.314329   4.709687   5.683823   6.234220   2.675281
                   11         12         13         14         15
    11  H    0.000000
    12  H    2.500611   0.000000
    13  H    2.392163   1.759402   0.000000
    14  H    3.863992   2.506437   3.070095   0.000000
    15  H    4.295217   2.533654   2.470492   1.759554   0.000000
    16  N    2.084388   3.431519   2.815387   3.350407   3.954140
    17  C    2.768946   4.643526   4.227021   4.511479   5.386018
    18  C    2.652016   5.007853   4.705993   5.513318   6.322394
    19  H    3.630901   5.466849   4.768584   5.159920   5.877322
    20  H    3.347942   4.887392   4.785628   4.354811   5.534933
    21  H    3.735733   6.068502   5.784791   6.413635   7.318758
    22  H    2.611157   5.081082   4.500611   5.905411   6.429688
    23  H    2.357975   4.613390   4.675110   5.355390   6.270907
                   16         17         18         19         20
    16  N    0.000000
    17  C    1.504598   0.000000
    18  C    2.553183   1.521655   0.000000
    19  H    2.069416   1.097481   2.151147   0.000000
    20  H    2.105692   1.092233   2.175676   1.780850   0.000000
    21  H    3.463440   2.132458   1.094556   2.426300   2.518974
    22  H    2.785513   2.163546   1.091776   2.508852   3.079123
    23  H    2.922474   2.192672   1.091433   3.082542   2.526178
                   21         22         23
    21  H    0.000000
    22  H    1.767493   0.000000
    23  H    1.766963   1.778430   0.000000
 Stoichiometry    C7H15N
 Framework group  C1[X(C7H15N)]
 Deg. of freedom    63
 Full point group                 C1      NOp   1
 Largest Abelian subgroup         C1      NOp   1
 Largest concise Abelian subgroup C1      NOp   1
                         Standard orientation:                         
 ---------------------------------------------------------------------
 Center     Atomic      Atomic             Coordinates (Angstroms)
 Number     Number       Type             X           Y           Z
 ---------------------------------------------------------------------
      1          6           0       -1.859418   -1.030936   -0.260001
      2          6           0       -0.414356   -1.356082    0.094783
      3          6           0        0.114511    1.108989    0.151590
      4          6           0       -1.342421    1.402187   -0.200649
      5          6           0       -2.299866    0.321375    0.301522
      6          1           0       -0.295579   -1.555094    1.162942
      7          1           0       -0.071913   -2.232891   -0.475843
      8          1           0       -1.954823   -1.026578   -1.351245
      9          1           0       -2.488929   -1.845555    0.112979
     10          1           0        0.297355    1.203445    1.225404
     11          1           0        0.766594    1.809591   -0.383452
     12          1           0       -1.593025    2.384571    0.212073
     13          1           0       -1.423142    1.484072   -1.289838
     14          1           0       -2.309847    0.296510    1.398829
     15          1           0       -3.322720    0.547543   -0.017892
     16          7           0        0.539756   -0.259485   -0.273252
     17          6           0        1.926646   -0.643974    0.165516
     18          6           0        2.997696    0.406430   -0.089317
     19          1           0        2.154800   -1.545280   -0.417627
     20          1           0        1.869946   -0.912890    1.222607
     21          1           0        3.970854   -0.037259    0.143400
     22          1           0        3.006340    0.701196   -1.140513
     23          1           0        2.879052    1.297078    0.530277
 ---------------------------------------------------------------------
 Rotational constants (GHZ):      3.9137126      1.3472994      1.0716667
 Standard basis: 6-311+G(d,p) (5D, 7F)
 There are   274 symmetry adapted cartesian basis functions of A   symmetry.
 There are   266 symmetry adapted basis functions of A   symmetry.
   266 basis functions,   408 primitive gaussians,   274 cartesian basis functions
    32 alpha electrons       32 beta electrons
       nuclear repulsion energy       407.7129748909 Hartrees.
 NAtoms=   23 NActive=   23 NUniq=   23 SFac= 1.00D+00 NAtFMM=   60 NAOKFM=F Big=F
 Integral buffers will be    131072 words long.
 Raffenetti 2 integral format.
 Two-electron integral symmetry is turned on.
 One-electron integrals computed using PRISM.
 NBasis=   266 RedAO= T EigKep=  1.52D-05  NBF=   266
 NBsUse=   266 1.00D-06 EigRej= -1.00D+00 NBFU=   266
 ExpMin= 4.38D-02 ExpMax= 6.29D+03 ExpMxC= 9.49D+02 IAcc=2 IRadAn=         4 AccDes= 0.00D+00
 Harris functional with IExCor=  402 and IRadAn=       4 diagonalized for initial guess.
 HarFok:  IExCor=  402 AccDes= 0.00D+00 IRadAn=         4 IDoV= 1 UseB2=F ITyADJ=14
 ICtDFT=  3500011 ScaDFX=  1.000000  1.000000  1.000000  1.000000
 FoFCou: FMM=F IPFlag=           0 FMFlag=      100000 FMFlg1=           0
         NFxFlg=           0 DoJE=T BraDBF=F KetDBF=T FulRan=T
         wScrn=  0.000000 ICntrl=     500 IOpCl=  0 I1Cent=   200000004 NGrid=           0
         NMat0=    1 NMatS0=      1 NMatT0=    0 NMatD0=    1 NMtDS0=    0 NMtDT0=    0
 Petite list used in FoFCou.
 Requested convergence on RMS density matrix=1.00D-08 within 128 cycles.
 Requested convergence on MAX density matrix=1.00D-06.
 Requested convergence on             energy=1.00D-06.
 No special actions if energy rises.
 SCF Done:  E(RB3LYP) =  -330.614310091     A.U. after   12 cycles
            NFock= 12  Conv=0.47D-08     -V/T= 2.0052

 **********************************************************************

            Population analysis using the SCF density.

 **********************************************************************

 Orbital symmetries:
       Occupied  (A) (A) (A) (A) (A) (A) (A) (A) (A) (A) (A) (A)
                 (A) (A) (A) (A) (A) (A) (A) (A) (A) (A) (A) (A)
                 (A) (A) (A) (A) (A) (A) (A) (A)
       Virtual   (A) (A) (A) (A) (A) (A) (A) (A) (A) (A) (A) (A)
                 (A) (A) (A) (A) (A) (A) (A) (A) (A) (A) (A) (A)
                 (A) (A) (A) (A) (A) (A) (A) (A) (A) (A) (A) (A)
                 (A) (A) (A) (A) (A) (A) (A) (A) (A) (A) (A) (A)
                 (A) (A) (A) (A) (A) (A) (A) (A) (A) (A) (A) (A)
                 (A) (A) (A) (A) (A) (A) (A) (A) (A) (A) (A) (A)
                 (A) (A) (A) (A) (A) (A) (A) (A) (A) (A) (A) (A)
                 (A) (A) (A) (A) (A) (A) (A) (A) (A) (A) (A) (A)
                 (A) (A) (A) (A) (A) (A) (A) (A) (A) (A) (A) (A)
                 (A) (A) (A) (A) (A) (A) (A) (A) (A) (A) (A) (A)
                 (A) (A) (A) (A) (A) (A) (A) (A) (A) (A) (A) (A)
                 (A) (A) (A) (A) (A) (A) (A) (A) (A) (A) (A) (A)
                 (A) (A) (A) (A) (A) (A) (A) (A) (A) (A) (A) (A)
                 (A) (A) (A) (A) (A) (A) (A) (A) (A) (A) (A) (A)
                 (A) (A) (A) (A) (A) (A) (A) (A) (A) (A) (A) (A)
                 (A) (A) (A) (A) (A) (A) (A) (A) (A) (A) (A) (A)
                 (A) (A) (A) (A) (A) (A) (A) (A) (A) (A) (A) (A)
                 (A) (A) (A) (A) (A) (A) (A) (A) (A) (A) (A) (A)
                 (A) (A) (A) (A) (A) (A) (A) (A) (A) (A) (A) (A)
                 (A) (A) (A) (A) (A) (A)
 The electronic state is 1-A.
 Alpha  occ. eigenvalues --  -14.29399 -10.18989 -10.18676 -10.18646 -10.16485
 Alpha  occ. eigenvalues --  -10.16386 -10.16359 -10.16004  -0.90408  -0.79847
 Alpha  occ. eigenvalues --   -0.75184  -0.73824  -0.64874  -0.62225  -0.58791
 Alpha  occ. eigenvalues --   -0.54536  -0.48606  -0.46405  -0.45093  -0.44707
 Alpha  occ. eigenvalues --   -0.42547  -0.41811  -0.40930  -0.38056  -0.36644
 Alpha  occ. eigenvalues --   -0.36148  -0.35245  -0.34642  -0.32816  -0.31302
 Alpha  occ. eigenvalues --   -0.31116  -0.20505
 Alpha virt. eigenvalues --    0.00378   0.01506   0.01991   0.02270   0.03730
 Alpha virt. eigenvalues --    0.03860   0.04958   0.05414   0.05708   0.06799
 Alpha virt. eigenvalues --    0.07488   0.07957   0.08565   0.08964   0.09422
 Alpha virt. eigenvalues --    0.10174   0.10685   0.11227   0.12061   0.12563
 Alpha virt. eigenvalues --    0.13028   0.14075   0.14711   0.16268   0.16698
 Alpha virt. eigenvalues --    0.17559   0.17826   0.18418   0.18747   0.19093
 Alpha virt. eigenvalues --    0.19960   0.21399   0.21574   0.21837   0.22438
 Alpha virt. eigenvalues --    0.22697   0.23153   0.23911   0.24843   0.24970
 Alpha virt. eigenvalues --    0.25158   0.25921   0.26099   0.26756   0.27525
 Alpha virt. eigenvalues --    0.28437   0.28771   0.30054   0.30168   0.31046
 Alpha virt. eigenvalues --    0.31516   0.32475   0.32687   0.33362   0.36798
 Alpha virt. eigenvalues --    0.41545   0.42189   0.43542   0.44263   0.46200
 Alpha virt. eigenvalues --    0.46531   0.50563   0.51220   0.52418   0.55352
 Alpha virt. eigenvalues --    0.56019   0.56917   0.57113   0.57812   0.60793
 Alpha virt. eigenvalues --    0.61965   0.63173   0.63473   0.64619   0.66452
 Alpha virt. eigenvalues --    0.67201   0.67614   0.68909   0.69045   0.69834
 Alpha virt. eigenvalues --    0.70557   0.71810   0.72625   0.73177   0.73505
 Alpha virt. eigenvalues --    0.73963   0.74730   0.74879   0.77933   0.78120
 Alpha virt. eigenvalues --    0.83231   0.84717   0.85382   0.88224   0.91233
 Alpha virt. eigenvalues --    0.94986   0.98509   1.02568   1.04545   1.05806
 Alpha virt. eigenvalues --    1.05866   1.09988   1.15185   1.18276   1.22151
 Alpha virt. eigenvalues --    1.22974   1.24201   1.26423   1.30316   1.37522
 Alpha virt. eigenvalues --    1.40251   1.44337   1.45028   1.48257   1.49558
 Alpha virt. eigenvalues --    1.52390   1.53539   1.54629   1.54932   1.55997
 Alpha virt. eigenvalues --    1.56737   1.57859   1.59740   1.60672   1.60953
 Alpha virt. eigenvalues --    1.61462   1.61943   1.63646   1.64215   1.65219
 Alpha virt. eigenvalues --    1.66326   1.66935   1.67599   1.69714   1.71883
 Alpha virt. eigenvalues --    1.73684   1.74722   1.77926   1.78516   1.79774
 Alpha virt. eigenvalues --    1.80809   1.81022   1.82322   1.85438   1.86321
 Alpha virt. eigenvalues --    1.87704   1.90767   1.96679   1.99241   2.02225
 Alpha virt. eigenvalues --    2.04868   2.07310   2.11358   2.11581   2.13681
 Alpha virt. eigenvalues --    2.16571   2.17965   2.18431   2.21345   2.24659
 Alpha virt. eigenvalues --    2.25545   2.27000   2.30011   2.31180   2.31453
 Alpha virt. eigenvalues --    2.34951   2.40872   2.42649   2.43829   2.45294
 Alpha virt. eigenvalues --    2.45815   2.48917   2.49919   2.52732   2.53392
 Alpha virt. eigenvalues --    2.54273   2.55030   2.57646   2.58824   2.60444
 Alpha virt. eigenvalues --    2.64592   2.64969   2.66209   2.67474   2.70119
 Alpha virt. eigenvalues --    2.71560   2.72876   2.73531   2.75913   2.77564
 Alpha virt. eigenvalues --    2.79380   2.80941   2.82328   2.83654   2.84175
 Alpha virt. eigenvalues --    2.86901   2.88473   2.93460   2.95505   2.98083
 Alpha virt. eigenvalues --    3.00239   3.02615   3.11109   3.18187   3.25783
 Alpha virt. eigenvalues --    3.31275   3.41919   3.54095   3.55911   3.67272
 Alpha virt. eigenvalues --    3.76860   3.79837   3.80862   3.81968   3.83612
 Alpha virt. eigenvalues --    3.86146   3.86664   3.88859   4.12526   4.12741
 Alpha virt. eigenvalues --    4.17105   4.22388   4.32539   4.33549   4.82180
 Alpha virt. eigenvalues --    4.86160  23.83701  23.85942  23.89954  23.90326
 Alpha virt. eigenvalues --   23.93390  23.95730  23.97873  35.53653
          Condensed to atoms (all electrons):
               1          2          3          4          5          6
     1  C    5.742776   0.080070   0.195969  -0.221089   0.130644  -0.096498
     2  C    0.080070   5.541942  -0.323363   0.204199  -0.157392   0.441662
     3  C    0.195969  -0.323363   5.565894   0.073959  -0.136131   0.014642
     4  C   -0.221089   0.204199   0.073959   5.613546   0.163240  -0.012846
     5  C    0.130644  -0.157392  -0.136131   0.163240   5.412199  -0.000877
     6  H   -0.096498   0.441662   0.014642  -0.012846  -0.000877   0.627858
     7  H    0.010596   0.382560   0.010063  -0.005120   0.020990  -0.046522
     8  H    0.469311  -0.074768   0.004719  -0.032654  -0.030402   0.009020
     9  H    0.383122  -0.024438  -0.013407   0.030007  -0.031951  -0.007072
    10  H   -0.009272   0.020729   0.424777  -0.074335  -0.001007   0.014552
    11  H   -0.005302   0.003708   0.403985  -0.000511   0.015243  -0.001586
    12  H    0.030269  -0.012217  -0.018299   0.373834  -0.033437   0.000101
    13  H   -0.031001   0.007994  -0.089493   0.482570  -0.030249   0.000431
    14  H   -0.060094  -0.014984  -0.017159  -0.053106   0.486450   0.003722
    15  H   -0.026678   0.021051   0.026003  -0.039590   0.377711  -0.000511
    16  N   -0.092239   0.250474   0.189900  -0.070018   0.025492  -0.108673
    17  C   -0.067755  -0.175721  -0.031410  -0.048419   0.053027   0.008434
    18  C   -0.030771  -0.015035  -0.028873  -0.005009  -0.006252   0.015898
    19  H    0.011223  -0.001552   0.010897  -0.000109  -0.002705  -0.005076
    20  H   -0.008258   0.016856  -0.006296  -0.004527  -0.002148   0.024234
    21  H   -0.000502  -0.000085   0.000294   0.001044   0.000302   0.000002
    22  H   -0.000257   0.002250  -0.007877  -0.005578  -0.000363   0.000128
    23  H    0.001886   0.003649   0.001481   0.004810  -0.000159  -0.000124
               7          8          9         10         11         12
     1  C    0.010596   0.469311   0.383122  -0.009272  -0.005302   0.030269
     2  C    0.382560  -0.074768  -0.024438   0.020729   0.003708  -0.012217
     3  C    0.010063   0.004719  -0.013407   0.424777   0.403985  -0.018299
     4  C   -0.005120  -0.032654   0.030007  -0.074335  -0.000511   0.373834
     5  C    0.020990  -0.030402  -0.031951  -0.001007   0.015243  -0.033437
     6  H   -0.046522   0.009020  -0.007072   0.014552  -0.001586   0.000101
     7  H    0.575742  -0.010510  -0.004944  -0.001496  -0.000269   0.000099
     8  H   -0.010510   0.540520  -0.032113   0.000393  -0.000321  -0.000140
     9  H   -0.004944  -0.032113   0.558392   0.000112   0.000102  -0.000415
    10  H   -0.001496   0.000393   0.000112   0.635502  -0.048074  -0.006885
    11  H   -0.000269  -0.000321   0.000102  -0.048074   0.566616  -0.005134
    12  H    0.000099  -0.000140  -0.000415  -0.006885  -0.005134   0.558843
    13  H   -0.000344   0.004149  -0.000151   0.009018  -0.010443  -0.032138
    14  H   -0.000287   0.007148  -0.007364   0.003598  -0.000285  -0.007447
    15  H   -0.000310  -0.008092  -0.004910  -0.000533  -0.000296  -0.004539
    16  N   -0.062037   0.000135   0.011647  -0.122811  -0.052611   0.011849
    17  C   -0.002064   0.000530  -0.002035  -0.006858   0.011083  -0.000504
    18  C   -0.007228   0.002107  -0.000420   0.027826  -0.021785   0.000868
    19  H    0.009557  -0.000085  -0.000064  -0.001223   0.000080   0.000026
    20  H   -0.005767   0.000075   0.000101   0.017680  -0.002907   0.000079
    21  H   -0.000046   0.000000  -0.000001  -0.000236   0.000430  -0.000002
    22  H   -0.000097  -0.000011   0.000003   0.000988  -0.001019   0.000016
    23  H    0.000055  -0.000001   0.000000  -0.001583  -0.001386   0.000012
              13         14         15         16         17         18
     1  C   -0.031001  -0.060094  -0.026678  -0.092239  -0.067755  -0.030771
     2  C    0.007994  -0.014984   0.021051   0.250474  -0.175721  -0.015035
     3  C   -0.089493  -0.017159   0.026003   0.189900  -0.031410  -0.028873
     4  C    0.482570  -0.053106  -0.039590  -0.070018  -0.048419  -0.005009
     5  C   -0.030249   0.486450   0.377711   0.025492   0.053027  -0.006252
     6  H    0.000431   0.003722  -0.000511  -0.108673   0.008434   0.015898
     7  H   -0.000344  -0.000287  -0.000310  -0.062037  -0.002064  -0.007228
     8  H    0.004149   0.007148  -0.008092   0.000135   0.000530   0.002107
     9  H   -0.000151  -0.007364  -0.004910   0.011647  -0.002035  -0.000420
    10  H    0.009018   0.003598  -0.000533  -0.122811  -0.006858   0.027826
    11  H   -0.010443  -0.000285  -0.000296  -0.052611   0.011083  -0.021785
    12  H   -0.032138  -0.007447  -0.004539   0.011849  -0.000504   0.000868
    13  H    0.540447   0.007180  -0.008215  -0.000902  -0.003402   0.003687
    14  H    0.007180   0.547270  -0.032063  -0.001999   0.000410   0.000652
    15  H   -0.008215  -0.032063   0.560623  -0.002206  -0.000612   0.000060
    16  N   -0.000902  -0.001999  -0.002206   7.021905   0.234436  -0.093737
    17  C   -0.003402   0.000410  -0.000612   0.234436   5.269966   0.139503
    18  C    0.003687   0.000652   0.000060  -0.093737   0.139503   5.396376
    19  H   -0.000014   0.000008   0.000001  -0.071961   0.461399  -0.069839
    20  H    0.000079  -0.000028  -0.000013  -0.090505   0.381821  -0.009820
    21  H   -0.000005  -0.000001   0.000000   0.014737  -0.058410   0.422641
    22  H    0.000014  -0.000002   0.000000   0.004745  -0.054317   0.438868
    23  H   -0.000023   0.000001   0.000001  -0.013744  -0.020117   0.388296
              19         20         21         22         23
     1  C    0.011223  -0.008258  -0.000502  -0.000257   0.001886
     2  C   -0.001552   0.016856  -0.000085   0.002250   0.003649
     3  C    0.010897  -0.006296   0.000294  -0.007877   0.001481
     4  C   -0.000109  -0.004527   0.001044  -0.005578   0.004810
     5  C   -0.002705  -0.002148   0.000302  -0.000363  -0.000159
     6  H   -0.005076   0.024234   0.000002   0.000128  -0.000124
     7  H    0.009557  -0.005767  -0.000046  -0.000097   0.000055
     8  H   -0.000085   0.000075   0.000000  -0.000011  -0.000001
     9  H   -0.000064   0.000101  -0.000001   0.000003   0.000000
    10  H   -0.001223   0.017680  -0.000236   0.000988  -0.001583
    11  H    0.000080  -0.002907   0.000430  -0.001019  -0.001386
    12  H    0.000026   0.000079  -0.000002   0.000016   0.000012
    13  H   -0.000014   0.000079  -0.000005   0.000014  -0.000023
    14  H    0.000008  -0.000028  -0.000001  -0.000002   0.000001
    15  H    0.000001  -0.000013   0.000000   0.000000   0.000001
    16  N   -0.071961  -0.090505   0.014737   0.004745  -0.013744
    17  C    0.461399   0.381821  -0.058410  -0.054317  -0.020117
    18  C   -0.069839  -0.009820   0.422641   0.438868   0.388296
    19  H    0.582970  -0.049741  -0.007499  -0.006955   0.008531
    20  H   -0.049741   0.625435  -0.004419   0.008337  -0.008238
    21  H   -0.007499  -0.004419   0.545440  -0.025553  -0.027779
    22  H   -0.006955   0.008337  -0.025553   0.528237  -0.030817
    23  H    0.008531  -0.008238  -0.027779  -0.030817   0.555416
 Mulliken charges:
               1
     1  C   -0.406150
     2  C   -0.177586
     3  C   -0.250275
     4  C   -0.374300
     5  C   -0.252225
     6  H    0.119103
     7  H    0.137380
     8  H    0.150992
     9  H    0.145799
    10  H    0.119137
    11  H    0.150684
    12  H    0.145163
    13  H    0.150808
    14  H    0.138380
    15  H    0.143120
    16  N    0.018123
    17  C   -0.088985
    18  C   -0.548013
    19  H    0.132132
    20  H    0.117971
    21  H    0.139648
    22  H    0.149262
    23  H    0.139834
 Sum of Mulliken charges =   0.00000
 Mulliken charges with hydrogens summed into heavy atoms:
               1
     1  C   -0.109360
     2  C    0.078896
     3  C    0.019547
     4  C   -0.078329
     5  C    0.029275
    16  N    0.018123
    17  C    0.161117
    18  C   -0.119269
 Electronic spatial extent (au):  <R**2>=           1193.1563
 Charge=              0.0000 electrons
 Dipole moment (field-independent basis, Debye):
    X=             -0.1020    Y=              0.0690    Z=              0.5321  Tot=              0.5461
 Quadrupole moment (field-independent basis, Debye-Ang):
   XX=            -51.4955   YY=            -52.1537   ZZ=            -54.8045
   XY=             -0.1326   XZ=              0.3381   YZ=              0.0883
 Traceless Quadrupole moment (field-independent basis, Debye-Ang):
   XX=              1.3224   YY=              0.6642   ZZ=             -1.9866
   XY=             -0.1326   XZ=              0.3381   YZ=              0.0883
 Octapole moment (field-independent basis, Debye-Ang**2):
  XXX=              3.2752  YYY=             -0.3348  ZZZ=             -0.7897  XYY=              0.3315
  XXY=             -1.7847  XXZ=             -1.6591  XZZ=             -0.9747  YZZ=              0.6003
  YYZ=             -2.0377  XYZ=              0.4130
 Hexadecapole moment (field-independent basis, Debye-Ang**3):
 XXXX=          -1133.4459 YYYY=           -414.5770 ZZZZ=           -132.8893 XXXY=             -8.7669
 XXXZ=              1.1233 YYYX=              0.3032 YYYZ=              5.0355 ZZZX=             -0.4881
 ZZZY=             -0.4598 XXYY=           -259.7623 XXZZ=           -213.7063 YYZZ=            -91.7849
 XXYZ=             -0.1715 YYXZ=             -3.1761 ZZXY=              0.8419
 N-N= 4.077129748909D+02 E-N=-1.581754083295D+03  KE= 3.288959062337D+02
 There are a total of      189516 grid points.
 ElSum from          density=       64.0001145956
 ElSum from atomic densities=       64.0003023633

 Hirshfeld populations at iteration   1 (CX, CA, CB, DipXYZ):
               1          2          3          4          5          6
     1  C    0.000000   3.029959   3.029959   0.006075   0.012666   0.013313
     2  C    0.000000   3.007037   3.007037  -0.007059   0.027114  -0.011773
     3  C    0.000000   3.007595   3.007595  -0.016076  -0.023545  -0.012737
     4  C    0.000000   3.029627   3.029627   0.001515  -0.015710   0.013327
     5  C    0.000000   3.030370   3.030370   0.007946  -0.001640  -0.011952
     6  H    0.000000   0.491121   0.491121   0.009913  -0.020865   0.114379
     7  H    0.000000   0.481248   0.481248   0.036979  -0.112268  -0.078991
     8  H    0.000000   0.483160   0.483160  -0.017820  -0.004190  -0.138875
     9  H    0.000000   0.482395   0.482395  -0.082020  -0.107051   0.050556
    10  H    0.000000   0.490972   0.490972   0.020830   0.010309   0.116414
    11  H    0.000000   0.480967   0.480967   0.075086   0.096884  -0.074081
    12  H    0.000000   0.482495   0.482495  -0.032393   0.128865   0.055652
    13  H    0.000000   0.483190   0.483190  -0.013820   0.017163  -0.138191
    14  H    0.000000   0.484678   0.484678  -0.007620  -0.001743   0.136603
    15  H    0.000000   0.482515   0.482515  -0.133642   0.029659  -0.045860
    16  N    0.000000   3.581179   3.581179  -0.010341   0.005166   0.181067
    17  C    0.000000   3.004978   3.004978  -0.007496   0.034034  -0.012297
    18  C    0.000000   3.050003   3.050003  -0.014885  -0.013427   0.002780
    19  H    0.000000   0.481767   0.481767   0.035994  -0.111911  -0.079827
    20  H    0.000000   0.490308   0.490308  -0.003329  -0.026734   0.115200
    21  H    0.000000   0.480796   0.480796   0.129202  -0.064302   0.030935
    22  H    0.000000   0.481119   0.481119   0.007068   0.037622  -0.140116
    23  H    0.000000   0.482579   0.482579  -0.009005   0.118035   0.082738
       Tot   0.000004  32.000057  32.000057  -0.024898   0.014130   0.168264

 Dip from Atomic Chgs             -0.015393   0.012861   0.040927
         Total Dipole             -0.040291   0.026991   0.209191

 Hirshfeld charges, spin densities, dipoles, and CM5 charges using IRadAn=      4:
              Q-H        S-H        Dx         Dy         Dz        Q-CM5   
     1  C   -0.059918   0.000000   0.006075   0.012666   0.013313  -0.164594
     2  C   -0.014074   0.000000  -0.007059   0.027114  -0.011773  -0.068806
     3  C   -0.015191   0.000000  -0.016076  -0.023545  -0.012737  -0.069156
     4  C   -0.059254   0.000000   0.001515  -0.015710   0.013327  -0.163954
     5  C   -0.060741   0.000000   0.007946  -0.001640  -0.011952  -0.168003
     6  H    0.017758   0.000000   0.009913  -0.020865   0.114379   0.083048
     7  H    0.037503   0.000000   0.036979  -0.112268  -0.078991   0.101924
     8  H    0.033680   0.000000  -0.017820  -0.004190  -0.138875   0.090822
     9  H    0.035211   0.000000  -0.082020  -0.107051   0.050556   0.089864
    10  H    0.018056   0.000000   0.020830   0.010309   0.116414   0.083276
    11  H    0.038067   0.000000   0.075086   0.096884  -0.074081   0.103451
    12  H    0.035011   0.000000  -0.032393   0.128865   0.055652   0.089717
    13  H    0.033620   0.000000  -0.013820   0.017163  -0.138191   0.090851
    14  H    0.030644   0.000000  -0.007620  -0.001743   0.136603   0.085936
    15  H    0.034970   0.000000  -0.133642   0.029659  -0.045860   0.089205
    16  N   -0.162358   0.000000  -0.010341   0.005166   0.181067  -0.412798
    17  C   -0.009955   0.000000  -0.007496   0.034034  -0.012297  -0.068620
    18  C   -0.100006   0.000000  -0.014885  -0.013427   0.002780  -0.246820
    19  H    0.036466   0.000000   0.035994  -0.111911  -0.079827   0.101447
    20  H    0.019385   0.000000  -0.003329  -0.026734   0.115200   0.084172
    21  H    0.038409   0.000000   0.129202  -0.064302   0.030935   0.089741
    22  H    0.037761   0.000000   0.007068   0.037622  -0.140116   0.091252
    23  H    0.034842   0.000000  -0.009005   0.118035   0.082738   0.087930
       Tot  -0.000115   0.000000  -0.024898   0.014130   0.168264  -0.000115
 Hirshfeld charges with hydrogens summed into heavy atoms:
              Q-H       Q-CM5   
     1  C    0.008973   0.016092
     2  C    0.041188   0.116167
     3  C    0.040932   0.117570
     4  C    0.009376   0.016613
     5  C    0.004873   0.007138
    16  N   -0.162358  -0.412798
    17  C    0.045895   0.116999
    18  C    0.011007   0.022104
 
 EQQ= 0.000000000000E+00 EQD= 0.000000000000E+00 EDD=-0.327650050122E-02
 EQQ+QD+DD=-0.327650050122E-02
 
          MBS Condensed to atoms (all electrons):
               1          2          3          4          5          6
     1  C    4.800063   0.370716  -0.004536  -0.026511   0.368949  -0.025195
     2  C    0.370716   4.745155  -0.026566  -0.004962  -0.023180   0.360909
     3  C   -0.004536  -0.026566   4.739059   0.369843  -0.022661  -0.001413
     4  C   -0.026511  -0.004962   0.369843   4.801372   0.369203  -0.000017
     5  C    0.368949  -0.023180  -0.022661   0.369203   4.800014  -0.001887
     6  H   -0.025195   0.360909  -0.001413  -0.000017  -0.001887   0.659397
     7  H   -0.020690   0.376470   0.001681   0.000036   0.001413  -0.026571
     8  H    0.373155  -0.024786  -0.000005  -0.002481  -0.024277   0.002456
     9  H    0.373912  -0.022354   0.000013   0.001520  -0.020472  -0.002599
    10  H   -0.000020  -0.001422   0.360524  -0.024751  -0.001836   0.001913
    11  H    0.000032   0.001642   0.378689  -0.021171   0.001394  -0.000078
    12  H    0.001523   0.000021  -0.022512   0.374129  -0.020568   0.000002
    13  H   -0.002524  -0.000004  -0.024759   0.372955  -0.024548   0.000037
    14  H   -0.023423  -0.001855  -0.001800  -0.023425   0.371885   0.001184
    15  H   -0.021435   0.001443   0.001423  -0.021472   0.376393  -0.000012
    16  N   -0.018783   0.323821   0.321827  -0.019054  -0.002963  -0.027028
    17  C    0.000927  -0.031710  -0.026548   0.000846   0.000018  -0.005256
    18  C   -0.000008   0.000925  -0.003431   0.000027   0.000000  -0.000007
    19  H    0.000021  -0.002270   0.001722  -0.000026   0.000000  -0.000543
    20  H    0.000000  -0.005357  -0.001807  -0.000023  -0.000005   0.005528
    21  H    0.000000  -0.000024   0.000064   0.000000   0.000000   0.000001
    22  H    0.000000   0.000000  -0.000368  -0.000008   0.000000   0.000005
    23  H    0.000000   0.000002  -0.000400  -0.000004   0.000000   0.000003
               7          8          9         10         11         12
     1  C   -0.020690   0.373155   0.373912  -0.000020   0.000032   0.001523
     2  C    0.376470  -0.024786  -0.022354  -0.001422   0.001642   0.000021
     3  C    0.001681  -0.000005   0.000013   0.360524   0.378689  -0.022512
     4  C    0.000036  -0.002481   0.001520  -0.024751  -0.021171   0.374129
     5  C    0.001413  -0.024277  -0.020472  -0.001836   0.001394  -0.020568
     6  H   -0.026571   0.002456  -0.002599   0.001913  -0.000078   0.000002
     7  H    0.613218  -0.003996  -0.001538  -0.000077  -0.000056   0.000003
     8  H   -0.003996   0.619435  -0.023472   0.000032  -0.000020   0.000016
     9  H   -0.001538  -0.023472   0.618309   0.000003   0.000002  -0.000049
    10  H   -0.000077   0.000032   0.000003   0.662670  -0.027229  -0.002584
    11  H   -0.000056  -0.000020   0.000002  -0.027229   0.607822  -0.001545
    12  H    0.000003   0.000016  -0.000049  -0.002584  -0.001545   0.618376
    13  H   -0.000022   0.001355   0.000018   0.002459  -0.004098  -0.023472
    14  H   -0.000008   0.002319  -0.002410   0.001149  -0.000008  -0.002400
    15  H   -0.000045  -0.002772  -0.001864  -0.000012  -0.000044  -0.001874
    16  N   -0.025354  -0.000227   0.000973  -0.026946  -0.024273   0.000977
    17  C   -0.002379  -0.000005  -0.000026  -0.003288  -0.001918  -0.000025
    18  C    0.000024   0.000000   0.000000  -0.000508   0.000020   0.000000
    19  H    0.001833   0.000000  -0.000002  -0.000062   0.000030   0.000001
    20  H   -0.000572   0.000003   0.000002   0.002816  -0.000170   0.000002
    21  H   -0.000001   0.000000   0.000000  -0.000004   0.000003   0.000000
    22  H   -0.000002   0.000000   0.000000   0.000103  -0.000005   0.000001
    23  H   -0.000001   0.000000   0.000000   0.000228  -0.000323   0.000002
              13         14         15         16         17         18
     1  C   -0.002524  -0.023423  -0.021435  -0.018783   0.000927  -0.000008
     2  C   -0.000004  -0.001855   0.001443   0.323821  -0.031710   0.000925
     3  C   -0.024759  -0.001800   0.001423   0.321827  -0.026548  -0.003431
     4  C    0.372955  -0.023425  -0.021472  -0.019054   0.000846   0.000027
     5  C   -0.024548   0.371885   0.376393  -0.002963   0.000018   0.000000
     6  H    0.000037   0.001184  -0.000012  -0.027028  -0.005256  -0.000007
     7  H   -0.000022  -0.000008  -0.000045  -0.025354  -0.002379   0.000024
     8  H    0.001355   0.002319  -0.002772  -0.000227  -0.000005   0.000000
     9  H    0.000018  -0.002410  -0.001864   0.000973  -0.000026   0.000000
    10  H    0.002459   0.001149  -0.000012  -0.026946  -0.003288  -0.000508
    11  H   -0.004098  -0.000008  -0.000044  -0.024273  -0.001918   0.000020
    12  H   -0.023472  -0.002400  -0.001874   0.000977  -0.000025   0.000000
    13  H    0.620070   0.002337  -0.002806  -0.000139  -0.000005  -0.000001
    14  H    0.002337   0.627843  -0.024749  -0.000049  -0.000009   0.000000
    15  H   -0.002806  -0.024749   0.617501   0.000011   0.000001   0.000000
    16  N   -0.000139  -0.000049   0.000011   6.639098   0.323513  -0.018361
    17  C   -0.000005  -0.000009   0.000001   0.323513   4.727604   0.373565
    18  C   -0.000001   0.000000   0.000000  -0.018361   0.373565   4.824231
    19  H    0.000000   0.000000   0.000000  -0.025984   0.377162  -0.022677
    20  H    0.000002   0.000005   0.000000  -0.026807   0.362803  -0.024883
    21  H    0.000000   0.000000   0.000000   0.000952  -0.020796   0.374767
    22  H    0.000003   0.000000   0.000000  -0.000454  -0.022176   0.375338
    23  H    0.000001   0.000000   0.000000  -0.000976  -0.020999   0.378762
              19         20         21         22         23
     1  C    0.000021   0.000000   0.000000   0.000000   0.000000
     2  C   -0.002270  -0.005357  -0.000024   0.000000   0.000002
     3  C    0.001722  -0.001807   0.000064  -0.000368  -0.000400
     4  C   -0.000026  -0.000023   0.000000  -0.000008  -0.000004
     5  C    0.000000  -0.000005   0.000000   0.000000   0.000000
     6  H   -0.000543   0.005528   0.000001   0.000005   0.000003
     7  H    0.001833  -0.000572  -0.000001  -0.000002  -0.000001
     8  H    0.000000   0.000003   0.000000   0.000000   0.000000
     9  H   -0.000002   0.000002   0.000000   0.000000   0.000000
    10  H   -0.000062   0.002816  -0.000004   0.000103   0.000228
    11  H    0.000030  -0.000170   0.000003  -0.000005  -0.000323
    12  H    0.000001   0.000002   0.000000   0.000001   0.000002
    13  H    0.000000   0.000002   0.000000   0.000003   0.000001
    14  H    0.000000   0.000005   0.000000   0.000000   0.000000
    15  H    0.000000   0.000000   0.000000   0.000000   0.000000
    16  N   -0.025984  -0.026807   0.000952  -0.000454  -0.000976
    17  C    0.377162   0.362803  -0.020796  -0.022176  -0.020999
    18  C   -0.022677  -0.024883   0.374767   0.375338   0.378762
    19  H    0.612634  -0.026713  -0.003164  -0.002623   0.002135
    20  H   -0.026713   0.652986  -0.001351   0.002368  -0.002756
    21  H   -0.003164  -0.001351   0.604594  -0.021218  -0.022271
    22  H   -0.002623   0.002368  -0.021218   0.598569  -0.023155
    23  H    0.002135  -0.002756  -0.022271  -0.023155   0.601804
 MBS Mulliken charges:
               1
     1  C   -0.146172
     2  C   -0.036612
     3  C   -0.038039
     4  C   -0.146026
     5  C   -0.146871
     6  H    0.059172
     7  H    0.086635
     8  H    0.083271
     9  H    0.080033
    10  H    0.056840
    11  H    0.091304
    12  H    0.079977
    13  H    0.083142
    14  H    0.073413
    15  H    0.080314
    16  N   -0.393773
    17  C   -0.031298
    18  C   -0.257782
    19  H    0.088526
    20  H    0.063926
    21  H    0.088450
    22  H    0.093623
    23  H    0.087948
 Sum of MBS Mulliken charges =   0.00000
 MBS Mulliken charges with hydrogens summed into heavy atoms:
               1
     1  C    0.017133
     2  C    0.109195
     3  C    0.110105
     4  C    0.017092
     5  C    0.006855
    16  N   -0.393773
    17  C    0.121155
    18  C    0.012239
 Breneman (CHELPG) radii used.
 Generate Potential Derived Charges using the Breneman model, NDens= 1.
 Grid spacing= 0.300 Box extension= 2.800
 NStep X,Y,Z=   44     36     28   Total possible points=       44352
 Number of Points to Fit=   13298

 **********************************************************************

            Electrostatic Properties Using The SCF Density

 **********************************************************************

       Atomic Center    1 is at  -1.859418 -1.030936 -0.260001
       Atomic Center    2 is at  -0.414356 -1.356082  0.094783
       Atomic Center    3 is at   0.114511  1.108989  0.151590
       Atomic Center    4 is at  -1.342421  1.402187 -0.200649
       Atomic Center    5 is at  -2.299866  0.321375  0.301522
       Atomic Center    6 is at  -0.295579 -1.555094  1.162942
       Atomic Center    7 is at  -0.071913 -2.232891 -0.475843
       Atomic Center    8 is at  -1.954823 -1.026578 -1.351245
       Atomic Center    9 is at  -2.488929 -1.845555  0.112979
       Atomic Center   10 is at   0.297355  1.203445  1.225404
       Atomic Center   11 is at   0.766594  1.809591 -0.383452
       Atomic Center   12 is at  -1.593025  2.384571  0.212073
       Atomic Center   13 is at  -1.423142  1.484072 -1.289838
       Atomic Center   14 is at  -2.309847  0.296510  1.398829
       Atomic Center   15 is at  -3.322720  0.547543 -0.017892
       Atomic Center   16 is at   0.539756 -0.259485 -0.273252
       Atomic Center   17 is at   1.926646 -0.643974  0.165516
       Atomic Center   18 is at   2.997696  0.406430 -0.089317
       Atomic Center   19 is at   2.154800 -1.545280 -0.417627
       Atomic Center   20 is at   1.869946 -0.912890  1.222607
       Atomic Center   21 is at   3.970854 -0.037259  0.143400
       Atomic Center   22 is at   3.006340  0.701196 -1.140513
       Atomic Center   23 is at   2.879052  1.297078  0.530277
   13298 points will be used for fitting atomic charges
 Fitting point charges to electrostatic potential
 Charges from ESP fit, RMS=   0.00266 RRMS=   0.41268:
 ESP charges:
               1
     1  C    0.002586
     2  C    0.159726
     3  C    0.179941
     4  C   -0.095023
     5  C    0.174124
     6  H   -0.011650
     7  H    0.017907
     8  H    0.008225
     9  H   -0.027629
    10  H    0.015727
    11  H    0.018978
    12  H   -0.004218
    13  H    0.035655
    14  H   -0.038076
    15  H   -0.042235
    16  N   -0.582234
    17  C    0.182472
    18  C   -0.116659
    19  H    0.027901
    20  H   -0.007715
    21  H    0.017839
    22  H    0.053915
    23  H    0.030445
 Sum of ESP charges =   0.00000
 ESP charges with hydrogens summed into heavy atoms:
               1
     1  C   -0.016818
     2  C    0.165983
     3  C    0.214647
     4  C   -0.063587
     5  C    0.093812
    16  N   -0.582234
    17  C    0.202658
    18  C   -0.014461
 Charge=   0.00000 Dipole=    -0.0533     0.0582     0.6026 Tot=     0.6077
 -----------------------------------------------------------------

              Electrostatic Properties (Atomic Units)

 -----------------------------------------------------------------
    Center     Electric         -------- Electric Field --------
               Potential          X             Y             Z
 -----------------------------------------------------------------
    1 Atom    -14.782064
    2 Atom    -14.758998
    3 Atom    -14.758991
    4 Atom    -14.781770
    5 Atom    -14.780545
    6 Atom     -1.137384
    7 Atom     -1.131808
    8 Atom     -1.135148
    9 Atom     -1.130694
   10 Atom     -1.137897
   11 Atom     -1.133373
   12 Atom     -1.130886
   13 Atom     -1.135115
   14 Atom     -1.131937
   15 Atom     -1.132522
   16 Atom    -18.417350
   17 Atom    -14.755522
   18 Atom    -14.785844
   19 Atom     -1.132857
   20 Atom     -1.136295
   21 Atom     -1.123818
   22 Atom     -1.127819
   23 Atom     -1.126750
 -----------------------------------------------------------------
 ******************************Gaussian NBO Version 3.1******************************
             N A T U R A L   A T O M I C   O R B I T A L   A N D
          N A T U R A L   B O N D   O R B I T A L   A N A L Y S I S
 ******************************Gaussian NBO Version 3.1******************************
       /RESON  / : Allow strongly delocalized NBO set

 Analyzing the SCF density

 Job title: Chart2_2                                                        

 Storage needed:    214144 in NPA ( 104854725 available)


 NATURAL POPULATIONS:  Natural atomic orbital occupancies 
                                                          
   NAO  Atom  No  lang   Type(AO)    Occupancy      Energy
 ----------------------------------------------------------
     1    C    1  S      Cor( 1S)     1.99928     -10.02119
     2    C    1  S      Val( 2S)     1.02061      -0.21723
     3    C    1  S      Ryd( 3S)     0.00136       0.92708
     4    C    1  S      Ryd( 4S)     0.00042       0.94517
     5    C    1  S      Ryd( 5S)     0.00000      23.24823
     6    C    1  px     Val( 2p)     1.07807      -0.07548
     7    C    1  px     Ryd( 4p)     0.00254       0.60304
     8    C    1  px     Ryd( 3p)     0.00043       0.29112
     9    C    1  px     Ryd( 5p)     0.00011       3.12612
    10    C    1  py     Val( 2p)     1.10490      -0.07497
    11    C    1  py     Ryd( 4p)     0.00399       0.62655
    12    C    1  py     Ryd( 3p)     0.00051       0.28071
    13    C    1  py     Ryd( 5p)     0.00009       3.17303
    14    C    1  pz     Val( 2p)     1.17673      -0.07714
    15    C    1  pz     Ryd( 4p)     0.00203       0.60902
    16    C    1  pz     Ryd( 3p)     0.00020       0.26822
    17    C    1  pz     Ryd( 5p)     0.00004       3.13697
    18    C    1  dxy    Ryd( 3d)     0.00078       2.16230
    19    C    1  dxz    Ryd( 3d)     0.00037       1.93328
    20    C    1  dyz    Ryd( 3d)     0.00045       2.00636
    21    C    1  dx2y2  Ryd( 3d)     0.00060       2.16152
    22    C    1  dz2    Ryd( 3d)     0.00113       2.28214

    23    C    2  S      Cor( 1S)     1.99927     -10.04977
    24    C    2  S      Val( 2S)     1.00579      -0.21268
    25    C    2  S      Ryd( 4S)     0.00191       1.09666
    26    C    2  S      Ryd( 3S)     0.00026       1.04963
    27    C    2  S      Ryd( 5S)     0.00000      23.00279
    28    C    2  px     Val( 2p)     0.97660      -0.05976
    29    C    2  px     Ryd( 4p)     0.00207       0.74960
    30    C    2  px     Ryd( 3p)     0.00057       0.40244
    31    C    2  px     Ryd( 5p)     0.00018       3.06161
    32    C    2  py     Val( 2p)     1.00861      -0.07088
    33    C    2  py     Ryd( 4p)     0.00302       0.61195
    34    C    2  py     Ryd( 3p)     0.00040       0.24486
    35    C    2  py     Ryd( 5p)     0.00010       3.10373
    36    C    2  pz     Val( 2p)     1.15747      -0.07198
    37    C    2  pz     Ryd( 4p)     0.00300       0.68301
    38    C    2  pz     Ryd( 3p)     0.00065       0.29911
    39    C    2  pz     Ryd( 5p)     0.00012       3.13987
    40    C    2  dxy    Ryd( 3d)     0.00128       2.13294
    41    C    2  dxz    Ryd( 3d)     0.00081       1.93400
    42    C    2  dyz    Ryd( 3d)     0.00100       2.01788
    43    C    2  dx2y2  Ryd( 3d)     0.00083       2.11182
    44    C    2  dz2    Ryd( 3d)     0.00129       2.21771

    45    C    3  S      Cor( 1S)     1.99927     -10.04909
    46    C    3  S      Val( 2S)     1.00371      -0.21086
    47    C    3  S      Ryd( 4S)     0.00209       1.07021
    48    C    3  S      Ryd( 3S)     0.00028       0.83808
    49    C    3  S      Ryd( 5S)     0.00001      23.23669
    50    C    3  px     Val( 2p)     1.07396      -0.07379
    51    C    3  px     Ryd( 4p)     0.00300       0.74489
    52    C    3  px     Ryd( 3p)     0.00051       0.41201
    53    C    3  px     Ryd( 5p)     0.00015       3.10423
    54    C    3  py     Val( 2p)     0.92491      -0.05623
    55    C    3  py     Ryd( 4p)     0.00256       0.63067
    56    C    3  py     Ryd( 3p)     0.00066       0.29384
    57    C    3  py     Ryd( 5p)     0.00015       3.12196
    58    C    3  pz     Val( 2p)     1.14925      -0.07072
    59    C    3  pz     Ryd( 4p)     0.00318       0.68248
    60    C    3  pz     Ryd( 3p)     0.00060       0.31169
    61    C    3  pz     Ryd( 5p)     0.00013       3.11579
    62    C    3  dxy    Ryd( 3d)     0.00110       2.09089
    63    C    3  dxz    Ryd( 3d)     0.00058       2.00733
    64    C    3  dyz    Ryd( 3d)     0.00120       1.94913
    65    C    3  dx2y2  Ryd( 3d)     0.00098       2.17353
    66    C    3  dz2    Ryd( 3d)     0.00135       2.23290

    67    C    4  S      Cor( 1S)     1.99928     -10.02191
    68    C    4  S      Val( 2S)     1.02136      -0.21803
    69    C    4  S      Ryd( 4S)     0.00136       0.92666
    70    C    4  S      Ryd( 3S)     0.00048       0.92240
    71    C    4  S      Ryd( 5S)     0.00000      23.26979
    72    C    4  px     Val( 2p)     1.03905      -0.07077
    73    C    4  px     Ryd( 4p)     0.00179       0.56923
    74    C    4  px     Ryd( 3p)     0.00054       0.32153
    75    C    4  px     Ryd( 5p)     0.00014       3.12475
    76    C    4  py     Val( 2p)     1.13870      -0.07939
    77    C    4  py     Ryd( 4p)     0.00453       0.65473
    78    C    4  py     Ryd( 3p)     0.00046       0.25682
    79    C    4  py     Ryd( 5p)     0.00006       3.17260
    80    C    4  pz     Val( 2p)     1.17975      -0.07709
    81    C    4  pz     Ryd( 4p)     0.00209       0.62220
    82    C    4  pz     Ryd( 3p)     0.00021       0.26117
    83    C    4  pz     Ryd( 5p)     0.00004       3.14105
    84    C    4  dxy    Ryd( 3d)     0.00049       2.11116
    85    C    4  dxz    Ryd( 3d)     0.00038       1.93786
    86    C    4  dyz    Ryd( 3d)     0.00045       1.99982
    87    C    4  dx2y2  Ryd( 3d)     0.00087       2.21514
    88    C    4  dz2    Ryd( 3d)     0.00110       2.27713

    89    C    5  S      Cor( 1S)     1.99928     -10.02286
    90    C    5  S      Val( 2S)     1.01941      -0.21538
    91    C    5  S      Ryd( 3S)     0.00107       0.84200
    92    C    5  S      Ryd( 4S)     0.00055       0.98703
    93    C    5  S      Ryd( 5S)     0.00000      23.23679
    94    C    5  px     Val( 2p)     1.14681      -0.08059
    95    C    5  px     Ryd( 4p)     0.00405       0.65506
    96    C    5  px     Ryd( 3p)     0.00042       0.24010
    97    C    5  px     Ryd( 5p)     0.00007       3.17003
    98    C    5  py     Val( 2p)     1.03767      -0.06947
    99    C    5  py     Ryd( 4p)     0.00176       0.56825
   100    C    5  py     Ryd( 3p)     0.00081       0.32554
   101    C    5  py     Ryd( 5p)     0.00014       3.09857
   102    C    5  pz     Val( 2p)     1.16704      -0.07656
   103    C    5  pz     Ryd( 4p)     0.00185       0.59916
   104    C    5  pz     Ryd( 3p)     0.00024       0.25004
   105    C    5  pz     Ryd( 5p)     0.00004       3.14682
   106    C    5  dxy    Ryd( 3d)     0.00061       2.12632
   107    C    5  dxz    Ryd( 3d)     0.00034       1.96009
   108    C    5  dyz    Ryd( 3d)     0.00040       1.99236
   109    C    5  dx2y2  Ryd( 3d)     0.00085       2.15724
   110    C    5  dz2    Ryd( 3d)     0.00115       2.27604

   111    H    6  S      Val( 1S)     0.83706       0.03435
   112    H    6  S      Ryd( 2S)     0.00278       1.05504
   113    H    6  S      Ryd( 3S)     0.00027       1.74658
   114    H    6  px     Ryd( 2p)     0.00019       1.84053
   115    H    6  py     Ryd( 2p)     0.00011       1.93935
   116    H    6  pz     Ryd( 2p)     0.00037       2.70773

   117    H    7  S      Val( 1S)     0.80368       0.04107
   118    H    7  S      Ryd( 2S)     0.00089       0.52073
   119    H    7  S      Ryd( 3S)     0.00032       2.28198
   120    H    7  px     Ryd( 2p)     0.00024       1.90616
   121    H    7  py     Ryd( 2p)     0.00024       2.41957
   122    H    7  pz     Ryd( 2p)     0.00019       2.07286

   123    H    8  S      Val( 1S)     0.80014       0.04474
   124    H    8  S      Ryd( 2S)     0.00197       1.22325
   125    H    8  S      Ryd( 3S)     0.00013       1.64166
   126    H    8  px     Ryd( 2p)     0.00013       1.84619
   127    H    8  py     Ryd( 2p)     0.00011       1.86116
   128    H    8  pz     Ryd( 2p)     0.00032       2.72245

   129    H    9  S      Val( 1S)     0.79662       0.04090
   130    H    9  S      Ryd( 2S)     0.00100       0.69089
   131    H    9  S      Ryd( 3S)     0.00013       2.17963
   132    H    9  px     Ryd( 2p)     0.00024       2.10889
   133    H    9  py     Ryd( 2p)     0.00028       2.32242
   134    H    9  pz     Ryd( 2p)     0.00013       1.92589

   135    H   10  S      Val( 1S)     0.83781       0.03428
   136    H   10  S      Ryd( 2S)     0.00223       1.13764
   137    H   10  S      Ryd( 3S)     0.00031       1.66180
   138    H   10  px     Ryd( 2p)     0.00020       1.93633
   139    H   10  py     Ryd( 2p)     0.00012       1.86001
   140    H   10  pz     Ryd( 2p)     0.00034       2.73050

   141    H   11  S      Val( 1S)     0.80139       0.04525
   142    H   11  S      Ryd( 2S)     0.00087       0.57777
   143    H   11  S      Ryd( 3S)     0.00039       2.21193
   144    H   11  px     Ryd( 2p)     0.00033       2.15962
   145    H   11  py     Ryd( 2p)     0.00016       2.23873
   146    H   11  pz     Ryd( 2p)     0.00018       2.04978

   147    H   12  S      Val( 1S)     0.79690       0.04109
   148    H   12  S      Ryd( 2S)     0.00098       0.68934
   149    H   12  S      Ryd( 3S)     0.00013       2.18411
   150    H   12  px     Ryd( 2p)     0.00019       1.84842
   151    H   12  py     Ryd( 2p)     0.00032       2.56252
   152    H   12  pz     Ryd( 2p)     0.00014       1.95063

   153    H   13  S      Val( 1S)     0.80048       0.04445
   154    H   13  S      Ryd( 2S)     0.00199       1.23855
   155    H   13  S      Ryd( 3S)     0.00018       1.62995
   156    H   13  px     Ryd( 2p)     0.00014       1.79176
   157    H   13  py     Ryd( 2p)     0.00011       1.92344
   158    H   13  pz     Ryd( 2p)     0.00032       2.71459

   159    H   14  S      Val( 1S)     0.80702       0.03788
   160    H   14  S      Ryd( 2S)     0.00143       1.03924
   161    H   14  S      Ryd( 3S)     0.00013       1.82001
   162    H   14  px     Ryd( 2p)     0.00011       1.89880
   163    H   14  py     Ryd( 2p)     0.00013       1.75529
   164    H   14  pz     Ryd( 2p)     0.00034       2.71139

   165    H   15  S      Val( 1S)     0.79740       0.04374
   166    H   15  S      Ryd( 2S)     0.00075       0.65317
   167    H   15  S      Ryd( 3S)     0.00011       2.21019
   168    H   15  px     Ryd( 2p)     0.00031       2.60601
   169    H   15  py     Ryd( 2p)     0.00016       1.83135
   170    H   15  pz     Ryd( 2p)     0.00014       1.90268

   171    N   16  S      Cor( 1S)     1.99947     -14.13725
   172    N   16  S      Val( 2S)     1.30620      -0.51058
   173    N   16  S      Ryd( 3S)     0.01666       0.67050
   174    N   16  S      Ryd( 4S)     0.00074       1.73684
   175    N   16  S      Ryd( 5S)     0.00000      35.10296
   176    N   16  px     Val( 2p)     1.23070      -0.17568
   177    N   16  px     Ryd( 4p)     0.00332       0.94750
   178    N   16  px     Ryd( 3p)     0.00273       0.74120
   179    N   16  px     Ryd( 5p)     0.00001       4.26224
   180    N   16  py     Val( 2p)     1.23406      -0.17607
   181    N   16  py     Ryd( 4p)     0.00195       0.89495
   182    N   16  py     Ryd( 3p)     0.00169       0.66135
   183    N   16  py     Ryd( 5p)     0.00002       4.23136
   184    N   16  pz     Val( 2p)     1.78345      -0.20261
   185    N   16  pz     Ryd( 4p)     0.00608       0.68352
   186    N   16  pz     Ryd( 3p)     0.00121       0.62329
   187    N   16  pz     Ryd( 5p)     0.00002       3.95584
   188    N   16  dxy    Ryd( 3d)     0.00060       2.72739
   189    N   16  dxz    Ryd( 3d)     0.00085       2.43360
   190    N   16  dyz    Ryd( 3d)     0.00089       2.45383
   191    N   16  dx2y2  Ryd( 3d)     0.00052       2.67481
   192    N   16  dz2    Ryd( 3d)     0.00089       2.48988

   193    C   17  S      Cor( 1S)     1.99931     -10.05545
   194    C   17  S      Val( 2S)     1.01124      -0.22170
   195    C   17  S      Ryd( 3S)     0.00257       1.02531
   196    C   17  S      Ryd( 4S)     0.00024       1.11465
   197    C   17  S      Ryd( 5S)     0.00000      22.94422
   198    C   17  px     Val( 2p)     0.87719      -0.05228
   199    C   17  px     Ryd( 4p)     0.00163       0.67979
   200    C   17  px     Ryd( 3p)     0.00046       0.32844
   201    C   17  px     Ryd( 5p)     0.00020       3.07786
   202    C   17  py     Val( 2p)     1.10957      -0.08437
   203    C   17  py     Ryd( 4p)     0.00251       0.62974
   204    C   17  py     Ryd( 3p)     0.00017       0.32107
   205    C   17  py     Ryd( 5p)     0.00012       3.03939
   206    C   17  pz     Val( 2p)     1.15189      -0.07288
   207    C   17  pz     Ryd( 4p)     0.00280       0.63857
   208    C   17  pz     Ryd( 3p)     0.00064       0.32506
   209    C   17  pz     Ryd( 5p)     0.00008       3.08002
   210    C   17  dxy    Ryd( 3d)     0.00090       2.16482
   211    C   17  dxz    Ryd( 3d)     0.00110       1.88041
   212    C   17  dyz    Ryd( 3d)     0.00074       2.08615
   213    C   17  dx2y2  Ryd( 3d)     0.00121       2.07626
   214    C   17  dz2    Ryd( 3d)     0.00120       2.20493

   215    C   18  S      Cor( 1S)     1.99936     -10.01856
   216    C   18  S      Val( 2S)     1.08848      -0.24914
   217    C   18  S      Ryd( 4S)     0.00083       0.77615
   218    C   18  S      Ryd( 3S)     0.00023       0.74325
   219    C   18  S      Ryd( 5S)     0.00000      23.33060
   220    C   18  px     Val( 2p)     1.14081      -0.08751
   221    C   18  px     Ryd( 4p)     0.00141       0.58591
   222    C   18  px     Ryd( 3p)     0.00030       0.33222
   223    C   18  px     Ryd( 5p)     0.00005       3.01974
   224    C   18  py     Val( 2p)     1.14681      -0.08418
   225    C   18  py     Ryd( 4p)     0.00125       0.49648
   226    C   18  py     Ryd( 3p)     0.00013       0.33881
   227    C   18  py     Ryd( 5p)     0.00008       3.03235
   228    C   18  pz     Val( 2p)     1.20594      -0.08585
   229    C   18  pz     Ryd( 4p)     0.00102       0.48929
   230    C   18  pz     Ryd( 3p)     0.00009       0.36718
   231    C   18  pz     Ryd( 5p)     0.00001       3.01419
   232    C   18  dxy    Ryd( 3d)     0.00067       2.22992
   233    C   18  dxz    Ryd( 3d)     0.00022       1.86735
   234    C   18  dyz    Ryd( 3d)     0.00074       2.12405
   235    C   18  dx2y2  Ryd( 3d)     0.00054       2.00940
   236    C   18  dz2    Ryd( 3d)     0.00087       2.21450

   237    H   19  S      Val( 1S)     0.80902       0.03903
   238    H   19  S      Ryd( 2S)     0.00094       0.58049
   239    H   19  S      Ryd( 3S)     0.00033       2.22145
   240    H   19  px     Ryd( 2p)     0.00014       1.85289
   241    H   19  py     Ryd( 2p)     0.00033       2.43524
   242    H   19  pz     Ryd( 2p)     0.00019       2.07537

   243    H   20  S      Val( 1S)     0.83584       0.03264
   244    H   20  S      Ryd( 2S)     0.00286       0.94223
   245    H   20  S      Ryd( 3S)     0.00022       1.85038
   246    H   20  px     Ryd( 2p)     0.00018       1.77748
   247    H   20  py     Ryd( 2p)     0.00014       1.91570
   248    H   20  pz     Ryd( 2p)     0.00037       2.68473

   249    H   21  S      Val( 1S)     0.79344       0.03561
   250    H   21  S      Ryd( 2S)     0.00068       0.65793
   251    H   21  S      Ryd( 3S)     0.00010       2.10124
   252    H   21  px     Ryd( 2p)     0.00029       2.49200
   253    H   21  py     Ryd( 2p)     0.00016       1.88517
   254    H   21  pz     Ryd( 2p)     0.00011       1.81568

   255    H   22  S      Val( 1S)     0.79410       0.04294
   256    H   22  S      Ryd( 2S)     0.00152       1.06382
   257    H   22  S      Ryd( 3S)     0.00016       1.69897
   258    H   22  px     Ryd( 2p)     0.00012       1.78956
   259    H   22  py     Ryd( 2p)     0.00012       1.82020
   260    H   22  pz     Ryd( 2p)     0.00028       2.65061

   261    H   23  S      Val( 1S)     0.80034       0.03811
   262    H   23  S      Ryd( 2S)     0.00076       0.65243
   263    H   23  S      Ryd( 3S)     0.00016       2.11390
   264    H   23  px     Ryd( 2p)     0.00014       1.78195
   265    H   23  py     Ryd( 2p)     0.00024       2.38195
   266    H   23  pz     Ryd( 2p)     0.00017       2.06904

 WARNING:  Population inversion found on atom  C    1
           Population inversion found on atom  C    2
           Population inversion found on atom  C    3
           Population inversion found on atom  C    4
           Population inversion found on atom  C    5
           Population inversion found on atom  N   16
           Population inversion found on atom  C   17
           Population inversion found on atom  C   18


 Summary of Natural Population Analysis:                  
                                                          
                                       Natural Population 
                Natural  -----------------------------------------------
    Atom  No    Charge         Core      Valence    Rydberg      Total
 -----------------------------------------------------------------------
      C    1   -0.39463      1.99928     4.38030    0.01506     6.39463
      C    2   -0.16522      1.99927     4.14846    0.01748     6.16522
      C    3   -0.16962      1.99927     4.15183    0.01852     6.16962
      C    4   -0.39312      1.99928     4.37886    0.01498     6.39312
      C    5   -0.38455      1.99928     4.37093    0.01434     6.38455
      H    6    0.15923      0.00000     0.83706    0.00371     0.84077
      H    7    0.19444      0.00000     0.80368    0.00188     0.80556
      H    8    0.19720      0.00000     0.80014    0.00266     0.80280
      H    9    0.20161      0.00000     0.79662    0.00177     0.79839
      H   10    0.15899      0.00000     0.83781    0.00320     0.84101
      H   11    0.19668      0.00000     0.80139    0.00193     0.80332
      H   12    0.20134      0.00000     0.79690    0.00176     0.79866
      H   13    0.19679      0.00000     0.80048    0.00274     0.80321
      H   14    0.19084      0.00000     0.80702    0.00214     0.80916
      H   15    0.20113      0.00000     0.79740    0.00147     0.79887
      N   16   -0.59205      1.99947     5.55440    0.03818     7.59205
      C   17   -0.16578      1.99931     4.14989    0.01658     6.16578
      C   18   -0.58983      1.99936     4.58204    0.00843     6.58983
      H   19    0.18906      0.00000     0.80902    0.00192     0.81094
      H   20    0.16041      0.00000     0.83584    0.00376     0.83959
      H   21    0.20522      0.00000     0.79344    0.00134     0.79478
      H   22    0.20369      0.00000     0.79410    0.00221     0.79631
      H   23    0.19819      0.00000     0.80034    0.00147     0.80181
 =======================================================================
   * Total *    0.00000     15.99452    47.82794    0.17754    64.00000

                                 Natural Population      
 --------------------------------------------------------
   Core                      15.99452 ( 99.9657% of  16)
   Valence                   47.82794 ( 99.6415% of  48)
   Natural Minimal Basis     63.82246 ( 99.7226% of  64)
   Natural Rydberg Basis      0.17754 (  0.2774% of  64)
 --------------------------------------------------------

    Atom  No          Natural Electron Configuration
 ----------------------------------------------------------------------------
      C    1      [core]2S( 1.02)2p( 3.36)4p( 0.01)
      C    2      [core]2S( 1.01)2p( 3.14)3d( 0.01)4p( 0.01)
[...]
 077843,0.05760664,0.00487659,0.00015034,-0.03143490,-0.00104361,0.0013
 7417,-0.00070308,0.00128219,0.00064061,0.00028731,-0.00481799,-0.00423
 282,0.02641652,-0.00196811,-0.04739674,0.01888141,0.00026367,0.0000555
 6,0.00081295,-0.00040375,0.00001037,0.00029389,0.00277273,-0.00502974,
 -0.00209803,-0.00066513,0.00121997,0.00030515,-0.00017903,0.00037091,-
 0.00068159,0.00030577,-0.00008050,-0.00025187,0.00077343,0.00067037,0.
 00000364,-0.00414379,-0.00319476,0.00063791,0.00419405,0.05665860,0.00
 151787,-0.00038410,-0.01271806,-0.00050758,0.00078410,-0.00010290,-0.0
 0046050,-0.00038305,-0.00008898,0.00100278,0.00147548,-0.00626641,0.03
 715243,0.01868107,-0.28566448,0.00074899,-0.00005200,0.00086405,-0.000
 04418,-0.00008436,0.00036739,0.00075556,-0.00236004,0.00067471,-0.0003
 1613,-0.00046033,0.00060344,0.00059176,-0.00031477,0.00063721,0.000047
 66,-0.00000040,0.00032123,0.00006081,0.00061376,0.00067842,0.00062072,
 0.00093324,0.00130435,-0.04277190,-0.01956536,0.31334291,-0.00906374,0
 .00243264,-0.00441875,0.00088057,0.00225458,0.00177411,-0.00125657,-0.
 00479979,0.00189295,-0.01881326,0.00477796,-0.00954280,-0.24097316,0.0
 4888751,-0.09613573,0.00009232,-0.00004541,-0.00011980,-0.00066484,-0.
 00000938,-0.00032206,0.00017238,-0.00023736,0.00044334,0.00050580,0.00
 032615,0.00002108,0.00021555,0.00002455,-0.00006195,-0.00124061,0.0005
 2008,-0.00043911,0.00063366,-0.00026526,-0.00027779,0.00056142,0.00045
 200,0.00059057,0.00497254,-0.00124322,0.00145883,0.26326173,0.02628515
 ,-0.00630946,0.01392543,0.00022756,-0.00597200,-0.00341235,-0.00258331
 ,-0.00475391,0.00148735,-0.02276466,0.00614813,-0.01184264,0.04915181,
 -0.05938201,0.02442974,-0.00032469,0.00012525,-0.00012966,0.00191930,-
 0.00023492,0.00039956,-0.00046475,0.00130218,-0.00019838,-0.00060232,0
 .00064197,0.00068786,0.00019334,-0.00002740,0.00008273,-0.00151938,0.0
 0041724,-0.00032319,0.00075232,0.00069566,-0.00048056,0.00077376,0.001
 01047,0.00010167,0.00193564,-0.00104163,0.00119373,-0.05302721,0.06663
 658,0.01237164,-0.00327488,0.00483383,0.00032870,-0.00210246,-0.000679
 57,0.00062897,0.00070556,0.00018087,0.00716029,-0.00127366,0.00210481,
 -0.09796326,0.02475949,-0.09705657,0.00035912,-0.00017039,0.00042047,0
 .00040961,-0.00022097,0.00041178,0.00011915,0.00065306,0.00073974,-0.0
 0044239,0.00063448,0.00014130,0.00044233,-0.00006279,0.00045248,0.0000
 7928,0.00006830,0.00036144,-0.00047841,-0.00030431,-0.00008199,0.00001
 833,-0.00057880,0.00064692,-0.02796919,0.00701337,-0.01424601,0.105197
 54,-0.02601660,0.10177394,-0.02914969,-0.02997981,0.00810402,-0.132037
 67,-0.04384754,0.03094242,-0.10929155,0.01820347,0.01975415,-0.0134663
 4,0.03567819,0.01531636,0.00473670,-0.00152039,0.00094848,-0.00855120,
 -0.01144996,0.01028645,0.00531873,0.00593258,-0.00310289,0.00237663,-0
 .00027755,0.00089016,-0.00638703,0.00164882,-0.00169855,-0.00225433,0.
 00706986,0.00658732,0.00888757,-0.01892943,-0.01139919,-0.00676801,0.0
 0198569,-0.00192323,0.00206998,-0.00065365,0.00095614,-0.00007411,-0.0
 0006296,0.00015245,0.00055061,0.00003944,-0.00027319,0.52309561,-0.001
 83780,0.00655574,-0.00265679,-0.03660185,-0.15114973,0.03606120,0.0195
 3638,-0.16276009,-0.06423980,0.01036103,-0.01135104,-0.00363468,-0.001
 39809,-0.00106476,-0.00040306,-0.01307461,-0.01375901,0.01246031,-0.02
 076960,-0.02957506,0.00898024,0.00038995,0.00053385,-0.00064410,0.0028
 4663,0.00093893,0.00123216,0.00606323,-0.01169837,-0.01635233,0.008777
 76,-0.02850671,-0.01302252,0.00099773,0.00130501,-0.00015891,-0.001298
 73,0.00081175,-0.00002148,0.00003762,-0.00028363,-0.00008772,-0.000042
 13,0.00027138,0.00010311,-0.00313134,0.50904824,-0.00593183,-0.0088819
 4,0.00358671,0.00579521,0.00482272,-0.06998889,0.00606418,-0.02358276,
 -0.08432687,-0.00091554,0.00891432,0.00552232,0.00115847,-0.00037983,0
 .00041827,0.02431213,0.02856432,-0.00971376,-0.00830033,-0.00909886,0.
 00348689,0.00055850,-0.00095025,0.00154421,-0.00295435,0.00030489,-0.0
 0029260,0.01283863,-0.03588871,-0.02085293,-0.00279298,0.00425040,0.00
 279407,-0.00297768,0.00128863,-0.00029188,0.00065712,0.00040867,0.0017
 2172,-0.00069458,0.00007837,0.00028526,-0.00006648,0.00003336,-0.00004
 266,0.00379702,0.02576780,0.24326900,-0.00052025,-0.00179926,0.0014469
 5,-0.03714630,-0.00464223,-0.01051732,-0.01581008,0.01707044,-0.004004
 33,0.00070633,-0.00045123,0.00002830,-0.00057379,0.00003850,0.00016743
 ,0.00391400,0.00289580,-0.00229287,0.00087510,0.00294167,0.00031555,-0
 .00031240,-0.00019616,-0.00013207,-0.00013422,0.00044566,-0.00044007,0
 .00295894,-0.00388107,-0.00315124,0.00035128,-0.00252978,0.00017943,0.
 00054862,-0.00050925,-0.00030305,-0.00034454,0.00038537,0.00002597,-0.
 00009484,0.00004434,-0.00004996,0.00026378,0.00007286,0.00005224,-0.17
 414486,0.01579813,-0.01496382,0.45482404,-0.00315522,-0.00506763,0.001
 57578,-0.02576232,0.00765738,-0.00767879,0.03498494,-0.01022111,0.0104
 3144,0.00094876,-0.00596029,-0.00302115,-0.00015049,-0.00080646,-0.000
 16817,-0.00092540,-0.00039066,0.00058216,-0.00321685,-0.00029997,-0.00
 031679,0.00018971,0.00006671,-0.00009464,-0.00186925,0.00029934,-0.000
 49486,-0.00052460,0.00110196,0.00105103,0.00018207,-0.00011691,0.00068
 055,0.00187570,-0.00040208,0.00055106,-0.00009919,-0.00001779,0.000072
 20,0.00004664,0.00007266,0.00001416,-0.00004733,0.00020638,0.00002165,
 0.02607019,-0.10501879,0.00138244,-0.00628866,0.57878561,-0.00009761,0
 .00055515,-0.00056229,0.01115550,0.00000120,-0.00391238,0.01467453,-0.
 00382010,-0.00354335,0.00007966,-0.00145619,-0.00143716,0.00005246,-0.
 00009398,0.00022672,0.00344279,0.00154062,0.00077705,-0.00087942,0.000
 03495,0.00008568,0.00002631,-0.00013719,0.00033011,0.00003728,0.000002
 06,0.00064897,0.00378153,-0.00311947,0.00036473,-0.00077756,0.00022389
 ,0.00063521,0.00036907,-0.00027835,0.00069307,-0.00007227,0.00009049,0
 .00032449,0.00007350,-0.00000626,-0.00008296,0.00007612,-0.00003165,0.
 00000492,-0.05364900,0.00938004,-0.07397153,-0.01421801,0.03863486,0.5
 2639948,-0.00032542,-0.00130232,0.00070032,-0.00379994,0.00368505,0.00
 019150,-0.00079151,0.00030330,0.00033132,0.00016722,-0.00060954,0.0001
 3646,-0.00003209,-0.00004985,-0.00014665,-0.00048032,-0.00036771,0.000
 43038,0.00033081,-0.00032466,-0.00032673,0.00005096,0.00001776,-0.0000
 4974,-0.00044686,0.00008595,-0.00023190,-0.00031578,0.00009329,0.00033
 763,-0.00141333,-0.00045709,0.00032982,0.00007235,0.00000939,0.0000054
 5,0.00002941,-0.00000537,-0.00002913,0.00001091,0.00000975,0.00002499,
 -0.00007619,-0.00002140,-0.00000177,-0.03233194,-0.02033303,0.00986869
 ,-0.12042921,-0.04182490,0.03053787,0.51276883,0.00057943,0.00091041,0
 .00011663,0.00161277,-0.00140652,0.00013812,0.00065389,0.00223847,0.00
 001004,0.00003926,-0.00030815,-0.00001385,-0.00031775,0.00020456,-0.00
 009787,0.00005400,0.00010919,-0.00011722,-0.00013576,0.00057141,0.0003
 3235,0.00001684,-0.00001156,0.00000468,0.00025795,-0.00006561,0.000093
 88,-0.00022479,-0.00019706,-0.00019219,0.00062260,-0.00025740,0.000261
 19,0.00006946,-0.00003868,0.00000385,-0.00000048,0.00000933,-0.0000212
 0,0.00001162,-0.00000239,-0.00001023,-0.00007094,-0.00000631,0.0000185
 4,0.00445170,0.00822162,-0.00501701,-0.04510596,-0.12478640,0.03076966
 ,-0.03817891,0.53593084,-0.00061750,-0.00047133,0.00077077,-0.00252236
 ,0.00078717,-0.00093874,0.00006898,0.00008738,0.00032899,-0.00005773,-
 0.00017139,0.00039942,-0.00006602,0.00001150,-0.00020243,-0.00028619,-
 0.00023200,0.00050905,-0.00002018,0.00026756,0.00006105,0.00011225,-0.
 00001173,-0.00004307,-0.00027841,0.00001581,-0.00012191,-0.00040036,0.
 00019707,0.00013402,0.00039756,-0.00045009,0.00026845,-0.00002528,0.00
 004402,-0.00005389,-0.00001729,0.00003473,-0.00009422,0.00001212,0.000
 01074,0.00000346,-0.00007256,0.00001026,0.00000653,-0.00632666,-0.0079
 3385,0.00515521,0.03485806,0.03190071,-0.10094968,0.03436080,0.0222173
 3,0.54888646,0.00015645,-0.00017110,-0.00016954,-0.00004653,0.00376755
 ,0.00098811,-0.00605577,-0.00068401,-0.00274825,-0.00019678,0.00166531
 ,0.00098414,0.00033484,0.00028822,0.00009775,-0.00014658,-0.00036946,0
 .00011242,-0.00054676,-0.00091053,-0.00049442,0.00003328,0.00001585,0.
 00002682,0.00002560,-0.00004064,0.00000038,0.00002624,-0.00013395,0.00
 019380,0.00014321,-0.00003273,-0.00016809,-0.00060969,0.00015902,-0.00
 022179,-0.00000200,-0.00000974,-0.00006471,-0.00001427,-0.00001385,0.0
 0001141,-0.00000464,-0.00014531,-0.00002891,-0.01334211,0.03341073,0.0
 0903988,-0.05142399,0.03233280,0.00919197,0.00191827,-0.02335478,-0.00
 683171,0.07001375,0.00011986,0.00065638,0.00038889,-0.00320633,0.00038
 356,0.00000493,0.00156315,0.00163634,0.00181844,-0.00032823,-0.0005547
 5,-0.00058749,-0.00025566,0.00001957,-0.00004211,0.00017220,-0.0000883
 2,-0.00024184,0.00011593,0.00113995,0.00008681,0.00001069,-0.00003754,
 0.00000103,0.00005802,0.00001570,0.00001984,-0.00004233,0.00009230,-0.
 00012497,-0.00019176,0.00020124,0.00000496,0.00028346,-0.00006783,0.00
 011745,0.00000722,0.00000181,0.00004381,0.00000124,0.00002975,0.000000
 96,0.00003554,0.00014214,0.00002371,0.00557250,-0.01154935,-0.00260894
 ,0.04010951,-0.26990526,-0.07219961,0.00064406,-0.01899388,-0.00551273
 ,-0.04168308,0.29673338,0.00018916,0.00038908,-0.00004049,-0.00017139,
 0.00003899,0.00052217,-0.00075709,-0.00040589,0.00003668,-0.00034267,0
 .00025851,0.00051294,-0.00006725,0.00002712,-0.00007335,0.00012290,-0.
 00031331,-0.00029992,0.00011362,0.00005577,0.00041325,-0.00005936,0.00
 001998,-0.00004398,0.00008403,-0.00001015,0.00001333,-0.00035090,0.000
 39789,0.00051500,0.00006247,0.00004648,-0.00015072,-0.00012895,0.00004
 892,-0.00005265,0.00013706,-0.00004535,0.00005133,-0.00000390,-0.00000
 018,0.00000415,-0.00000436,0.00004018,0.00002138,-0.00341133,0.0112529
 8,0.00287162,0.01292636,-0.07624994,-0.07472974,-0.00145419,0.01493614
 ,0.00434933,-0.01217272,0.07804105,0.07573835,-0.00051740,-0.00031774,
 0.00040013,0.00334082,0.00383143,-0.00381749,0.00242042,-0.00412186,-0
 .00365852,-0.00019687,0.00008589,0.00027072,0.00023128,-0.00006834,-0.
 00004044,0.00049444,-0.00032325,0.00205301,-0.00024157,-0.00019633,0.0
 0011268,0.00018854,-0.00007841,0.00026129,-0.00028823,-0.00000535,0.00
 014201,0.00032992,-0.00024258,0.00189967,-0.00012889,0.00031728,0.0002
 3444,-0.00014496,0.00005714,0.00015326,0.00016094,-0.00004208,0.000234
 16,-0.00001266,0.00000745,0.00001067,-0.00001408,0.00001522,-0.0000179
 8,-0.01985015,0.00304824,-0.03641429,-0.04874675,0.00029966,-0.0124740
 0,0.00178762,0.00013024,0.02362527,0.00111564,-0.00033108,0.00463592,0
 .06177462,-0.00012520,0.00017123,0.00012916,0.00007696,0.00009702,-0.0
 0088654,-0.00071943,0.00130954,0.00328301,0.00012917,-0.00015870,-0.00
 007255,-0.00007420,0.00006735,-0.00003986,0.00015417,0.00020679,0.0000
 3547,0.00031983,0.00009802,-0.00016431,-0.00001039,-0.00006532,0.00003
 613,0.00002387,-0.00001526,-0.00004299,-0.00050708,0.00062950,-0.00062
 378,0.00010409,-0.00005790,0.00004755,0.00004080,-0.00001572,-0.000049
 09,-0.00006018,-0.00003111,-0.00016603,0.00000645,0.00000906,0.0000088
 3,-0.00003308,-0.00002772,0.00000537,0.00512248,0.00045143,0.00960603,
 -0.00074732,-0.05268220,-0.00928879,-0.00040574,-0.00007223,0.02152817
 ,-0.00206494,-0.00043853,-0.03016290,0.00051721,0.05086532,-0.00023375
 ,-0.00028534,0.00055422,0.00149666,0.00185979,-0.00003019,0.00135231,-
 0.00255312,0.00166204,-0.00003568,0.00013691,0.00062828,0.00017268,-0.
 00004118,-0.00017188,-0.00145842,-0.00120063,0.00083959,0.00009382,-0.
 00016701,-0.00012792,0.00033835,0.00000667,0.00012504,-0.00025686,-0.0
 0002494,0.00003933,-0.00141051,0.00188862,0.00111785,0.00007981,0.0002
 4747,-0.00020765,-0.00018457,0.00010356,0.00004098,0.00034331,-0.00019
 598,0.00008885,-0.00003519,0.00000391,0.00007627,-0.00005911,0.0000324
 3,0.00001372,-0.01602365,0.00377540,-0.01259881,-0.00873651,-0.0085455
 0,-0.26357247,0.00038033,-0.00082669,-0.01412000,0.00016287,-0.0014170
 9,-0.01052058,0.02175218,0.00517765,0.29514485,-0.00016305,-0.00036563
 ,0.00019847,-0.00072145,0.00126285,0.00007672,0.00039941,-0.00078161,-
 0.00047438,-0.00002374,-0.00005544,0.00008018,0.00004565,-0.00002977,-
 0.00006670,-0.00017842,-0.00017814,0.00022249,0.00005010,-0.00007621,-
 0.00006985,0.00001327,0.00002121,-0.00002632,-0.00015841,0.00001498,-0
 .00005483,-0.00005396,0.00011114,0.00015552,0.00014245,-0.00006789,-0.
 00003091,-0.00003800,0.00004269,0.00000360,0.00000734,-0.00000601,-0.0
 0000896,0.00000479,-0.00000355,0.00002011,-0.00004518,0.00000835,-0.00
 000809,-0.00286458,-0.00420570,0.00254346,-0.01867268,0.01009148,-0.00
 774259,-0.26069903,0.08115734,-0.05433979,0.00073320,-0.00033936,-0.00
 066586,0.00047940,0.00021485,0.00078034,0.28516745,-0.00014026,-0.0003
 5139,0.00010848,-0.00095595,0.00064224,-0.00003509,-0.00008079,-0.0011
 0147,0.00014148,0.00003477,0.00038018,-0.00004193,0.00014243,-0.000107
 31,0.00005816,-0.00006598,-0.00006749,0.00008159,0.00004971,-0.0000170
 4,-0.00005277,0.00000417,0.00000376,-0.00000757,-0.00011682,0.00003631
 ,-0.00004789,0.00003068,0.00020430,0.00001472,0.00017532,0.00058473,-0
 .00011345,-0.00003965,0.00001193,-0.00001631,-0.00000825,-0.00001369,0
 .00000011,-0.00000435,0.00000863,-0.00000502,0.00004279,0.00005312,0.0
 0000031,-0.00332110,-0.00288292,0.00183447,-0.01841247,0.00687859,-0.0
 0625817,0.08306424,-0.07707213,0.02189560,0.00023751,0.00081153,-0.000
 69690,0.00070857,0.00057663,-0.00006248,-0.08830663,0.08268425,0.00014
 995,0.00023004,-0.00011350,0.00065322,-0.00024126,0.00058153,0.0001774
 3,-0.00005091,0.00013610,-0.00000987,0.00006258,-0.00009563,0.00001803
 ,0.00002097,0.00004407,-0.00006806,-0.00011192,0.00000155,-0.00001293,
 0.00001611,0.00000087,-0.00000052,0.00000976,0.00001262,0.00007763,-0.
 00001682,0.00003867,0.00002462,0.00003995,0.00001033,-0.00001555,0.000
 12787,-0.00015193,0.00000064,-0.00000928,0.00001515,0.00002810,-0.0000
 1185,0.00003266,-0.00000308,-0.00000727,-0.00000020,0.00000919,0.00000
 619,-0.00000257,0.00104117,0.00180943,-0.00070959,0.01289724,-0.006184
 97,0.00276163,-0.05567118,0.02171230,-0.06134560,-0.00053391,-0.000312
 39,0.00050433,-0.00047744,-0.00055198,-0.00003037,0.06013854,-0.024657
 35,0.06195282,0.00005341,0.00006006,-0.00010517,-0.00016450,-0.0004933
 5,0.00015914,-0.00024994,0.00041050,0.00024542,-0.00001807,0.00000790,
 0.00001253,-0.00002992,-0.00000155,0.00000084,0.00009173,0.00015142,-0
 .00033449,-0.00000440,0.00003051,0.00003974,-0.00006321,0.00000015,-0.
 00003040,0.00004798,0.00000567,-0.00000313,0.00010960,-0.00007243,-0.0
 0023442,-0.00001096,0.00002893,0.00013657,0.00001577,-0.00000891,-0.00
 002023,-0.00004944,0.00001924,-0.00002991,0.00000818,0.00000394,-0.000
 01447,0.00001089,0.00000131,0.00000365,0.00240405,0.00081723,-0.000307
 23,0.00112478,-0.00043969,0.02530326,-0.04865066,0.00070541,-0.0276627
 5,0.00070938,0.00058602,-0.00077171,-0.00297743,-0.00303955,0.00198226
 ,-0.00180762,-0.00117837,-0.02939122,0.05011248,0.00002689,0.00001346,
 -0.00007524,0.00009004,-0.00003189,0.00002921,0.00008018,-0.00013674,0
 .00004186,0.00001644,0.00009868,-0.00007937,0.00002884,-0.00000368,0.0
 0002230,0.00011405,0.00004909,-0.00013404,-0.00000167,-0.00007261,0.00
 002664,-0.00003659,0.00001629,-0.00001359,0.00000378,-0.00000909,0.000
 01380,0.00000269,-0.00014823,-0.00002051,-0.00008678,0.00002124,-0.000
 17929,-0.00001695,0.00000130,0.00000486,0.00001985,0.00000753,0.000030
 33,0.00000026,-0.00001371,0.00000018,0.00000530,0.00000273,-0.00000411
 ,0.00111147,0.00092806,-0.00113429,0.00234064,-0.00061209,0.02184243,0
 .00001211,-0.04817665,-0.00265552,0.00081187,0.00052553,0.00002530,-0.
 00338377,-0.00176085,0.00170697,0.00040358,-0.00089555,0.01173384,0.00
 232555,0.04921885,0.00001337,0.00004189,-0.00003129,0.00006617,-0.0001
 5967,0.00036798,0.00026400,0.00003379,-0.00014098,-0.00000392,0.000027
 88,-0.00010851,0.00002636,-0.00000983,0.00004625,-0.00024728,-0.000139
 72,0.00007680,-0.00001377,0.00000500,-0.00005183,0.00003525,0.00000265
 ,0.00003346,0.00003128,0.00000091,0.00000288,-0.00011430,0.00003630,0.
 00010176,-0.00000868,0.00001131,-0.00024453,0.00002540,-0.00001649,0.0
 0000537,0.00005821,-0.00001388,0.00006820,-0.00001687,-0.00000616,0.00
 001190,0.00002598,-0.00000063,-0.00000095,-0.00051578,-0.00098221,0.00
 192555,-0.00160000,0.00065891,-0.01535678,-0.02566759,-0.00168916,-0.3
 0537159,-0.00005833,0.00035971,0.00069960,0.00203164,0.00232892,0.0002
 7926,-0.00071319,-0.00019996,-0.00562863,0.02757511,-0.00023203,0.3329
 3016,0.00003483,0.00007338,0.00003043,-0.00036055,-0.00011235,-0.00008
 509,-0.00101721,-0.00060007,0.00040894,0.00005665,0.00034855,-0.000123
 28,0.00002349,-0.00009623,0.00004621,0.00008120,0.00004798,-0.00005902
 ,0.00003518,0.00025226,0.00008524,-0.00000791,-0.00000411,-0.00000058,
 0.00000159,0.00001550,0.00000614,-0.00002439,0.00009172,0.00003982,-0.
 00214509,0.00082715,0.00035195,-0.00001565,-0.00000306,-0.00000420,-0.
 00000408,-0.00001581,0.00001198,0.00000052,0.00001107,-0.00001234,0.00
 003102,0.00007696,0.00001236,0.00107368,0.00060823,-0.00031420,0.00278
 702,-0.02271807,-0.00889140,-0.04734411,0.01702688,0.00608976,-0.00282
 074,-0.00290158,0.00209017,0.00079535,0.00107725,-0.00050067,-0.001616
 91,0.02814045,0.01096798,-0.00066210,-0.00386779,-0.00119308,0.0510982
 1,0.00000077,-0.00003098,0.00006411,-0.00025312,-0.00004218,-0.0002050
 2,0.00045959,-0.00133242,-0.00011574,-0.00000337,0.00067565,-0.0000720
 2,0.00016138,-0.00013723,0.00007256,0.00004086,0.,0.00002101,-0.000033
 37,0.00027319,0.00010678,-0.00001035,0.00000625,-0.00000446,-0.0000430
 6,0.00002073,-0.00000411,0.00000613,0.00011442,0.00010310,0.00110890,0
 .00102684,-0.00053988,-0.00008383,0.00003291,-0.00001257,0.00002498,-0
 .00002810,0.00003185,-0.00000790,0.00000492,0.00000188,0.00006199,0.00
 010213,0.00000199,0.00028734,0.00053345,0.00028617,0.00242047,-0.01878
 099,-0.00638558,0.01595562,-0.27680085,-0.08156942,-0.00307469,-0.0007
 5373,0.00230623,0.00009245,0.00084363,0.00038058,0.00108748,-0.0103672
 2,-0.00361304,0.00008003,0.00097834,-0.00005754,-0.01827830,0.30366126
 ,-0.00002209,-0.00009869,-0.00005251,0.00001161,0.00009011,0.00005349,
 0.00005100,-0.00053434,0.00032069,0.00004060,0.00010575,-0.00007948,0.
 00006917,-0.00004586,0.00004373,-0.00001269,-0.00000037,0.00002146,-0.
 00003879,-0.00005806,-0.00006260,0.00000416,-0.00000467,0.00001071,-0.
 00000816,0.00001690,-0.00000070,0.00010521,0.00015041,-0.00019767,0.00
 057798,0.00018518,0.00029238,0.00000091,-0.00000300,0.00000973,-0.0000
 5183,-0.00001287,-0.00003550,0.00000233,0.00000952,-0.00000476,0.00003
 077,0.00000516,-0.00000383,-0.00045267,-0.00068521,0.00020870,-0.00248
 826,0.01519788,0.00486625,0.00594330,-0.08262930,-0.07763161,0.0026828
 2,0.00213556,-0.00034203,-0.00091688,-0.00013745,0.00076957,-0.0000179
 7,0.00805998,0.00198570,0.00344660,-0.03094972,-0.00961409,-0.00895712
 ,0.08920310,0.07944236\\0.00000594,-0.00000880,0.00000441,0.00000329,-
 0.00000535,0.00000772,-0.00000766,0.00001505,0.00000540,0.00000243,-0.
 00000661,-0.00000325,-0.00000363,-0.00000964,-0.00000590,0.00000322,0.
 00000245,0.00000450,0.00000724,-0.00000235,0.00000918,0.00000487,-0.00
 001318,0.00000212,0.00000674,-0.00000897,0.00000440,-0.00000513,0.0000
 0524,-0.00000744,-0.00000580,0.00000255,-0.00000665,-0.00001055,-0.000
 00386,-0.00001095,-0.00000510,-0.00000896,-0.00000634,-0.00000046,-0.0
 0000337,-0.00000216,-0.00000174,-0.00001248,-0.00000375,0.00000162,-0.
 00000262,-0.00000918,0.00000037,0.00000259,0.00000492,0.00000446,0.000
 01136,-0.00000024,0.00000685,0.00000590,0.00000850,-0.00000121,0.00001
 244,0.00000222,0.00000097,0.00001475,0.00000288,-0.00000190,0.00000286
 ,0.00000266,-0.00000484,0.00001101,-0.00000305\\\@


 GOOD SENSE ABOUT TRIVIALITIES IS BETTER THAN NONSENSE
 ABOUT THINGS THAT MATTER

                                       -- MAX BEERBOHM
 Job cpu time:       0 days  0 hours 39 minutes  0.2 seconds.
 File lengths (MBytes):  RWF=    190 Int=      0 D2E=      0 Chk=      7 Scr=      1
 Normal termination of Gaussian 09 at Wed Nov 17 16:16:14 2021.
