 Entering Gaussian System, Link 0=g09
 Initial command:
 /cm/shared/apps/gaussian/g09revD.01/g09/l1.exe "//home/sweav003/HartwigDocs/Regioselective_Alkylamines_AlkylEthers/G09-Table1_1.com.o9624904.tmp/Gau-52475.inp" -scrdir="//home/sweav003/HartwigDocs/Regioselective_Alkylamines_AlkylEthers/G09-Table1_1.com.o9624904.tmp/"
 Entering Link 1 = /cm/shared/apps/gaussian/g09revD.01/g09/l1.exe PID=     52476.
  
 Copyright (c) 1988,1990,1992,1993,1995,1998,2003,2009,2013,
            Gaussian, Inc.  All Rights Reserved.
  
 This is part of the Gaussian(R) 09 program.  It is based on
 the Gaussian(R) 03 system (copyright 2003, Gaussian, Inc.),
 the Gaussian(R) 98 system (copyright 1998, Gaussian, Inc.),
 the Gaussian(R) 94 system (copyright 1995, Gaussian, Inc.),
 the Gaussian 92(TM) system (copyright 1992, Gaussian, Inc.),
 the Gaussian 90(TM) system (copyright 1990, Gaussian, Inc.),
 the Gaussian 88(TM) system (copyright 1988, Gaussian, Inc.),
 the Gaussian 86(TM) system (copyright 1986, Carnegie Mellon
 University), and the Gaussian 82(TM) system (copyright 1983,
 Carnegie Mellon University). Gaussian is a federally registered
 trademark of Gaussian, Inc.
  
 This software contains proprietary and confidential information,
 including trade secrets, belonging to Gaussian, Inc.
  
 This software is provided under written license and may be
 used, copied, transmitted, or stored only in accord with that
 written license.
  
 The following legend is applicable only to US Government
 contracts under FAR:
  
                    RESTRICTED RIGHTS LEGEND
  
 Use, reproduction and disclosure by the US Government is
 subject to restrictions as set forth in subparagraphs (a)
 and (c) of the Commercial Computer Software - Restricted
 Rights clause in FAR 52.227-19.
  
 Gaussian, Inc.
 340 Quinnipiac St., Bldg. 40, Wallingford CT 06492
  
  
 ---------------------------------------------------------------
 Warning -- This program may not be used in any manner that
 competes with the business of Gaussian, Inc. or will provide
 assistance to any competitor of Gaussian, Inc.  The licensee
 of this program is prohibited from giving any competitor of
 Gaussian, Inc. access to this program.  By using this program,
 the user acknowledges that Gaussian, Inc. is engaged in the
 business of creating and licensing software in the field of
 computational chemistry and represents and warrants to the
 licensee that it is not a competitor of Gaussian, Inc. and that
 it will not use this program in any manner prohibited above.
 ---------------------------------------------------------------
  

 Cite this work as:
 Gaussian 09, Revision D.01,
 M. J. Frisch, G. W. Trucks, H. B. Schlegel, G. E. Scuseria, 
 M. A. Robb, J. R. Cheeseman, G. Scalmani, V. Barone, B. Mennucci, 
 G. A. Petersson, H. Nakatsuji, M. Caricato, X. Li, H. P. Hratchian, 
 A. F. Izmaylov, J. Bloino, G. Zheng, J. L. Sonnenberg, M. Hada, 
 M. Ehara, K. Toyota, R. Fukuda, J. Hasegawa, M. Ishida, T. Nakajima, 
 Y. Honda, O. Kitao, H. Nakai, T. Vreven, J. A. Montgomery, Jr., 
 J. E. Peralta, F. Ogliaro, M. Bearpark, J. J. Heyd, E. Brothers, 
 K. N. Kudin, V. N. Staroverov, T. Keith, R. Kobayashi, J. Normand, 
 K. Raghavachari, A. Rendell, J. C. Burant, S. S. Iyengar, J. Tomasi, 
 M. Cossi, N. Rega, J. M. Millam, M. Klene, J. E. Knox, J. B. Cross, 
 V. Bakken, C. Adamo, J. Jaramillo, R. Gomperts, R. E. Stratmann, 
 O. Yazyev, A. J. Austin, R. Cammi, C. Pomelli, J. W. Ochterski, 
 R. L. Martin, K. Morokuma, V. G. Zakrzewski, G. A. Voth, 
 P. Salvador, J. J. Dannenberg, S. Dapprich, A. D. Daniels, 
 O. Farkas, J. B. Foresman, J. V. Ortiz, J. Cioslowski, 
 and D. J. Fox, Gaussian, Inc., Wallingford CT, 2013.
 
 ******************************************
 Gaussian 09:  ES64L-G09RevD.01 24-Apr-2013
                 2-Nov-2021 
 ******************************************
 %mem=100MW
 %nprocshared=20
 Will use up to   20 processors via shared memory.
 %chk=Table1_1.chk
 ----------------------------------------------------------------------
 # opt freq b3lyp/6-311+g(d,p) geom=connectivity pop=(hirshfeld,chelpg,
 mbs,npa)
 ----------------------------------------------------------------------
 1/14=-1,18=20,19=15,26=3,38=1,57=2/1,3;
 2/9=110,12=2,17=6,18=5,40=1/2;
 3/5=4,6=6,7=111,11=2,16=1,25=1,30=1,71=1,74=-5/1,2,3;
 4//1;
 5/5=2,38=5/2;
 6/7=2,8=2,9=2,10=2,15=8,20=3,27=100,28=1,40=-1,79=1/1,2,7;
 7//1,2,3,16;
 1/14=-1,18=20,19=15,26=3/3(2);
 2/9=110/2;
 99//99;
 2/9=110/2;
 3/5=4,6=6,7=111,11=2,16=1,25=1,30=1,71=1,74=-5/1,2,3;
 4/5=5,16=3,69=1/1;
 5/5=2,38=5/2;
 7//1,2,3,16;
 1/14=-1,18=20,19=15,26=3/3(-5);
 2/9=110/2;
 6/7=2,8=2,9=2,10=2,15=8,19=2,20=3,27=100,28=1,40=-1,79=1/1,2,7;
 99/9=1/99;
 -------------------
 Title Card Required
 -------------------
 Symbolic Z-matrix:
 Charge =  0 Multiplicity = 1
 C                     1.02183   3.42649  -0.40733 
 H                     0.27461   4.18989  -0.4689 
 H                     1.83295   3.76953   0.20038 
 H                     1.38246   3.20039  -1.38903 
 C                    -0.58744   1.62173  -0.67623 
 H                    -0.03885   1.18526  -1.48459 
 H                    -1.28795   2.33508  -1.05743 
 C                    -1.37012   0.52803   0.07385 
 H                    -1.7124   -0.18642  -0.64538 
 H                    -2.20701   0.9562    0.58491 
 C                     0.8625   -0.07421   1.03272 
 H                     1.19152   0.03947   2.04451 
 H                     1.24955  -0.9854    0.62672 
 C                     1.38188   1.09052   0.16956 
 H                     2.36231   1.35044   0.51029 
 H                     1.42276   0.79099  -0.85685 
 O                    -0.56585  -0.04655   1.10809 
 N                     0.43861   2.21708   0.19105 
 

 GradGradGradGradGradGradGradGradGradGradGradGradGradGradGradGradGradGrad
 Berny optimization.
 Initialization pass.
                           ----------------------------
                           !    Initial Parameters    !
                           ! (Angstroms and Degrees)  !
 --------------------------                            --------------------------
 ! Name  Definition              Value          Derivative Info.                !
 --------------------------------------------------------------------------------
 ! R1    R(1,2)                  1.07           estimate D2E/DX2                !
 ! R2    R(1,3)                  1.07           estimate D2E/DX2                !
 ! R3    R(1,4)                  1.07           estimate D2E/DX2                !
 ! R4    R(1,18)                 1.47           estimate D2E/DX2                !
 ! R5    R(5,6)                  1.07           estimate D2E/DX2                !
 ! R6    R(5,7)                  1.07           estimate D2E/DX2                !
 ! R7    R(5,8)                  1.5399         estimate D2E/DX2                !
 ! R8    R(5,18)                 1.4695         estimate D2E/DX2                !
 ! R9    R(8,9)                  1.07           estimate D2E/DX2                !
 ! R10   R(8,10)                 1.07           estimate D2E/DX2                !
 ! R11   R(8,17)                 1.4306         estimate D2E/DX2                !
 ! R12   R(11,12)                1.07           estimate D2E/DX2                !
 ! R13   R(11,13)                1.07           estimate D2E/DX2                !
 ! R14   R(11,14)                1.5399         estimate D2E/DX2                !
 ! R15   R(11,17)                1.4306         estimate D2E/DX2                !
 ! R16   R(14,15)                1.07           estimate D2E/DX2                !
 ! R17   R(14,16)                1.07           estimate D2E/DX2                !
 ! R18   R(14,18)                1.4695         estimate D2E/DX2                !
 ! A1    A(2,1,3)              109.4712         estimate D2E/DX2                !
 ! A2    A(2,1,4)              109.4712         estimate D2E/DX2                !
 ! A3    A(2,1,18)             109.4712         estimate D2E/DX2                !
 ! A4    A(3,1,4)              109.4712         estimate D2E/DX2                !
 ! A5    A(3,1,18)             109.4712         estimate D2E/DX2                !
 ! A6    A(4,1,18)             109.4712         estimate D2E/DX2                !
 ! A7    A(6,5,7)              109.7835         estimate D2E/DX2                !
 ! A8    A(6,5,8)              109.8068         estimate D2E/DX2                !
 ! A9    A(6,5,18)             104.6643         estimate D2E/DX2                !
 ! A10   A(7,5,8)              108.3173         estimate D2E/DX2                !
 ! A11   A(7,5,18)             113.4085         estimate D2E/DX2                !
 ! A12   A(8,5,18)             110.8024         estimate D2E/DX2                !
 ! A13   A(5,8,9)              108.0233         estimate D2E/DX2                !
 ! A14   A(5,8,10)             110.2407         estimate D2E/DX2                !
 ! A15   A(5,8,17)             110.5884         estimate D2E/DX2                !
 ! A16   A(9,8,10)             109.7577         estimate D2E/DX2                !
 ! A17   A(9,8,17)             113.4284         estimate D2E/DX2                !
 ! A18   A(10,8,17)            104.7819         estimate D2E/DX2                !
 ! A19   A(12,11,13)           109.7577         estimate D2E/DX2                !
 ! A20   A(12,11,14)           110.2407         estimate D2E/DX2                !
 ! A21   A(12,11,17)           104.7819         estimate D2E/DX2                !
 ! A22   A(13,11,14)           108.0233         estimate D2E/DX2                !
 ! A23   A(13,11,17)           113.4284         estimate D2E/DX2                !
 ! A24   A(14,11,17)           110.5884         estimate D2E/DX2                !
 ! A25   A(11,14,15)           108.3173         estimate D2E/DX2                !
 ! A26   A(11,14,16)           109.8068         estimate D2E/DX2                !
 ! A27   A(11,14,18)           110.8024         estimate D2E/DX2                !
 ! A28   A(15,14,16)           109.7835         estimate D2E/DX2                !
 ! A29   A(15,14,18)           113.4085         estimate D2E/DX2                !
 ! A30   A(16,14,18)           104.6643         estimate D2E/DX2                !
 ! A31   A(8,17,11)            122.0717         estimate D2E/DX2                !
 ! A32   A(1,18,5)             111.7221         estimate D2E/DX2                !
 ! A33   A(1,18,14)            111.7221         estimate D2E/DX2                !
 ! A34   A(5,18,14)             97.4105         estimate D2E/DX2                !
 ! D1    D(2,1,18,5)            66.0256         estimate D2E/DX2                !
 ! D2    D(2,1,18,14)          173.9744         estimate D2E/DX2                !
 ! D3    D(3,1,18,5)          -173.9744         estimate D2E/DX2                !
 ! D4    D(3,1,18,14)          -66.0256         estimate D2E/DX2                !
 ! D5    D(4,1,18,5)           -53.9744         estimate D2E/DX2                !
 ! D6    D(4,1,18,14)           53.9744         estimate D2E/DX2                !
 ! D7    D(6,5,8,9)            -36.3024         estimate D2E/DX2                !
 ! D8    D(6,5,8,10)          -156.2269         estimate D2E/DX2                !
 ! D9    D(6,5,8,17)            88.369          estimate D2E/DX2                !
 ! D10   D(7,5,8,9)             83.5773         estimate D2E/DX2                !
 ! D11   D(7,5,8,10)           -36.3472         estimate D2E/DX2                !
 ! D12   D(7,5,8,17)          -151.7512         estimate D2E/DX2                !
 ! D13   D(18,5,8,9)          -151.432          estimate D2E/DX2                !
 ! D14   D(18,5,8,10)           88.6435         estimate D2E/DX2                !
 ! D15   D(18,5,8,17)          -26.7605         estimate D2E/DX2                !
 ! D16   D(6,5,18,1)            72.5821         estimate D2E/DX2                !
 ! D17   D(6,5,18,14)          -44.3907         estimate D2E/DX2                !
 ! D18   D(7,5,18,1)           -47.0564         estimate D2E/DX2                !
 ! D19   D(7,5,18,14)         -164.0291         estimate D2E/DX2                !
 ! D20   D(8,5,18,1)          -169.1171         estimate D2E/DX2                !
 ! D21   D(8,5,18,14)           73.9101         estimate D2E/DX2                !
 ! D22   D(5,8,17,11)          -27.1106         estimate D2E/DX2                !
 ! D23   D(9,8,17,11)           94.4222         estimate D2E/DX2                !
 ! D24   D(10,8,17,11)        -145.8836         estimate D2E/DX2                !
 ! D25   D(12,11,14,15)         36.3472         estimate D2E/DX2                !
 ! D26   D(12,11,14,16)        156.2269         estimate D2E/DX2                !
 ! D27   D(12,11,14,18)        -88.6435         estimate D2E/DX2                !
 ! D28   D(13,11,14,15)        -83.5773         estimate D2E/DX2                !
 ! D29   D(13,11,14,16)         36.3024         estimate D2E/DX2                !
 ! D30   D(13,11,14,18)        151.432          estimate D2E/DX2                !
 ! D31   D(17,11,14,15)        151.7512         estimate D2E/DX2                !
 ! D32   D(17,11,14,16)        -88.369          estimate D2E/DX2                !
 ! D33   D(17,11,14,18)         26.7605         estimate D2E/DX2                !
 ! D34   D(12,11,17,8)         145.8836         estimate D2E/DX2                !
 ! D35   D(13,11,17,8)         -94.4222         estimate D2E/DX2                !
 ! D36   D(14,11,17,8)          27.1106         estimate D2E/DX2                !
 ! D37   D(11,14,18,1)         169.1171         estimate D2E/DX2                !
 ! D38   D(11,14,18,5)         -73.9101         estimate D2E/DX2                !
 ! D39   D(15,14,18,1)          47.0564         estimate D2E/DX2                !
 ! D40   D(15,14,18,5)         164.0291         estimate D2E/DX2                !
 ! D41   D(16,14,18,1)         -72.5821         estimate D2E/DX2                !
 ! D42   D(16,14,18,5)          44.3907         estimate D2E/DX2                !
 --------------------------------------------------------------------------------
 Trust Radius=3.00D-01 FncErr=1.00D-07 GrdErr=1.00D-06
 Number of steps in this run=    104 maximum allowed number of steps=    108.
 GradGradGradGradGradGradGradGradGradGradGradGradGradGradGradGradGradGrad

                          Input orientation:                          
 ---------------------------------------------------------------------
 Center     Atomic      Atomic             Coordinates (Angstroms)
 Number     Number       Type             X           Y           Z
 ---------------------------------------------------------------------
      1          6           0        1.021833    3.426494   -0.407333
      2          1           0        0.274610    4.189885   -0.468903
      3          1           0        1.832953    3.769530    0.200377
      4          1           0        1.382463    3.200389   -1.389027
      5          6           0       -0.587437    1.621731   -0.676231
      6          1           0       -0.038847    1.185257   -1.484588
      7          1           0       -1.287949    2.335083   -1.057428
      8          6           0       -1.370116    0.528029    0.073853
      9          1           0       -1.712401   -0.186425   -0.645380
     10          1           0       -2.207007    0.956205    0.584909
     11          6           0        0.862502   -0.074208    1.032722
     12          1           0        1.191519    0.039469    2.044515
     13          1           0        1.249546   -0.985395    0.626722
     14          6           0        1.381883    1.090516    0.169556
     15          1           0        2.362310    1.350444    0.510292
     16          1           0        1.422762    0.790995   -0.856853
     17          8           0       -0.565849   -0.046555    1.108086
     18          7           0        0.438606    2.217077    0.191047
 ---------------------------------------------------------------------
                    Distance matrix (angstroms):
                    1          2          3          4          5
     1  C    0.000000
     2  H    1.070000   0.000000
     3  H    1.070000   1.747303   0.000000
     4  H    1.070000   1.747303   1.747303   0.000000
     5  C    2.432946   2.716897   3.352577   2.623117   0.000000
     6  H    2.703455   3.187109   3.608492   2.467796   1.070000
     7  H    2.636076   2.495645   3.657833   2.826625   1.070000
     8  C    3.788675   4.050790   4.558836   4.105876   1.539934
     9  H    4.537167   4.809517   5.379073   4.647763   2.129771
    10  H    4.184768   4.210182   4.938010   4.670876   2.157871
    11  C    3.788675   4.558836   4.050790   4.105876   2.810525
    12  H    4.184768   4.938010   4.210182   4.670876   3.615341
    13  H    4.537167   5.379073   4.809517   4.647763   3.445185
    14  C    2.432946   3.352577   2.716897   2.623117   2.208113
    15  H    2.636076   3.657833   2.495645   2.826625   3.190993
    16  H    2.703455   3.608492   3.187109   2.467796   2.182577
    17  O    4.108442   4.597901   4.597901   4.535872   2.442832
    18  N    1.470000   2.086720   2.086720   2.086720   1.469481
                    6          7          8          9         10
     6  H    0.000000
     7  H    1.750663   0.000000
     8  C    2.152431   2.133540   0.000000
     9  H    2.320897   2.589970   1.070000   0.000000
    10  H    3.006027   2.333076   1.070000   1.750386   0.000000
    11  C    2.955593   3.846797   2.503338   3.075507   3.268666
    12  H    3.909117   4.586900   3.268666   3.964759   3.810621
    13  H    3.290793   4.505643   3.075507   3.321103   3.964759
    14  C    2.182577   3.190993   2.810525   3.445185   3.615341
    15  H    3.126082   4.092878   3.846797   4.505643   4.586900
    16  H    1.638839   3.126082   2.955593   3.290793   3.909117
    17  O    2.918398   3.298951   1.430605   2.099712   1.993149
    18  N    2.024937   2.133918   2.477518   3.332157   2.957059
                   11         12         13         14         15
    11  C    0.000000
    12  H    1.070000   0.000000
    13  H    1.070000   1.750386   0.000000
    14  C    1.539934   2.157871   2.129771   0.000000
    15  H    2.133540   2.333076   2.589970   1.070000   0.000000
    16  H    2.152431   3.006027   2.320897   1.070000   1.750663
    17  O    1.430605   1.993149   2.099712   2.442832   3.298951
    18  N    2.477518   2.957059   3.332157   1.469481   2.133918
                   16         17         18
    16  H    0.000000
    17  O    2.918398   0.000000
    18  N    2.024937   2.640818   0.000000
 Stoichiometry    C5H11NO
 Framework group  CS[SG(CHNO),X(C4H10)]
 Deg. of freedom    26
 Full point group                 CS      NOp   2
 Largest Abelian subgroup         CS      NOp   2
 Largest concise Abelian subgroup CS      NOp   2
                         Standard orientation:                         
 ---------------------------------------------------------------------
 Center     Atomic      Atomic             Coordinates (Angstroms)
 Number     Number       Type             X           Y           Z
 ---------------------------------------------------------------------
      1          6           0        0.794574    2.240121    0.000000
      2          1           0        1.346548    2.517535    0.873651
      3          1           0        1.346548    2.517535   -0.873651
      4          1           0       -0.149722    2.743317    0.000000
      5          6           0       -0.299820    0.368601    1.104057
      6          1           0       -1.274717    0.705438    0.819420
      7          1           0       -0.029395    0.797188    2.046439
      8          6           0       -0.299820   -1.164241    1.251669
      9          1           0       -1.244139   -1.457460    1.660552
     10          1           0        0.488978   -1.473191    1.905311
     11          6           0       -0.299820   -1.164241   -1.251669
     12          1           0        0.488978   -1.473191   -1.905311
     13          1           0       -1.244139   -1.457460   -1.660552
     14          6           0       -0.299820    0.368601   -1.104057
     15          1           0       -0.029395    0.797188   -2.046439
     16          1           0       -1.274717    0.705438   -0.819420
     17          8           0       -0.002907   -1.790178    0.000000
     18          7           0        0.575239    0.786577    0.000000
 ---------------------------------------------------------------------
 Rotational constants (GHZ):      4.6569679      2.3609801      1.7568604
 Standard basis: 6-311+G(d,p) (5D, 7F)
 There are   132 symmetry adapted cartesian basis functions of A'  symmetry.
 There are    95 symmetry adapted cartesian basis functions of A"  symmetry.
 There are   127 symmetry adapted basis functions of A'  symmetry.
 There are    93 symmetry adapted basis functions of A"  symmetry.
   220 basis functions,   340 primitive gaussians,   227 cartesian basis functions
    28 alpha electrons       28 beta electrons
       nuclear repulsion energy       340.2931303593 Hartrees.
 NAtoms=   18 NActive=   18 NUniq=   11 SFac= 2.68D+00 NAtFMM=   60 NAOKFM=F Big=F
 Integral buffers will be    131072 words long.
 Raffenetti 2 integral format.
 Two-electron integral symmetry is turned on.
 One-electron integrals computed using PRISM.
 NBasis=   220 RedAO= T EigKep=  1.42D-05  NBF=   127    93
 NBsUse=   220 1.00D-06 EigRej= -1.00D+00 NBFU=   127    93
 ExpMin= 4.38D-02 ExpMax= 8.59D+03 ExpMxC= 1.30D+03 IAcc=2 IRadAn=         4 AccDes= 0.00D+00
 Harris functional with IExCor=  402 and IRadAn=       4 diagonalized for initial guess.
 HarFok:  IExCor=  402 AccDes= 0.00D+00 IRadAn=         4 IDoV= 1 UseB2=F ITyADJ=14
 ICtDFT=  3500011 ScaDFX=  1.000000  1.000000  1.000000  1.000000
 FoFCou: FMM=F IPFlag=           0 FMFlag=      100000 FMFlg1=           0
         NFxFlg=           0 DoJE=T BraDBF=F KetDBF=T FulRan=T
         wScrn=  0.000000 ICntrl=     500 IOpCl=  0 I1Cent=   200000004 NGrid=           0
         NMat0=    1 NMatS0=      1 NMatT0=    0 NMatD0=    1 NMtDS0=    0 NMtDT0=    0
 Petite list used in FoFCou.
 Initial guess orbital symmetries:
       Occupied  (A') (A') (A') (A') (A") (A") (A') (A') (A') (A")
                 (A') (A') (A") (A') (A') (A") (A') (A') (A") (A")
                 (A') (A') (A") (A") (A") (A') (A') (A')
       Virtual   (A') (A') (A') (A') (A") (A") (A') (A') (A") (A')
                 (A") (A') (A") (A') (A") (A') (A") (A') (A") (A')
                 (A') (A') (A") (A') (A") (A") (A') (A") (A') (A")
                 (A') (A') (A") (A') (A") (A') (A') (A") (A') (A")
                 (A') (A") (A') (A") (A') (A') (A") (A') (A') (A")
                 (A') (A") (A') (A') (A") (A') (A") (A') (A') (A")
                 (A') (A") (A") (A") (A') (A') (A') (A") (A') (A")
                 (A') (A") (A') (A') (A") (A') (A') (A") (A") (A')
                 (A") (A') (A') (A') (A") (A') (A') (A") (A') (A")
                 (A") (A') (A") (A") (A') (A') (A') (A") (A') (A")
                 (A") (A') (A') (A") (A') (A") (A') (A") (A') (A")
                 (A') (A") (A') (A") (A') (A') (A') (A") (A") (A')
                 (A") (A') (A') (A") (A') (A") (A') (A') (A') (A")
                 (A") (A") (A') (A') (A") (A') (A') (A") (A") (A')
                 (A') (A") (A') (A') (A") (A') (A") (A') (A') (A")
                 (A") (A') (A") (A") (A') (A") (A') (A") (A') (A')
                 (A") (A') (A') (A") (A") (A') (A") (A') (A') (A')
                 (A") (A') (A") (A') (A") (A") (A') (A") (A') (A')
                 (A") (A') (A') (A') (A") (A') (A") (A') (A') (A")
                 (A') (A')
 The electronic state of the initial guess is 1-A'.
 Requested convergence on RMS density matrix=1.00D-08 within 128 cycles.
 Requested convergence on MAX density matrix=1.00D-06.
 Requested convergence on             energy=1.00D-06.
 No special actions if energy rises.
 SCF Done:  E(RB3LYP) =  -327.163929230     A.U. after   12 cycles
            NFock= 12  Conv=0.65D-08     -V/T= 2.0030

 **********************************************************************

            Population analysis using the SCF density.

 **********************************************************************

 Orbital symmetries:
       Occupied  (A') (A') (A") (A') (A") (A') (A') (A') (A') (A")
                 (A') (A") (A') (A') (A') (A') (A") (A') (A") (A")
                 (A') (A') (A") (A") (A") (A') (A') (A')
       Virtual   (A') (A') (A") (A') (A') (A") (A') (A") (A') (A')
                 (A") (A') (A') (A") (A") (A') (A") (A') (A") (A')
                 (A") (A') (A') (A") (A') (A') (A") (A") (A') (A")
                 (A') (A') (A') (A") (A") (A') (A') (A') (A") (A')
                 (A") (A') (A") (A") (A') (A') (A") (A') (A') (A")
                 (A') (A") (A') (A') (A") (A') (A") (A') (A") (A')
                 (A") (A') (A") (A') (A") (A') (A') (A") (A') (A")
                 (A") (A') (A') (A') (A") (A') (A') (A") (A') (A")
                 (A") (A') (A') (A') (A") (A') (A') (A") (A') (A")
                 (A") (A') (A") (A") (A') (A') (A') (A") (A') (A")
                 (A") (A') (A') (A") (A') (A") (A') (A") (A") (A')
                 (A") (A') (A') (A") (A') (A') (A") (A') (A") (A')
                 (A") (A') (A') (A") (A') (A") (A') (A') (A') (A")
                 (A") (A") (A') (A') (A") (A') (A') (A") (A") (A')
                 (A') (A") (A') (A') (A") (A") (A') (A') (A') (A")
                 (A") (A") (A') (A") (A') (A") (A') (A') (A") (A')
                 (A") (A') (A') (A") (A") (A') (A") (A') (A') (A')
                 (A") (A') (A") (A') (A") (A") (A') (A") (A') (A')
                 (A") (A') (A') (A') (A") (A') (A") (A') (A') (A")
                 (A') (A')
 The electronic state is 1-A'.
 Alpha  occ. eigenvalues --  -19.11303 -14.31178 -10.21276 -10.21275 -10.18960
 Alpha  occ. eigenvalues --  -10.18959 -10.18570  -1.02582  -0.93214  -0.77447
 Alpha  occ. eigenvalues --   -0.73896  -0.65427  -0.65270  -0.57033  -0.50334
 Alpha  occ. eigenvalues --   -0.49667  -0.49322  -0.45559  -0.43930  -0.43051
 Alpha  occ. eigenvalues --   -0.41386  -0.39017  -0.38751  -0.36142  -0.33709
 Alpha  occ. eigenvalues --   -0.30232  -0.25354  -0.23244
 Alpha virt. eigenvalues --    0.00447   0.01962   0.02063   0.02621   0.03799
 Alpha virt. eigenvalues --    0.04767   0.05126   0.05418   0.05823   0.07437
 Alpha virt. eigenvalues --    0.08341   0.08841   0.09653   0.09826   0.11231
 Alpha virt. eigenvalues --    0.12515   0.12830   0.14315   0.14674   0.15799
 Alpha virt. eigenvalues --    0.16323   0.17288   0.18493   0.19456   0.19680
 Alpha virt. eigenvalues --    0.20834   0.21497   0.22386   0.22522   0.24067
 Alpha virt. eigenvalues --    0.24227   0.25050   0.25317   0.26560   0.26892
 Alpha virt. eigenvalues --    0.27247   0.27567   0.28499   0.28902   0.29977
 Alpha virt. eigenvalues --    0.31979   0.32740   0.32923   0.35880   0.38307
 Alpha virt. eigenvalues --    0.42596   0.43053   0.44313   0.46771   0.48400
 Alpha virt. eigenvalues --    0.49572   0.51784   0.52152   0.52529   0.53367
 Alpha virt. eigenvalues --    0.57952   0.58605   0.60305   0.61643   0.61730
 Alpha virt. eigenvalues --    0.66089   0.66566   0.67631   0.68613   0.69371
 Alpha virt. eigenvalues --    0.69549   0.72305   0.72607   0.74025   0.74472
 Alpha virt. eigenvalues --    0.75261   0.76491   0.79410   0.86246   0.86684
 Alpha virt. eigenvalues --    0.90639   0.97683   0.99461   1.04715   1.04946
 Alpha virt. eigenvalues --    1.07040   1.08560   1.16100   1.18493   1.23023
 Alpha virt. eigenvalues --    1.24444   1.29411   1.30058   1.33869   1.33887
 Alpha virt. eigenvalues --    1.39082   1.43436   1.47215   1.47472   1.48910
 Alpha virt. eigenvalues --    1.53588   1.54248   1.55154   1.57065   1.57795
 Alpha virt. eigenvalues --    1.59232   1.60912   1.61381   1.64079   1.65212
 Alpha virt. eigenvalues --    1.65291   1.67132   1.69692   1.71158   1.71773
 Alpha virt. eigenvalues --    1.75167   1.75326   1.77511   1.79671   1.82732
 Alpha virt. eigenvalues --    1.84690   1.88705   1.89089   1.97149   1.98354
 Alpha virt. eigenvalues --    2.01209   2.07671   2.08958   2.09679   2.10657
 Alpha virt. eigenvalues --    2.18166   2.18501   2.19683   2.21044   2.23330
 Alpha virt. eigenvalues --    2.25846   2.33001   2.39409   2.46467   2.48381
 Alpha virt. eigenvalues --    2.48477   2.49152   2.50275   2.53728   2.55344
 Alpha virt. eigenvalues --    2.56410   2.59343   2.61261   2.62613   2.63278
 Alpha virt. eigenvalues --    2.64268   2.65125   2.65733   2.70620   2.74017
 Alpha virt. eigenvalues --    2.75610   2.80792   2.81870   2.83101   2.89185
 Alpha virt. eigenvalues --    2.89622   2.91015   2.93604   2.95070   3.00669
 Alpha virt. eigenvalues --    3.02714   3.11384   3.16334   3.21695   3.29055
 Alpha virt. eigenvalues --    3.32935   3.53427   3.53628   3.70748   3.74507
 Alpha virt. eigenvalues --    3.80295   3.83786   3.86457   3.94805   3.97466
 Alpha virt. eigenvalues --    4.03134   4.12595   4.18907   4.20833   4.41605
 Alpha virt. eigenvalues --    4.78475   4.89172   5.09725   5.34291   5.73679
 Alpha virt. eigenvalues --   23.87728  23.88212  23.91037  23.99109  23.99934
 Alpha virt. eigenvalues --   35.52886  49.93083
          Condensed to atoms (all electrons):
               1          2          3          4          5          6
     1  C    5.128948   0.427646   0.427646   0.367073  -0.192477  -0.002860
     2  H    0.427646   0.543791  -0.017183  -0.042495   0.005110  -0.003064
     3  H    0.427646  -0.017183   0.543791  -0.042495   0.003159  -0.001303
     4  H    0.367073  -0.042495  -0.042495   0.617991   0.017559   0.019926
     5  C   -0.192477   0.005110   0.003159   0.017559   6.293423   0.473397
     6  H   -0.002860  -0.003064  -0.001303   0.019926   0.473397   0.626617
     7  H   -0.010282   0.005303   0.000667  -0.001480   0.368220  -0.033147
     8  C   -0.031671  -0.000168   0.002047  -0.003866  -0.296654  -0.109104
     9  H    0.005986   0.000015   0.000049   0.000032  -0.047424  -0.012210
    10  H   -0.004901  -0.000195  -0.000039   0.000143  -0.035910   0.010114
    11  C   -0.031671   0.002047  -0.000168  -0.003866   0.179184  -0.024678
    12  H   -0.004901  -0.000039  -0.000195   0.000143  -0.004171   0.000276
    13  H    0.005986   0.000049   0.000015   0.000032   0.001553  -0.000398
    14  C   -0.192477   0.003159   0.005110   0.017559  -0.581364   0.018183
    15  H   -0.010282   0.000667   0.005303  -0.001480   0.023686   0.001855
    16  H   -0.002860  -0.001303  -0.003064   0.019926   0.018183   0.032034
    17  O    0.003344   0.000138   0.000138   0.001130  -0.038251   0.008181
    18  N    0.359902  -0.059061  -0.059061  -0.082602   0.136389  -0.129851
               7          8          9         10         11         12
     1  C   -0.010282  -0.031671   0.005986  -0.004901  -0.031671  -0.004901
     2  H    0.005303  -0.000168   0.000015  -0.000195   0.002047  -0.000039
     3  H    0.000667   0.002047   0.000049  -0.000039  -0.000168  -0.000195
     4  H   -0.001480  -0.003866   0.000032   0.000143  -0.003866   0.000143
     5  C    0.368220  -0.296654  -0.047424  -0.035910   0.179184  -0.004171
     6  H   -0.033147  -0.109104  -0.012210   0.010114  -0.024678   0.000276
     7  H    0.539446   0.017383   0.002390  -0.009160  -0.002850   0.000174
     8  C    0.017383   5.569349   0.395230   0.436253  -0.131317   0.016650
     9  H    0.002390   0.395230   0.618708  -0.051238  -0.010327  -0.001590
    10  H   -0.009160   0.436253  -0.051238   0.569145   0.016650   0.000424
    11  C   -0.002850  -0.131317  -0.010327   0.016650   5.569349   0.436253
    12  H    0.000174   0.016650  -0.001590   0.000424   0.436253   0.569145
    13  H    0.000052  -0.010327   0.006887  -0.001590   0.395230  -0.051238
    14  C    0.023686   0.179184   0.001553  -0.004171  -0.296654  -0.035910
    15  H   -0.000509  -0.002850   0.000052   0.000174   0.017383  -0.009160
    16  H    0.001855  -0.024678  -0.000398   0.000276  -0.109104   0.010114
    17  O    0.006008   0.229951  -0.069047  -0.061441   0.229951  -0.061441
    18  N   -0.051753  -0.074282   0.025977  -0.014193  -0.074282  -0.014193
              13         14         15         16         17         18
     1  C    0.005986  -0.192477  -0.010282  -0.002860   0.003344   0.359902
     2  H    0.000049   0.003159   0.000667  -0.001303   0.000138  -0.059061
     3  H    0.000015   0.005110   0.005303  -0.003064   0.000138  -0.059061
     4  H    0.000032   0.017559  -0.001480   0.019926   0.001130  -0.082602
     5  C    0.001553  -0.581364   0.023686   0.018183  -0.038251   0.136389
     6  H   -0.000398   0.018183   0.001855   0.032034   0.008181  -0.129851
     7  H    0.000052   0.023686  -0.000509   0.001855   0.006008  -0.051753
     8  C   -0.010327   0.179184  -0.002850  -0.024678   0.229951  -0.074282
     9  H    0.006887   0.001553   0.000052  -0.000398  -0.069047   0.025977
    10  H   -0.001590  -0.004171   0.000174   0.000276  -0.061441  -0.014193
    11  C    0.395230  -0.296654   0.017383  -0.109104   0.229951  -0.074282
    12  H   -0.051238  -0.035910  -0.009160   0.010114  -0.061441  -0.014193
    13  H    0.618708  -0.047424   0.002390  -0.012210  -0.069047   0.025977
    14  C   -0.047424   6.293423   0.368220   0.473397  -0.038251   0.136389
    15  H    0.002390   0.368220   0.539446  -0.033147   0.006008  -0.051753
    16  H   -0.012210   0.473397  -0.033147   0.626617   0.008181  -0.129851
    17  O   -0.069047  -0.038251   0.006008   0.008181   8.089795   0.025411
    18  N    0.025977   0.136389  -0.051753  -0.129851   0.025411   7.046459
 Mulliken charges:
               1
     1  C   -0.242149
     2  H    0.135583
     3  H    0.135583
     4  H    0.116770
     5  C   -0.323612
     6  H    0.126032
     7  H    0.143997
     8  C   -0.161132
     9  H    0.135354
    10  H    0.149657
    11  C   -0.161132
    12  H    0.149657
    13  H    0.135354
    14  C   -0.323612
    15  H    0.143997
    16  H    0.126032
    17  O   -0.270757
    18  N   -0.015622
 Sum of Mulliken charges =   0.00000
 Mulliken charges with hydrogens summed into heavy atoms:
               1
     1  C    0.145786
     5  C   -0.053583
     8  C    0.123879
    11  C    0.123879
    14  C   -0.053583
    17  O   -0.270757
    18  N   -0.015622
 Electronic spatial extent (au):  <R**2>=            760.8361
 Charge=              0.0000 electrons
 Dipole moment (field-independent basis, Debye):
    X=             -1.1809    Y=              1.9717    Z=              0.0000  Tot=              2.2982
 Quadrupole moment (field-independent basis, Debye-Ang):
   XX=            -45.9886   YY=            -48.0114   ZZ=            -39.7265
   XY=              1.8390   XZ=              0.0000   YZ=              0.0000
 Traceless Quadrupole moment (field-independent basis, Debye-Ang):
   XX=             -1.4131   YY=             -3.4359   ZZ=              4.8490
   XY=              1.8390   XZ=              0.0000   YZ=              0.0000
 Octapole moment (field-independent basis, Debye-Ang**2):
  XXX=             -1.2252  YYY=              9.1222  ZZZ=              0.0000  XYY=              3.1282
  XXY=             -2.2075  XXZ=              0.0000  XZZ=              2.7300  YZZ=             -5.0250
  YYZ=              0.0000  XYZ=              0.0000
 Hexadecapole moment (field-independent basis, Debye-Ang**3):
 XXXX=           -143.9824 YYYY=           -600.0175 ZZZZ=           -312.2807 XXXY=            -53.3259
 XXXZ=              0.0000 YYYX=            -48.1275 YYYZ=              0.0000 ZZZX=              0.0000
 ZZZY=              0.0000 XXYY=           -113.2680 XXZZ=            -75.1452 YYZZ=           -140.1927
 XXYZ=              0.0000 YYXZ=              0.0000 ZZXY=            -16.0270
 N-N= 3.402931303593D+02 E-N=-1.443272722017D+03  KE= 3.261852600924D+02
 Symmetry A'   KE= 2.402224331786D+02
 Symmetry A"   KE= 8.596282691389D+01
 There are a total of      147922 grid points.
 ElSum from          density=       55.9998873836
 ElSum from atomic densities=       55.9996526928

 Hirshfeld populations at iteration   1 (CX, CA, CB, DipXYZ):
               1          2          3          4          5          6
     1  C    0.000000   3.022674   3.022674   0.007047  -0.019284   0.000000
     2  H    0.000001   0.477984   0.477984   0.080197   0.042358   0.120763
     3  H    0.000001   0.477984   0.477984   0.080197   0.042358  -0.120763
     4  H    0.000001   0.488064   0.488064  -0.107534   0.061044   0.000000
     5  C    0.000000   3.009166   3.009166   0.033091  -0.004586   0.012496
     6  H    0.000000   0.491227   0.491227  -0.111171   0.033718  -0.023944
     7  H    0.000000   0.479525   0.479525   0.037436   0.050353   0.134424
     8  C    0.000000   2.989689   2.989689   0.000004  -0.019432  -0.046889
     9  H    0.000001   0.483024   0.483024  -0.125623  -0.034804   0.063379
    10  H    0.000001   0.478459   0.478459   0.108282  -0.041388   0.103312
    11  C    0.000000   2.989689   2.989689   0.000004  -0.019432   0.046889
    12  H    0.000001   0.478459   0.478459   0.108282  -0.041388  -0.103312
    13  H    0.000001   0.483024   0.483024  -0.125623  -0.034804  -0.063379
    14  C    0.000000   3.009166   3.009166   0.033091  -0.004586  -0.012496
    15  H    0.000000   0.479525   0.479525   0.037436   0.050353  -0.134424
    16  H    0.000000   0.491227   0.491227  -0.111171   0.033718   0.023944
    17  O    0.000001   4.095689   4.095689  -0.086720   0.188302   0.000000
    18  N    0.000000   3.575368   3.575368  -0.137279   0.091451   0.000000
       Tot   0.000007  27.999944  27.999944  -0.280055   0.373950   0.000000

 Dip from Atomic Chgs             -0.185268   0.401094   0.000000
         Total Dipole             -0.465322   0.775044   0.000000

 Hirshfeld charges, spin densities, dipoles, and CM5 charges using IRadAn=      4:
              Q-H        S-H        Dx         Dy         Dz        Q-CM5   
     1  C   -0.045349   0.000000   0.007047  -0.019284   0.000000  -0.145593
     2  H    0.044031   0.000000   0.080197   0.042358   0.120763   0.108114
     3  H    0.044031   0.000000   0.080197   0.042358  -0.120763   0.108114
     4  H    0.023871   0.000000  -0.107534   0.061044   0.000000   0.089094
     5  C   -0.018332   0.000000   0.033091  -0.004586   0.012496  -0.075547
     6  H    0.017546   0.000000  -0.111171   0.033718  -0.023944   0.091970
     7  H    0.040950   0.000000   0.037436   0.050353   0.134424   0.108017
     8  C    0.020621   0.000000   0.000004  -0.019432  -0.046889  -0.062355
     9  H    0.033951   0.000000  -0.125623  -0.034804   0.063379   0.098852
    10  H    0.043083   0.000000   0.108282  -0.041388   0.103312   0.111473
    11  C    0.020621   0.000000   0.000004  -0.019432   0.046889  -0.062355
    12  H    0.043083   0.000000   0.108282  -0.041388  -0.103312   0.111473
    13  H    0.033951   0.000000  -0.125623  -0.034804  -0.063379   0.098852
    14  C   -0.018332   0.000000   0.033091  -0.004586  -0.012496  -0.075547
    15  H    0.040950   0.000000   0.037436   0.050353  -0.134424   0.108017
    16  H    0.017546   0.000000  -0.111171   0.033718   0.023944   0.091970
    17  O   -0.191378   0.000000  -0.086720   0.188302   0.000000  -0.285359
    18  N   -0.150736   0.000000  -0.137279   0.091451   0.000000  -0.419077
       Tot   0.000113   0.000000  -0.280055   0.373950   0.000000   0.000113
 Hirshfeld charges with hydrogens summed into heavy atoms:
              Q-H       Q-CM5   
     1  C    0.066586   0.159730
     5  C    0.040165   0.124440
     8  C    0.097655   0.147970
    11  C    0.097655   0.147970
    14  C    0.040165   0.124440
    17  O   -0.191378  -0.285359
    18  N   -0.150736  -0.419077
 
 EQQ= 0.000000000000E+00 EQD= 0.000000000000E+00 EDD=-0.265982616387E-02
 EQQ+QD+DD=-0.265982616387E-02
 
          MBS Condensed to atoms (all electrons):
               1          2          3          4          5          6
     1  C    4.760679   0.383979   0.383979   0.367637  -0.031041  -0.002535
     2  H    0.383979   0.579005  -0.022128  -0.025692  -0.002658  -0.000232
     3  H    0.383979  -0.022128   0.579005  -0.025692   0.002102  -0.000082
     4  H    0.367637  -0.025692  -0.025692   0.636690  -0.004609   0.003722
     5  C   -0.031041  -0.002658   0.002102  -0.004609   4.812673   0.371497
     6  H   -0.002535  -0.000232  -0.000082   0.003722   0.371497   0.655875
     7  H   -0.003840   0.001278   0.000054  -0.000194   0.376029  -0.025095
     8  C    0.001094   0.000027  -0.000035  -0.000034   0.355071  -0.027513
     9  H   -0.000030  -0.000001   0.000001   0.000004  -0.027482  -0.004322
    10  H   -0.000009  -0.000001   0.000000   0.000003  -0.021951   0.002291
    11  C    0.001094  -0.000035   0.000027  -0.000034  -0.005642  -0.000477
    12  H   -0.000009   0.000000  -0.000001   0.000003   0.000035   0.000019
    13  H   -0.000030   0.000001  -0.000001   0.000004  -0.000199   0.000091
    14  C   -0.031041   0.002102  -0.002658  -0.004609  -0.053808  -0.022779
    15  H   -0.003840   0.000054   0.001278  -0.000194   0.003030   0.000580
    16  H   -0.002535  -0.000082  -0.000232   0.003722  -0.022779   0.011264
    17  O    0.000014   0.000001   0.000001  -0.000001  -0.017904   0.000069
    18  N    0.329357  -0.021525  -0.021525  -0.025000   0.327630  -0.032039
               7          8          9         10         11         12
     1  C   -0.003840   0.001094  -0.000030  -0.000009   0.001094  -0.000009
     2  H    0.001278   0.000027  -0.000001  -0.000001  -0.000035   0.000000
     3  H    0.000054  -0.000035   0.000001   0.000000   0.000027  -0.000001
     4  H   -0.000194  -0.000034   0.000004   0.000003  -0.000034   0.000003
     5  C    0.376029   0.355071  -0.027482  -0.021951  -0.005642   0.000035
     6  H   -0.025095  -0.027513  -0.004322   0.002291  -0.000477   0.000019
     7  H    0.597791  -0.021478   0.000941  -0.004973   0.000073   0.000004
     8  C   -0.021478   4.692471   0.369378   0.382436  -0.028852   0.002059
     9  H    0.000941   0.369378   0.615276  -0.029142   0.000227  -0.000087
    10  H   -0.004973   0.382436  -0.029142   0.577352   0.002059  -0.000054
    11  C    0.000073  -0.028852   0.000227   0.002059   4.692471   0.382436
    12  H    0.000004   0.002059  -0.000087  -0.000054   0.382436   0.577352
    13  H    0.000005   0.000227   0.000556  -0.000087   0.369378  -0.029142
    14  C    0.003030  -0.005642  -0.000199   0.000035   0.355071  -0.021951
    15  H   -0.000118   0.000073   0.000005   0.000004  -0.021478  -0.004973
    16  H    0.000580  -0.000477   0.000091   0.000019  -0.027513   0.002291
    17  O    0.000678   0.276105  -0.017659  -0.023664   0.276105  -0.023664
    18  N   -0.017867  -0.021621   0.001139  -0.000090  -0.021621  -0.000090
              13         14         15         16         17         18
     1  C   -0.000030  -0.031041  -0.003840  -0.002535   0.000014   0.329357
     2  H    0.000001   0.002102   0.000054  -0.000082   0.000001  -0.021525
     3  H   -0.000001  -0.002658   0.001278  -0.000232   0.000001  -0.021525
     4  H    0.000004  -0.004609  -0.000194   0.003722  -0.000001  -0.025000
     5  C   -0.000199  -0.053808   0.003030  -0.022779  -0.017904   0.327630
     6  H    0.000091  -0.022779   0.000580   0.011264   0.000069  -0.032039
     7  H    0.000005   0.003030  -0.000118   0.000580   0.000678  -0.017867
     8  C    0.000227  -0.005642   0.000073  -0.000477   0.276105  -0.021621
     9  H    0.000556  -0.000199   0.000005   0.000091  -0.017659   0.001139
    10  H   -0.000087   0.000035   0.000004   0.000019  -0.023664  -0.000090
    11  C    0.369378   0.355071  -0.021478  -0.027513   0.276105  -0.021621
    12  H   -0.029142  -0.021951  -0.004973   0.002291  -0.023664  -0.000090
    13  H    0.615276  -0.027482   0.000941  -0.004322  -0.017659   0.001139
    14  C   -0.027482   4.812673   0.376029   0.371497  -0.017904   0.327630
    15  H    0.000941   0.376029   0.597791  -0.025095   0.000678  -0.017867
    16  H   -0.004322   0.371497  -0.025095   0.655875   0.000069  -0.032039
    17  O   -0.017659  -0.017904   0.000678   0.000069   8.015903  -0.001745
    18  N    0.001139   0.327630  -0.017867  -0.032039  -0.001745   6.583004
 MBS Mulliken charges:
               1
     1  C   -0.152927
     2  H    0.105908
     3  H    0.105908
     4  H    0.074276
     5  C   -0.059995
     6  H    0.069667
     7  H    0.093101
     8  C    0.026711
     9  H    0.091305
    10  H    0.115774
    11  C    0.026711
    12  H    0.115774
    13  H    0.091305
    14  C   -0.059995
    15  H    0.093101
    16  H    0.069667
    17  O   -0.449423
    18  N   -0.356868
 Sum of MBS Mulliken charges =   0.00000
 MBS Mulliken charges with hydrogens summed into heavy atoms:
               1
     1  C    0.133165
     5  C    0.102773
     8  C    0.233790
    11  C    0.233790
    14  C    0.102773
    17  O   -0.449423
    18  N   -0.356868
 Breneman (CHELPG) radii used.
 Generate Potential Derived Charges using the Breneman model, NDens= 1.
 Grid spacing= 0.300 Box extension= 2.800
 NStep X,Y,Z=   28     35     34   Total possible points=       33320
 Number of Points to Fit=   11178

 **********************************************************************

            Electrostatic Properties Using The SCF Density

 **********************************************************************

       Atomic Center    1 is at   0.794574  2.240121  0.000000
       Atomic Center    2 is at   1.346548  2.517535  0.873651
       Atomic Center    3 is at   1.346548  2.517535 -0.873651
       Atomic Center    4 is at  -0.149722  2.743317  0.000000
       Atomic Center    5 is at  -0.299820  0.368601  1.104057
       Atomic Center    6 is at  -1.274717  0.705438  0.819420
       Atomic Center    7 is at  -0.029395  0.797188  2.046439
       Atomic Center    8 is at  -0.299820 -1.164241  1.251669
       Atomic Center    9 is at  -1.244139 -1.457460  1.660552
       Atomic Center   10 is at   0.488978 -1.473191  1.905311
       Atomic Center   11 is at  -0.299820 -1.164241 -1.251669
       Atomic Center   12 is at   0.488978 -1.473191 -1.905311
       Atomic Center   13 is at  -1.244139 -1.457460 -1.660552
       Atomic Center   14 is at  -0.299820  0.368601 -1.104057
       Atomic Center   15 is at  -0.029395  0.797188 -2.046439
       Atomic Center   16 is at  -1.274717  0.705438 -0.819420
       Atomic Center   17 is at  -0.002907 -1.790178  0.000000
       Atomic Center   18 is at   0.575239  0.786577  0.000000
   11178 points will be used for fitting atomic charges
 Fitting point charges to electrostatic potential
 Charges from ESP fit, RMS=   0.00335 RRMS=   0.24245:
 ESP charges:
               1
     1  C   -0.168397
     2  H    0.110774
     3  H    0.110774
     4  H    0.054902
     5  C    0.048859
     6  H    0.011972
     7  H    0.040860
     8  C    0.346779
     9  H   -0.034391
    10  H   -0.008773
    11  C    0.346779
    12  H   -0.008773
    13  H   -0.034391
    14  C    0.048859
    15  H    0.040860
    16  H    0.011972
    17  O   -0.535131
    18  N   -0.383536
 Sum of ESP charges =   0.00000
 ESP charges with hydrogens summed into heavy atoms:
               1
     1  C    0.108054
     5  C    0.101691
     8  C    0.303615
    11  C    0.303615
    14  C    0.101691
    17  O   -0.535131
    18  N   -0.383536
 Charge=   0.00000 Dipole=    -1.2293     2.0372     0.0000 Tot=     2.3793
 -----------------------------------------------------------------

              Electrostatic Properties (Atomic Units)

 -----------------------------------------------------------------
    Center     Electric         -------- Electric Field --------
               Potential          X             Y             Z
 -----------------------------------------------------------------
    1 Atom    -14.761703
    2 Atom     -1.117681
    3 Atom     -1.117681
    4 Atom     -1.124048
    5 Atom    -14.758683
    6 Atom     -1.127545
    7 Atom     -1.117044
    8 Atom    -14.733224
    9 Atom     -1.126623
   10 Atom     -1.128924
   11 Atom    -14.733224
   12 Atom     -1.128924
   13 Atom     -1.126623
   14 Atom    -14.758683
   15 Atom     -1.117044
   16 Atom     -1.127545
   17 Atom    -22.380296
   18 Atom    -18.401620
 -----------------------------------------------------------------
 ******************************Gaussian NBO Version 3.1******************************
             N A T U R A L   A T O M I C   O R B I T A L   A N D
          N A T U R A L   B O N D   O R B I T A L   A N A L Y S I S
 ******************************Gaussian NBO Version 3.1******************************
       /RESON  / : Allow strongly delocalized NBO set

 Analyzing the SCF density

 Job title: Title Card Required                                             

 Storage needed:    146410 in NPA ( 104855800 available)


 NATURAL POPULATIONS:  Natural atomic orbital occupancies 
                                                          
   NAO  Atom  No  lang   Type(AO)    Occupancy      Energy
 ----------------------------------------------------------
     1    C    1  S      Cor( 1S)     1.99930     -10.04302
     2    C    1  S      Val( 2S)     1.05436      -0.22717
     3    C    1  S      Ryd( 4S)     0.00082       0.98630
     4    C    1  S      Ryd( 3S)     0.00012       0.89861
     5    C    1  S      Ryd( 5S)     0.00001      23.08341
     6    C    1  px     Val( 2p)     1.19019      -0.09247
     7    C    1  px     Ryd( 3p)     0.00150       0.61229
     8    C    1  px     Ryd( 4p)     0.00050       0.83217
     9    C    1  px     Ryd( 5p)     0.00002       2.46276
    10    C    1  py     Val( 2p)     0.87756      -0.06787
    11    C    1  py     Ryd( 3p)     0.00191       0.56721
    12    C    1  py     Ryd( 4p)     0.00026       0.82007
    13    C    1  py     Ryd( 5p)     0.00012       2.44481
    14    C    1  pz     Val( 2p)     1.21255      -0.09587
    15    C    1  pz     Ryd( 3p)     0.00261       0.65776
    16    C    1  pz     Ryd( 4p)     0.00006       0.86899
    17    C    1  pz     Ryd( 5p)     0.00004       2.43896
    18    C    1  dxy    Ryd( 3d)     0.00153       2.07089
    19    C    1  dxz    Ryd( 3d)     0.00076       2.17974
    20    C    1  dyz    Ryd( 3d)     0.00075       1.89807
    21    C    1  dx2y2  Ryd( 3d)     0.00117       2.11398
    22    C    1  dz2    Ryd( 3d)     0.00086       2.17209

    23    H    2  S      Val( 1S)     0.80554       0.03932
    24    H    2  S      Ryd( 2S)     0.00061       0.45270
    25    H    2  S      Ryd( 3S)     0.00022       2.21961
    26    H    2  px     Ryd( 2p)     0.00018       2.08637
    27    H    2  py     Ryd( 2p)     0.00008       1.80079
    28    H    2  pz     Ryd( 2p)     0.00031       2.42175

    29    H    3  S      Val( 1S)     0.80554       0.03932
    30    H    3  S      Ryd( 2S)     0.00061       0.45270
    31    H    3  S      Ryd( 3S)     0.00022       2.21961
    32    H    3  px     Ryd( 2p)     0.00018       2.08637
    33    H    3  py     Ryd( 2p)     0.00008       1.80079
    34    H    3  pz     Ryd( 2p)     0.00031       2.42175

    35    H    4  S      Val( 1S)     0.83678       0.02678
    36    H    4  S      Ryd( 2S)     0.00213       0.82153
    37    H    4  S      Ryd( 3S)     0.00023       1.82615
    38    H    4  px     Ryd( 2p)     0.00035       2.51295
    39    H    4  py     Ryd( 2p)     0.00017       1.96521
    40    H    4  pz     Ryd( 2p)     0.00012       1.81183

    41    C    5  S      Cor( 1S)     1.99922     -10.05025
    42    C    5  S      Val( 2S)     1.00640      -0.21776
    43    C    5  S      Ryd( 3S)     0.00215       1.07933
    44    C    5  S      Ryd( 4S)     0.00025       1.37560
    45    C    5  S      Ryd( 5S)     0.00001      22.77036
    46    C    5  px     Val( 2p)     1.05475      -0.07937
    47    C    5  px     Ryd( 4p)     0.00251       0.58659
    48    C    5  px     Ryd( 3p)     0.00053       0.27829
    49    C    5  px     Ryd( 5p)     0.00020       3.10306
    50    C    5  py     Val( 2p)     1.07111      -0.09638
    51    C    5  py     Ryd( 4p)     0.00152       0.66844
    52    C    5  py     Ryd( 3p)     0.00049       0.35327
    53    C    5  py     Ryd( 5p)     0.00015       3.02366
    54    C    5  pz     Val( 2p)     1.05046      -0.07429
    55    C    5  pz     Ryd( 4p)     0.00386       0.77910
    56    C    5  pz     Ryd( 3p)     0.00045       0.26997
    57    C    5  pz     Ryd( 5p)     0.00012       3.13422
    58    C    5  dxy    Ryd( 3d)     0.00080       1.93280
    59    C    5  dxz    Ryd( 3d)     0.00123       2.12913
    60    C    5  dyz    Ryd( 3d)     0.00106       2.03931
    61    C    5  dx2y2  Ryd( 3d)     0.00114       2.24914
    62    C    5  dz2    Ryd( 3d)     0.00132       2.17928

    63    H    6  S      Val( 1S)     0.84434       0.03032
    64    H    6  S      Ryd( 2S)     0.00290       1.13143
    65    H    6  S      Ryd( 3S)     0.00026       1.62514
    66    H    6  px     Ryd( 2p)     0.00031       2.66321
    67    H    6  py     Ryd( 2p)     0.00018       1.97359
    68    H    6  pz     Ryd( 2p)     0.00027       1.92470

    69    H    7  S      Val( 1S)     0.80154       0.04567
    70    H    7  S      Ryd( 2S)     0.00072       0.68481
    71    H    7  S      Ryd( 3S)     0.00035       2.05994
    72    H    7  px     Ryd( 2p)     0.00015       1.86438
    73    H    7  py     Ryd( 2p)     0.00030       1.95796
    74    H    7  pz     Ryd( 2p)     0.00031       2.56293

    75    C    8  S      Cor( 1S)     1.99916     -10.08386
    76    C    8  S      Val( 2S)     1.00152      -0.22389
    77    C    8  S      Ryd( 4S)     0.00163       0.98586
    78    C    8  S      Ryd( 3S)     0.00034       0.76297
    79    C    8  S      Ryd( 5S)     0.00001      23.14093
    80    C    8  px     Val( 2p)     1.17018      -0.07913
    81    C    8  px     Ryd( 4p)     0.00258       0.80842
    82    C    8  px     Ryd( 3p)     0.00030       0.23857
    83    C    8  px     Ryd( 5p)     0.00010       2.99946
    84    C    8  py     Val( 2p)     0.97418      -0.07502
    85    C    8  py     Ryd( 4p)     0.00338       0.70486
    86    C    8  py     Ryd( 3p)     0.00084       0.29900
    87    C    8  py     Ryd( 5p)     0.00018       2.79213
    88    C    8  pz     Val( 2p)     0.84092      -0.06720
    89    C    8  pz     Ryd( 4p)     0.00307       0.64188
    90    C    8  pz     Ryd( 3p)     0.00034       0.26705
    91    C    8  pz     Ryd( 5p)     0.00014       2.91289
    92    C    8  dxy    Ryd( 3d)     0.00069       1.93846
    93    C    8  dxz    Ryd( 3d)     0.00168       2.18170
    94    C    8  dyz    Ryd( 3d)     0.00154       2.00735
    95    C    8  dx2y2  Ryd( 3d)     0.00103       2.28978
    96    C    8  dz2    Ryd( 3d)     0.00171       2.06857

    97    H    9  S      Val( 1S)     0.84062       0.02458
    98    H    9  S      Ryd( 2S)     0.00140       0.73479
    99    H    9  S      Ryd( 3S)     0.00015       2.08687
   100    H    9  px     Ryd( 2p)     0.00037       2.54551
   101    H    9  py     Ryd( 2p)     0.00036       1.86470
   102    H    9  pz     Ryd( 2p)     0.00010       2.03399

   103    H   10  S      Val( 1S)     0.81966       0.03810
   104    H   10  S      Ryd( 2S)     0.00114       0.89673
   105    H   10  S      Ryd( 3S)     0.00026       1.89417
   106    H   10  px     Ryd( 2p)     0.00032       2.32648
   107    H   10  py     Ryd( 2p)     0.00028       1.88447
   108    H   10  pz     Ryd( 2p)     0.00013       2.21561

   109    C   11  S      Cor( 1S)     1.99916     -10.08386
   110    C   11  S      Val( 2S)     1.00152      -0.22389
   111    C   11  S      Ryd( 4S)     0.00163       0.98586
   112    C   11  S      Ryd( 3S)     0.00034       0.76297
   113    C   11  S      Ryd( 5S)     0.00001      23.14093
   114    C   11  px     Val( 2p)     1.17018      -0.07913
   115    C   11  px     Ryd( 4p)     0.00258       0.80842
   116    C   11  px     Ryd( 3p)     0.00030       0.23857
   117    C   11  px     Ryd( 5p)     0.00010       2.99946
   118    C   11  py     Val( 2p)     0.97418      -0.07502
   119    C   11  py     Ryd( 4p)     0.00338       0.70486
   120    C   11  py     Ryd( 3p)     0.00084       0.29900
   121    C   11  py     Ryd( 5p)     0.00018       2.79213
   122    C   11  pz     Val( 2p)     0.84092      -0.06720
   123    C   11  pz     Ryd( 4p)     0.00307       0.64188
   124    C   11  pz     Ryd( 3p)     0.00034       0.26705
   125    C   11  pz     Ryd( 5p)     0.00014       2.91289
   126    C   11  dxy    Ryd( 3d)     0.00069       1.93846
   127    C   11  dxz    Ryd( 3d)     0.00168       2.18170
   128    C   11  dyz    Ryd( 3d)     0.00154       2.00735
   129    C   11  dx2y2  Ryd( 3d)     0.00103       2.28978
   130    C   11  dz2    Ryd( 3d)     0.00171       2.06857

   131    H   12  S      Val( 1S)     0.81966       0.03810
   132    H   12  S      Ryd( 2S)     0.00114       0.89673
   133    H   12  S      Ryd( 3S)     0.00026       1.89417
   134    H   12  px     Ryd( 2p)     0.00032       2.32648
   135    H   12  py     Ryd( 2p)     0.00028       1.88447
   136    H   12  pz     Ryd( 2p)     0.00013       2.21561

   137    H   13  S      Val( 1S)     0.84062       0.02458
   138    H   13  S      Ryd( 2S)     0.00140       0.73479
   139    H   13  S      Ryd( 3S)     0.00015       2.08687
   140    H   13  px     Ryd( 2p)     0.00037       2.54551
   141    H   13  py     Ryd( 2p)     0.00036       1.86470
   142    H   13  pz     Ryd( 2p)     0.00010       2.03399

   143    C   14  S      Cor( 1S)     1.99922     -10.05025
   144    C   14  S      Val( 2S)     1.00640      -0.21776
   145    C   14  S      Ryd( 3S)     0.00215       1.07933
   146    C   14  S      Ryd( 4S)     0.00025       1.37560
   147    C   14  S      Ryd( 5S)     0.00001      22.77036
   148    C   14  px     Val( 2p)     1.05475      -0.07937
   149    C   14  px     Ryd( 4p)     0.00251       0.58659
   150    C   14  px     Ryd( 3p)     0.00053       0.27829
   151    C   14  px     Ryd( 5p)     0.00020       3.10306
   152    C   14  py     Val( 2p)     1.07111      -0.09638
   153    C   14  py     Ryd( 4p)     0.00152       0.66844
   154    C   14  py     Ryd( 3p)     0.00049       0.35327
   155    C   14  py     Ryd( 5p)     0.00015       3.02366
   156    C   14  pz     Val( 2p)     1.05046      -0.07429
   157    C   14  pz     Ryd( 4p)     0.00386       0.77910
   158    C   14  pz     Ryd( 3p)     0.00045       0.26997
   159    C   14  pz     Ryd( 5p)     0.00012       3.13422
   160    C   14  dxy    Ryd( 3d)     0.00080       1.93280
   161    C   14  dxz    Ryd( 3d)     0.00123       2.12913
   162    C   14  dyz    Ryd( 3d)     0.00106       2.03931
   163    C   14  dx2y2  Ryd( 3d)     0.00114       2.24914
   164    C   14  dz2    Ryd( 3d)     0.00132       2.17928

   165    H   15  S      Val( 1S)     0.80154       0.04567
   166    H   15  S      Ryd( 2S)     0.00072       0.68481
   167    H   15  S      Ryd( 3S)     0.00035       2.05994
   168    H   15  px     Ryd( 2p)     0.00015       1.86438
   169    H   15  py     Ryd( 2p)     0.00030       1.95796
   170    H   15  pz     Ryd( 2p)     0.00031       2.56293

   171    H   16  S      Val( 1S)     0.84434       0.03032
   172    H   16  S      Ryd( 2S)     0.00290       1.13143
   173    H   16  S      Ryd( 3S)     0.00026       1.62514
   174    H   16  px     Ryd( 2p)     0.00031       2.66321
   175    H   16  py     Ryd( 2p)     0.00018       1.97359
   176    H   16  pz     Ryd( 2p)     0.00027       1.92470

   177    O   17  S      Cor( 1S)     1.99978     -18.92681
   178    O   17  S      Val( 2S)     1.60848      -0.83705
   179    O   17  S      Ryd( 3S)     0.00449       0.73242
   180    O   17  S      Ryd( 4S)     0.00043       1.56256
   181    O   17  S      Ryd( 5S)     0.00000      49.58996
   182    O   17  px     Val( 2p)     1.87447      -0.28192
   183    O   17  px     Ryd( 3p)     0.00291       0.68119
   184    O   17  px     Ryd( 4p)     0.00041       0.83578
   185    O   17  px     Ryd( 5p)     0.00001       5.01400
   186    O   17  py     Val( 2p)     1.77049      -0.28960
   187    O   17  py     Ryd( 3p)     0.00412       0.79048
   188    O   17  py     Ryd( 4p)     0.00036       0.90531
   189    O   17  py     Ryd( 5p)     0.00004       5.07241
   190    O   17  pz     Val( 2p)     1.33064      -0.26536
   191    O   17  pz     Ryd( 4p)     0.00212       1.06693
   192    O   17  pz     Ryd( 3p)     0.00035       0.85153
   193    O   17  pz     Ryd( 5p)     0.00002       5.24403
   194    O   17  dxy    Ryd( 3d)     0.00069       2.99162
   195    O   17  dxz    Ryd( 3d)     0.00040       3.14013
   196    O   17  dyz    Ryd( 3d)     0.00090       3.43045
   197    O   17  dx2y2  Ryd( 3d)     0.00070       2.99166
   198    O   17  dz2    Ryd( 3d)     0.00052       3.42570

   199    N   18  S      Cor( 1S)     1.99944     -14.14691
   200    N   18  S      Val( 2S)     1.32102      -0.52800
   201    N   18  S      Ryd( 3S)     0.01460       0.66973
   202    N   18  S      Ryd( 4S)     0.00082       1.58125
   203    N   18  S      Ryd( 5S)     0.00000      35.22288
   204    N   18  px     Val( 2p)     1.61563      -0.21724
   205    N   18  px     Ryd( 4p)     0.00628       0.76607
   206    N   18  px     Ryd( 3p)     0.00068       0.53810
   207    N   18  px     Ryd( 5p)     0.00003       4.08851
   208    N   18  py     Val( 2p)     1.34659      -0.19939
   209    N   18  py     Ryd( 4p)     0.00465       0.94403
   210    N   18  py     Ryd( 3p)     0.00136       0.59798
   211    N   18  py     Ryd( 5p)     0.00002       4.27963
   212    N   18  pz     Val( 2p)     1.23400      -0.18705
   213    N   18  pz     Ryd( 4p)     0.00241       0.77547
   214    N   18  pz     Ryd( 3p)     0.00130       0.54861
   215    N   18  pz     Ryd( 5p)     0.00001       4.19982
   216    N   18  dxy    Ryd( 3d)     0.00098       2.44819
   217    N   18  dxz    Ryd( 3d)     0.00145       2.76755
   218    N   18  dyz    Ryd( 3d)     0.00032       2.41656
   219    N   18  dx2y2  Ryd( 3d)     0.00134       2.70723
   220    N   18  dz2    Ryd( 3d)     0.00071       2.51041

 WARNING:  Population inversion found on atom  C    1
           Population inversion found on atom  C    5
           Population inversion found on atom  C    8
           Population inversion found on atom  C   11
           Population inversion found on atom  C   14
           Population inversion found on atom  O   17
           Population inversion found on atom  N   18


 Summary of Natural Population Analysis:                  
                                                          
                                       Natural Population 
                Natural  -----------------------------------------------
    Atom  No    Charge         Core      Valence    Rydberg      Total
 -----------------------------------------------------------------------
      C    1   -0.34701      1.99930     4.33467    0.01303     6.34701
      H    2    0.19306      0.00000     0.80554    0.00139     0.80694
      H    3    0.19306      0.00000     0.80554    0.00139     0.80694
      H    4    0.16022      0.00000     0.83678    0.00301     0.83978
      C    5   -0.19972      1.99922     4.18272    0.01778     6.19972
      H    6    0.15175      0.00000     0.84434    0.00392     0.84825
      H    7    0.19663      0.00000     0.80154    0.00183     0.80337
      C    8   -0.00554      1.99916     3.98681    0.01957     6.00554
      H    9    0.15700      0.00000     0.84062    0.00238     0.84300
      H   10    0.17820      0.00000     0.81966    0.00214     0.82180
      C   11   -0.00554      1.99916     3.98681    0.01957     6.00554
      H   12    0.17820      0.00000     0.81966    0.00214     0.82180
      H   13    0.15700      0.00000     0.84062    0.00238     0.84300
      C   14   -0.19972      1.99922     4.18272    0.01778     6.19972
      H   15    0.19663      0.00000     0.80154    0.00183     0.80337
      H   16    0.15175      0.00000     0.84434    0.00392     0.84825
      O   17   -0.60234      1.99978     6.58408    0.01847     8.60234
      N   18   -0.55365      1.99944     5.51725    0.03696     7.55365
 =======================================================================
   * Total *    0.00000     13.99530    41.83523    0.16948    56.00000

                                 Natural Population      
 --------------------------------------------------------
   Core                      13.99530 ( 99.9664% of  14)
   Valence                   41.83523 ( 99.6077% of  42)
   Natural Minimal Basis     55.83052 ( 99.6974% of  56)
   Natural Rydberg Basis      0.16948 (  0.3026% of  56)
 --------------------------------------------------------

    Atom  No          Natural Electron Configuration
 ----------------------------------------------------------------------------
      C    1      [core]2S( 1.05)2p( 3.28)3p( 0.01)3d( 0.01)
      H    2            1S( 0.81)
      H    3            1S( 0.81)
      H    4            1S( 0.84)
      C    5      [core]2S( 1.01)2p( 3.18)3d( 0.01)4p( 0.01)
      H    6            1S( 0.84)
      H    7            1S( 0.80)
      C    8      [core]2S( 1.00)2p( 2.99)3d( 0.01)4p( 0.01)
      H    9            1S( 0.84)
      H   10            1S( 0.82)
      C   11      [core]2S( 1.00)2p( 2.99)3d( 0.01)4p( 0.01)
      H   12            1S( 0.82)
      H   13            1S( 0.84)
      C   14      [core]2S( 1.01)2p( 3.18)3d( 0.01)4p( 0.01)
      H   15            1S( 0.80)
      H   16            1S( 0.84)
      O   17      [core]2S( 1.61)2p( 4.98)3p( 0.01)
      N   18      [core]2S( 1.32)2p( 4.20)3S( 0.01)4p( 0.01)


 NBO analysis skipped by request.
 Calling FoFJK, ICntrl=      2127 FMM=F ISym2X=1 I1Cent= 0 IOpClX= 0 NMat=1 NMatS=1 NMatT=0.
 ***** Axes restored to original set *****
 -------------------------------------------------------------------
 Center     Atomic                   Forces (Hartrees/Bohr)
 Number     Number              X              Y              Z
 -------------------------------------------------------------------
      1        6          -0.010083264   -0.021210744    0.010155892
      2        1          -0.009902986    0.010894777   -0.000526459
      3        1           0.010885631    0.005287151    0.008401876
      4        1           0.009542737    0.001014009   -0.021582311
      5        6          -0.015706002    0.008771182    0.018893304
      6        1          -0.003686378   -0.006420671   -0.025073239
      7        1          -0.008761432    0.013763897   -0.004514325
      8        6           0.035395555    0.013910584    0.006389393
      9        1          -0.005816935   -0.016781206   -0.008582800
     10        1          -0.012005777    0.004743024    0.006892673
     11        6          -0.019308399    0.028666702   -0.017104967
     12        1           0.004419239    0.000312458    0.013946921
     13        1           0.002099671   -0.018916671   -0.005182760
     14        6           0.000134781    0.004498210    0.025696634
     15        1           0.014166979    0.007579072    0.005333013
     16        1           0.016553464   -0.011880267   -0.016380593
     17        8          -0.006553880   -0.015522990    0.005510433
     18        7          -0.001373002   -0.008708516   -0.002272684
 -------------------------------------------------------------------
 Cartesian Forces:  Max     0.035395555 RMS     0.013281834

 GradGradGradGradGradGradGradGradGradGradGradGradGradGradGradGradGradGrad
 Berny optimization.
 FormGI is forming the generalized inverse of G from B-inverse, IUseBI=4.
 Internal  Forces:  Max     0.022795996 RMS     0.008385414
 Search for a local minimum.
 Step number   1 out of a maximum of  104
 All quantities printed in internal units (Hartrees-Bohrs-Radians)
 Mixed Optimization -- RFO/linear search
 Second derivative matrix not updated -- first step.
 ITU=  0
     Eigenvalues ---    0.00453   0.00753   0.00766   0.01832   0.03158
     Eigenvalues ---    0.03250   0.04430   0.04559   0.04919   0.05587
     Eigenvalues ---    0.05915   0.06207   0.06305   0.07537   0.07537
     Eigenvalues ---    0.07733   0.09060   0.09074   0.10287   0.11271
     Eigenvalues ---    0.11369   0.11517   0.13040   0.13394   0.16000
     Eigenvalues ---    0.16000   0.16000   0.17509   0.18855   0.22554
     Eigenvalues ---    0.27201   0.28507   0.33810   0.33836   0.35740
     Eigenvalues ---    0.37230   0.37230   0.37230   0.37230   0.37230
     Eigenvalues ---    0.37230   0.37230   0.37230   0.37230   0.37230
     Eigenvalues ---    0.37230   0.39186   0.40102
 RFO step:  Lambda=-3.52804652D-02 EMin= 4.52844594D-03
 Linear search not attempted -- first point.
 Iteration  1 RMS(Cart)=  0.09609538 RMS(Int)=  0.00538509
 Iteration  2 RMS(Cart)=  0.00636613 RMS(Int)=  0.00086923
 Iteration  3 RMS(Cart)=  0.00002134 RMS(Int)=  0.00086904
 Iteration  4 RMS(Cart)=  0.00000001 RMS(Int)=  0.00086904
 ClnCor:  largest displacement from symmetrization is 5.65D-13 for atom     3.
 Variable       Old X    -DE/DX   Delta X   Delta X   Delta X     New X
                                 (Linear)    (Quad)   (Total)
    R1        2.02201   0.01472   0.00000   0.03612   0.03612   2.05813
    R2        2.02201   0.01472   0.00000   0.03612   0.03612   2.05813
    R3        2.02201   0.02280   0.00000   0.05593   0.05593   2.07794
    R4        2.77790  -0.00169   0.00000  -0.00430  -0.00430   2.77359
    R5        2.02201   0.01967   0.00000   0.04826   0.04826   2.07027
    R6        2.02201   0.01652   0.00000   0.04053   0.04053   2.06254
    R7        2.91005   0.00124   0.00000   0.00349   0.00349   2.91354
    R8        2.77692   0.01288   0.00000   0.03041   0.03026   2.80718
    R9        2.02201   0.01884   0.00000   0.04622   0.04622   2.06823
   R10        2.02201   0.01458   0.00000   0.03576   0.03576   2.05777
   R11        2.70345  -0.00305   0.00000  -0.00446  -0.00430   2.69915
   R12        2.02201   0.01458   0.00000   0.03576   0.03576   2.05777
   R13        2.02201   0.01884   0.00000   0.04622   0.04622   2.06823
   R14        2.91005   0.00124   0.00000   0.00349   0.00349   2.91354
   R15        2.70345  -0.00305   0.00000  -0.00446  -0.00430   2.69915
   R16        2.02201   0.01652   0.00000   0.04053   0.04053   2.06254
   R17        2.02201   0.01967   0.00000   0.04826   0.04826   2.07027
   R18        2.77692   0.01288   0.00000   0.03041   0.03026   2.80718
    A1        1.91063  -0.00094   0.00000  -0.01169  -0.01184   1.89879
    A2        1.91063  -0.00301   0.00000  -0.01196  -0.01210   1.89854
    A3        1.91063  -0.00125   0.00000  -0.00811  -0.00826   1.90237
    A4        1.91063  -0.00301   0.00000  -0.01196  -0.01210   1.89854
    A5        1.91063  -0.00125   0.00000  -0.00811  -0.00826   1.90237
    A6        1.91063   0.00945   0.00000   0.05183   0.05169   1.96232
    A7        1.91608  -0.00551   0.00000  -0.03854  -0.03881   1.87727
    A8        1.91649  -0.00183   0.00000  -0.01953  -0.01880   1.89769
    A9        1.82674   0.00904   0.00000   0.07184   0.07248   1.89922
   A10        1.89049   0.00760   0.00000   0.02800   0.02871   1.91921
   A11        1.97935   0.00343   0.00000  -0.00531  -0.00492   1.97443
   A12        1.93387  -0.01312   0.00000  -0.03788  -0.03921   1.89466
   A13        1.88536  -0.00025   0.00000   0.01417   0.01420   1.89956
   A14        1.92406   0.00155   0.00000  -0.00279  -0.00188   1.92218
   A15        1.93013   0.00881   0.00000   0.05976   0.05788   1.98801
   A16        1.91563  -0.00033   0.00000  -0.01019  -0.01077   1.90486
   A17        1.97970  -0.00129   0.00000  -0.01669  -0.01773   1.96197
   A18        1.82879  -0.00855   0.00000  -0.04591  -0.04531   1.78348
   A19        1.91563  -0.00033   0.00000  -0.01019  -0.01077   1.90486
   A20        1.92406   0.00155   0.00000  -0.00279  -0.00188   1.92218
   A21        1.82879  -0.00855   0.00000  -0.04591  -0.04531   1.78348
   A22        1.88536  -0.00025   0.00000   0.01417   0.01420   1.89956
   A23        1.97970  -0.00129   0.00000  -0.01669  -0.01773   1.96197
   A24        1.93013   0.00881   0.00000   0.05976   0.05788   1.98801
   A25        1.89049   0.00760   0.00000   0.02800   0.02871   1.91921
   A26        1.91649  -0.00183   0.00000  -0.01953  -0.01880   1.89769
   A27        1.93387  -0.01312   0.00000  -0.03788  -0.03921   1.89466
   A28        1.91608  -0.00551   0.00000  -0.03854  -0.03881   1.87727
   A29        1.97935   0.00343   0.00000  -0.00531  -0.00492   1.97443
   A30        1.82674   0.00904   0.00000   0.07184   0.07248   1.89922
   A31        2.13055   0.00375   0.00000   0.01962   0.01730   2.14785
   A32        1.94992  -0.00563   0.00000  -0.00804  -0.01097   1.93895
   A33        1.94992  -0.00563   0.00000  -0.00804  -0.01097   1.93895
   A34        1.70013   0.01807   0.00000   0.15857   0.15812   1.85825
    D1        1.15236  -0.00649   0.00000  -0.07923  -0.07845   1.07392
    D2        3.03643   0.00917   0.00000   0.10349   0.10268   3.13911
    D3       -3.03643  -0.00917   0.00000  -0.10349  -0.10268  -3.13911
    D4       -1.15236   0.00649   0.00000   0.07923   0.07845  -1.07392
    D5       -0.94203  -0.00783   0.00000  -0.09136  -0.09056  -1.03259
    D6        0.94203   0.00783   0.00000   0.09136   0.09056   1.03259
    D7       -0.63360   0.00542   0.00000   0.09804   0.09772  -0.53588
    D8       -2.72667   0.00506   0.00000   0.10341   0.10326  -2.62341
    D9        1.54233   0.00940   0.00000   0.12595   0.12594   1.66827
   D10        1.45870   0.00225   0.00000   0.05668   0.05657   1.51526
   D11       -0.63438   0.00190   0.00000   0.06204   0.06211  -0.57227
   D12       -2.64856   0.00623   0.00000   0.08458   0.08479  -2.56377
   D13       -2.64299   0.00307   0.00000   0.04407   0.04353  -2.59946
   D14        1.54712   0.00272   0.00000   0.04943   0.04907   1.59619
   D15       -0.46706   0.00706   0.00000   0.07197   0.07175  -0.39531
   D16        1.26680  -0.00044   0.00000  -0.03040  -0.02897   1.23783
   D17       -0.77476  -0.00138   0.00000  -0.09988  -0.10072  -0.87548
   D18       -0.82129  -0.00145   0.00000  -0.02699  -0.02620  -0.84749
   D19       -2.86285  -0.00239   0.00000  -0.09647  -0.09795  -2.96080
   D20       -2.95165  -0.00401   0.00000  -0.03136  -0.03109  -2.98274
   D21        1.28997  -0.00495   0.00000  -0.10084  -0.10284   1.18713
   D22       -0.47317   0.00536   0.00000   0.05810   0.05792  -0.41525
   D23        1.64798   0.01063   0.00000   0.10887   0.10779   1.75577
   D24       -2.54615   0.00397   0.00000   0.05742   0.05844  -2.48771
   D25        0.63438  -0.00190   0.00000  -0.06204  -0.06211   0.57227
   D26        2.72667  -0.00506   0.00000  -0.10341  -0.10326   2.62341
   D27       -1.54712  -0.00272   0.00000  -0.04943  -0.04907  -1.59619
   D28       -1.45870  -0.00225   0.00000  -0.05668  -0.05657  -1.51526
   D29        0.63360  -0.00542   0.00000  -0.09804  -0.09772   0.53588
   D30        2.64299  -0.00307   0.00000  -0.04407  -0.04353   2.59946
   D31        2.64856  -0.00623   0.00000  -0.08458  -0.08479   2.56377
   D32       -1.54233  -0.00940   0.00000  -0.12595  -0.12594  -1.66827
   D33        0.46706  -0.00706   0.00000  -0.07197  -0.07175   0.39531
   D34        2.54615  -0.00397   0.00000  -0.05742  -0.05844   2.48771
   D35       -1.64798  -0.01063   0.00000  -0.10887  -0.10779  -1.75577
   D36        0.47317  -0.00536   0.00000  -0.05810  -0.05792   0.41525
   D37        2.95165   0.00401   0.00000   0.03136   0.03109   2.98274
   D38       -1.28997   0.00495   0.00000   0.10084   0.10284  -1.18713
   D39        0.82129   0.00145   0.00000   0.02699   0.02620   0.84749
   D40        2.86285   0.00239   0.00000   0.09647   0.09795   2.96080
   D41       -1.26680   0.00044   0.00000   0.03040   0.02897  -1.23783
   D42        0.77476   0.00138   0.00000   0.09988   0.10072   0.87548
         Item               Value     Threshold  Converged?
 Maximum Force            0.022796     0.000450     NO 
 RMS     Force            0.008385     0.000300     NO 
 Maximum Displacement     0.473498     0.001800     NO 
 RMS     Displacement     0.095398     0.001200     NO 
 Predicted change in Energy=-2.391123D-02
 GradGradGradGradGradGradGradGradGradGradGradGradGradGradGradGradGradGrad

                          Input orientation:                          
 ---------------------------------------------------------------------
 Center     Atomic      Atomic             Coordinates (Angstroms)
 Number     Number       Type             X           Y           Z
 ---------------------------------------------------------------------
      1          6           0        1.028943    3.395214   -0.443533
      2          1           0        0.261210    4.166691   -0.483254
      3          1           0        1.840722    3.740625    0.195117
      4          1           0        1.421021    3.233455   -1.458039
      5          6           0       -0.661235    1.661495   -0.703869
      6          1           0       -0.245038    1.252234   -1.630957
      7          1           0       -1.382619    2.432917   -0.979142
      8          6           0       -1.370182    0.527605    0.063444
      9          1           0       -1.765656   -0.193964   -0.658207
     10          1           0       -2.192529    0.930746    0.652495
     11          6           0        0.869470   -0.076530    1.025334
     12          1           0        1.125864    0.035626    2.077685
     13          1           0        1.286538   -1.017278    0.652655
     14          6           0        1.461431    1.088917    0.207778
     15          1           0        2.406738    1.410757    0.648318
     16          1           0        1.673326    0.734765   -0.807054
     17          8           0       -0.558297   -0.090759    1.062738
     18          7           0        0.451673    2.176006    0.134827
 ---------------------------------------------------------------------
                    Distance matrix (angstroms):
                    1          2          3          4          5
     1  C    0.000000
     2  H    1.089113   0.000000
     3  H    1.089113   1.771038   0.000000
     4  H    1.099597   1.779409   1.779409   0.000000
     5  C    2.435212   2.678727   3.375018   2.715810   0.000000
     6  H    2.761406   3.172943   3.725189   2.594396   1.095540
     7  H    2.651137   2.440093   3.671364   2.954760   1.091450
     8  C    3.773064   4.025328   4.544308   4.174608   1.541779
     9  H    4.553906   4.811871   5.405100   4.747825   2.159759
    10  H    4.201520   4.216883   4.936773   4.776460   2.172229
    11  C    3.773064   4.544308   4.025328   4.174608   2.890318
    12  H    4.201520   4.936773   4.216883   4.776460   3.684320
    13  H    4.553906   5.405100   4.811871   4.747825   3.579078
    14  C    2.435212   3.375018   2.678727   2.715810   2.380054
    15  H    2.651137   3.671364   2.440093   2.954760   3.362103
    16  H    2.761406   3.725189   3.172943   2.594396   2.513892
    17  O    4.115847   4.602995   4.602995   4.617620   2.490360
    18  N    1.467723   2.093114   2.093114   2.143609   1.485495
                    6          7          8          9         10
     6  H    0.000000
     7  H    1.764360   0.000000
     8  C    2.159174   2.171947   0.000000
     9  H    2.313008   2.673989   1.094459   0.000000
    10  H    3.018316   2.361083   1.088925   1.779082   0.000000
[...]
 18,0.3586843,0.032087,0.0682233,-0.0042473,0.1232003,0.1797279,0.04509
 18,0.1245149,0.4605973,-0.0344115,0.0003198,0.1334221,-0.0343607,-0.02
 68251,-0.0782445,-0.0534947,-0.0664338,-0.2549391,-0.0533663,0.087742,
 -0.0267289,0.1116093,-0.0825238,0.0444264,-0.0162369,0.001384,0.038817
 9,0.4705849,-0.0092652,0.1584933,0.0134845,0.4510379,-0.0676026,0.2470
 221,-0.0111875,0.5540964,0.0187373,0.02198,0.0167776,-0.0714128,-0.157
 4513,-0.1065967,-0.0774311,-0.0849721,-0.0956494,-0.1440103,0.0079875,
 0.0303508,0.0555544,0.0310354,0.009718,0.0600659,0.0199776,0.0244373,0
 .6916893,-0.0988766,-0.0147471,-0.0600909,0.4789686,-0.0268562,-0.0646
 273,0.0600069,0.3050613,-0.0214646,0.0190507,-0.0688315,-0.0020724,0.0
 346789,0.0259192,-0.081938,0.0772309,-0.101752,-0.0228877,-0.0133037,-
 0.0049396,0.0500966,-0.1776815,-0.0533748,0.0704318,-0.1448334,-0.0337
 941,0.3123794,-0.2013903,-0.0386861,-0.2177037,0.2471277,0.111526,-0.0
 486211,0.0441548,0.3829749,-0.0970193,-0.0376102,-0.0722087,-0.0819482
 ,0.0066768,-0.0314923,-0.0955577,-0.0361134,-0.0067297,-0.0526455,0.05
 92559,0.0210709,0.0573812,-0.066143,-0.0106492,0.1850285,-0.1075746,-0
 .1973872,-0.9239153,0.0706012,-0.1053784,0.0520819,-0.5474196,0.155585
 5,-0.1170098,0.1124655,-0.6451375,-0.6157908,-0.0375388,0.0514311,-0.0
 296667,-0.684099,0.0059401,0.0563754,0.0242694,-0.6995969\Polar=74.652
 2545,1.7530254,74.6278322,1.7905729,-4.283062,68.0891918\PG=CS [SG(C1H
 1N1O1),X(C4H10)]\NImag=1\\0.57600011,-0.03366620,0.52366372,0.04745798
 ,0.02701172,0.51192850,-0.17746186,0.13201534,-0.01098168,0.18704947,0
 .12478020,-0.17643031,0.00971279,-0.13919263,0.20020790,-0.00747275,0.
 00741472,-0.04790723,0.00925659,-0.01671493,0.05020253,-0.19437152,-0.
 06223794,-0.11031085,-0.01517016,-0.00714767,-0.01208694,0.21344488,-0
 .05804925,-0.07348374,-0.04397461,0.01662913,0.00933232,0.01352044,0.0
 7436592,0.08307460,-0.11573316,-0.04876985,-0.13394415,0.00016631,0.00
 000349,-0.00088389,0.12056121,0.04803867,0.14094042,-0.07419707,0.0186
 1813,0.06371273,-0.00714705,0.00596442,0.02099393,0.00900799,-0.005244
 73,-0.02211983,0.07742721,0.01759161,-0.06386852,-0.04850494,0.0065793
 9,-0.00464811,-0.02109402,0.00406066,-0.00212056,-0.00867448,-0.014518
 42,0.06601050,0.06306801,-0.05089507,-0.23066815,-0.00072350,-0.000980
 10,0.00189532,0.00582828,-0.00568997,-0.01678726,-0.07947866,0.0456132
 8,0.26091425,-0.01973878,-0.01875473,-0.00856601,0.00142106,0.00246857
 ,-0.00028056,0.00038935,-0.00032254,0.00098410,0.00240879,0.00236065,-
 0.00331020,0.51722618,-0.02887152,-0.01720055,-0.01934853,-0.00168447,
 0.00046157,-0.00062007,-0.00272102,-0.00494989,0.00235769,0.00214847,0
 .00263110,-0.00085255,-0.07709765,0.53055401,0.01651520,0.00357307,0.0
 0102604,0.00016245,0.00021588,0.00020194,0.00209750,0.00297901,-0.0002
 3905,0.00379008,0.00432870,0.00079467,-0.00605559,0.00013819,0.4999431
 7,0.00263232,0.00197156,-0.00394001,-0.00045027,-0.00012596,0.00029215
 ,0.00000506,0.00011856,0.00036172,0.00035630,0.00132922,0.00171120,-0.
 06938630,0.01993072,0.05608697,0.07078274,0.00186476,0.00230561,-0.003
 04566,0.00023066,-0.00014622,-0.00007824,-0.00019560,0.00007376,0.0004
 9358,-0.00021477,0.00022873,0.00135750,0.02093062,-0.06653112,-0.05419
 415,-0.01354120,0.07374608,0.00111296,0.00335734,0.00061394,0.00009517
 ,-0.00030028,-0.00000624,-0.00037884,-0.00004701,0.00041853,-0.0015079
 3,-0.00164044,0.00139574,0.05912264,-0.05086675,-0.22737944,-0.0542950
 9,0.06407969,0.26001850,0.00034342,0.00256562,-0.00020201,0.00012135,-
 0.00110734,0.00015020,0.00050704,-0.00017876,0.00001872,-0.00016289,-0
 .00013962,0.00021761,-0.15493795,0.12360412,-0.00893377,-0.00479826,0.
 00743920,0.00141035,0.17894356,-0.00175570,0.00138271,-0.00009909,0.00
 045003,0.00028890,-0.00010709,-0.00010511,0.00052619,-0.00002800,0.000
 20389,-0.00046711,-0.00018727,0.13112542,-0.19627305,0.01017958,0.0066
 4234,-0.00659419,-0.00022621,-0.13495511,0.20842483,0.00069547,0.00059
 112,0.00024017,0.00013175,-0.00026100,0.00041975,0.00014806,0.00009675
 ,-0.00022811,0.00001164,-0.00038180,0.00000625,-0.00462378,0.00564516,
 -0.04979197,0.02049412,-0.02238381,0.00128185,0.01294769,-0.01153159,0
 .05380281,-0.00475431,-0.00077994,-0.00323527,0.00037855,0.00008868,-0
 .00016777,-0.00035006,-0.00142638,0.00051677,0.00031360,0.00032692,-0.
 00037778,-0.09546528,-0.02353766,0.01502191,-0.00269753,-0.00757618,0.
 00559671,0.00831422,0.01286663,-0.01034314,0.58970805,-0.00101317,0.00
 033219,0.00030968,-0.00004387,0.00023757,-0.00017758,0.00014059,0.0003
 3564,0.00061457,-0.00031355,-0.00016514,0.00014360,-0.02866320,-0.1261
 0554,0.02765919,0.00291668,0.00509100,-0.00595497,-0.01045284,-0.01584
 905,0.01175689,-0.03025084,0.49497978,-0.00434956,-0.00117816,-0.00287
 150,-0.00010329,0.00060415,-0.00024789,-0.00143525,-0.00128801,0.00040
 831,0.00001741,0.00016449,-0.00000602,0.02044048,0.03047941,-0.0910370
 0,0.00959349,0.02234241,-0.01316822,0.00184104,-0.00008102,-0.00057382
 ,-0.04274174,0.07361097,0.47325658,-0.00041493,-0.00006627,-0.00020376
 ,0.00000148,0.00008068,-0.00001615,-0.00016688,-0.00008130,0.00003367,
 -0.00003139,-0.00003083,0.00002689,0.00121298,-0.01366861,-0.00674419,
 0.00112804,0.00052854,-0.00035890,-0.00063854,-0.00161914,0.00046249,-
 0.05522939,0.00111799,0.00276695,0.05240534,-0.00072149,0.00005256,-0.
 00071600,0.00003500,0.00015132,-0.00002986,-0.00031956,-0.00021460,0.0
 0010463,-0.00010247,-0.00001614,0.00012847,0.00030703,-0.01839624,-0.0
 1364942,-0.00065211,0.00134499,0.00070048,-0.00155973,-0.00188309,0.00
 150000,-0.00085990,-0.20950734,-0.11139685,0.00602078,0.22200694,0.000
 62286,0.00019977,0.00038468,0.00001106,-0.00009729,0.00003661,0.000200
 41,0.00017164,-0.00009121,-0.00002339,-0.00002147,0.00001655,0.0037746
 1,0.01207695,0.00771271,0.00019962,0.00069713,0.00173986,-0.00026436,0
 .00137454,-0.00020188,-0.00099140,-0.11177688,-0.12141394,0.00741020,0
 .12052571,0.15198929,-0.00025076,0.00015460,-0.00020719,0.00003431,-0.
 00007288,0.00004052,-0.00005524,-0.00008753,-0.00000318,0.00004501,0.0
 0002944,0.00002196,-0.00850970,0.00333940,0.00544388,-0.00058265,-0.00
 177409,0.00027925,0.00196462,-0.00004737,-0.00046051,-0.26962170,0.051
 13688,0.07907608,0.00264125,0.00018035,0.00116447,0.29747965,-0.000746
 06,-0.00009934,-0.00053855,0.00004936,-0.00001832,0.00002508,-0.000102
 21,-0.00029499,0.00000869,0.00009462,0.00007038,-0.00005429,-0.0230578
 0,0.00398346,0.00888165,-0.00152333,-0.00155625,0.00206557,-0.00061382
 ,0.00140717,-0.00013744,0.05262554,-0.06285290,-0.02148909,0.02377652,
 -0.00546789,-0.00892753,-0.06018290,0.06747178,0.00043762,-0.00009907,
 0.00032038,-0.00003553,-0.00002388,0.00001374,0.00005703,0.00016114,-0
 .00001013,-0.00003824,-0.00003256,-0.00001692,0.01065275,-0.00163768,-
 0.00370867,0.00046600,0.00151101,-0.00071679,0.00041295,0.00058259,0.0
 0102711,0.09172250,-0.02503951,-0.07903966,0.01777093,-0.00428444,-0.0
 0417636,-0.07943804,0.01611896,0.08690732,-0.00529127,0.00427762,-0.00
 056225,0.00028288,0.00212703,-0.00073496,-0.00018567,-0.00035950,0.000
 18637,-0.00016294,-0.00042193,0.00036143,0.00489663,-0.00113997,0.0013
 0326,-0.00099051,-0.00101975,0.00040028,-0.00081690,-0.00104398,0.0007
 1825,-0.03765895,0.01162380,-0.01150600,0.00347970,-0.00104909,0.00552
 827,0.00105221,0.00004131,-0.00256184,0.45557517,0.00322052,-0.0021350
 1,0.00134473,-0.00063979,-0.00045843,0.00069039,0.00028013,0.00031212,
 -0.00019932,0.00011771,-0.00004480,0.00007422,0.00156376,-0.00038160,0
 .00099660,0.00055406,0.00030672,-0.00111977,-0.00075250,-0.00008779,-0
 .00049854,0.01211053,-0.00450853,-0.00159180,-0.00382385,0.00197564,-0
 .00119501,0.00075148,0.00010838,0.00153765,-0.03251231,0.50595965,-0.0
 0025837,-0.00017181,0.00013265,0.00046347,-0.00020073,0.00056944,0.000
 44038,0.00019964,0.00024177,-0.00009710,-0.00018144,0.00035018,-0.0011
 9784,0.00187998,0.00011598,0.00002729,0.00012672,-0.00021599,0.0006493
 9,0.00007950,-0.00015661,-0.03604746,0.00481909,0.00530317,-0.00202614
 ,0.00147472,-0.00018024,-0.00407821,0.00198218,-0.00473272,0.07182835,
 0.02619562,0.59640959,0.00047364,-0.00032109,0.00007812,-0.00005828,-0
 .00018278,0.00000905,0.00002264,0.00005220,-0.00002365,0.00000821,0.00
 004367,-0.00003842,-0.00043347,-0.00044904,0.00033457,0.00012395,0.000
 12323,-0.00005800,0.00009626,0.00004944,-0.00001131,-0.00573525,0.0004
 0824,0.00353803,0.00002816,-0.00021260,-0.00019894,-0.00112578,0.00050
 662,-0.00155354,-0.08630469,0.01536115,-0.09020423,0.11376382,0.000734
 39,-0.00042307,0.00010424,-0.00005716,-0.00028122,0.00002439,-0.000081
 64,-0.00001587,-0.00001522,0.00000136,0.00009438,-0.00008232,-0.000348
 52,0.00003962,-0.00049721,-0.00007969,-0.00000570,0.00007922,0.0000335
 6,0.00000850,-0.00001963,0.00088578,0.00046704,-0.00049591,0.00030988,
 0.00013244,0.00036401,0.00020110,0.00020952,0.00042814,0.01421427,-0.0
 5617991,0.02891387,-0.01692528,0.05750233,-0.00046945,0.00002523,-0.00
 008028,0.00001853,0.00013027,-0.00002086,0.00004511,0.00000674,0.00002
 296,0.00003614,-0.00005078,-0.00000412,0.00034097,-0.00024377,0.000108
 41,-0.00002596,-0.00001858,0.00004247,-0.00005303,0.00004649,0.0000184
 0,0.00187555,-0.00059306,0.00169608,0.00023348,0.00004285,0.00025805,0
 .00018406,0.00009065,0.00024194,-0.10263600,0.03326008,-0.26902965,0.1
 0659776,-0.03676849,0.28059262,0.00056466,-0.00035927,0.00000327,-0.00
 002523,-0.00020185,0.00015184,0.00005137,0.00007166,-0.00000905,-0.000
 00236,0.00002405,0.00003098,-0.00083785,-0.00005371,-0.00055110,0.0000
 3209,0.00018335,-0.00006423,0.00011156,0.00008853,0.00003656,0.0040613
 8,0.00113306,0.00639581,0.00080614,-0.00161458,-0.00130378,0.00002467,
 -0.00037404,-0.00029732,-0.04845097,0.00776022,-0.00143895,0.00340886,
 -0.01182854,-0.00704174,0.06237879,0.00088170,-0.00037214,0.00003018,0
 .00004301,-0.00029019,0.00024488,0.00006288,0.00014260,-0.00001402,-0.
 00003704,-0.00005070,0.00015883,-0.00010782,-0.00044796,-0.00082808,-0
 .00004071,0.00000695,0.00042793,0.00005778,0.00001984,0.00017051,-0.00
 125928,0.00065291,-0.00081994,0.00094132,-0.00020330,0.00099333,0.0001
 3486,0.00022345,0.00033485,0.00820543,-0.21423759,-0.10558364,-0.00138
 908,0.00450389,0.00182354,-0.01648407,0.23342239,-0.00045545,0.0004782
 8,-0.00017020,-0.00001075,0.00019324,-0.00015727,-0.00007046,-0.000073
 40,-0.00000456,-0.00000211,-0.00000028,0.00002209,0.00025742,0.0000450
 8,-0.00003845,-0.00013401,-0.00014519,0.00005652,-0.00004483,-0.000028
 31,0.00000162,-0.00091841,0.00274024,0.00056081,0.00126490,-0.00079728
 ,0.00099543,0.00012658,-0.00001793,0.00017053,0.00135677,-0.10877229,-
 0.12346211,0.00130137,-0.02416726,-0.01491575,-0.01534891,0.11815487,0
 .13060038,0.01033000,-0.00476797,0.00565216,-0.00043624,-0.00461475,0.
 00162202,0.00054733,-0.00200693,0.00071547,-0.00027236,-0.00398338,0.0
 0225736,-0.03336283,0.02461666,-0.00578794,0.00469988,0.00065681,0.002
 62965,-0.00431230,-0.00292629,-0.00230763,0.00078485,-0.00313277,0.003
 60727,-0.00024093,0.00073111,-0.00057436,0.00059873,0.00035656,-0.0000
 5204,-0.08853634,-0.02247307,0.00969880,0.00540481,0.00854560,-0.00331
 874,0.00328606,-0.00016878,-0.00005803,0.54573556,0.02266325,-0.037062
 53,0.00243292,-0.00229036,-0.00384819,0.00227493,0.00158026,0.00085175
 ,0.00041217,0.00101507,0.00484319,-0.00315176,0.00194830,0.01287818,-0
 .00294038,-0.00401757,-0.00052269,-0.00203763,-0.00384160,0.00024030,-
 0.00184483,-0.00136500,0.00124515,0.00001082,-0.00005269,-0.00071796,0
 .00033904,0.00025325,-0.00041511,0.00028345,-0.02902008,-0.12680060,0.
 03182505,-0.00387867,-0.00360682,0.00064303,-0.00980958,-0.01945968,0.
 01500833,0.03567680,0.46763891,-0.00855436,0.01982600,-0.00918077,0.00
 046208,0.00148108,-0.00051518,-0.00008293,-0.00174130,0.00068550,-0.00
 183681,0.00281126,0.00126374,-0.02019890,0.01068256,-0.00984113,-0.002
 43448,0.00223297,0.00117791,-0.00229822,-0.00143954,-0.00022753,0.0005
 1832,-0.00128509,0.00260101,-0.00022414,-0.00048682,-0.00036536,-0.000
 17366,0.00006228,-0.00046906,0.01422458,0.03133553,-0.09727087,0.01066
 611,0.02265807,-0.01003292,-0.00437202,-0.01425349,0.00670308,0.040121
 45,0.03941959,0.53434890,0.00033619,-0.00180315,0.00067191,0.00028654,
 0.00006776,0.00044731,0.00067987,0.00078161,-0.00014297,0.00010314,0.0
 0016250,-0.00024440,-0.00074766,0.00460872,-0.00065761,-0.00000094,-0.
 00005692,-0.00031732,-0.00107851,-0.00048202,-0.00075397,0.00075595,0.
 00042059,0.00027800,-0.00003877,-0.00014593,0.00001930,-0.00001113,-0.
 00000730,0.00004592,-0.00775119,-0.00449663,-0.00735604,0.00144227,0.0
 0043764,0.00029581,-0.00062073,-0.00091483,0.00088944,-0.18816047,-0.0
 6962987,-0.10198335,0.21160100,0.00188712,0.00157906,0.00122886,0.0001
 2479,0.00041373,-0.00007042,-0.00042733,-0.00002461,-0.00034012,-0.000
 25108,-0.00044523,-0.00022723,0.00368336,-0.00408142,0.00136960,0.0001
 5466,0.00009579,0.00024032,0.00124020,0.00045168,0.00071583,0.00024430
 ,-0.00086617,0.00091519,-0.00001682,0.00011414,-0.00010827,-0.00005601
 ,0.00005578,-0.00003793,-0.01513092,-0.00873456,-0.01148578,-0.0006155
 1,0.00131480,0.00030967,-0.00065319,-0.00231890,0.00148022,-0.07724789
 ,-0.08552413,-0.05806218,0.07344639,0.09361807,-0.00062191,-0.00093066
 ,0.00005105,0.00040005,0.00010910,0.00010486,0.00009432,0.00062507,0.0
 0017474,-0.00008243,-0.00019585,-0.00028165,-0.00065451,0.00175147,0.0
 0052955,0.00051618,0.00002640,0.00044066,-0.00047890,-0.00009803,0.000
 18380,-0.00008466,0.00040409,-0.00095107,0.00003832,0.00006513,0.00005
 764,-0.00001641,-0.00004824,0.00007851,0.01279533,0.00621230,0.0083770
 9,0.00086359,-0.00010355,0.00164183,0.00028961,0.00182566,0.00021613,-
 0.10635408,-0.05375296,-0.12731836,0.11559827,0.05406700,0.13595213,-0
 .00057518,-0.00272291,0.00100524,0.00009241,0.00001517,-0.00032200,0.0
 0005377,0.00028325,-0.00030766,0.00070047,0.00044093,-0.00139373,0.002
 96770,0.00158336,0.00470947,0.00087449,-0.00095418,-0.00184499,0.00020
 031,-0.00021645,-0.00059154,0.00019171,0.00048366,0.00032221,-0.000160
 22,-0.00019417,-0.00013505,-0.00000067,-0.00000411,-0.00003022,-0.0036
 4257,0.00403405,0.01370597,-0.00073632,-0.00114440,0.00080762,0.001010
 86,0.00015872,-0.00048985,-0.07566338,0.01742318,0.06234777,0.00961000
 ,-0.00782588,-0.02063664,0.08512183,0.00265850,0.00359120,-0.00441031,
 -0.00026869,0.00011501,0.00065674,-0.00015674,-0.00018878,-0.00002443,
 -0.00110968,0.00068470,0.00185056,-0.00370388,-0.00073120,-0.00176759,
 0.00029563,0.00079974,0.00143001,-0.00007441,0.00018598,0.00034100,0.0
 0081277,-0.00025463,0.00097116,0.00005194,0.00009778,-0.00022363,-0.00
 008657,0.00003958,-0.00012197,-0.00862215,0.00514050,0.02067438,-0.000
 62275,-0.00195786,0.00189553,-0.00077613,0.00148673,0.00030921,0.01954
 952,-0.06502544,-0.05720333,0.00323266,-0.00260515,-0.01142642,-0.0299
 3787,0.08154857,-0.00073491,0.00146801,0.00253584,0.00004296,-0.000195
 08,0.00028993,-0.00016304,0.00000351,-0.00046772,-0.00011823,-0.002356
 93,0.00059559,-0.00073958,0.00107603,0.00311859,0.00243336,-0.00026083
 ,0.00077185,0.00019828,-0.00003484,0.00014924,-0.00083254,-0.00068050,
 -0.00083686,0.00009048,0.00029801,0.00015799,0.00007748,0.00006070,0.0
 0012181,0.00316350,-0.00492822,-0.01227268,0.00116451,0.00197172,-0.00
 016151,0.00022305,0.00087817,0.00171530,0.06127560,-0.05325165,-0.2226
 0804,0.00589316,-0.00598006,-0.01711545,-0.07699299,0.06482145,0.23787
 691,0.00152958,0.00042251,0.00066006,0.00042269,-0.00067844,0.00014447
 ,0.00050090,0.00063473,0.00019490,-0.00023294,-0.00003313,-0.00015319,
 0.00443695,0.00317185,0.00250869,-0.00008693,-0.00016001,0.00033940,0.
 00071318,0.00006301,0.00034286,-0.11739702,0.01656148,-0.06689655,-0.0
 0457669,0.00017932,-0.01550731,-0.02382357,0.00995482,-0.03810412,-0.1
 9838849,0.02649869,0.04754046,-0.02988767,0.00660064,0.00231832,-0.024
 31756,0.01247451,0.01106620,-0.03342736,-0.00251822,0.01067075,-0.0012
 8972,-0.00235856,0.00240861,-0.00148021,-0.00306049,0.00122602,0.42658
 286,-0.00014997,0.00221604,0.00067387,0.00014794,0.00031966,-0.0000661
 6,-0.00021267,0.00005702,-0.00022558,-0.00026211,-0.00078498,0.0002992
 9,0.01238172,-0.00866962,0.02740127,-0.00090180,-0.00262184,0.00207228
 ,-0.00147590,-0.00217724,0.00202412,0.01229598,-0.06677272,0.02267753,
 -0.01235787,0.01309031,-0.01676959,0.00709190,-0.00118602,0.00976927,0
 .03505796,-0.06970003,-0.00779833,0.00865999,-0.00026299,-0.00116355,0
 .03454352,-0.00144128,-0.00608135,-0.02154229,0.00477118,0.00624324,-0
 .00126689,-0.00143468,0.00132463,-0.00167605,-0.00152922,0.00133918,-0
 .06982613,0.13351504,0.00030050,-0.00065908,0.00058546,-0.00004321,-0.
 00040121,-0.00003835,0.00036938,0.00006054,0.00014609,-0.00029701,-0.0
 0023387,0.00025487,-0.01271393,0.01318754,-0.02874279,0.00137700,0.003
 05159,-0.00091451,0.00123098,0.00179088,-0.00216960,-0.03141663,0.0212
 2352,-0.18260950,-0.02160107,0.00420985,-0.03624939,-0.00261701,0.0002
 5023,0.00502038,0.01475734,0.00365326,-0.09869072,-0.03367348,0.006484
 47,0.01016144,0.02314661,-0.00486705,-0.00197693,0.01972936,-0.0023942
 6,-0.00431928,0.00123959,0.00051651,-0.00090926,0.00059205,0.00185621,
 -0.00061385,0.04263751,-0.04481619,0.33630582,-0.11515424,-0.03454590,
 0.01896756,0.01065833,0.01773181,-0.01202695,-0.01491066,-0.02518013,0
 .01460028,-0.00816172,-0.01382173,0.01219617,-0.15153982,-0.03377964,-
 0.07924377,-0.00164148,-0.00646449,-0.01216109,-0.02457018,-0.00833812
 ,-0.01689701,-0.01559882,-0.01207276,-0.00084437,-0.00020536,-0.000021
 95,0.00006779,0.00014075,-0.00079378,0.00054517,0.01289390,-0.00755414
 ,-0.00164976,-0.00049115,-0.00149901,0.00079156,-0.00148174,-0.0025585
 9,0.00127013,-0.14697501,0.04586355,0.00314781,-0.02511582,0.02380238,
 -0.00407472,-0.01856502,0.02181836,0.00379288,0.00072197,-0.00050733,-
 0.00301797,0.49999607,-0.05130870,-0.16404788,0.07778870,-0.01212769,-
 0.02540699,0.01410680,-0.00678295,-0.01341296,0.00625753,-0.00610981,-
 0.00195169,0.01249481,-0.02471330,-0.10677978,-0.01384592,-0.01303108,
 -0.00602135,-0.01225978,0.02021116,0.01039542,0.01421726,-0.02520195,-
 0.01645924,-0.01343536,-0.00111026,-0.00255957,0.00237757,-0.00096590,
 -0.00167869,0.00054999,0.01477227,-0.03053416,0.00725100,-0.00060775,-
 0.00153909,0.00056414,-0.00164942,-0.00163701,0.00167381,0.05273108,-0
 .14948550,-0.00228084,-0.00435432,0.00839180,0.00014486,0.02025372,-0.
 02139752,-0.00422867,0.00207343,0.00261136,-0.00291295,0.03792146,0.52
 151285,0.00843934,0.03875842,-0.09299644,0.00068753,0.00672450,-0.0039
 5721,-0.00531335,-0.01304888,0.00961776,0.01703980,0.03045116,-0.01974
 512,-0.03723206,-0.00575069,-0.10277255,-0.03272954,-0.01579254,-0.025
 55665,-0.00680210,-0.00019259,-0.00378146,0.01190504,0.00222576,0.0089
 2952,0.00107604,0.00231080,-0.00067044,0.00057995,0.00166709,-0.001031
 41,-0.00862267,0.01300457,-0.00548828,0.00120845,0.00112146,-0.0005391
 0,0.00014936,0.00132346,-0.00031661,-0.02885631,0.02672414,-0.06463162
 ,-0.01392306,0.01546880,-0.00123220,0.01925433,-0.01962856,0.00674305,
 -0.00139707,0.00309607,0.00476013,0.07453631,-0.08846295,0.29266862\\-
 0.00001026,-0.00000235,0.00002241,-0.00000596,-0.00000715,-0.00000121,
 0.00000128,-0.00000910,0.00000190,0.00000806,-0.00000248,-0.00002032,-
 0.00003635,-0.00004961,0.00001479,-0.00000379,0.00000250,-0.00001780,0
 .00000352,0.00000762,-0.00001310,0.00001182,0.00005090,-0.00002925,0.0
 0000068,-0.00000054,0.00000106,-0.00001074,0.00000101,0.00000741,0.000
 03484,0.00004469,-0.00001936,0.00000172,-0.00000235,0.00001277,-0.0000
 0135,0.,0.00000019,-0.00000992,-0.00005674,0.00002614,0.00001014,0.000
 00583,-0.00001026,0.00001547,-0.00000270,-0.00000953,-0.00000840,-0.00
 000512,0.00001633,-0.00000076,0.00002558,0.00001783\\\@


 Money is a good servant but a bad master.
                        -- French Proverb
 Job cpu time:       0 days  0 hours 19 minutes 41.3 seconds.
 File lengths (MBytes):  RWF=    119 Int=      0 D2E=      0 Chk=      5 Scr=      1
 Normal termination of Gaussian 09 at Tue Nov  2 15:49:14 2021.
