 Entering Gaussian System, Link 0=g09
 Initial command:
 /cm/shared/apps/gaussian/g09revD.01/g09/l1.exe "//home/sweav003/HartwigDocs/IrCatHeteroarenes/G09-Chart1_3_ESP.com.o9626369.tmp/Gau-29296.inp" -scrdir="//home/sweav003/HartwigDocs/IrCatHeteroarenes/G09-Chart1_3_ESP.com.o9626369.tmp/"
 Entering Link 1 = /cm/shared/apps/gaussian/g09revD.01/g09/l1.exe PID=     29297.
  
 Copyright (c) 1988,1990,1992,1993,1995,1998,2003,2009,2013,
            Gaussian, Inc.  All Rights Reserved.
  
 This is part of the Gaussian(R) 09 program.  It is based on
 the Gaussian(R) 03 system (copyright 2003, Gaussian, Inc.),
 the Gaussian(R) 98 system (copyright 1998, Gaussian, Inc.),
 the Gaussian(R) 94 system (copyright 1995, Gaussian, Inc.),
 the Gaussian 92(TM) system (copyright 1992, Gaussian, Inc.),
 the Gaussian 90(TM) system (copyright 1990, Gaussian, Inc.),
 the Gaussian 88(TM) system (copyright 1988, Gaussian, Inc.),
 the Gaussian 86(TM) system (copyright 1986, Carnegie Mellon
 University), and the Gaussian 82(TM) system (copyright 1983,
 Carnegie Mellon University). Gaussian is a federally registered
 trademark of Gaussian, Inc.
  
 This software contains proprietary and confidential information,
 including trade secrets, belonging to Gaussian, Inc.
  
 This software is provided under written license and may be
 used, copied, transmitted, or stored only in accord with that
 written license.
  
 The following legend is applicable only to US Government
 contracts under FAR:
  
                    RESTRICTED RIGHTS LEGEND
  
 Use, reproduction and disclosure by the US Government is
 subject to restrictions as set forth in subparagraphs (a)
 and (c) of the Commercial Computer Software - Restricted
 Rights clause in FAR 52.227-19.
  
 Gaussian, Inc.
 340 Quinnipiac St., Bldg. 40, Wallingford CT 06492
  
  
 ---------------------------------------------------------------
 Warning -- This program may not be used in any manner that
 competes with the business of Gaussian, Inc. or will provide
 assistance to any competitor of Gaussian, Inc.  The licensee
 of this program is prohibited from giving any competitor of
 Gaussian, Inc. access to this program.  By using this program,
 the user acknowledges that Gaussian, Inc. is engaged in the
 business of creating and licensing software in the field of
 computational chemistry and represents and warrants to the
 licensee that it is not a competitor of Gaussian, Inc. and that
 it will not use this program in any manner prohibited above.
 ---------------------------------------------------------------
  

 Cite this work as:
 Gaussian 09, Revision D.01,
 M. J. Frisch, G. W. Trucks, H. B. Schlegel, G. E. Scuseria, 
 M. A. Robb, J. R. Cheeseman, G. Scalmani, V. Barone, B. Mennucci, 
 G. A. Petersson, H. Nakatsuji, M. Caricato, X. Li, H. P. Hratchian, 
 A. F. Izmaylov, J. Bloino, G. Zheng, J. L. Sonnenberg, M. Hada, 
 M. Ehara, K. Toyota, R. Fukuda, J. Hasegawa, M. Ishida, T. Nakajima, 
 Y. Honda, O. Kitao, H. Nakai, T. Vreven, J. A. Montgomery, Jr., 
 J. E. Peralta, F. Ogliaro, M. Bearpark, J. J. Heyd, E. Brothers, 
 K. N. Kudin, V. N. Staroverov, T. Keith, R. Kobayashi, J. Normand, 
 K. Raghavachari, A. Rendell, J. C. Burant, S. S. Iyengar, J. Tomasi, 
 M. Cossi, N. Rega, J. M. Millam, M. Klene, J. E. Knox, J. B. Cross, 
 V. Bakken, C. Adamo, J. Jaramillo, R. Gomperts, R. E. Stratmann, 
 O. Yazyev, A. J. Austin, R. Cammi, C. Pomelli, J. W. Ochterski, 
 R. L. Martin, K. Morokuma, V. G. Zakrzewski, G. A. Voth, 
 P. Salvador, J. J. Dannenberg, S. Dapprich, A. D. Daniels, 
 O. Farkas, J. B. Foresman, J. V. Ortiz, J. Cioslowski, 
 and D. J. Fox, Gaussian, Inc., Wallingford CT, 2013.
 
 ******************************************
 Gaussian 09:  ES64L-G09RevD.01 24-Apr-2013
                 9-Nov-2021 
 ******************************************
 %mem=200MW
 %Chk=Chart1_3.chk
 %nprocshared=24
 Will use up to   24 processors via shared memory.
 ----------------------------------------------------------------------
 # b3lyp/6-311+g(d,p) pop=(chelpg, Dipole,ReadRadii,npa) Density=CHK SC
 F=Direct Geom=(checkpoint,NoDistance,NoAngle)
 ----------------------------------------------------------------------
 Warning!  Basis set taken from checkpoint file.
 1/29=2,38=1/1;
 2/9=11,12=2,40=1/2;
 3/5=7,6=2,7=111,11=2,14=-4,16=1,25=1,30=1,67=1,74=-5,89=1/1,2,3;
 4//1;
 6/7=2,8=2,9=2,10=2,11=2,15=24,20=103,22=10,28=1,40=-1/1,2,7;
 99/5=2/99;
 -----
 Title
 -----
 Structure from the checkpoint file:  "Chart1_3.chk"
 Charge =  0 Multiplicity = 1
 Redundant internal coordinates found in file.
 C,0,-2.8130710183,-1.187525398,0.346743994
 C,0,-1.4378728993,-1.3341376742,0.1673471494
 C,0,-0.6927420206,-0.3199199426,-0.4402150528
 C,0,-1.2414315781,0.865601711,-0.8944948561
 C,0,-2.6173023666,1.0151864284,-0.7162417024
 C,0,-3.3718674578,0.0018782723,-0.1074809209
 H,0,-0.6446899263,1.6379543943,-1.3623356216
 H,0,-3.1079179347,1.9196942981,-1.0497533658
 C,0,0.5880661847,-1.9862421587,0.1063943321
 O,0,0.612988709,-0.7380997519,-0.4805089253
 N,0,-0.5762957661,-2.3809374969,0.5005605665
 C,0,1.8858275019,-2.6979525474,0.2046720135
 H,0,2.3169148261,-2.8508675242,-0.7884112168
 H,0,2.6009368804,-2.114663214,0.7910669342
 H,0,1.728405369,-3.6629625113,0.6827392867
 H,0,-3.4073511787,-1.9604841685,0.8145406373
 Br,0,-5.2609477046,0.2755192238,0.1053100379
 Recover connectivity data from disk.
                          Input orientation:                          
 ---------------------------------------------------------------------
 Center     Atomic      Atomic             Coordinates (Angstroms)
 Number     Number       Type             X           Y           Z
 ---------------------------------------------------------------------
      1          6           0       -2.813071   -1.187525    0.346744
      2          6           0       -1.437873   -1.334138    0.167347
      3          6           0       -0.692742   -0.319920   -0.440215
      4          6           0       -1.241432    0.865602   -0.894495
      5          6           0       -2.617302    1.015186   -0.716242
      6          6           0       -3.371867    0.001878   -0.107481
      7          1           0       -0.644690    1.637954   -1.362336
      8          1           0       -3.107918    1.919694   -1.049753
      9          6           0        0.588066   -1.986242    0.106394
     10          8           0        0.612989   -0.738100   -0.480509
     11          7           0       -0.576296   -2.380937    0.500561
     12          6           0        1.885828   -2.697953    0.204672
     13          1           0        2.316915   -2.850868   -0.788411
     14          1           0        2.600937   -2.114663    0.791067
     15          1           0        1.728405   -3.662963    0.682739
     16          1           0       -3.407351   -1.960484    0.814541
     17         35           0       -5.260948    0.275519    0.105310
 ---------------------------------------------------------------------
 Stoichiometry    C8H6BrNO
 Framework group  C1[X(C8H6BrNO)]
 Deg. of freedom    45
 Full point group                 C1      NOp   1
 Largest Abelian subgroup         C1      NOp   1
 Largest concise Abelian subgroup C1      NOp   1
                         Standard orientation:                         
 ---------------------------------------------------------------------
 Center     Atomic      Atomic             Coordinates (Angstroms)
 Number     Number       Type             X           Y           Z
 ---------------------------------------------------------------------
      1          6           0       -0.224965   -0.891679   -0.000035
      2          6           0        1.116262   -0.509633    0.000014
      3          6           0        1.465199    0.843598   -0.000006
      4          6           0        0.540750    1.872328   -0.000008
      5          6           0       -0.802136    1.493080    0.000052
      6          6           0       -1.160240    0.137162    0.000002
      7          1           0        0.833976    2.914212    0.000080
      8          1           0       -1.575013    2.249869    0.000150
      9          6           0        3.242804   -0.403799   -0.000057
     10          8           0        2.835042    0.914027   -0.000076
     11          7           0        2.286427   -1.271112    0.000066
     12          6           0        4.706563   -0.644184    0.000027
     13          1           0        5.170234   -0.195127   -0.882464
     14          1           0        5.169892   -0.195993    0.883156
     15          1           0        4.892179   -1.716621   -0.000497
     16          1           0       -0.515672   -1.933292   -0.000019
     17         35           0       -3.027610   -0.311963   -0.000005
 ---------------------------------------------------------------------
 Rotational constants (GHZ):      3.1087287      0.3458544      0.3118326
 Basis read from chk: "Chart1_3.chk" (5D, 7F)
 There are   317 symmetry adapted cartesian basis functions of A   symmetry.
 There are   304 symmetry adapted basis functions of A   symmetry.
   304 basis functions,   502 primitive gaussians,   317 cartesian basis functions
    52 alpha electrons       52 beta electrons
       nuclear repulsion energy       792.0048400627 Hartrees.
 NAtoms=   17 NActive=   17 NUniq=   17 SFac= 1.00D+00 NAtFMM=   60 NAOKFM=F Big=F
 Integral buffers will be    131072 words long.
 Raffenetti 2 integral format.
 Two-electron integral symmetry is turned on.
 One-electron integrals computed using PRISM.
 NBasis=   304 RedAO= T EigKep=  1.17D-06  NBF=   304
 NBsUse=   304 1.00D-06 EigRej= -1.00D+00 NBFU=   304
 ExpMin= 3.50D-02 ExpMax= 4.40D+05 ExpMxC= 1.51D+04 IAcc=3 IRadAn=         5 AccDes= 0.00D+00
 Harris functional with IExCor=  402 and IRadAn=       5 diagonalized for initial guess.
 HarFok:  IExCor=  402 AccDes= 0.00D+00 IRadAn=         5 IDoV= 1 UseB2=F ITyADJ=14
 ICtDFT=  3500011 ScaDFX=  1.000000  1.000000  1.000000  1.000000
 FoFCou: FMM=F IPFlag=           0 FMFlag=      100000 FMFlg1=           0
         NFxFlg=           0 DoJE=T BraDBF=F KetDBF=T FulRan=T
         wScrn=  0.000000 ICntrl=     500 IOpCl=  0 I1Cent=   200000004 NGrid=           0
         NMat0=    1 NMatS0=      1 NMatT0=    0 NMatD0=    1 NMtDS0=    0 NMtDT0=    0
 Petite list used in FoFCou.
 Using densities on the checkpoint file.

 **********************************************************************

            Population analysis using the SCF density.

 **********************************************************************

 Orbital symmetries:
       Occupied  (A) (A) (A) (A) (A) (A) (A) (A) (A) (A) (A) (A)
                 (A) (A) (A) (A) (A) (A) (A) (A) (A) (A) (A) (A)
                 (A) (A) (A) (A) (A) (A) (A) (A) (A) (A) (A) (A)
                 (A) (A) (A) (A) (A) (A) (A) (A) (A) (A) (A) (A)
                 (A) (A) (A) (A)
       Virtual   (A) (A) (A) (A) (A) (A) (A) (A) (A) (A) (A) (A)
                 (A) (A) (A) (A) (A) (A) (A) (A) (A) (A) (A) (A)
                 (A) (A) (A) (A) (A) (A) (A) (A) (A) (A) (A) (A)
                 (A) (A) (A) (A) (A) (A) (A) (A) (A) (A) (A) (A)
                 (A) (A) (A) (A) (A) (A) (A) (A) (A) (A) (A) (A)
                 (A) (A) (A) (A) (A) (A) (A) (A) (A) (A) (A) (A)
                 (A) (A) (A) (A) (A) (A) (A) (A) (A) (A) (A) (A)
                 (A) (A) (A) (A) (A) (A) (A) (A) (A) (A) (A) (A)
                 (A) (A) (A) (A) (A) (A) (A) (A) (A) (A) (A) (A)
                 (A) (A) (A) (A) (A) (A) (A) (A) (A) (A) (A) (A)
                 (A) (A) (A) (A) (A) (A) (A) (A) (A) (A) (A) (A)
                 (A) (A) (A) (A) (A) (A) (A) (A) (A) (A) (A) (A)
                 (A) (A) (A) (A) (A) (A) (A) (A) (A) (A) (A) (A)
                 (A) (A) (A) (A) (A) (A) (A) (A) (A) (A) (A) (A)
                 (A) (A) (A) (A) (A) (A) (A) (A) (A) (A) (A) (A)
                 (A) (A) (A) (A) (A) (A) (A) (A) (A) (A) (A) (A)
                 (A) (A) (A) (A) (A) (A) (A) (A) (A) (A) (A) (A)
                 (A) (A) (A) (A) (A) (A) (A) (A) (A) (A) (A) (A)
                 (A) (A) (A) (A) (A) (A) (A) (A) (A) (A) (A) (A)
                 (A) (A) (A) (A) (A) (A) (A) (A) (A) (A) (A) (A)
                 (A) (A) (A) (A) (A) (A) (A) (A) (A) (A) (A) (A)
 The electronic state is 1-A.
 Alpha  occ. eigenvalues -- -482.83249 -62.48533 -56.30571 -56.30179 -56.30170
 Alpha  occ. eigenvalues --  -19.21140 -14.32740 -10.28888 -10.25012 -10.24285
 Alpha  occ. eigenvalues --  -10.22379 -10.20507 -10.20156 -10.20081 -10.19904
 Alpha  occ. eigenvalues --   -8.69500  -6.52647  -6.51341  -6.51325  -2.63739
 Alpha  occ. eigenvalues --   -2.63362  -2.63353  -2.62315  -2.62315  -1.14728
 Alpha  occ. eigenvalues --   -0.94744  -0.88872  -0.82186  -0.78943  -0.76377
 Alpha  occ. eigenvalues --   -0.72358  -0.63895  -0.63500  -0.61084  -0.53405
 Alpha  occ. eigenvalues --   -0.52806  -0.50360  -0.48677  -0.46991  -0.44328
 Alpha  occ. eigenvalues --   -0.43658  -0.42878  -0.42545  -0.38992  -0.38957
 Alpha  occ. eigenvalues --   -0.37727  -0.34925  -0.31559  -0.30939  -0.29620
 Alpha  occ. eigenvalues --   -0.26130  -0.24802
 Alpha virt. eigenvalues --   -0.04987  -0.02290  -0.02010  -0.00322   0.00648
 Alpha virt. eigenvalues --    0.01159   0.02031   0.02989   0.04089   0.04363
 Alpha virt. eigenvalues --    0.04645   0.05416   0.05612   0.06233   0.07181
 Alpha virt. eigenvalues --    0.07489   0.08735   0.08775   0.09247   0.10332
 Alpha virt. eigenvalues --    0.11008   0.12063   0.12410   0.12733   0.13609
 Alpha virt. eigenvalues --    0.13868   0.13937   0.14289   0.15829   0.16160
 Alpha virt. eigenvalues --    0.16596   0.16809   0.17386   0.17974   0.18130
 Alpha virt. eigenvalues --    0.18749   0.19701   0.19764   0.20214   0.20756
 Alpha virt. eigenvalues --    0.22391   0.22776   0.23658   0.23841   0.24203
 Alpha virt. eigenvalues --    0.24547   0.24748   0.25877   0.26243   0.27107
 Alpha virt. eigenvalues --    0.28212   0.28597   0.30542   0.30821   0.31386
 Alpha virt. eigenvalues --    0.31683   0.32634   0.34420   0.34897   0.37003
 Alpha virt. eigenvalues --    0.38858   0.40158   0.41723   0.41803   0.42655
 Alpha virt. eigenvalues --    0.43102   0.44436   0.45613   0.48107   0.49644
 Alpha virt. eigenvalues --    0.51572   0.52726   0.53259   0.54507   0.55116
 Alpha virt. eigenvalues --    0.55439   0.57257   0.57403   0.58120   0.58788
 Alpha virt. eigenvalues --    0.59808   0.60152   0.62082   0.63401   0.63994
 Alpha virt. eigenvalues --    0.65249   0.67141   0.67202   0.68539   0.69874
 Alpha virt. eigenvalues --    0.72690   0.74001   0.74359   0.75235   0.76532
 Alpha virt. eigenvalues --    0.78701   0.80595   0.82528   0.83292   0.84920
 Alpha virt. eigenvalues --    0.86349   0.86853   0.88781   0.89185   0.89999
 Alpha virt. eigenvalues --    0.92168   0.92831   0.93938   0.95038   0.97540
 Alpha virt. eigenvalues --    0.99009   1.00647   1.01189   1.03920   1.06082
 Alpha virt. eigenvalues --    1.06481   1.08731   1.08923   1.10024   1.15123
 Alpha virt. eigenvalues --    1.15273   1.18184   1.21858   1.25295   1.26016
 Alpha virt. eigenvalues --    1.26239   1.32946   1.37268   1.38511   1.40720
 Alpha virt. eigenvalues --    1.42753   1.44531   1.48015   1.50980   1.51715
 Alpha virt. eigenvalues --    1.53631   1.55272   1.57542   1.59503   1.59662
 Alpha virt. eigenvalues --    1.63029   1.64946   1.67575   1.69218   1.70918
 Alpha virt. eigenvalues --    1.72752   1.78258   1.80930   1.82766   1.83448
 Alpha virt. eigenvalues --    1.83798   1.88721   1.89985   1.90103   1.93030
 Alpha virt. eigenvalues --    1.95113   1.96726   1.97873   1.99847   2.01329
 Alpha virt. eigenvalues --    2.03302   2.06562   2.08009   2.12437   2.13361
 Alpha virt. eigenvalues --    2.15469   2.16183   2.20715   2.28288   2.29641
 Alpha virt. eigenvalues --    2.30901   2.36513   2.39563   2.40215   2.43158
 Alpha virt. eigenvalues --    2.46004   2.48308   2.52366   2.53072   2.54784
 Alpha virt. eigenvalues --    2.58578   2.60045   2.63668   2.65326   2.67839
 Alpha virt. eigenvalues --    2.70144   2.70804   2.73176   2.74285   2.76347
 Alpha virt. eigenvalues --    2.80156   2.80915   2.82383   2.84629   2.88223
 Alpha virt. eigenvalues --    2.89442   2.93556   2.97526   2.99143   3.04444
 Alpha virt. eigenvalues --    3.05753   3.11459   3.14283   3.14741   3.17208
 Alpha virt. eigenvalues --    3.27085   3.31304   3.37430   3.41565   3.50557
 Alpha virt. eigenvalues --    3.60275   3.61248   3.72357   3.76638   3.80687
 Alpha virt. eigenvalues --    3.88799   3.93924   3.95085   4.03864   4.14033
 Alpha virt. eigenvalues --    4.14706   4.17199   4.20448   4.21356   4.21642
 Alpha virt. eigenvalues --    4.37970   4.49855   4.57273   4.81889   4.97426
 Alpha virt. eigenvalues --    5.02194   5.45017   5.82068   6.76116   7.55564
 Alpha virt. eigenvalues --    7.67878   7.74390  23.53469  23.83337  23.89252
 Alpha virt. eigenvalues --   23.94076  23.94354  24.02850  24.08022  24.16205
 Alpha virt. eigenvalues --   35.65513  48.01692  49.91695 289.75295 289.87809
 Alpha virt. eigenvalues --  289.966841020.82737
          Condensed to atoms (all electrons):
               1          2          3          4          5          6
     1  C   23.383396  -6.204047  -3.122489  -2.703598   0.739903  -1.258129
     2  C   -6.204047  15.046052  -0.555996  -2.063207  -0.987484   0.695306
     3  C   -3.122489  -0.555996  11.405454  -3.216107   0.595993  -1.349103
     4  C   -2.703598  -2.063207  -3.216107  15.167459  -1.197400   1.662852
     5  C    0.739903  -0.987484   0.595993  -1.197400   6.831199  -0.340537
     6  C   -1.258129   0.695306  -1.349103   1.662852  -0.340537   6.693931
     7  H   -0.038024  -0.004120   0.061153   0.302401   0.013687  -0.012056
     8  H   -0.107586   0.079139   0.064430  -0.081126   0.423886  -0.034230
     9  C   -2.539665  -0.492642   0.759297  -0.872881   0.134634  -0.375831
    10  O    0.262536   0.613817   0.504446  -0.694763  -0.006104   0.023312
    11  N   -1.068640   0.820923   0.424166   0.241783  -0.041209   0.128379
    12  C   -0.624601  -1.773736  -0.004791   0.175845   0.021663  -0.078418
    13  H   -0.006845  -0.053992   0.037176   0.008631   0.000295  -0.000288
    14  H   -0.006836  -0.053910   0.037031   0.008597   0.000296  -0.000291
    15  H    0.019813   0.074316  -0.070600  -0.008580   0.000082  -0.000236
    16  H    0.122279   0.199689   0.016963  -0.012501   0.007903  -0.013626
    17  Br   0.462871  -0.215752   0.104718  -0.003658   0.168976  -0.339812
               7          8          9         10         11         12
     1  C   -0.038024  -0.107586  -2.539665   0.262536  -1.068640  -0.624601
     2  C   -0.004120   0.079139  -0.492642   0.613817   0.820923  -1.773736
     3  C    0.061153   0.064430   0.759297   0.504446   0.424166  -0.004791
     4  C    0.302401  -0.081126  -0.872881  -0.694763   0.241783   0.175845
     5  C    0.013687   0.423886   0.134634  -0.006104  -0.041209   0.021663
     6  C   -0.012056  -0.034230  -0.375831   0.023312   0.128379  -0.078418
     7  H    0.518751  -0.006573   0.030432  -0.004614   0.000095   0.002678
     8  H   -0.006573   0.509808   0.011245  -0.000665   0.000489   0.000464
     9  C    0.030432   0.011245   9.412549  -0.188721   0.273230  -0.208037
    10  O   -0.004614  -0.000665  -0.188721   8.261326  -0.009592  -0.678598
    11  N    0.000095   0.000489   0.273230  -0.009592   6.800242  -0.485186
    12  C    0.002678   0.000464  -0.208037  -0.678598  -0.485186   8.611128
    13  H   -0.000001   0.000000  -0.040651  -0.008172   0.010478   0.418061
    14  H   -0.000001   0.000000  -0.040490  -0.008145   0.010415   0.417995
    15  H    0.000003   0.000000  -0.053077   0.016086  -0.024113   0.423022
    16  H    0.000035  -0.000114   0.039442  -0.000078   0.000826   0.002280
    17  Br  -0.000128  -0.010206  -0.040045   0.000244   0.002046  -0.005168
              13         14         15         16         17
     1  C   -0.006845  -0.006836   0.019813   0.122279   0.462871
     2  C   -0.053992  -0.053910   0.074316   0.199689  -0.215752
     3  C    0.037176   0.037031  -0.070600   0.016963   0.104718
     4  C    0.008631   0.008597  -0.008580  -0.012501  -0.003658
     5  C    0.000295   0.000296   0.000082   0.007903   0.168976
     6  C   -0.000288  -0.000291  -0.000236  -0.013626  -0.339812
     7  H   -0.000001  -0.000001   0.000003   0.000035  -0.000128
     8  H    0.000000   0.000000   0.000000  -0.000114  -0.010206
     9  C   -0.040651  -0.040490  -0.053077   0.039442  -0.040045
    10  O   -0.008172  -0.008145   0.016086  -0.000078   0.000244
    11  N    0.010478   0.010415  -0.024113   0.000826   0.002046
    12  C    0.418061   0.417995   0.423022   0.002280  -0.005168
    13  H    0.519666  -0.030007  -0.021090   0.000001   0.000002
    14  H   -0.030007   0.519660  -0.021070   0.000001   0.000002
    15  H   -0.021090  -0.021070   0.488562   0.000001   0.000001
    16  H    0.000001   0.000001   0.000001   0.500629  -0.013634
    17  Br   0.000002   0.000002   0.000001  -0.013634  35.039907
 Mulliken charges:
               1
     1  C   -1.310339
     2  C    0.875643
     3  C    0.308260
     4  C   -0.713747
     5  C   -0.365783
     6  C    0.598775
     7  H    0.136282
     8  H    0.151038
     9  C    0.191210
    10  O   -0.082315
    11  N   -0.084333
    12  C   -0.214601
    13  H    0.166737
    14  H    0.166753
    15  H    0.176881
    16  H    0.149905
    17  Br  -0.150364
 Sum of Mulliken charges =   0.00000
 Mulliken charges with hydrogens summed into heavy atoms:
               1
     1  C   -1.160434
     2  C    0.875643
     3  C    0.308260
     4  C   -0.577466
     5  C   -0.214745
     6  C    0.598775
     9  C    0.191210
    10  O   -0.082315
    11  N   -0.084333
    12  C    0.295769
    17  Br  -0.150364
 APT charges:
               1
     1  C   -0.099378
     2  C    0.208009
     3  C    0.238160
     4  C    0.021366
     5  C   -0.189497
     6  C    0.345744
     7  H    0.058354
     8  H    0.068566
     9  C    0.656340
    10  O   -0.637812
    11  N   -0.541864
    12  C   -0.002452
    13  H    0.003605
    14  H    0.003642
    15  H    0.034100
    16  H    0.083196
    17  Br  -0.250078
 Sum of APT charges =   0.00000
 APT charges with hydrogens summed into heavy atoms:
               1
     1  C   -0.016182
     2  C    0.208009
     3  C    0.238160
     4  C    0.079719
     5  C   -0.120931
     6  C    0.345744
     9  C    0.656340
    10  O   -0.637812
    11  N   -0.541864
    12  C    0.038895
    17  Br  -0.250078
 Electronic spatial extent (au):  <R**2>=           3108.0956
 Charge=              0.0000 electrons
 Dipole moment (field-independent basis, Debye):
    X=              2.5491    Y=              1.4641    Z=              0.0001  Tot=              2.9396
 Quadrupole moment (field-independent basis, Debye-Ang):
   XX=            -66.2075   YY=            -74.5348   ZZ=            -78.1926
   XY=             -0.2459   XZ=             -0.0001   YZ=              0.0009
 Traceless Quadrupole moment (field-independent basis, Debye-Ang):
   XX=              6.7708   YY=             -1.5565   ZZ=             -5.2143
   XY=             -0.2459   XZ=             -0.0001   YZ=              0.0009
 Octapole moment (field-independent basis, Debye-Ang**2):
  XXX=             -8.3366  YYY=              8.8841  ZZZ=              0.0009  XYY=            -38.4846
  XXY=            -11.2318  XXZ=             -0.0001  XZZ=            -22.7156  YZZ=             -3.6405
  YYZ=             -0.0003  XYZ=              0.0008
 Hexadecapole moment (field-independent basis, Debye-Ang**3):
 XXXX=          -2656.5238 YYYY=           -482.1288 ZZZZ=            -95.3091 XXXY=            -12.1188
 XXXZ=             -0.0040 YYYX=             49.0752 YYYZ=              0.0074 ZZZX=              0.0067
 ZZZY=             -0.0007 XXYY=           -612.9427 XXZZ=           -522.6556 YYZZ=           -110.6293
 XXYZ=              0.0038 YYXZ=             -0.0073 ZZXY=             15.1410
 N-N= 7.920048400627D+02 E-N=-8.757860791368D+03  KE= 3.007844312767D+03
 Breneman (CHELPG) radii used.
 Read replacement radii for each type of atom:
 Rad(35) =   1.850000000000D+00
 Atom Element Radius
    1     6    1.50
    2     6    1.50
    3     6    1.50
    4     6    1.50
    5     6    1.50
    6     6    1.50
    7     1    1.45
    8     1    1.45
    9     6    1.50
   10     8    1.70
   11     7    1.70
   12     6    1.50
   13     1    1.45
   14     1    1.45
   15     1    1.45
   16     1    1.45
   17    35    1.85
 Generate Potential Derived Charges using the Breneman model, NDens= 1.
 Grid spacing= 0.300 Box extension= 2.800
 NStep X,Y,Z=   47     36     26   Total possible points=       43992
 Number of Points to Fit=   12240

 **********************************************************************

            Electrostatic Properties Using The SCF Density

 **********************************************************************

       Atomic Center    1 is at  -0.224965 -0.891679 -0.000035
       Atomic Center    2 is at   1.116262 -0.509633  0.000014
       Atomic Center    3 is at   1.465199  0.843598 -0.000006
       Atomic Center    4 is at   0.540750  1.872328 -0.000008
       Atomic Center    5 is at  -0.802136  1.493080  0.000052
       Atomic Center    6 is at  -1.160240  0.137162  0.000002
       Atomic Center    7 is at   0.833976  2.914212  0.000080
       Atomic Center    8 is at  -1.575013  2.249869  0.000150
       Atomic Center    9 is at   3.242804 -0.403799 -0.000057
       Atomic Center   10 is at   2.835042  0.914027 -0.000076
       Atomic Center   11 is at   2.286427 -1.271112  0.000066
       Atomic Center   12 is at   4.706563 -0.644184  0.000027
       Atomic Center   13 is at   5.170234 -0.195127 -0.882464
       Atomic Center   14 is at   5.169892 -0.195993  0.883156
       Atomic Center   15 is at   4.892179 -1.716621 -0.000497
       Atomic Center   16 is at  -0.515672 -1.933292 -0.000019
       Atomic Center   17 is at  -3.027610 -0.311963 -0.000005
   12240 points will be used for fitting atomic charges
 Fitting point charges to electrostatic potential
 The dipole moment will be constrained to the correct value
 Charges from ESP fit, RMS=   0.00529 RRMS=   0.43075:
 ESP charges:
               1
     1  C   -0.235583
     2  C    0.370707
     3  C    0.184977
     4  C   -0.218707
     5  C   -0.095895
     6  C    0.064266
     7  H    0.168175
     8  H    0.096341
     9  C    0.675791
    10  O   -0.371171
    11  N   -0.670958
    12  C   -0.319158
    13  H    0.101330
    14  H    0.101369
    15  H    0.105495
    16  H    0.152674
    17  Br  -0.109654
 Sum of ESP charges =   0.00000
 ESP charges with hydrogens summed into heavy atoms:
               1
     1  C   -0.082909
     2  C    0.370707
     3  C    0.184977
     4  C   -0.050531
     5  C    0.000446
     6  C    0.064266
     9  C    0.675791
    10  O   -0.371171
    11  N   -0.670958
    12  C   -0.010964
    17  Br  -0.109654
 Charge=   0.00000 Dipole=     2.5491     1.4641     0.0001 Tot=     2.9396
 -----------------------------------------------------------------

              Electrostatic Properties (Atomic Units)

 -----------------------------------------------------------------
    Center     Electric         -------- Electric Field --------
               Potential          X             Y             Z
 -----------------------------------------------------------------
    1 Atom    -14.750254
    2 Atom    -14.727616
    3 Atom    -14.701106
    4 Atom    -14.745360
    5 Atom    -14.749242
    6 Atom    -14.707583
    7 Atom     -1.076628
    8 Atom     -1.086986
    9 Atom    -14.663481
   10 Atom    -22.285347
   11 Atom    -18.394344
   12 Atom    -14.746709
   13 Atom     -1.082516
   14 Atom     -1.082510
   15 Atom     -1.087524
   16 Atom     -1.083562
   17 Atom   -175.816003
 -----------------------------------------------------------------
 ******************************Gaussian NBO Version 3.1******************************
             N A T U R A L   A T O M I C   O R B I T A L   A N D
          N A T U R A L   B O N D   O R B I T A L   A N A L Y S I S
 ******************************Gaussian NBO Version 3.1******************************
       /RESON  / : Allow strongly delocalized NBO set

 Analyzing the SCF density

 Job title: Title                                                           

 Storage needed:    278788 in NPA ( 209713585 available)


 NATURAL POPULATIONS:  Natural atomic orbital occupancies 
                                                          
   NAO  Atom  No  lang   Type(AO)    Occupancy      Energy
 ----------------------------------------------------------
     1    C    1  S      Cor( 1S)     1.99887      -1.00000
     2    C    1  S      Val( 2S)     0.94150      -1.00000
     3    C    1  S      Ryd( 3S)     0.00187      -1.00000
     4    C    1  S      Ryd( 4S)     0.00008      -1.00000
     5    C    1  S      Ryd( 5S)     0.00001      -1.00000
     6    C    1  px     Val( 2p)     1.06497      -1.00000
     7    C    1  px     Ryd( 3p)     0.00534      -1.00000
     8    C    1  px     Ryd( 4p)     0.00029      -1.00000
     9    C    1  px     Ryd( 5p)     0.00012      -1.00000
    10    C    1  py     Val( 2p)     1.19903      -1.00000
    11    C    1  py     Ryd( 3p)     0.00511      -1.00000
    12    C    1  py     Ryd( 4p)     0.00039      -1.00000
    13    C    1  py     Ryd( 5p)     0.00009      -1.00000
    14    C    1  pz     Val( 2p)     0.99732      -1.00000
    15    C    1  pz     Ryd( 3p)     0.00120      -1.00000
    16    C    1  pz     Ryd( 4p)     0.00068      -1.00000
    17    C    1  pz     Ryd( 5p)     0.00002      -1.00000
    18    C    1  dxy    Ryd( 3d)     0.00075      -1.00000
    19    C    1  dxz    Ryd( 3d)     0.00051      -1.00000
    20    C    1  dyz    Ryd( 3d)     0.00057      -1.00000
    21    C    1  dx2y2  Ryd( 3d)     0.00080      -1.00000
    22    C    1  dz2    Ryd( 3d)     0.00047      -1.00000

    23    C    2  S      Cor( 1S)     1.99887      -1.00000
    24    C    2  S      Val( 2S)     0.84248      -1.00000
    25    C    2  S      Ryd( 3S)     0.00271      -1.00000
    26    C    2  S      Ryd( 4S)     0.00009      -1.00000
    27    C    2  S      Ryd( 5S)     0.00003      -1.00000
    28    C    2  px     Val( 2p)     1.00895      -1.00000
    29    C    2  px     Ryd( 3p)     0.00488       0.00000
    30    C    2  px     Ryd( 4p)     0.00037       0.00000
    31    C    2  px     Ryd( 5p)     0.00015       0.00000
    32    C    2  py     Val( 2p)     1.00278       0.00000
    33    C    2  py     Ryd( 3p)     0.00949       0.00000
    34    C    2  py     Ryd( 4p)     0.00066       0.00000
    35    C    2  py     Ryd( 5p)     0.00012       0.00000
    36    C    2  pz     Val( 2p)     1.02512       0.00000
    37    C    2  pz     Ryd( 3p)     0.00052       0.00000
    38    C    2  pz     Ryd( 4p)     0.00051       0.00000
    39    C    2  pz     Ryd( 5p)     0.00003       0.00000
    40    C    2  dxy    Ryd( 3d)     0.00116       0.00000
    41    C    2  dxz    Ryd( 3d)     0.00167       0.00000
    42    C    2  dyz    Ryd( 3d)     0.00065       0.00000
    43    C    2  dx2y2  Ryd( 3d)     0.00153       0.00000
    44    C    2  dz2    Ryd( 3d)     0.00053       0.00000

    45    C    3  S      Cor( 1S)     1.99867       0.00000
    46    C    3  S      Val( 2S)     0.82735       0.00000
    47    C    3  S      Ryd( 3S)     0.00202       0.00000
    48    C    3  S      Ryd( 4S)     0.00015       0.00000
    49    C    3  S      Ryd( 5S)     0.00002       0.00000
    50    C    3  px     Val( 2p)     0.75665       0.00000
    51    C    3  px     Ryd( 3p)     0.00584       0.00000
    52    C    3  px     Ryd( 4p)     0.00024       0.00000
    53    C    3  px     Ryd( 5p)     0.00017       0.00000
    54    C    3  py     Val( 2p)     1.09270       0.00000
    55    C    3  py     Ryd( 3p)     0.00625       0.00000
    56    C    3  py     Ryd( 4p)     0.00025       0.00000
    57    C    3  py     Ryd( 5p)     0.00015       0.00000
    58    C    3  pz     Val( 2p)     1.02896       0.00000
    59    C    3  pz     Ryd( 3p)     0.00075       0.00000
    60    C    3  pz     Ryd( 4p)     0.00024       0.00000
    61    C    3  pz     Ryd( 5p)     0.00009       0.00000
    62    C    3  dxy    Ryd( 3d)     0.00163       0.00000
    63    C    3  dxz    Ryd( 3d)     0.00226       0.00000
    64    C    3  dyz    Ryd( 3d)     0.00066       0.00000
    65    C    3  dx2y2  Ryd( 3d)     0.00189       0.00000
    66    C    3  dz2    Ryd( 3d)     0.00071       0.00000

    67    C    4  S      Cor( 1S)     1.99905       0.00000
    68    C    4  S      Val( 2S)     0.94668       0.00000
    69    C    4  S      Ryd( 3S)     0.00165       0.00000
    70    C    4  S      Ryd( 4S)     0.00016       0.00000
    71    C    4  S      Ryd( 5S)     0.00001       0.00000
    72    C    4  px     Val( 2p)     1.06638       0.00000
    73    C    4  px     Ryd( 3p)     0.00430       0.00000
    74    C    4  px     Ryd( 4p)     0.00030       0.00000
    75    C    4  px     Ryd( 5p)     0.00014       0.00000
    76    C    4  py     Val( 2p)     1.17397       0.00000
    77    C    4  py     Ryd( 3p)     0.00497       0.00000
    78    C    4  py     Ryd( 4p)     0.00023       0.00000
    79    C    4  py     Ryd( 5p)     0.00012       0.00000
    80    C    4  pz     Val( 2p)     1.02190       0.00000
    81    C    4  pz     Ryd( 3p)     0.00093       0.00000
    82    C    4  pz     Ryd( 4p)     0.00033       0.00000
    83    C    4  pz     Ryd( 5p)     0.00002       0.00000
    84    C    4  dxy    Ryd( 3d)     0.00086       0.00000
    85    C    4  dxz    Ryd( 3d)     0.00057       0.00000
    86    C    4  dyz    Ryd( 3d)     0.00056       0.00000
    87    C    4  dx2y2  Ryd( 3d)     0.00050       0.00000
    88    C    4  dz2    Ryd( 3d)     0.00045       0.00000

    89    C    5  S      Cor( 1S)     1.99899       0.00000
    90    C    5  S      Val( 2S)     0.94650       0.00000
    91    C    5  S      Ryd( 3S)     0.00177       0.00000
    92    C    5  S      Ryd( 4S)     0.00018       0.00000
    93    C    5  S      Ryd( 5S)     0.00001       0.00000
    94    C    5  px     Val( 2p)     1.11488       0.00000
    95    C    5  px     Ryd( 3p)     0.00670       0.00000
    96    C    5  px     Ryd( 4p)     0.00028       0.00000
    97    C    5  px     Ryd( 5p)     0.00012       0.00000
    98    C    5  py     Val( 2p)     1.13157       0.00000
    99    C    5  py     Ryd( 3p)     0.00500       0.00000
   100    C    5  py     Ryd( 4p)     0.00028       0.00000
   101    C    5  py     Ryd( 5p)     0.00008       0.00000
   102    C    5  pz     Val( 2p)     1.01288       0.00000
   103    C    5  pz     Ryd( 3p)     0.00145       0.00000
   104    C    5  pz     Ryd( 4p)     0.00035       0.00000
   105    C    5  pz     Ryd( 5p)     0.00001       0.00000
   106    C    5  dxy    Ryd( 3d)     0.00074       0.00000
   107    C    5  dxz    Ryd( 3d)     0.00054       0.00000
   108    C    5  dyz    Ryd( 3d)     0.00045       0.00000
   109    C    5  dx2y2  Ryd( 3d)     0.00074       0.00000
   110    C    5  dz2    Ryd( 3d)     0.00043      -0.00013

   111    C    6  S      Cor( 3S)     1.99868       0.00002
   112    C    6  S      Val( 2S)     0.95537       0.00001
   113    C    6  S      Ryd( 1S)     0.00123      -0.00064
   114    C    6  S      Ryd( 5S)     0.00022       0.94073
   115    C    6  S      Ryd( 4S)     0.00001       0.33915
   116    C    6  px     Val( 3p)     0.97100       0.00041
   117    C    6  px     Ryd( 2p)     0.00685      -0.33915
   118    C    6  px     Ryd( 4p)     0.00027       0.94073
   119    C    6  px     Ryd( 5p)     0.00022       0.99579
   120    C    6  py     Val( 2p)     1.07161      -0.03400
   121    C    6  py     Ryd( 5p)     0.00673       0.00181
   122    C    6  py     Ryd( 3p)     0.00014      -0.00089
   123    C    6  py     Ryd( 4p)     0.00011      -0.00017
   124    C    6  pz     Val( 4p)     1.08999       0.00007
   125    C    6  pz     Ryd( 3p)     0.00095       0.00000
   126    C    6  pz     Ryd( 2p)     0.00038      -0.00325
   127    C    6  pz     Ryd( 5p)     0.00001       0.03390
   128    C    6  dxy    Ryd( 3d)     0.00114       0.99796
   129    C    6  dxz    Ryd( 3d)     0.00107      -0.04503
   130    C    6  dyz    Ryd( 3d)     0.00065       0.02947
   131    C    6  dx2y2  Ryd( 3d)     0.00140       0.00389
   132    C    6  dz2    Ryd( 3d)     0.00069      -0.00196

   133    H    7  S      Val( 2S)     0.77073      -0.00002
   134    H    7  S      Ryd( 3S)     0.00085       0.00002
   135    H    7  S      Ryd( 1S)     0.00020      -0.00029
   136    H    7  px     Ryd( 2p)     0.00012       0.04059
   137    H    7  py     Ryd( 2p)     0.00040       0.97598
   138    H    7  pz     Ryd( 2p)     0.00018       0.13889

   139    H    8  S      Val( 1S)     0.77219      -0.16285
   140    H    8  S      Ryd( 3S)     0.00065       0.00172
   141    H    8  S      Ryd( 2S)     0.00020       0.00099
   142    H    8  px     Ryd( 2p)     0.00030      -0.00003
   143    H    8  py     Ryd( 2p)     0.00028      -0.00008
   144    H    8  pz     Ryd( 2p)     0.00020      -0.03093

   145    C    9  S      Cor( 1S)     1.99924      -0.05715
   146    C    9  S      Val( 5S)     0.81776       0.90461
   147    C    9  S      Ryd( 4S)     0.00256       0.42126
   148    C    9  S      Ryd( 2S)     0.00017      -0.00003
   149    C    9  S      Ryd( 3S)     0.00003       0.00000
   150    C    9  px     Val( 2p)     0.97523      -0.00001
   151    C    9  px     Ryd( 3p)     0.00468       0.00002
   152    C    9  px     Ryd( 4p)     0.00047       0.01756
   153    C    9  px     Ryd( 5p)     0.00018       0.20523
   154    C    9  py     Val( 2p)     0.70333      -0.40155
   155    C    9  py     Ryd( 5p)     0.01389       0.89140
   156    C    9  py     Ryd( 3p)     0.00089      -0.04164
   157    C    9  py     Ryd( 4p)     0.00010      -0.00373
   158    C    9  pz     Val( 2p)     0.90303      -0.00001
   159    C    9  pz     Ryd( 3p)     0.00181       0.00000
   160    C    9  pz     Ryd( 4p)     0.00041       0.00263
   161    C    9  pz     Ryd( 5p)     0.00015       0.00678
   162    C    9  dxy    Ryd( 3d)     0.00224      -0.01689
   163    C    9  dxz    Ryd( 3d)     0.00204       0.03745
   164    C    9  dyz    Ryd( 3d)     0.00258       0.99913
   165    C    9  dx2y2  Ryd( 3d)     0.00323       0.00000
   166    C    9  dz2    Ryd( 3d)     0.00065       0.00000

   167    O   10  S      Cor( 3S)     1.99971       0.00000
   168    O   10  S      Val( 4S)     1.60893       0.00005
   169    O   10  S      Ryd( 2S)     0.00236      -0.00020
   170    O   10  S      Ryd( 1S)     0.00005      -0.00163
   171    O   10  S      Ryd( 5S)     0.00000       0.00349
   172    O   10  px     Val( 2p)     1.49841      -0.00016
   173    O   10  px     Ryd( 5p)     0.00220       0.99999
   174    O   10  px     Ryd( 4p)     0.00063       0.00000
   175    O   10  px     Ryd( 3p)     0.00005       0.00000
   176    O   10  py     Val( 3p)     1.62951       0.00009
   177    O   10  py     Ryd( 5p)     0.00334       0.00586
   178    O   10  py     Ryd( 2p)     0.00077      -0.00838
   179    O   10  py     Ryd( 4p)     0.00009       0.00029
   180    O   10  pz     Val( 5p)     1.73389       0.99995
   181    O   10  pz     Ryd( 2p)     0.00123       0.00000
   182    O   10  pz     Ryd( 3p)     0.00046       0.00000
   183    O   10  pz     Ryd( 4p)     0.00000       0.00000
   184    O   10  dxy    Ryd( 3d)     0.00093       0.00000
   185    O   10  dxz    Ryd( 3d)     0.00054       0.00002
   186    O   10  dyz    Ryd( 3d)     0.00091      -0.00004
   187    O   10  dx2y2  Ryd( 3d)     0.00148      -0.00135
   188    O   10  dz2    Ryd( 3d)     0.00065       0.00008

   189    N   11  S      Cor( 2S)     1.99932      -0.00001
   190    N   11  S      Val( 4S)     1.40244       1.00000
   191    N   11  S      Ryd( 1S)     0.00169      -0.12537
   192    N   11  S      Ryd( 3S)     0.00007       0.99328
   193    N   11  S      Ryd( 5S)     0.00000       1.02326
   194    N   11  px     Val( 4p)     1.18615       0.11732
   195    N   11  px     Ryd( 5p)     0.00330       0.99993
   196    N   11  px     Ryd( 3p)     0.00018       0.03545
   197    N   11  px     Ryd( 2p)     0.00006       0.00795
   198    N   11  py     Val( 3p)     1.64378      -0.07806
   199    N   11  py     Ryd( 5p)     0.00455       0.99637
   200    N   11  py     Ryd( 4p)     0.00029       0.01204
   201    N   11  py     Ryd( 2p)     0.00008      -0.52160
   202    N   11  pz     Val( 5p)     1.23640       0.71198
   203    N   11  pz     Ryd( 4p)     0.00068       0.55242
   204    N   11  pz     Ryd( 3p)     0.00010       0.05385
   205    N   11  pz     Ryd( 2p)     0.00003       0.00052
   206    N   11  dxy    Ryd( 3d)     0.00180       0.79682
   207    N   11  dxz    Ryd( 3d)     0.00036      -0.03896
   208    N   11  dyz    Ryd( 3d)     0.00225       0.69109
   209    N   11  dx2y2  Ryd( 3d)     0.00152       0.03046
   210    N   11  dz2    Ryd( 3d)     0.00096       0.00015

   211    C   12  S      Cor( 4S)     1.99926       0.53299
   212    C   12  S      Val( 5S)     1.09472       0.78602
   213    C   12  S      Ryd( 1S)     0.00064      -0.50247
   214    C   12  S      Ryd( 2S)     0.00011      -0.06000
   215    C   12  S      Ryd( 3S)     0.00000      -0.00069
   216    C   12  px     Val( 2p)     1.07625       0.00000
   217    C   12  px     Ryd( 3p)     0.00122       0.00000
   218    C   12  px     Ryd( 4p)     0.00015       0.00000
   219    C   12  px     Ryd( 5p)     0.00010       0.00000
   220    C   12  py     Val( 2p)     1.23264       0.00000
   221    C   12  py     Ryd( 3p)     0.00250       0.00000
   222    C   12  py     Ryd( 4p)     0.00014       0.00000
   223    C   12  py     Ryd( 5p)     0.00004       0.00000
   224    C   12  pz     Val( 2p)     1.21987       0.00000
   225    C   12  pz     Ryd( 3p)     0.00071       0.00000
   226    C   12  pz     Ryd( 4p)     0.00009       0.00000
   227    C   12  pz     Ryd( 5p)     0.00004       0.00000
   228    C   12  dxy    Ryd( 3d)     0.00023       0.00000
   229    C   12  dxz    Ryd( 3d)     0.00050       0.00000
   230    C   12  dyz    Ryd( 3d)     0.00066       0.00000
   231    C   12  dx2y2  Ryd( 3d)     0.00098       0.00000
   232    C   12  dz2    Ryd( 3d)     0.00073       0.00000

   233    H   13  S      Val( 1S)     0.76956       0.00000
   234    H   13  S      Ryd( 2S)     0.00080       0.00000
   235    H   13  S      Ryd( 3S)     0.00012       0.00000
   236    H   13  px     Ryd( 2p)     0.00019       0.00000
   237    H   13  py     Ryd( 2p)     0.00012       0.00000
   238    H   13  pz     Ryd( 2p)     0.00022       0.00000

   239    H   14  S      Val( 1S)     0.76956       0.00000
   240    H   14  S      Ryd( 2S)     0.00080       0.00000
   241    H   14  S      Ryd( 3S)     0.00012       0.00000
   242    H   14  px     Ryd( 2p)     0.00019       0.00000
   243    H   14  py     Ryd( 2p)     0.00012       0.00000
   244    H   14  pz     Ryd( 2p)     0.00022       0.00000

   245    H   15  S      Val( 1S)     0.76179       0.00000
   246    H   15  S      Ryd( 2S)     0.00079       0.00000
   247    H   15  S      Ryd( 3S)     0.00010       0.00000
   248    H   15  px     Ryd( 2p)     0.00014       0.00000
   249    H   15  py     Ryd( 2p)     0.00025       0.00000
   250    H   15  pz     Ryd( 2p)     0.00007       0.00000

   251    H   16  S      Val( 1S)     0.76152       0.00000
   252    H   16  S      Ryd( 2S)     0.00275       0.00000
   253    H   16  S      Ryd( 3S)     0.00027       0.00000
   254    H   16  px     Ryd( 2p)     0.00017       0.00000
   255    H   16  py     Ryd( 2p)     0.00041       0.00000
   256    H   16  pz     Ryd( 2p)     0.00017       0.00000

   257   Br   17  S      Cor( 1S)     2.00000       0.00000
   258   Br   17  S      Cor( 2S)     2.00000       0.00000
   259   Br   17  S      Cor( 3S)     1.99977       0.00000
   260   Br   17  S      Val( 4S)     1.86573       0.00000
   261   Br   17  S      Ryd( 5S)     0.00303       0.00000
   262   Br   17  S      Ryd( 6S)     0.00018       0.00000
   263   Br   17  S      Ryd( 7S)     0.00000       0.00000
   264   Br   17  S      Ryd( 8S)     0.00000       0.00000
   265   Br   17  S      Ryd( 9S)     0.00000       0.00000
   266   Br   17  px     Cor( 2p)     2.00000       0.00000
   267   Br   17  px     Cor( 3p)     1.99986       0.00000
   268   Br   17  px     Val( 4p)     1.18180       0.00000
   269   Br   17  px     Ryd( 5p)     0.00480       0.00000
   270   Br   17  px     Ryd( 6p)     0.00004       0.00000
   271   Br   17  px     Ryd( 7p)     0.00002       0.00000
   272   Br   17  px     Ryd( 9p)     0.00000       0.99996
   273   Br   17  px     Ryd( 8p)     0.00000       0.94064
   274   Br   17  py     Cor( 9p)     2.00000       0.96861
   275   Br   17  py     Cor( 8p)     1.99998       0.88495
   276   Br   17  py     Val( 7p)     1.92996       0.83484
   277   Br   17  py     Ryd( 6p)     0.00171       0.25803
   278   Br   17  py     Ryd( 5p)     0.00006       0.09763
   279   Br   17  py     Ryd( 4p)     0.00001       0.01690
   280   Br   17  py     Ryd( 3p)     0.00000       0.01101
   281   Br   17  py     Ryd( 2p)     0.00000       0.00000
   282   Br   17  pz     Cor( 2p)     2.00000       0.00000
   283   Br   17  pz     Cor( 3p)     1.99999       0.00000
   284   Br   17  pz     Val( 4p)     1.94152       0.00000
   285   Br   17  pz     Ryd( 5p)     0.00163       0.00000
   286   Br   17  pz     Ryd( 6p)     0.00005       0.00000
   287   Br   17  pz     Ryd( 7p)     0.00000       0.00000
   288   Br   17  pz     Ryd( 8p)     0.00000       0.00000
   289   Br   17  pz     Ryd( 9p)     0.00000       0.00000
   290   Br   17  dxy    Cor( 3d)     1.99993       0.00000
   291   Br   17  dxy    Ryd( 4d)     0.00119       0.00000
   292   Br   17  dxy    Ryd( 5d)     0.00001       0.00000
   293   Br   17  dxz    Cor( 3d)     1.99995       0.00000
   294   Br   17  dxz    Ryd( 4d)     0.00218       0.00000
   295   Br   17  dxz    Ryd( 5d)     0.00001       0.00000
   296   Br   17  dyz    Cor( 3d)     1.99999       0.00000
   297   Br   17  dyz    Ryd( 4d)     0.00019       0.00000
   298   Br   17  dyz    Ryd( 5d)     0.00000       0.00000
   299   Br   17  dx2y2  Cor( 3d)     1.99985       0.00000
   300   Br   17  dx2y2  Ryd( 4d)     0.00262       0.00000
   301   Br   17  dx2y2  Ryd( 5d)     0.00001       0.00000
   302   Br   17  dz2    Cor( 3d)     1.99994       0.00000
   303   Br   17  dz2    Ryd( 4d)     0.00106       0.00000
   304   Br   17  dz2    Ryd( 5d)     0.00000       0.00000

 WARNING:  1 low occupancy (<1.9990e) core orbital  found on  C    1
           1 low occupancy (<1.9990e) core orbital  found on  C    2
           1 low occupancy (<1.9990e) core orbital  found on  C    3
           1 low occupancy (<1.9990e) core orbital  found on  C    5
           1 low occupancy (<1.9990e) core orbital  found on  C    6

 WARNING:  Population inversion found on atom  C    6
           Population inversion found on atom  H    7
           Population inversion found on atom  H    8
           Population inversion found on atom  C    9
           Population inversion found on atom  O   10
           Population inversion found on atom  N   11
           Population inversion found on atom  C   12
           Population inversion found on atom Br   17


 Summary of Natural Population Analysis:                  
                                                          
                                       Natural Population 
                Natural  -----------------------------------------------
    Atom  No    Charge         Core      Valence    Rydberg      Total
 -----------------------------------------------------------------------
      C    1   -0.22002      1.99887     4.20282    0.01833     6.22002
      C    2    0.09670      1.99887     3.87933    0.02510     5.90330
      C    3    0.27234      1.99867     3.70567    0.02332     5.72766
      C    4   -0.22408      1.99905     4.20893    0.01609     6.22408
      C    5   -0.22396      1.99899     4.20584    0.01913     6.22396
      C    6   -0.10870      1.99868     4.08796    0.02206     6.10870
      H    7    0.22752      0.00000     0.77073    0.00174     0.77248
      H    8    0.22619      0.00000     0.77219    0.00162     0.77381
      C    9    0.56531      1.99924     3.39935    0.03609     5.43469
      O   10   -0.48613      1.99971     6.47074    0.01568     8.48613
      N   11   -0.48602      1.99932     5.46877    0.01792     7.48602
      C   12   -0.63160      1.99926     4.62349    0.00885     6.63160
      H   13    0.22899      0.00000     0.76956    0.00145     0.77101
      H   14    0.22899      0.00000     0.76956    0.00145     0.77101
      H   15    0.23686      0.00000     0.76179    0.00135     0.76314
      H   16    0.23471      0.00000     0.76152    0.00376     0.76529
     Br   17    0.06290     27.99927     6.91901    0.01882    34.93710
 =======================================================================
   * Total *    0.00000     47.98992    55.77729    0.23278   104.00000

                                 Natural Population      
 --------------------------------------------------------
   Core                      47.98992 ( 99.9790% of  48)
   Valence                   55.77729 ( 99.6023% of  56)
   Natural Minimal Basis    103.76722 ( 99.7762% of 104)
   Natural Rydberg Basis      0.23278 (  0.2238% of 104)
 --------------------------------------------------------

    Atom  No          Natural Electron Configuration
 ----------------------------------------------------------------------------
      C    1      [core]2S( 0.94)2p( 3.26)3p( 0.01)
      C    2      [core]2S( 0.84)2p( 3.04)3p( 0.01)3d( 0.01)
      C    3      [core]2S( 0.83)2p( 2.88)3p( 0.01)3d( 0.01)
      C    4      [core]2S( 0.95)2p( 3.26)3p( 0.01)
      C    5      [core]2S( 0.95)2p( 3.26)3p( 0.01)
      C    6      [core]2S( 0.96)2p( 1.08)3p( 0.97)4p( 1.09)5p( 0.01)
      H    7            2S( 0.77)
      H    8            1S( 0.77)
      C    9      [core]2p( 2.58)3p( 0.01)3d( 0.01)5S( 0.82)5p( 0.01)
      O   10      [core]2p( 1.50)3p( 1.63)4S( 1.61)5p( 1.74)
      N   11      [core]3p( 1.64)4S( 1.40)3d( 0.01)4p( 1.19)5p( 1.24)
      C   12      [core]2p( 3.53)5S( 1.09)
      H   13            1S( 0.77)
      H   14            1S( 0.77)
      H   15            1S( 0.76)
      H   16            1S( 0.76)
     Br   17      [core]4S( 1.87)4p( 3.12)4d( 0.01)5p( 0.01)7p( 1.93)


 NBO analysis skipped by request.

 This type of calculation cannot be archived.


 WE HAVE LEARNED THAT NOTHING IS SIMPLE AND
 RATIONAL EXCEPT WHAT WE OURSELVES HAVE INVENTED;
 THAT GOD THINKS IN TERMS NEITHER OF EUCLID OR RIEMANN; THAT SCIENCE HAS "EXPLAINED" NOTHING;
 THAT THE MORE WE KNOW THE MORE FANTASTIC THE WORLD BECOMES
 AND THE PROFOUNDER THE SURROUNDING DARKNESS.
   --  ALDOUS HUXLEY
 Job cpu time:       0 days  0 hours  3 minutes 44.6 seconds.
 File lengths (MBytes):  RWF=     38 Int=      0 D2E=      0 Chk=      8 Scr=      1
 Normal termination of Gaussian 09 at Tue Nov  9 16:43:29 2021.
