	You are loading a legacy vmd module, please load an up to date module instead.


	 module load container_env vmd

	Please run vmd command with crun.vmd prepend to it:
	
	 crun.vmd vmd

	 
module: Command not found.
module: Command not found.
 Entering Gaussian System, Link 0=g09
 Initial command:
 /opt/gaussian/g09/l1.exe "/tmp/G09-67.com.o10577459.tmp/Gau-1259283.inp" -scrdir="/tmp/G09-67.com.o10577459.tmp/"
 Entering Link 1 = /opt/gaussian/g09/l1.exe PID=   1259284.
  
 Copyright (c) 1988,1990,1992,1993,1995,1998,2003,2009,2013,
            Gaussian, Inc.  All Rights Reserved.
  
 This is part of the Gaussian(R) 09 program.  It is based on
 the Gaussian(R) 03 system (copyright 2003, Gaussian, Inc.),
 the Gaussian(R) 98 system (copyright 1998, Gaussian, Inc.),
 the Gaussian(R) 94 system (copyright 1995, Gaussian, Inc.),
 the Gaussian 92(TM) system (copyright 1992, Gaussian, Inc.),
 the Gaussian 90(TM) system (copyright 1990, Gaussian, Inc.),
 the Gaussian 88(TM) system (copyright 1988, Gaussian, Inc.),
 the Gaussian 86(TM) system (copyright 1986, Carnegie Mellon
 University), and the Gaussian 82(TM) system (copyright 1983,
 Carnegie Mellon University). Gaussian is a federally registered
 trademark of Gaussian, Inc.
  
 This software contains proprietary and confidential information,
 including trade secrets, belonging to Gaussian, Inc.
  
 This software is provided under written license and may be
 used, copied, transmitted, or stored only in accord with that
 written license.
  
 The following legend is applicable only to US Government
 contracts under FAR:
  
                    RESTRICTED RIGHTS LEGEND
  
 Use, reproduction and disclosure by the US Government is
 subject to restrictions as set forth in subparagraphs (a)
 and (c) of the Commercial Computer Software - Restricted
 Rights clause in FAR 52.227-19.
  
 Gaussian, Inc.
 340 Quinnipiac St., Bldg. 40, Wallingford CT 06492
  
  
 ---------------------------------------------------------------
 Warning -- This program may not be used in any manner that
 competes with the business of Gaussian, Inc. or will provide
 assistance to any competitor of Gaussian, Inc.  The licensee
 of this program is prohibited from giving any competitor of
 Gaussian, Inc. access to this program.  By using this program,
 the user acknowledges that Gaussian, Inc. is engaged in the
 business of creating and licensing software in the field of
 computational chemistry and represents and warrants to the
 licensee that it is not a competitor of Gaussian, Inc. and that
 it will not use this program in any manner prohibited above.
 ---------------------------------------------------------------
  

 Cite this work as:
 Gaussian 09, Revision D.01,
 M. J. Frisch, G. W. Trucks, H. B. Schlegel, G. E. Scuseria, 
 M. A. Robb, J. R. Cheeseman, G. Scalmani, V. Barone, B. Mennucci, 
 G. A. Petersson, H. Nakatsuji, M. Caricato, X. Li, H. P. Hratchian, 
 A. F. Izmaylov, J. Bloino, G. Zheng, J. L. Sonnenberg, M. Hada, 
 M. Ehara, K. Toyota, R. Fukuda, J. Hasegawa, M. Ishida, T. Nakajima, 
 Y. Honda, O. Kitao, H. Nakai, T. Vreven, J. A. Montgomery, Jr., 
 J. E. Peralta, F. Ogliaro, M. Bearpark, J. J. Heyd, E. Brothers, 
 K. N. Kudin, V. N. Staroverov, T. Keith, R. Kobayashi, J. Normand, 
 K. Raghavachari, A. Rendell, J. C. Burant, S. S. Iyengar, J. Tomasi, 
 M. Cossi, N. Rega, J. M. Millam, M. Klene, J. E. Knox, J. B. Cross, 
 V. Bakken, C. Adamo, J. Jaramillo, R. Gomperts, R. E. Stratmann, 
 O. Yazyev, A. J. Austin, R. Cammi, C. Pomelli, J. W. Ochterski, 
 R. L. Martin, K. Morokuma, V. G. Zakrzewski, G. A. Voth, 
 P. Salvador, J. J. Dannenberg, S. Dapprich, A. D. Daniels, 
 O. Farkas, J. B. Foresman, J. V. Ortiz, J. Cioslowski, 
 and D. J. Fox, Gaussian, Inc., Wallingford CT, 2013.
 
 ******************************************
 Gaussian 09:  ES64L-G09RevD.01 24-Apr-2013
                23-Apr-2024 
 ******************************************
 %nprocshared=20
 Will use up to   20 processors via shared memory.
 %mem=4GB
 %chk=67.chk
 ----------------------------------------------------------------------
 # opt freq=noraman b3lyp/6-311+g(d,p) pop=(npa,hirshfeld,chelpg,mbs) g
 eom=connectivity
 ----------------------------------------------------------------------
 1/14=-1,18=20,19=15,26=3,38=1,57=2/1,3;
 2/9=110,12=2,17=6,18=5,40=1/2;
 3/5=4,6=6,7=111,11=2,16=1,25=1,30=1,71=1,74=-5/1,2,3;
 4//1;
 5/5=2,38=5/2;
 6/7=2,8=2,9=2,10=2,15=8,20=3,27=100,28=1,40=-1,79=1/1,2,7;
 7//1,2,3,16;
 1/14=-1,18=20,19=15,26=3/3(2);
 2/9=110/2;
 99//99;
 2/9=110/2;
 3/5=4,6=6,7=111,11=2,16=1,25=1,30=1,71=1,74=-5/1,2,3;
 4/5=5,16=3,69=1/1;
 5/5=2,38=5/2;
 7//1,2,3,16;
 1/14=-1,18=20,19=15,26=3/3(-5);
 2/9=110/2;
 6/7=2,8=2,9=2,10=2,15=8,19=2,20=3,27=100,28=1,40=-1,79=1/1,2,7;
 99/9=1/99;
 -------------------
 Title Card Required
 -------------------
 Symbolic Z-matrix:
 Charge =  0 Multiplicity = 1
 C                    -0.04569   1.6181    1.20035 
 O                    -0.26749   1.39929   2.39052 
 C                    -0.397    -0.50023  -0.07297 
 C                    -2.16299   1.27103  -0.07612 
 C                    -1.06883  -1.17409  -1.25199 
 H                    -0.7702   -0.95862   0.88043 
 H                     0.70913  -0.67579  -0.12065 
 C                    -2.83468   0.59782  -1.25562 
 H                    -2.62457   0.90115   0.87703 
 H                    -2.33547   2.37743  -0.12698 
 C                    -2.55708  -0.8915   -1.27296 
 H                    -0.89737  -2.28061  -1.19993 
 H                    -0.60602  -0.80576  -2.20515 
 H                    -3.94083   0.77295  -1.20771 
 H                    -2.46172   1.05733  -2.20862 
 H                    -3.01301  -1.34784  -2.18973 
 H                    -3.04026  -1.37137  -0.38154 
 N                    -0.67409   0.98932  -0.05716 
 C                     1.01749   2.6773    0.85491 
 C                     0.42764   3.68985  -0.14429 
 H                     0.39887   3.25236  -1.12035 
 H                    -0.5645    3.95275   0.1581 
 H                     1.03871   4.56795  -0.16489 
 C                     1.44554   3.41262   2.13853 
 H                     1.8863    2.71464   2.8193 
 H                     2.15921   4.17136   1.8938 
 H                     0.58852   3.86278   2.59435 
 C                     2.24249   1.98863   0.22506 
 H                     3.07847   2.65606   0.24914 
 H                     2.47715   1.10298   0.77774 
 H                     2.02299   1.72836  -0.78933 
 

 GradGradGradGradGradGradGradGradGradGradGradGradGradGradGradGradGradGrad
 Berny optimization.
 Initialization pass.
                           ----------------------------
                           !    Initial Parameters    !
                           ! (Angstroms and Degrees)  !
 --------------------------                            --------------------------
 ! Name  Definition              Value          Derivative Info.                !
 --------------------------------------------------------------------------------
 ! R1    R(1,2)                  1.2303         estimate D2E/DX2                !
 ! R2    R(1,18)                 1.54           estimate D2E/DX2                !
 ! R3    R(1,19)                 1.54           estimate D2E/DX2                !
 ! R4    R(3,5)                  1.5151         estimate D2E/DX2                !
 ! R5    R(3,6)                  1.1218         estimate D2E/DX2                !
 ! R6    R(3,7)                  1.121          estimate D2E/DX2                !
 ! R7    R(3,18)                 1.5152         estimate D2E/DX2                !
 ! R8    R(4,8)                  1.5151         estimate D2E/DX2                !
 ! R9    R(4,9)                  1.1218         estimate D2E/DX2                !
 ! R10   R(4,10)                 1.1209         estimate D2E/DX2                !
 ! R11   R(4,18)                 1.5154         estimate D2E/DX2                !
 ! R12   R(5,11)                 1.515          estimate D2E/DX2                !
 ! R13   R(5,12)                 1.1209         estimate D2E/DX2                !
 ! R14   R(5,13)                 1.1218         estimate D2E/DX2                !
 ! R15   R(8,11)                 1.5151         estimate D2E/DX2                !
 ! R16   R(8,14)                 1.121          estimate D2E/DX2                !
 ! R17   R(8,15)                 1.1218         estimate D2E/DX2                !
 ! R18   R(11,16)                1.121          estimate D2E/DX2                !
 ! R19   R(11,17)                1.1218         estimate D2E/DX2                !
 ! R20   R(19,20)                1.54           estimate D2E/DX2                !
 ! R21   R(19,24)                1.54           estimate D2E/DX2                !
 ! R22   R(19,28)                1.54           estimate D2E/DX2                !
 ! R23   R(20,21)                1.07           estimate D2E/DX2                !
 ! R24   R(20,22)                1.07           estimate D2E/DX2                !
 ! R25   R(20,23)                1.07           estimate D2E/DX2                !
 ! R26   R(24,25)                1.07           estimate D2E/DX2                !
 ! R27   R(24,26)                1.07           estimate D2E/DX2                !
 ! R28   R(24,27)                1.07           estimate D2E/DX2                !
 ! R29   R(28,29)                1.07           estimate D2E/DX2                !
 ! R30   R(28,30)                1.07           estimate D2E/DX2                !
 ! R31   R(28,31)                1.07           estimate D2E/DX2                !
 ! A1    A(2,1,18)             130.0733         estimate D2E/DX2                !
 ! A2    A(2,1,19)             117.632          estimate D2E/DX2                !
 ! A3    A(18,1,19)            112.2947         estimate D2E/DX2                !
 ! A4    A(5,3,6)              109.3968         estimate D2E/DX2                !
 ! A5    A(5,3,7)              109.5595         estimate D2E/DX2                !
 ! A6    A(5,3,18)             111.3625         estimate D2E/DX2                !
 ! A7    A(6,3,7)              107.4839         estimate D2E/DX2                !
 ! A8    A(6,3,18)             109.3908         estimate D2E/DX2                !
 ! A9    A(7,3,18)             109.5638         estimate D2E/DX2                !
 ! A10   A(8,4,9)              109.4233         estimate D2E/DX2                !
 ! A11   A(8,4,10)             109.5746         estimate D2E/DX2                !
 ! A12   A(8,4,18)             111.2657         estimate D2E/DX2                !
 ! A13   A(9,4,10)             107.5            estimate D2E/DX2                !
 ! A14   A(9,4,18)             109.4111         estimate D2E/DX2                !
 ! A15   A(10,4,18)            109.5868         estimate D2E/DX2                !
 ! A16   A(3,5,11)             111.3094         estimate D2E/DX2                !
 ! A17   A(3,5,12)             109.5772         estimate D2E/DX2                !
 ! A18   A(3,5,13)             109.4042         estimate D2E/DX2                !
 ! A19   A(11,5,12)            109.5749         estimate D2E/DX2                !
 ! A20   A(11,5,13)            109.4074         estimate D2E/DX2                !
 ! A21   A(12,5,13)            107.4863         estimate D2E/DX2                !
 ! A22   A(4,8,11)             111.3744         estimate D2E/DX2                !
 ! A23   A(4,8,14)             109.5589         estimate D2E/DX2                !
 ! A24   A(4,8,15)             109.3871         estimate D2E/DX2                !
 ! A25   A(11,8,14)            109.5649         estimate D2E/DX2                !
 ! A26   A(11,8,15)            109.3914         estimate D2E/DX2                !
 ! A27   A(14,8,15)            107.4801         estimate D2E/DX2                !
 ! A28   A(5,11,8)             111.2962         estimate D2E/DX2                !
 ! A29   A(5,11,16)            109.5686         estimate D2E/DX2                !
 ! A30   A(5,11,17)            109.4108         estimate D2E/DX2                !
 ! A31   A(8,11,16)            109.5728         estimate D2E/DX2                !
 ! A32   A(8,11,17)            109.42           estimate D2E/DX2                !
 ! A33   A(16,11,17)           107.4917         estimate D2E/DX2                !
 ! A34   A(1,18,3)             109.59           estimate D2E/DX2                !
 ! A35   A(1,18,4)             109.586          estimate D2E/DX2                !
 ! A36   A(3,18,4)             111.2413         estimate D2E/DX2                !
 ! A37   A(1,19,20)            109.4712         estimate D2E/DX2                !
 ! A38   A(1,19,24)            109.4712         estimate D2E/DX2                !
 ! A39   A(1,19,28)            109.4712         estimate D2E/DX2                !
 ! A40   A(20,19,24)           109.4712         estimate D2E/DX2                !
 ! A41   A(20,19,28)           109.4712         estimate D2E/DX2                !
 ! A42   A(24,19,28)           109.4713         estimate D2E/DX2                !
 ! A43   A(19,20,21)           109.4712         estimate D2E/DX2                !
 ! A44   A(19,20,22)           109.4712         estimate D2E/DX2                !
 ! A45   A(19,20,23)           109.4712         estimate D2E/DX2                !
 ! A46   A(21,20,22)           109.4713         estimate D2E/DX2                !
 ! A47   A(21,20,23)           109.4712         estimate D2E/DX2                !
 ! A48   A(22,20,23)           109.4712         estimate D2E/DX2                !
 ! A49   A(19,24,25)           109.4712         estimate D2E/DX2                !
 ! A50   A(19,24,26)           109.4712         estimate D2E/DX2                !
 ! A51   A(19,24,27)           109.4712         estimate D2E/DX2                !
 ! A52   A(25,24,26)           109.4713         estimate D2E/DX2                !
 ! A53   A(25,24,27)           109.4712         estimate D2E/DX2                !
 ! A54   A(26,24,27)           109.4712         estimate D2E/DX2                !
 ! A55   A(19,28,29)           109.4712         estimate D2E/DX2                !
 ! A56   A(19,28,30)           109.4712         estimate D2E/DX2                !
 ! A57   A(19,28,31)           109.4712         estimate D2E/DX2                !
 ! A58   A(29,28,30)           109.4713         estimate D2E/DX2                !
 ! A59   A(29,28,31)           109.4712         estimate D2E/DX2                !
 ! A60   A(30,28,31)           109.4712         estimate D2E/DX2                !
 ! D1    D(2,1,18,3)           -61.1713         estimate D2E/DX2                !
 ! D2    D(2,1,18,4)            61.1591         estimate D2E/DX2                !
 ! D3    D(19,1,18,3)          118.8318         estimate D2E/DX2                !
 ! D4    D(19,1,18,4)         -118.8378         estimate D2E/DX2                !
 ! D5    D(2,1,19,20)         -128.5877         estimate D2E/DX2                !
 ! D6    D(2,1,19,24)           -8.5877         estimate D2E/DX2                !
 ! D7    D(2,1,19,28)          111.4123         estimate D2E/DX2                !
 ! D8    D(18,1,19,20)          51.4096         estimate D2E/DX2                !
 ! D9    D(18,1,19,24)         171.4096         estimate D2E/DX2                !
 ! D10   D(18,1,19,28)         -68.5904         estimate D2E/DX2                !
 ! D11   D(6,3,5,11)            65.8497         estimate D2E/DX2                !
 ! D12   D(6,3,5,12)           -55.5104         estimate D2E/DX2                !
 ! D13   D(6,3,5,13)          -173.1163         estimate D2E/DX2                !
 ! D14   D(7,3,5,11)          -176.5618         estimate D2E/DX2                !
 ! D15   D(7,3,5,12)            62.0781         estimate D2E/DX2                !
 ! D16   D(7,3,5,13)           -55.5279         estimate D2E/DX2                !
 ! D17   D(18,3,5,11)          -55.1928         estimate D2E/DX2                !
 ! D18   D(18,3,5,12)         -176.5529         estimate D2E/DX2                !
 ! D19   D(18,3,5,13)           65.8411         estimate D2E/DX2                !
 ! D20   D(5,3,18,1)           176.5953         estimate D2E/DX2                !
 ! D21   D(5,3,18,4)            55.2571         estimate D2E/DX2                !
 ! D22   D(6,3,18,1)            55.5492         estimate D2E/DX2                !
 ! D23   D(6,3,18,4)           -65.7889         estimate D2E/DX2                !
 ! D24   D(7,3,18,1)           -62.0382         estimate D2E/DX2                !
 ! D25   D(7,3,18,4)           176.6237         estimate D2E/DX2                !
 ! D26   D(9,4,8,11)           -65.785          estimate D2E/DX2                !
 ! D27   D(9,4,8,14)            55.5927         estimate D2E/DX2                !
 ! D28   D(9,4,8,15)           173.1705         estimate D2E/DX2                !
 ! D29   D(10,4,8,11)          176.5828         estimate D2E/DX2                !
 ! D30   D(10,4,8,14)          -62.0395         estimate D2E/DX2                !
 ! D31   D(10,4,8,15)           55.5383         estimate D2E/DX2                !
 ! D32   D(18,4,8,11)           55.2381         estimate D2E/DX2                !
 ! D33   D(18,4,8,14)          176.6158         estimate D2E/DX2                !
 ! D34   D(18,4,8,15)          -65.8064         estimate D2E/DX2                !
 ! D35   D(8,4,18,1)          -176.5771         estimate D2E/DX2                !
 ! D36   D(8,4,18,3)           -55.2366         estimate D2E/DX2                !
 ! D37   D(9,4,18,1)           -55.5468         estimate D2E/DX2                !
 ! D38   D(9,4,18,3)            65.7936         estimate D2E/DX2                !
 ! D39   D(10,4,18,1)           62.0853         estimate D2E/DX2                !
 ! D40   D(10,4,18,3)         -176.5742         estimate D2E/DX2                !
 ! D41   D(3,5,11,8)            55.0823         estimate D2E/DX2                !
 ! D42   D(3,5,11,16)          176.4253         estimate D2E/DX2                !
 ! D43   D(3,5,11,17)          -65.9633         estimate D2E/DX2                !
 ! D44   D(12,5,11,8)          176.4437         estimate D2E/DX2                !
 ! D45   D(12,5,11,16)         -62.2133         estimate D2E/DX2                !
 ! D46   D(12,5,11,17)          55.3981         estimate D2E/DX2                !
 ! D47   D(13,5,11,8)          -65.9498         estimate D2E/DX2                !
 ! D48   D(13,5,11,16)          55.3933         estimate D2E/DX2                !
 ! D49   D(13,5,11,17)         173.0046         estimate D2E/DX2                !
 ! D50   D(4,8,11,5)           -55.1527         estimate D2E/DX2                !
 ! D51   D(4,8,11,16)         -176.4932         estimate D2E/DX2                !
 ! D52   D(4,8,11,17)           65.8876         estimate D2E/DX2                !
 ! D53   D(14,8,11,5)         -176.5268         estimate D2E/DX2                !
 ! D54   D(14,8,11,16)          62.1326         estimate D2E/DX2                !
 ! D55   D(14,8,11,17)         -55.4866         estimate D2E/DX2                !
 ! D56   D(15,8,11,5)           65.8893         estimate D2E/DX2                !
 ! D57   D(15,8,11,16)         -55.4512         estimate D2E/DX2                !
 ! D58   D(15,8,11,17)        -173.0704         estimate D2E/DX2                !
 ! D59   D(1,19,20,21)         -76.582          estimate D2E/DX2                !
 ! D60   D(1,19,20,22)          43.418          estimate D2E/DX2                !
 ! D61   D(1,19,20,23)         163.418          estimate D2E/DX2                !
 ! D62   D(24,19,20,21)        163.418          estimate D2E/DX2                !
 ! D63   D(24,19,20,22)        -76.582          estimate D2E/DX2                !
 ! D64   D(24,19,20,23)         43.418          estimate D2E/DX2                !
 ! D65   D(28,19,20,21)         43.418          estimate D2E/DX2                !
 ! D66   D(28,19,20,22)        163.418          estimate D2E/DX2                !
 ! D67   D(28,19,20,23)        -76.582          estimate D2E/DX2                !
 ! D68   D(1,19,24,25)          61.9416         estimate D2E/DX2                !
 ! D69   D(1,19,24,26)        -178.0584         estimate D2E/DX2                !
 ! D70   D(1,19,24,27)         -58.0584         estimate D2E/DX2                !
 ! D71   D(20,19,24,25)       -178.0584         estimate D2E/DX2                !
 ! D72   D(20,19,24,26)        -58.0584         estimate D2E/DX2                !
 ! D73   D(20,19,24,27)         61.9416         estimate D2E/DX2                !
 ! D74   D(28,19,24,25)        -58.0584         estimate D2E/DX2                !
 ! D75   D(28,19,24,26)         61.9416         estimate D2E/DX2                !
 ! D76   D(28,19,24,27)       -178.0584         estimate D2E/DX2                !
 ! D77   D(1,19,28,29)        -163.4918         estimate D2E/DX2                !
 ! D78   D(1,19,28,30)         -43.4918         estimate D2E/DX2                !
 ! D79   D(1,19,28,31)          76.5082         estimate D2E/DX2                !
 ! D80   D(20,19,28,29)         76.5082         estimate D2E/DX2                !
 ! D81   D(20,19,28,30)       -163.4918         estimate D2E/DX2                !
 ! D82   D(20,19,28,31)        -43.4918         estimate D2E/DX2                !
 ! D83   D(24,19,28,29)        -43.4918         estimate D2E/DX2                !
 ! D84   D(24,19,28,30)         76.5082         estimate D2E/DX2                !
 ! D85   D(24,19,28,31)       -163.4918         estimate D2E/DX2                !
 --------------------------------------------------------------------------------
 Trust Radius=3.00D-01 FncErr=1.00D-07 GrdErr=1.00D-06
 Number of steps in this run=    186 maximum allowed number of steps=    186.
 GradGradGradGradGradGradGradGradGradGradGradGradGradGradGradGradGradGrad

                          Input orientation:                          
 ---------------------------------------------------------------------
 Center     Atomic      Atomic             Coordinates (Angstroms)
 Number     Number       Type             X           Y           Z
 ---------------------------------------------------------------------
      1          6           0       -0.045690    1.618098    1.200355
      2          8           0       -0.267488    1.399292    2.390519
      3          6           0       -0.397003   -0.500226   -0.072969
      4          6           0       -2.162993    1.271032   -0.076115
      5          6           0       -1.068832   -1.174092   -1.251992
      6          1           0       -0.770205   -0.958618    0.880425
      7          1           0        0.709134   -0.675785   -0.120654
      8          6           0       -2.834676    0.597818   -1.255619
      9          1           0       -2.624567    0.901152    0.877029
     10          1           0       -2.335469    2.377426   -0.126981
     11          6           0       -2.557081   -0.891505   -1.272958
     12          1           0       -0.897367   -2.280607   -1.199934
     13          1           0       -0.606022   -0.805758   -2.205153
     14          1           0       -3.940831    0.772953   -1.207714
     15          1           0       -2.461719    1.057333   -2.208624
     16          1           0       -3.013015   -1.347839   -2.189735
     17          1           0       -3.040257   -1.371366   -0.381543
     18          7           0       -0.674094    0.989317   -0.057160
     19          6           0        1.017495    2.677299    0.854912
     20          6           0        0.427638    3.689847   -0.144295
     21          1           0        0.398872    3.252358   -1.120346
     22          1           0       -0.564500    3.952753    0.158102
     23          1           0        1.038705    4.567955   -0.164895
     24          6           0        1.445540    3.412625    2.138530
     25          1           0        1.886296    2.714639    2.819301
     26          1           0        2.159213    4.171360    1.893803
     27          1           0        0.588519    3.862783    2.594349
     28          6           0        2.242491    1.988627    0.225060
     29          1           0        3.078470    2.656055    0.249136
     30          1           0        2.477147    1.102977    0.777744
     31          1           0        2.022990    1.728356   -0.789326
 ---------------------------------------------------------------------
                    Distance matrix (angstroms):
                    1          2          3          4          5
     1  C    0.000000
     2  O    1.230269   0.000000
     3  C    2.496412   3.113474   0.000000
     4  C    2.496558   3.113467   2.501217   0.000000
     5  C    3.854498   4.531264   1.515106   2.925493   0.000000
     6  H    2.695689   2.844793   1.121768   2.797529   2.163981
     7  H    2.752585   3.400843   1.120996   3.470042   2.165502
     8  C    3.853729   4.530689   2.923459   1.515125   2.501576
     9  H    2.696138   2.845104   2.797928   1.121761   3.355544
    10  H    2.753450   3.401631   3.470079   1.120911   3.934882
    11  C    4.326947   4.889893   2.501802   2.502859   1.514985
    12  H    4.656892   5.179745   2.165680   3.934326   1.120931
    13  H    4.217409   5.108528   2.164081   3.357085   1.121775
    14  H    4.656736   5.180061   3.932856   2.165481   3.470061
    15  H    4.215779   5.107221   3.354112   2.163908   2.799024
    16  H    5.393932   6.005279   3.470254   3.471082   2.165501
    17  H    4.517381   4.800951   2.800160   2.800919   2.164050
    18  N    1.540000   2.514864   1.515180   1.515435   2.502755
    19  C    1.540000   2.375410   3.599783   3.599986   4.860558
    20  C    2.514810   3.486420   4.271046   3.544952   5.208102
    21  H    2.872994   4.025427   3.976469   3.402826   4.665292
    22  H    2.608844   3.404712   4.462115   3.130760   5.341091
    23  H    3.426583   4.275126   5.268412   4.596569   6.212455
    24  C    2.514809   2.655461   4.857581   4.744743   6.233432
    25  H    2.748810   2.559839   4.890198   5.183066   6.358493
    26  H    3.444070   3.717522   5.676808   5.565424   6.992150
    27  H    2.717361   2.615929   5.207849   4.628107   6.550669
    28  C    2.514809   3.366976   3.640074   4.473694   4.811376
    29  H    3.426740   4.166582   4.705823   5.431115   5.841535
    30  H    2.609340   3.197166   3.399221   4.721040   4.677482
    31  H    2.872355   3.932683   3.366914   4.270863   4.265868
                    6          7          8          9         10
     6  H    0.000000
     7  H    1.808479   0.000000
     8  C    3.353688   3.933039   0.000000
     9  H    2.626293   3.820427   2.164334   0.000000
    10  H    3.820223   4.311814   2.165649   1.808590   0.000000
    11  C    2.799016   3.470230   1.515071   2.800110   3.471063
    12  H    2.468141   2.514188   3.470100   4.173797   4.991656
    13  H    3.093722   2.468130   2.799739   4.060531   4.176415
    14  H    4.172714   4.990262   1.120958   2.468834   2.513863
    15  H    4.058018   4.173443   1.121816   3.093892   2.468161
    16  H    3.821986   4.311281   2.165631   3.822812   4.311800
    17  H    2.629841   3.822280   2.164245   2.630806   3.822953
    18  N    2.163967   2.165621   2.501538   2.164446   2.166076
    19  C    4.051718   3.505709   4.859816   4.052136   3.506623
    20  C    4.908473   4.374763   4.630160   4.258624   3.059004
    21  H    4.806469   4.065213   4.185776   4.319591   3.037911
    22  H    4.968463   4.808660   4.290442   3.751400   2.387312
    23  H    5.908287   5.254273   5.652853   5.286834   4.023046
    24  C    5.059656   4.728774   6.145212   4.946176   4.527715
    25  H    4.930421   4.639399   6.585855   5.235365   5.159224
    26  H    5.993755   5.445694   6.901304   5.883251   5.244419
    27  H    5.294296   5.290028   6.099223   4.695143   4.261646
    28  C    4.265219   3.093509   5.468490   5.029505   4.607908
    29  H    5.317582   4.105077   6.439404   5.999880   5.434135
    30  H    3.847858   2.664016   5.710098   5.106670   5.060041
    31  H    4.220170   2.820149   5.009238   5.006076   4.456025
                   11         12         13         14         15
    11  C    0.000000
    12  H    2.165546   0.000000
    13  H    2.164017   1.808460   0.000000
    14  H    2.165512   4.311260   3.822063   0.000000
    15  H    2.163916   3.821845   2.629588   1.808443   0.000000
    16  H    1.120980   2.515100   2.467327   2.514551   2.467617
    17  H    1.121760   2.467480   3.093697   2.468136   3.093785
    18  N    2.925969   3.471050   2.800144   3.470182   2.798040
    19  C    5.481039   5.698239   4.912382   5.697891   4.910649
    20  C    5.583119   6.206153   5.052332   5.359352   4.420404
    21  H    5.092401   5.683333   4.319136   4.998811   3.766360
    22  H    5.430022   6.388257   5.313203   4.834893   4.193362
    23  H    6.630473   7.191834   5.978677   6.347069   5.362300
    24  C    6.795937   7.003388   6.393062   6.868640   6.301732
    25  H    7.035230   6.989671   6.621932   7.344549   6.850688
    26  H    7.609495   7.780859   7.015674   7.640623   6.919544
    27  H    6.888695   7.371953   6.801282   6.672162   6.343741
    28  C    5.794403   5.487775   4.672104   6.462521   5.377706
    29  H    6.830914   6.502132   5.619891   7.412089   6.268189
    30  H    5.790232   5.171769   4.695410   6.726173   5.771731
    31  H    5.298549   4.976834   3.916377   6.054338   4.751557
                   16         17         18         19         20
    16  H    0.000000
    17  H    1.808550   0.000000
    18  N    3.934555   3.358091   0.000000
    19  C    6.458841   5.863946   2.557857   0.000000
    20  C    6.434298   6.139907   2.917922   1.540000   0.000000
    21  H    5.826352   5.809670   2.720841   2.148263   1.070000
    22  H    6.293157   5.896340   2.973264   2.148263   1.070000
    23  H    7.450706   7.208356   3.968870   2.148263   1.070000
    24  C    7.827809   7.025647   3.896963   1.540000   2.514809
    25  H    8.099223   7.156240   4.219758   2.148263   3.444070
    26  H    8.595858   7.933064   4.686073   2.148263   2.717361
    27  H    7.937826   7.029955   4.108710   2.148263   2.748811
    28  C    6.677094   6.290067   3.095922   1.540000   2.514809
    29  H    7.686705   7.352326   4.117471   2.148263   2.872355
    30  H    6.704797   6.156953   3.261948   2.148263   3.426740
    31  H    6.065102   5.950717   2.890763   2.148263   2.609341
                   21         22         23         24         25
    21  H    0.000000
    22  H    1.747303   0.000000
    23  H    1.747303   1.747303   0.000000
    24  C    3.426583   2.872994   2.608844   0.000000
    25  H    4.245279   3.823782   3.613671   1.070000   0.000000
    26  H    3.609496   3.237138   2.377196   1.070000   1.747303
    27  H    3.769290   2.696822   2.883290   1.070000   1.747303
    28  C    2.608843   3.426583   2.872994   2.514810   2.717362
    29  H    3.067784   3.867937   2.826203   2.609342   2.833806
    30  H    3.541442   4.213881   3.868302   2.872356   2.667305
    31  H    2.251647   3.541280   3.069536   3.426740   3.743478
                   26         27         28         29         30
    26  H    0.000000
    27  H    1.747303   0.000000
    28  C    2.748811   3.444070   0.000000
    29  H    2.417873   3.627130   1.070000   0.000000
    30  H    3.280495   3.805720   1.070000   1.747303   0.000000
    31  H    3.631254   4.250029   1.070000   1.747303   1.747303
                   31
    31  H    0.000000
 Stoichiometry    C10H19NO
 Framework group  C1[X(C10H19NO)]
 Deg. of freedom    87
 Full point group                 C1      NOp   1
 Largest Abelian subgroup         C1      NOp   1
 Largest concise Abelian subgroup C1      NOp   1
                         Standard orientation:                         
 ---------------------------------------------------------------------
 Center     Atomic      Atomic             Coordinates (Angstroms)
 Number     Number       Type             X           Y           Z
 ---------------------------------------------------------------------
      1          6           0       -0.865942   -0.000232    0.687778
      2          8           0       -1.100004   -0.000490    1.895576
      3          6           0        1.258568    1.249934    0.293297
      4          6           0        1.258164   -1.251283    0.293005
      5          6           0        2.626566    1.251163   -0.357953
      6          1           0        1.376163    1.312098    1.407151
      7          1           0        0.685385    2.155319   -0.035901
      8          6           0        2.625862   -1.250413   -0.358921
      9          1           0        1.375858   -1.314195    1.406799
     10          1           0        0.685381   -2.156495   -0.037074
     11          6           0        3.405037    0.000072   -0.005912
     12          1           0        3.199555    2.155749   -0.026450
     13          1           0        2.509076    1.316043   -1.471669
     14          1           0        3.199232   -2.155510   -0.029390
     15          1           0        2.507539   -1.313545   -1.472691
     16          1           0        4.383262    0.000068   -0.553335
     17          1           0        3.633283   -0.000302    1.092382
     18          7           0        0.479592   -0.000353   -0.061313
     19          6           0       -2.069491    0.000222   -0.272987
     20          6           0       -1.905907   -1.134456   -1.301261
     21          1           0       -1.186551   -0.846212   -2.039056
     22          1           0       -1.571298   -2.020867   -0.804057
     23          1           0       -2.846215   -1.324668   -1.775119
     24          6           0       -3.366375   -0.216552    0.528699
     25          1           0       -3.497453    0.589726    1.219810
     26          1           0       -4.199121   -0.250062   -0.142352
     27          1           0       -3.303632   -1.139938    1.065657
     28          6           0       -2.139739    1.352127   -1.007165
     29          1           0       -3.108646    1.469965   -1.445610
     30          1           0       -1.964367    2.145573   -0.311041
     31          1           0       -1.395014    1.380154   -1.774953
 ---------------------------------------------------------------------
 Rotational constants (GHZ):      1.7636423      0.5431338      0.5289080
 Standard basis: 6-311+G(d,p) (5D, 7F)
 There are   390 symmetry adapted cartesian basis functions of A   symmetry.
 There are   378 symmetry adapted basis functions of A   symmetry.
   378 basis functions,   584 primitive gaussians,   390 cartesian basis functions
    47 alpha electrons       47 beta electrons
       nuclear repulsion energy       772.0937010329 Hartrees.
 NAtoms=   31 NActive=   31 NUniq=   31 SFac= 1.00D+00 NAtFMM=   60 NAOKFM=F Big=F
 Integral buffers will be    131072 words long.
 Raffenetti 2 integral format.
 Two-electron integral symmetry is turned on.
 One-electron integrals computed using PRISM.
 NBasis=   378 RedAO= T EigKep=  8.55D-06  NBF=   378
 NBsUse=   378 1.00D-06 EigRej= -1.00D+00 NBFU=   378
 ExpMin= 4.38D-02 ExpMax= 8.59D+03 ExpMxC= 1.30D+03 IAcc=2 IRadAn=         4 AccDes= 0.00D+00
 Harris functional with IExCor=  402 and IRadAn=       4 diagonalized for initial guess.
 HarFok:  IExCor=  402 AccDes= 0.00D+00 IRadAn=         4 IDoV= 1 UseB2=F ITyADJ=14
 ICtDFT=  3500011 ScaDFX=  1.000000  1.000000  1.000000  1.000000
 FoFCou: FMM=F IPFlag=           0 FMFlag=      100000 FMFlg1=           0
         NFxFlg=           0 DoJE=T BraDBF=F KetDBF=T FulRan=T
         wScrn=  0.000000 ICntrl=     500 IOpCl=  0 I1Cent=   200000004 NGrid=           0
         NMat0=    1 NMatS0=      1 NMatT0=    0 NMatD0=    1 NMtDS0=    0 NMtDT0=    0
 Petite list used in FoFCou.
 Requested convergence on RMS density matrix=1.00D-08 within 128 cycles.
 Requested convergence on MAX density matrix=1.00D-06.
 Requested convergence on             energy=1.00D-06.
 No special actions if energy rises.
 SCF Done:  E(RB3LYP) =  -522.610605539     A.U. after   13 cycles
            NFock= 13  Conv=0.42D-08     -V/T= 2.0050

 **********************************************************************

            Population analysis using the SCF density.

 **********************************************************************

 Orbital symmetries:
       Occupied  (A) (A) (A) (A) (A) (A) (A) (A) (A) (A) (A) (A)
                 (A) (A) (A) (A) (A) (A) (A) (A) (A) (A) (A) (A)
                 (A) (A) (A) (A) (A) (A) (A) (A) (A) (A) (A) (A)
                 (A) (A) (A) (A) (A) (A) (A) (A) (A) (A) (A)
       Virtual   (A) (A) (A) (A) (A) (A) (A) (A) (A) (A) (A) (A)
                 (A) (A) (A) (A) (A) (A) (A) (A) (A) (A) (A) (A)
                 (A) (A) (A) (A) (A) (A) (A) (A) (A) (A) (A) (A)
                 (A) (A) (A) (A) (A) (A) (A) (A) (A) (A) (A) (A)
                 (A) (A) (A) (A) (A) (A) (A) (A) (A) (A) (A) (A)
                 (A) (A) (A) (A) (A) (A) (A) (A) (A) (A) (A) (A)
                 (A) (A) (A) (A) (A) (A) (A) (A) (A) (A) (A) (A)
                 (A) (A) (A) (A) (A) (A) (A) (A) (A) (A) (A) (A)
                 (A) (A) (A) (A) (A) (A) (A) (A) (A) (A) (A) (A)
                 (A) (A) (A) (A) (A) (A) (A) (A) (A) (A) (A) (A)
                 (A) (A) (A) (A) (A) (A) (A) (A) (A) (A) (A) (A)
                 (A) (A) (A) (A) (A) (A) (A) (A) (A) (A) (A) (A)
                 (A) (A) (A) (A) (A) (A) (A) (A) (A) (A) (A) (A)
                 (A) (A) (A) (A) (A) (A) (A) (A) (A) (A) (A) (A)
                 (A) (A) (A) (A) (A) (A) (A) (A) (A) (A) (A) (A)
                 (A) (A) (A) (A) (A) (A) (A) (A) (A) (A) (A) (A)
                 (A) (A) (A) (A) (A) (A) (A) (A) (A) (A) (A) (A)
                 (A) (A) (A) (A) (A) (A) (A) (A) (A) (A) (A) (A)
                 (A) (A) (A) (A) (A) (A) (A) (A) (A) (A) (A) (A)
                 (A) (A) (A) (A) (A) (A) (A) (A) (A) (A) (A) (A)
                 (A) (A) (A) (A) (A) (A) (A) (A) (A) (A) (A) (A)
                 (A) (A) (A) (A) (A) (A) (A) (A) (A) (A) (A) (A)
                 (A) (A) (A) (A) (A) (A) (A) (A) (A) (A) (A) (A)
                 (A) (A) (A) (A) (A) (A) (A) (A) (A) (A) (A) (A)
                 (A) (A) (A) (A) (A) (A) (A) (A) (A) (A) (A) (A)
                 (A) (A) (A) (A) (A) (A) (A) (A) (A) (A) (A) (A)
                 (A) (A) (A) (A) (A) (A) (A) (A) (A) (A) (A) (A)
                 (A) (A) (A) (A) (A) (A) (A)
 The electronic state is 1-A.
 Alpha  occ. eigenvalues --  -19.12992 -14.32472 -10.28906 -10.20726 -10.20688
 Alpha  occ. eigenvalues --  -10.18967 -10.17728 -10.17723 -10.17497 -10.15851
 Alpha  occ. eigenvalues --  -10.15436 -10.14667  -1.05318  -0.91042  -0.82520
 Alpha  occ. eigenvalues --   -0.79775  -0.76071  -0.69900  -0.69221  -0.66209
 Alpha  occ. eigenvalues --   -0.62496  -0.61034  -0.55148  -0.52886  -0.48699
 Alpha  occ. eigenvalues --   -0.47791  -0.46112  -0.46060  -0.44953  -0.44371
 Alpha  occ. eigenvalues --   -0.43149  -0.42453  -0.42052  -0.40788  -0.39424
 Alpha  occ. eigenvalues --   -0.39224  -0.37505  -0.37226  -0.36998  -0.35236
 Alpha  occ. eigenvalues --   -0.33807  -0.33413  -0.33316  -0.32338  -0.32327
 Alpha  occ. eigenvalues --   -0.26396  -0.24079
 Alpha virt. eigenvalues --   -0.03564  -0.00372   0.00949   0.01439   0.01678
 Alpha virt. eigenvalues --    0.02741   0.03415   0.03774   0.04683   0.04802
 Alpha virt. eigenvalues --    0.05269   0.05778   0.06268   0.06886   0.06924
 Alpha virt. eigenvalues --    0.07652   0.08375   0.08665   0.08858   0.09734
 Alpha virt. eigenvalues --    0.09807   0.10509   0.10731   0.11034   0.11483
 Alpha virt. eigenvalues --    0.11889   0.12541   0.13908   0.14348   0.14891
 Alpha virt. eigenvalues --    0.14981   0.15385   0.16046   0.16508   0.16964
 Alpha virt. eigenvalues --    0.17321   0.17479   0.18338   0.18382   0.18751
 Alpha virt. eigenvalues --    0.19447   0.19523   0.20157   0.20367   0.20921
 Alpha virt. eigenvalues --    0.21148   0.21686   0.22204   0.22609   0.22673
 Alpha virt. eigenvalues --    0.23311   0.23657   0.24313   0.25195   0.25567
 Alpha virt. eigenvalues --    0.26366   0.26490   0.26844   0.27072   0.27568
 Alpha virt. eigenvalues --    0.27932   0.28864   0.29101   0.29796   0.30244
 Alpha virt. eigenvalues --    0.30674   0.31548   0.31630   0.32192   0.32875
 Alpha virt. eigenvalues --    0.33624   0.34223   0.34690   0.34866   0.35686
 Alpha virt. eigenvalues --    0.37708   0.39728   0.41538   0.42121   0.42824
 Alpha virt. eigenvalues --    0.44023   0.44122   0.45501   0.46464   0.47282
 Alpha virt. eigenvalues --    0.47946   0.51204   0.51724   0.52623   0.53064
 Alpha virt. eigenvalues --    0.54558   0.54689   0.55103   0.55629   0.56448
 Alpha virt. eigenvalues --    0.57752   0.58263   0.58315   0.61654   0.61969
 Alpha virt. eigenvalues --    0.62708   0.63364   0.64003   0.64850   0.66001
 Alpha virt. eigenvalues --    0.66529   0.67284   0.67663   0.68445   0.68775
 Alpha virt. eigenvalues --    0.69164   0.70201   0.70403   0.70873   0.71701
 Alpha virt. eigenvalues --    0.72078   0.72310   0.73107   0.73421   0.74167
 Alpha virt. eigenvalues --    0.74989   0.76326   0.77850   0.78190   0.78980
 Alpha virt. eigenvalues --    0.79240   0.82038   0.82754   0.86814   0.87803
 Alpha virt. eigenvalues --    0.88849   0.91347   0.92078   0.95230   0.95932
 Alpha virt. eigenvalues --    0.96967   1.02644   1.03849   1.05172   1.07122
 Alpha virt. eigenvalues --    1.07887   1.08711   1.13699   1.16168   1.17048
 Alpha virt. eigenvalues --    1.20063   1.20833   1.21584   1.22940   1.24795
 Alpha virt. eigenvalues --    1.27800   1.28761   1.33169   1.34698   1.37208
 Alpha virt. eigenvalues --    1.40448   1.41765   1.42671   1.44172   1.46786
 Alpha virt. eigenvalues --    1.47080   1.47960   1.48203   1.49962   1.50644
 Alpha virt. eigenvalues --    1.51459   1.53510   1.54327   1.55296   1.55887
 Alpha virt. eigenvalues --    1.56696   1.57135   1.57510   1.58551   1.59101
 Alpha virt. eigenvalues --    1.59886   1.60384   1.60943   1.61260   1.62135
 Alpha virt. eigenvalues --    1.63591   1.64230   1.64912   1.66614   1.67158
 Alpha virt. eigenvalues --    1.67437   1.68159   1.69955   1.71113   1.72165
 Alpha virt. eigenvalues --    1.74416   1.75378   1.75791   1.77155   1.77997
 Alpha virt. eigenvalues --    1.79247   1.79650   1.79857   1.81484   1.81730
 Alpha virt. eigenvalues --    1.83140   1.85018   1.85885   1.88311   1.89584
 Alpha virt. eigenvalues --    1.90393   1.91562   1.96527   2.00904   2.01100
 Alpha virt. eigenvalues --    2.01638   2.02127   2.03146   2.04453   2.06838
 Alpha virt. eigenvalues --    2.10085   2.12249   2.13572   2.14257   2.16112
 Alpha virt. eigenvalues --    2.18801   2.19488   2.22610   2.23728   2.24856
 Alpha virt. eigenvalues --    2.26193   2.26788   2.28679   2.29536   2.30964
 Alpha virt. eigenvalues --    2.36794   2.37692   2.39420   2.40106   2.44278
 Alpha virt. eigenvalues --    2.44861   2.46537   2.46770   2.49097   2.51204
 Alpha virt. eigenvalues --    2.52953   2.53802   2.54160   2.55370   2.56000
 Alpha virt. eigenvalues --    2.56924   2.57467   2.59217   2.59501   2.60954
 Alpha virt. eigenvalues --    2.61799   2.62470   2.64231   2.64423   2.65002
 Alpha virt. eigenvalues --    2.66099   2.67866   2.68446   2.71524   2.72989
 Alpha virt. eigenvalues --    2.73809   2.74226   2.75583   2.76928   2.78204
 Alpha virt. eigenvalues --    2.79559   2.80779   2.82430   2.83640   2.87393
 Alpha virt. eigenvalues --    2.87735   2.89628   2.90893   2.92733   2.94671
 Alpha virt. eigenvalues --    2.95990   3.00508   3.01426   3.03093   3.07025
 Alpha virt. eigenvalues --    3.08028   3.08760   3.15126   3.18563   3.21136
 Alpha virt. eigenvalues --    3.28558   3.33376   3.36432   3.40727   3.43473
 Alpha virt. eigenvalues --    3.45608   3.56079   3.62914   3.66383   3.71764
 Alpha virt. eigenvalues --    3.74540   3.76875   3.78944   3.81681   3.82764
 Alpha virt. eigenvalues --    3.84887   3.85664   3.86582   3.89629   3.90329
 Alpha virt. eigenvalues --    3.95228   4.09523   4.09662   4.17451   4.24102
 Alpha virt. eigenvalues --    4.30548   4.33556   4.34776   4.35392   4.73929
 Alpha virt. eigenvalues --    4.75612   5.09634   5.27636   5.71729  23.77566
 Alpha virt. eigenvalues --   23.80396  23.81138  23.85282  23.86671  23.89644
 Alpha virt. eigenvalues --   23.91740  24.02051  24.03614  24.04113  35.53562
 Alpha virt. eigenvalues --   49.98350
          Condensed to atoms (all electrons):
               1          2          3          4          5          6
     1  C    8.522510   0.661968  -0.473561  -0.489163  -0.395373   0.008273
     2  O    0.661968   7.865257  -0.023029  -0.031511  -0.022459   0.008003
     3  C   -0.473561  -0.023029   6.252542  -0.464435  -0.257884   0.419796
     4  C   -0.489163  -0.031511  -0.464435   6.247499   0.402252   0.000758
     5  C   -0.395373  -0.022459  -0.257884   0.402252   6.134675  -0.050400
     6  H    0.008273   0.008003   0.419796   0.000758  -0.050400   0.563076
     7  H    0.006359  -0.001945   0.398326   0.009565  -0.031681  -0.039222
     8  C   -0.281151  -0.016782   0.373178  -0.219159  -0.326371  -0.003119
     9  H    0.003583   0.007860  -0.003498   0.425779  -0.011090   0.013087
    10  H    0.004374  -0.001879   0.012235   0.389143  -0.005903  -0.000871
    11  C    0.043689  -0.015906  -0.135952  -0.178181   0.147507  -0.003674
    12  H    0.001546   0.000191  -0.020821  -0.008378   0.377045  -0.006909
    13  H   -0.004505  -0.000118  -0.091022  -0.004811   0.499788   0.007382
    14  H    0.002434   0.000155  -0.009722  -0.024229   0.028190  -0.000016
    15  H   -0.005323  -0.000123  -0.004999  -0.090018  -0.027189   0.000303
    16  H    0.001300  -0.000013   0.027725   0.029102  -0.040405  -0.000389
    17  H    0.003633  -0.000113  -0.025227  -0.028322  -0.057708   0.004043
    18  N   -0.089658  -0.103227   0.254372   0.281628  -0.050297  -0.066335
    19  C   -1.067558  -0.179847   0.042597   0.003690   0.010121  -0.018548
    20  C    0.167133  -0.002642  -0.041152  -0.063398   0.016551   0.001079
    21  H    0.003774  -0.001342  -0.008853   0.002791  -0.000254  -0.000057
    22  H   -0.011960   0.002110   0.002857  -0.006202  -0.000744  -0.000024
    23  H    0.015680  -0.000226   0.002200   0.001272   0.000212   0.000011
    24  C    0.150380   0.035160  -0.007370   0.014516  -0.009287  -0.001664
    25  H   -0.009501  -0.007249   0.000132  -0.000103  -0.000337   0.000033
    26  H    0.019513   0.006025   0.002168   0.001855   0.000159  -0.000005
    27  H    0.002226  -0.007902  -0.001132  -0.001458   0.000247   0.000010
    28  C    0.106782  -0.036590  -0.069895  -0.043512  -0.029333   0.004020
    29  H    0.016076  -0.000141   0.000095   0.001582  -0.000455  -0.000002
    30  H   -0.007703   0.002660  -0.001069   0.001296   0.002939  -0.000166
    31  H   -0.014178  -0.001140   0.002875  -0.004804  -0.000734   0.000037
               7          8          9         10         11         12
     1  C    0.006359  -0.281151   0.003583   0.004374   0.043689   0.001546
     2  O   -0.001945  -0.016782   0.007860  -0.001879  -0.015906   0.000191
     3  C    0.398326   0.373178  -0.003498   0.012235  -0.135952  -0.020821
     4  C    0.009565  -0.219159   0.425779   0.389143  -0.178181  -0.008378
     5  C   -0.031681  -0.326371  -0.011090  -0.005903   0.147507   0.377045
     6  H   -0.039222  -0.003119   0.013087  -0.000871  -0.003674  -0.006909
     7  H    0.553886  -0.007084  -0.000764  -0.000318   0.016891  -0.004450
     8  C   -0.007084   6.021118  -0.039852  -0.028793   0.132740   0.029693
     9  H   -0.000764  -0.039852   0.559515  -0.040283  -0.004049   0.000023
    10  H   -0.000318  -0.028793  -0.040283   0.559253   0.018714   0.000093
    11  C    0.016891   0.132740  -0.004049   0.018714   5.577267  -0.043550
    12  H   -0.004450   0.029693   0.000023   0.000093  -0.043550   0.554008
    13  H   -0.008574  -0.025515   0.000322  -0.000191  -0.034989  -0.031706
    14  H    0.000098   0.378421  -0.007157  -0.004525  -0.037963  -0.000387
    15  H   -0.000178   0.503730   0.007166  -0.008520  -0.037772  -0.000267
    16  H   -0.000368  -0.040590  -0.000402  -0.000378   0.378260  -0.004875
    17  H   -0.000234  -0.052304   0.003981  -0.000210   0.489777  -0.008667
    18  N   -0.058439  -0.080634  -0.070053  -0.055977   0.015256   0.013911
    19  C    0.014056   0.043164  -0.008017   0.006616  -0.050748   0.000507
    20  C   -0.003138  -0.035310  -0.003705   0.000383   0.006160  -0.000739
    21  H    0.000110  -0.001647  -0.000115   0.000519  -0.000864   0.000002
    22  H   -0.000010   0.004946  -0.000219   0.004044   0.000589   0.000001
    23  H   -0.000010  -0.000397   0.000024  -0.000035  -0.000043   0.000000
    24  C    0.005021  -0.009182   0.001375   0.002238   0.001346   0.000075
    25  H   -0.000025   0.000125   0.000016   0.000002   0.000063   0.000000
    26  H    0.000005   0.000084  -0.000004   0.000011  -0.000031   0.000000
    27  H    0.000002  -0.000669   0.000033  -0.000090   0.000000   0.000000
    28  C   -0.003371   0.006732   0.002835  -0.002364  -0.003728   0.001331
    29  H    0.000148   0.000255   0.000004   0.000001  -0.000057   0.000001
    30  H    0.001412  -0.000419  -0.000034   0.000006   0.000372  -0.000007
    31  H   -0.000465   0.000009  -0.000008   0.000047  -0.000152  -0.000020
              13         14         15         16         17         18
     1  C   -0.004505   0.002434  -0.005323   0.001300   0.003633  -0.089658
     2  O   -0.000118   0.000155  -0.000123  -0.000013  -0.000113  -0.103227
     3  C   -0.091022  -0.009722  -0.004999   0.027725  -0.025227   0.254372
     4  C   -0.004811  -0.024229  -0.090018   0.029102  -0.028322   0.281628
     5  C    0.499788   0.028190  -0.027189  -0.040405  -0.057708  -0.050297
     6  H    0.007382  -0.000016   0.000303  -0.000389   0.004043  -0.066335
     7  H   -0.008574   0.000098  -0.000178  -0.000368  -0.000234  -0.058439
     8  C   -0.025515   0.378421   0.503730  -0.040590  -0.052304  -0.080634
     9  H    0.000322  -0.007157   0.007166  -0.000402   0.003981  -0.070053
    10  H   -0.000191  -0.004525  -0.008520  -0.000378  -0.000210  -0.055977
    11  C   -0.034989  -0.037963  -0.037772   0.378260   0.489777   0.015256
    12  H   -0.031706  -0.000387  -0.000267  -0.004875  -0.008667   0.013911
    13  H    0.539191  -0.000266   0.003864  -0.008347   0.007156   0.002207
    14  H   -0.000266   0.554129  -0.031571  -0.005024  -0.008788   0.013455
    15  H    0.003864  -0.031571   0.537624  -0.008353   0.007165   0.001802
    16  H   -0.008347  -0.005024  -0.008353   0.560829  -0.029954  -0.004377
    17  H    0.007156  -0.008788   0.007165  -0.029954   0.547407   0.004206
    18  N    0.002207   0.013455   0.001802  -0.004377   0.004206   7.066234
    19  C   -0.001119  -0.000650   0.000453  -0.000271   0.000020  -0.154527
    20  C   -0.000208   0.001305  -0.001431   0.000117  -0.000148  -0.051326
    21  H   -0.000028  -0.000019   0.000120   0.000001   0.000002  -0.026238
    22  H   -0.000002  -0.000016  -0.000006  -0.000001  -0.000002  -0.000964
    23  H    0.000002   0.000001  -0.000004   0.000000   0.000000   0.007079
    24  C   -0.000269  -0.000007  -0.000128  -0.000010   0.000073  -0.069979
    25  H    0.000000   0.000000   0.000000   0.000000   0.000000  -0.001822
    26  H    0.000000   0.000000   0.000000   0.000000   0.000000   0.002058
    27  H    0.000000   0.000000   0.000000   0.000000   0.000000  -0.001562
    28  C    0.000054  -0.000419   0.000355  -0.000015  -0.000092  -0.034694
    29  H   -0.000004   0.000000   0.000000   0.000000   0.000000   0.002537
    30  H   -0.000010   0.000000  -0.000003   0.000000  -0.000001  -0.003037
    31  H    0.000084   0.000002  -0.000012   0.000000   0.000001  -0.009788
              19         20         21         22         23         24
     1  C   -1.067558   0.167133   0.003774  -0.011960   0.015680   0.150380
     2  O   -0.179847  -0.002642  -0.001342   0.002110  -0.000226   0.035160
     3  C    0.042597  -0.041152  -0.008853   0.002857   0.002200  -0.007370
     4  C    0.003690  -0.063398   0.002791  -0.006202   0.001272   0.014516
     5  C    0.010121   0.016551  -0.000254  -0.000744   0.000212  -0.009287
     6  H   -0.018548   0.001079  -0.000057  -0.000024   0.000011  -0.001664
     7  H    0.014056  -0.003138   0.000110  -0.000010  -0.000010   0.005021
     8  C    0.043164  -0.035310  -0.001647   0.004946  -0.000397  -0.009182
     9  H   -0.008017  -0.003705  -0.000115  -0.000219   0.000024   0.001375
    10  H    0.006616   0.000383   0.000519   0.004044  -0.000035   0.002238
    11  C   -0.050748   0.006160  -0.000864   0.000589  -0.000043   0.001346
    12  H    0.000507  -0.000739   0.000002   0.000001   0.000000   0.000075
    13  H   -0.001119  -0.000208  -0.000028  -0.000002   0.000002  -0.000269
    14  H   -0.000650   0.001305  -0.000019  -0.000016   0.000001  -0.000007
    15  H    0.000453  -0.001431   0.000120  -0.000006  -0.000004  -0.000128
    16  H   -0.000271   0.000117   0.000001  -0.000001   0.000000  -0.000010
    17  H    0.000020  -0.000148   0.000002  -0.000002   0.000000   0.000073
    18  N   -0.154527  -0.051326  -0.026238  -0.000964   0.007079  -0.069979
    19  C    6.618570   0.166582  -0.002033  -0.012694  -0.076444  -0.044851
    20  C    0.166582   5.725165   0.384061   0.383661   0.445551  -0.223586
    21  H   -0.002033   0.384061   0.521042  -0.027897  -0.026258   0.025597
    22  H   -0.012694   0.383661  -0.027897   0.549084  -0.027752   0.005158
    23  H   -0.076444   0.445551  -0.026258  -0.027752   0.532425  -0.023525
    24  C   -0.044851  -0.223586   0.025597   0.005158  -0.023525   5.593475
    25  H    0.001684   0.014912  -0.000555  -0.000310   0.000700   0.410343
    26  H   -0.040875  -0.018038   0.000288   0.000160   0.001493   0.405940
    27  H   -0.016421  -0.017720  -0.000150   0.002036  -0.000434   0.407338
    28  C    0.160208  -0.296359  -0.006530   0.003673   0.001923  -0.184804
    29  H   -0.062942  -0.010989   0.000446  -0.000219   0.002001  -0.007886
    30  H   -0.022562   0.004331   0.000250  -0.000674  -0.000243   0.008799
    31  H   -0.007574   0.004830   0.004497   0.000309   0.000419   0.013464
              25         26         27         28         29         30
     1  C   -0.009501   0.019513   0.002226   0.106782   0.016076  -0.007703
     2  O   -0.007249   0.006025  -0.007902  -0.036590  -0.000141   0.002660
     3  C    0.000132   0.002168  -0.001132  -0.069895   0.000095  -0.001069
     4  C   -0.000103   0.001855  -0.001458  -0.043512   0.001582   0.001296
     5  C   -0.000337   0.000159   0.000247  -0.029333  -0.000455   0.002939
     6  H    0.000033  -0.000005   0.000010   0.004020  -0.000002  -0.000166
     7  H   -0.000025   0.000005   0.000002  -0.003371   0.000148   0.001412
     8  C    0.000125   0.000084  -0.000669   0.006732   0.000255  -0.000419
     9  H    0.000016  -0.000004   0.000033   0.002835   0.000004  -0.000034
    10  H    0.000002   0.000011  -0.000090  -0.002364   0.000001   0.000006
    11  C    0.000063  -0.000031   0.000000  -0.003728  -0.000057   0.000372
    12  H    0.000000   0.000000   0.000000   0.001331   0.000001  -0.000007
    13  H    0.000000   0.000000   0.000000   0.000054  -0.000004  -0.000010
    14  H    0.000000   0.000000   0.000000  -0.000419   0.000000   0.000000
    15  H    0.000000   0.000000   0.000000   0.000355   0.000000  -0.000003
    16  H    0.000000   0.000000   0.000000  -0.000015   0.000000   0.000000
    17  H    0.000000   0.000000   0.000000  -0.000092   0.000000  -0.000001
    18  N   -0.001822   0.002058  -0.001562  -0.034694   0.002537  -0.003037
    19  C    0.001684  -0.040875  -0.016421   0.160208  -0.062942  -0.022562
    20  C    0.014912  -0.018038  -0.017720  -0.296359  -0.010989   0.004331
    21  H   -0.000555   0.000288  -0.000150  -0.006530   0.000446   0.000250
    22  H   -0.000310   0.000160   0.002036   0.003673  -0.000219  -0.000674
    23  H    0.000700   0.001493  -0.000434   0.001923   0.002001  -0.000243
    24  C    0.410343   0.405940   0.407338  -0.184804  -0.007886   0.008799
    25  H    0.515247  -0.029483  -0.023178  -0.024710  -0.000988   0.002451
    26  H   -0.029483   0.557815  -0.028733  -0.012436   0.001428   0.000245
    27  H   -0.023178  -0.028733   0.524585   0.018954   0.000555  -0.000310
    28  C   -0.024710  -0.012436   0.018954   5.748957   0.435749   0.384900
    29  H   -0.000988   0.001428   0.000555   0.435749   0.527154  -0.024802
    30  H    0.002451   0.000245  -0.000310   0.384900  -0.024802   0.533344
    31  H   -0.000087   0.000191  -0.000566   0.389288  -0.025843  -0.029626
              31
     1  C   -0.014178
     2  O   -0.001140
     3  C    0.002875
     4  C   -0.004804
     5  C   -0.000734
     6  H    0.000037
     7  H   -0.000465
     8  C    0.000009
     9  H   -0.000008
    10  H    0.000047
    11  C   -0.000152
    12  H   -0.000020
    13  H    0.000084
    14  H    0.000002
    15  H   -0.000012
    16  H    0.000000
    17  H    0.000001
    18  N   -0.009788
    19  C   -0.007574
    20  C    0.004830
    21  H    0.004497
    22  H    0.000309
    23  H    0.000419
    24  C    0.013464
    25  H   -0.000087
    26  H    0.000191
    27  H   -0.000566
    28  C    0.389288
    29  H   -0.025843
    30  H   -0.029626
    31  H    0.527347
 Mulliken charges:
               1
     1  C   -0.891599
     2  O   -0.135206
     3  C   -0.151478
     4  C   -0.155044
     5  C   -0.301782
     6  H    0.161488
     7  H    0.154397
     8  C   -0.325218
     9  H    0.163650
    10  H    0.152659
    11  C   -0.280971
    12  H    0.152349
    13  H    0.151633
    14  H    0.152570
    15  H    0.153312
    16  H    0.146444
    17  H    0.144307
    18  N    0.268190
    19  C    0.699412
    20  C   -0.551935
    21  H    0.159343
    22  H    0.131070
    23  H    0.144378
    24  C   -0.497752
    25  H    0.152639
    26  H    0.130164
    27  H    0.144337
    28  C   -0.516910
    29  H    0.146299
    30  H    0.147659
    31  H    0.151597
 Sum of Mulliken charges =   0.00000
 Mulliken charges with hydrogens summed into heavy atoms:
               1
     1  C   -0.891599
     2  O   -0.135206
     3  C    0.164407
     4  C    0.161264
     5  C    0.002200
     8  C   -0.019336
    11  C    0.009779
    18  N    0.268190
    19  C    0.699412
    20  C   -0.117145
    24  C   -0.070612
    28  C   -0.071355
 Electronic spatial extent (au):  <R**2>=           2478.3681
 Charge=              0.0000 electrons
 Dipole moment (field-independent basis, Debye):
    X=              1.1309    Y=              0.0603    Z=             -1.8967  Tot=              2.2091
 Quadrupole moment (field-independent basis, Debye-Ang):
   XX=            -73.5364   YY=            -74.4472   ZZ=            -83.9342
   XY=             -0.2255   XZ=              3.6116   YZ=             -0.0987
 Traceless Quadrupole moment (field-independent basis, Debye-Ang):
   XX=              3.7695   YY=              2.8588   ZZ=             -6.6283
   XY=             -0.2255   XZ=              3.6116   YZ=             -0.0987
 Octapole moment (field-independent basis, Debye-Ang**2):
  XXX=             -1.2060  YYY=             -0.4093  ZZZ=             -8.4273  XYY=              1.1155
  XXY=              0.7913  XXZ=             -4.7236  XZZ=              5.8389  YZZ=              0.6055
  YYZ=              4.7157  XYZ=             -0.1194
 Hexadecapole moment (field-independent basis, Debye-Ang**3):
 XXXX=          -2409.8148 YYYY=           -570.6596 ZZZZ=           -483.5935 XXXY=             -3.3431
 XXXZ=              9.3292 YYYX=              0.4094 YYYZ=              0.1363 ZZZX=              6.0580
 ZZZY=             -1.1454 XXYY=           -495.8180 XXZZ=           -482.4783 YYZZ=           -175.0611
 XXYZ=              0.9369 YYXZ=             -4.1273 ZZXY=             -0.7770
 N-N= 7.720937010329D+02 E-N=-2.758762978383D+03  KE= 5.199897486857D+02
 There are a total of      256416 grid points.
 ElSum from          density=       93.9996086738
 ElSum from atomic densities=       93.9989135256

 Hirshfeld populations at iteration   1 (CX, CA, CB, DipXYZ):
               1          2          3          4          5          6
     1  C    0.000000   2.888172   2.888172   0.054533  -0.001354  -0.027809
     2  O    0.000002   4.122053   4.122053  -0.033197  -0.001952  -0.104264
     3  C    0.000000   3.005879   3.005879  -0.005299  -0.031499  -0.029041
     4  C    0.000000   3.005497   3.005497  -0.005943   0.031489  -0.029437
     5  C    0.000000   3.030349   3.030349  -0.003905  -0.007194   0.011899
     6  H    0.000000   0.486106   0.486106   0.024812   0.017258   0.122687
     7  H    0.000000   0.479087   0.479087  -0.060352   0.122479  -0.044137
     8  C    0.000000   3.030258   3.030258  -0.004202   0.007276   0.011787
     9  H    0.000000   0.485914   0.485914   0.024877  -0.017435   0.122992
    10  H    0.000000   0.479091   0.479091  -0.060391  -0.122330  -0.043968
    11  C    0.000000   3.031331   3.031331  -0.012276  -0.000048  -0.009637
    12  H    0.000000   0.479726   0.479726   0.076224   0.113530   0.045762
    13  H    0.000000   0.482637   0.482637  -0.009864   0.011598  -0.136561
    14  H    0.000000   0.479729   0.479729   0.076232  -0.113599   0.045459
    15  H    0.000000   0.482465   0.482465  -0.010281  -0.011436  -0.136882
    16  H    0.000000   0.481856   0.481856   0.120475   0.000028  -0.074530
    17  H    0.000000   0.483469   0.483469   0.031729  -0.000040   0.131877
    18  N    0.000000   3.574698   3.574698   0.028047  -0.002811   0.148175
    19  C    0.000000   2.992480   2.992480  -0.002643   0.002820  -0.008519
    20  C    0.000000   3.051515   3.051515  -0.016072   0.003975   0.001938
    21  H    0.000000   0.483398   0.483398   0.084633   0.033694  -0.109671
    22  H    0.000000   0.483947   0.483947   0.040404  -0.121484   0.065550
    23  H    0.000000   0.481521   0.481521  -0.129315  -0.026411  -0.067400
    24  C    0.000000   3.054058   3.054058  -0.010968  -0.000820  -0.015015
    25  H    0.000000   0.483151   0.483151  -0.031732   0.113729   0.089248
    26  H    0.000000   0.483811   0.483811  -0.115902  -0.004966  -0.088775
    27  H    0.000000   0.483066   0.483066  -0.001451  -0.131214   0.069011
    28  C    0.000000   3.049576   3.049576  -0.014012  -0.007901  -0.000668
    29  H    0.000000   0.479895   0.479895  -0.135014   0.017748  -0.062553
    30  H    0.000000   0.482805   0.482805   0.019923   0.110473   0.094270
    31  H    0.000000   0.482265   0.482265   0.093334   0.007856  -0.110531
       Tot   0.000008  46.999804  46.999804   0.012402  -0.008542  -0.138742

 Dip from Atomic Chgs              0.433627   0.032621  -0.607624
         Total Dipole              0.446029   0.024079  -0.746366

 Hirshfeld charges, spin densities, dipoles, and CM5 charges using IRadAn=      4:
              Q-H        S-H        Dx         Dy         Dz        Q-CM5   
     1  C    0.223657   0.000000   0.054533  -0.001354  -0.027809   0.295121
     2  O   -0.244107   0.000000  -0.033197  -0.001952  -0.104264  -0.292452
     3  C   -0.011758   0.000000  -0.005299  -0.031499  -0.029041  -0.060296
     4  C   -0.010993   0.000000  -0.005943   0.031489  -0.029437  -0.059687
     5  C   -0.060698   0.000000  -0.003905  -0.007194   0.011899  -0.159358
     6  H    0.027788   0.000000   0.024812   0.017258   0.122687   0.089977
     7  H    0.041825   0.000000  -0.060352   0.122479  -0.044137   0.101901
     8  C   -0.060516   0.000000  -0.004202   0.007276   0.011787  -0.159159
     9  H    0.028171   0.000000   0.024877  -0.017435   0.122992   0.090340
    10  H    0.041819   0.000000  -0.060391  -0.122330  -0.043968   0.101915
    11  C   -0.062663   0.000000  -0.012276  -0.000048  -0.009637  -0.164641
    12  H    0.040548   0.000000   0.076224   0.113530   0.045762   0.092086
    13  H    0.034726   0.000000  -0.009864   0.011598  -0.136561   0.088694
    14  H    0.040543   0.000000   0.076232  -0.113599   0.045459   0.092081
    15  H    0.035069   0.000000  -0.010281  -0.011436  -0.136882   0.089053
    16  H    0.036287   0.000000   0.120475   0.000028  -0.074530   0.087615
    17  H    0.033063   0.000000   0.031729  -0.000040   0.131877   0.085892
    18  N   -0.149396   0.000000   0.028047  -0.002811   0.148175  -0.365119
    19  C    0.015041   0.000000  -0.002643   0.002820  -0.008519  -0.010915
    20  C   -0.103029   0.000000  -0.016072   0.003975   0.001938  -0.256034
    21  H    0.033204   0.000000   0.084633   0.033694  -0.109671   0.091706
    22  H    0.032105   0.000000   0.040404  -0.121484   0.065550   0.089792
    23  H    0.036959   0.000000  -0.129315  -0.026411  -0.067400   0.092664
    24  C   -0.108117   0.000000  -0.010968  -0.000820  -0.015015  -0.261267
    25  H    0.033698   0.000000  -0.031732   0.113729   0.089248   0.092428
    26  H    0.032379   0.000000  -0.115902  -0.004966  -0.088775   0.088050
    27  H    0.033868   0.000000  -0.001451  -0.131214   0.069011   0.092209
    28  C   -0.099152   0.000000  -0.014012  -0.007901  -0.000668  -0.252604
    29  H    0.040210   0.000000  -0.135014   0.017748  -0.062553   0.095888
    30  H    0.034389   0.000000   0.019923   0.110473   0.094270   0.091445
    31  H    0.035470   0.000000   0.093334   0.007856  -0.110531   0.093065
       Tot   0.000391   0.000000   0.012402  -0.008542  -0.138742   0.000391
 Hirshfeld charges with hydrogens summed into heavy atoms:
              Q-H       Q-CM5   
     1  C    0.223657   0.295121
     2  O   -0.244107  -0.292452
     3  C    0.057855   0.131582
     4  C    0.058997   0.132568
     5  C    0.014577   0.021422
     8  C    0.015096   0.021975
    11  C    0.006687   0.008866
    18  N   -0.149396  -0.365119
    19  C    0.015041  -0.010915
    20  C   -0.000761   0.018129
    24  C   -0.008171   0.011421
    28  C    0.010917   0.027795
 
 EQQ= 0.000000000000E+00 EQD= 0.000000000000E+00 EDD=-0.324148339607E-02
 EQQ+QD+DD=-0.324148339607E-02
 
          MBS Condensed to atoms (all electrons):
               1          2          3          4          5          6
     1  C    4.639801   0.448597  -0.020852  -0.020724   0.000809  -0.003547
     2  O    0.448597   8.013212  -0.000975  -0.000980   0.000000   0.001241
     3  C   -0.020852  -0.000975   4.750776  -0.024649   0.371820   0.359398
     4  C   -0.020724  -0.000980  -0.024649   4.750616  -0.004656  -0.002282
     5  C    0.000809   0.000000   0.371820  -0.004656   4.793726  -0.025620
     6  H   -0.003547   0.001241   0.359398  -0.002282  -0.025620   0.640562
     7  H   -0.001287  -0.000008   0.370922   0.001452  -0.021353  -0.024966
     8  C    0.000811   0.000000  -0.004674   0.371738  -0.025938  -0.000079
     9  H   -0.003585   0.001246  -0.002284   0.359686  -0.000074   0.002466
    10  H   -0.001234  -0.000012   0.001457   0.370690   0.000024  -0.000043
    11  C    0.000016   0.000000  -0.025536  -0.025457   0.371478  -0.002530
    12  H   -0.000019   0.000000  -0.020664   0.000015   0.369798  -0.002259
    13  H   -0.000010   0.000000  -0.024109  -0.000039   0.366663   0.002353
    14  H   -0.000019   0.000000   0.000015  -0.020678   0.001515  -0.000001
    15  H   -0.000010   0.000000  -0.000039  -0.024101  -0.002144   0.000036
    16  H    0.000001   0.000000   0.001533   0.001530  -0.021999  -0.000002
    17  H   -0.000007   0.000000  -0.002135  -0.002135  -0.024348   0.001468
    18  N    0.278217  -0.014687   0.303332   0.303523  -0.019919  -0.022422
    19  C    0.358351  -0.033486   0.000791   0.000792  -0.000008   0.000019
    20  C   -0.023120   0.000247   0.000041  -0.000586   0.000000  -0.000002
    21  H   -0.001163   0.000002  -0.000016  -0.000159   0.000000   0.000002
    22  H   -0.003588   0.000093   0.000002  -0.000431   0.000000   0.000000
    23  H    0.001407  -0.000010  -0.000001   0.000013   0.000000   0.000000
    24  C   -0.025090  -0.003135  -0.000008  -0.000012   0.000000   0.000001
    25  H   -0.002364   0.000953   0.000000   0.000000   0.000000   0.000000
    26  H    0.001481   0.000117   0.000000   0.000000   0.000000   0.000000
    27  H   -0.002639   0.000730   0.000000   0.000000   0.000000   0.000000
    28  C   -0.021863   0.000003  -0.000390   0.000019   0.000002   0.000003
    29  H    0.001401  -0.000011   0.000011   0.000000   0.000000   0.000000
    30  H   -0.003359   0.000206  -0.000153  -0.000001   0.000001  -0.000005
    31  H   -0.001066   0.000006  -0.000206  -0.000008  -0.000001   0.000011
               7          8          9         10         11         12
     1  C   -0.001287   0.000811  -0.003585  -0.001234   0.000016  -0.000019
     2  O   -0.000008   0.000000   0.001246  -0.000012   0.000000   0.000000
     3  C    0.370922  -0.004674  -0.002284   0.001457  -0.025536  -0.020664
     4  C    0.001452   0.371738   0.359686   0.370690  -0.025457   0.000015
     5  C   -0.021353  -0.025938  -0.000074   0.000024   0.371478   0.369798
     6  H   -0.024966  -0.000079   0.002466  -0.000043  -0.002530  -0.002259
     7  H    0.612907   0.000025  -0.000042  -0.000041   0.001468  -0.001731
     8  C    0.000025   4.793765  -0.025615  -0.021254   0.371493   0.001515
     9  H   -0.000042  -0.025615   0.639799  -0.025011  -0.002523  -0.000001
    10  H   -0.000041  -0.021254  -0.025011   0.613036   0.001462   0.000002
    11  C    0.001468   0.371493  -0.002523   0.001462   4.798185  -0.021529
    12  H   -0.001731   0.001515  -0.000001   0.000002  -0.021529   0.622874
    13  H   -0.003340  -0.002139   0.000036  -0.000013  -0.024322  -0.021506
    14  H    0.000002   0.369744  -0.002244  -0.001743  -0.021534  -0.000048
    15  H   -0.000013   0.366708   0.002347  -0.003338  -0.024326   0.000003
    16  H   -0.000047  -0.021987  -0.000002  -0.000047   0.371035  -0.002118
    17  H   -0.000005  -0.024342   0.001465  -0.000005   0.367064  -0.002935
    18  N   -0.020298  -0.019985  -0.022378  -0.020363  -0.003019   0.000922
    19  C    0.000077  -0.000008   0.000016   0.000095   0.000000   0.000000
    20  C    0.000005   0.000005   0.000008  -0.000370   0.000000   0.000000
    21  H   -0.000007  -0.000002   0.000011  -0.000066   0.000000   0.000000
    22  H    0.000000   0.000000  -0.000010   0.001109   0.000000   0.000000
    23  H    0.000000   0.000000   0.000000  -0.000006   0.000000   0.000000
    24  C   -0.000003   0.000000   0.000001  -0.000005   0.000000   0.000000
    25  H    0.000000   0.000000   0.000000   0.000000   0.000000   0.000000
    26  H    0.000000   0.000000   0.000000   0.000000   0.000000   0.000000
    27  H    0.000000   0.000000   0.000000   0.000000   0.000000   0.000000
    28  C   -0.000091   0.000000  -0.000001   0.000002   0.000000   0.000000
    29  H   -0.000001   0.000000   0.000000   0.000000   0.000000   0.000000
    30  H    0.000423   0.000000   0.000000   0.000000   0.000000   0.000000
    31  H    0.000046   0.000000   0.000001  -0.000002   0.000000   0.000000
              13         14         15         16         17         18
     1  C   -0.000010  -0.000019  -0.000010   0.000001  -0.000007   0.278217
     2  O    0.000000   0.000000   0.000000   0.000000   0.000000  -0.014687
     3  C   -0.024109   0.000015  -0.000039   0.001533  -0.002135   0.303332
     4  C   -0.000039  -0.020678  -0.024101   0.001530  -0.002135   0.303523
     5  C    0.366663   0.001515  -0.002144  -0.021999  -0.024348  -0.019919
     6  H    0.002353  -0.000001   0.000036  -0.000002   0.001468  -0.022422
     7  H   -0.003340   0.000002  -0.000013  -0.000047  -0.000005  -0.020298
     8  C   -0.002139   0.369744   0.366708  -0.021987  -0.024342  -0.019985
     9  H    0.000036  -0.002244   0.002347  -0.000002   0.001465  -0.022378
    10  H   -0.000013  -0.001743  -0.003338  -0.000047  -0.000005  -0.020363
    11  C   -0.024322  -0.021534  -0.024326   0.371035   0.367064  -0.003019
    12  H   -0.021506  -0.000048   0.000003  -0.002118  -0.002935   0.000922
    13  H    0.631617   0.000003   0.001320  -0.002938   0.002325  -0.000354
    14  H    0.000003   0.622934  -0.021487  -0.002129  -0.002923   0.000925
    15  H    0.001320  -0.021487   0.631228  -0.002929   0.002324  -0.000377
    16  H   -0.002938  -0.002129  -0.002929   0.629305  -0.021988   0.000004
    17  H    0.002325  -0.002923   0.002324  -0.021988   0.638293  -0.000046
    18  N   -0.000354   0.000925  -0.000377   0.000004  -0.000046   6.678616
    19  C   -0.000001   0.000000  -0.000001   0.000000   0.000000  -0.033357
    20  C   -0.000001   0.000000   0.000001   0.000000   0.000000  -0.001643
    21  H    0.000003   0.000000   0.000025   0.000000   0.000000   0.001709
    22  H    0.000000   0.000000   0.000001   0.000000   0.000000   0.000061
    23  H    0.000000   0.000000   0.000000   0.000000   0.000000   0.000040
    24  C    0.000000   0.000000   0.000000   0.000000   0.000000   0.000399
    25  H    0.000000   0.000000   0.000000   0.000000   0.000000   0.000009
    26  H    0.000000   0.000000   0.000000   0.000000   0.000000  -0.000008
    27  H    0.000000   0.000000   0.000000   0.000000   0.000000   0.000014
    28  C    0.000000   0.000000   0.000000   0.000000   0.000000  -0.000518
    29  H    0.000000   0.000000   0.000000   0.000000   0.000000  -0.000007
    30  H    0.000000   0.000000   0.000000   0.000000   0.000000   0.000110
    31  H    0.000014   0.000000   0.000001   0.000000   0.000000   0.001049
              19         20         21         22         23         24
     1  C    0.358351  -0.023120  -0.001163  -0.003588   0.001407  -0.025090
     2  O   -0.033486   0.000247   0.000002   0.000093  -0.000010  -0.003135
     3  C    0.000791   0.000041  -0.000016   0.000002  -0.000001  -0.000008
     4  C    0.000792  -0.000586  -0.000159  -0.000431   0.000013  -0.000012
     5  C   -0.000008   0.000000   0.000000   0.000000   0.000000   0.000000
     6  H    0.000019  -0.000002   0.000002   0.000000   0.000000   0.000001
     7  H    0.000077   0.000005  -0.000007   0.000000   0.000000  -0.000003
     8  C   -0.000008   0.000005  -0.000002   0.000000   0.000000   0.000000
     9  H    0.000016   0.000008   0.000011  -0.000010   0.000000   0.000001
    10  H    0.000095  -0.000370  -0.000066   0.001109  -0.000006  -0.000005
    11  C    0.000000   0.000000   0.000000   0.000000   0.000000   0.000000
    12  H    0.000000   0.000000   0.000000   0.000000   0.000000   0.000000
    13  H   -0.000001  -0.000001   0.000003   0.000000   0.000000   0.000000
    14  H    0.000000   0.000000   0.000000   0.000000   0.000000   0.000000
    15  H   -0.000001   0.000001   0.000025   0.000001   0.000000   0.000000
    16  H    0.000000   0.000000   0.000000   0.000000   0.000000   0.000000
    17  H    0.000000   0.000000   0.000000   0.000000   0.000000   0.000000
    18  N   -0.033357  -0.001643   0.001709   0.000061   0.000040   0.000399
    19  C    4.779088   0.358265  -0.022080  -0.023126  -0.021883   0.365267
    20  C    0.358265   4.861640   0.380246   0.380418   0.379946  -0.027140
    21  H   -0.022080   0.380246   0.582910  -0.022597  -0.022107   0.001611
    22  H   -0.023126   0.380418  -0.022597   0.602210  -0.022350  -0.000874
    23  H   -0.021883   0.379946  -0.022107  -0.022350   0.595775  -0.004320
    24  C    0.365267  -0.027140   0.001611  -0.000874  -0.004320   4.850302
    25  H   -0.022151   0.001639  -0.000068  -0.000025   0.000075   0.381117
    26  H   -0.021766  -0.003151   0.000030   0.000027   0.001018   0.379454
    27  H   -0.022357  -0.001961   0.000011   0.000629  -0.000061   0.381212
    28  C    0.357657  -0.025663  -0.005216   0.001652  -0.000939  -0.026489
    29  H   -0.021758  -0.000938   0.000022  -0.000019   0.000539  -0.004373
    30  H   -0.023297   0.001669   0.000088  -0.000071  -0.000021  -0.000953
    31  H   -0.022395  -0.005226   0.001602   0.000087   0.000036   0.001627
              25         26         27         28         29         30
     1  C   -0.002364   0.001481  -0.002639  -0.021863   0.001401  -0.003359
     2  O    0.000953   0.000117   0.000730   0.000003  -0.000011   0.000206
     3  C    0.000000   0.000000   0.000000  -0.000390   0.000011  -0.000153
     4  C    0.000000   0.000000   0.000000   0.000019   0.000000  -0.000001
     5  C    0.000000   0.000000   0.000000   0.000002   0.000000   0.000001
     6  H    0.000000   0.000000   0.000000   0.000003   0.000000  -0.000005
     7  H    0.000000   0.000000   0.000000  -0.000091  -0.000001   0.000423
     8  C    0.000000   0.000000   0.000000   0.000000   0.000000   0.000000
     9  H    0.000000   0.000000   0.000000  -0.000001   0.000000   0.000000
    10  H    0.000000   0.000000   0.000000   0.000002   0.000000   0.000000
    11  C    0.000000   0.000000   0.000000   0.000000   0.000000   0.000000
    12  H    0.000000   0.000000   0.000000   0.000000   0.000000   0.000000
    13  H    0.000000   0.000000   0.000000   0.000000   0.000000   0.000000
    14  H    0.000000   0.000000   0.000000   0.000000   0.000000   0.000000
    15  H    0.000000   0.000000   0.000000   0.000000   0.000000   0.000000
    16  H    0.000000   0.000000   0.000000   0.000000   0.000000   0.000000
    17  H    0.000000   0.000000   0.000000   0.000000   0.000000   0.000000
    18  N    0.000009  -0.000008   0.000014  -0.000518  -0.000007   0.000110
    19  C   -0.022151  -0.021766  -0.022357   0.357657  -0.021758  -0.023297
    20  C    0.001639  -0.003151  -0.001961  -0.025663  -0.000938   0.001669
    21  H   -0.000068   0.000030   0.000011  -0.005216   0.000022   0.000088
    22  H   -0.000025   0.000027   0.000629   0.001652  -0.000019  -0.000071
    23  H    0.000075   0.001018  -0.000061  -0.000939   0.000539  -0.000021
    24  C    0.381117   0.379454   0.381212  -0.026489  -0.004373  -0.000953
    25  H    0.586015  -0.022634  -0.022149  -0.002411  -0.000084   0.000691
    26  H   -0.022634   0.605693  -0.022615  -0.002708   0.001043   0.000020
    27  H   -0.022149  -0.022615   0.590227   0.001628   0.000076  -0.000026
    28  C   -0.002411  -0.002708   0.001628   4.859772   0.381201   0.379986
    29  H   -0.000084   0.001043   0.000076   0.381201   0.589796  -0.022185
    30  H    0.000691   0.000020  -0.000026   0.379986  -0.022185   0.597910
    31  H    0.000021   0.000017  -0.000067   0.380392  -0.022313  -0.022684
              31
     1  C   -0.001066
     2  O    0.000006
     3  C   -0.000206
     4  C   -0.000008
     5  C   -0.000001
     6  H    0.000011
     7  H    0.000046
     8  C    0.000000
     9  H    0.000001
    10  H   -0.000002
    11  C    0.000000
    12  H    0.000000
    13  H    0.000014
    14  H    0.000000
    15  H    0.000001
    16  H    0.000000
    17  H    0.000000
    18  N    0.001049
    19  C   -0.022395
    20  C   -0.005226
    21  H    0.001602
    22  H    0.000087
    23  H    0.000036
    24  C    0.001627
    25  H    0.000021
    26  H    0.000017
    27  H   -0.000067
    28  C    0.380392
    29  H   -0.022313
    30  H   -0.022684
    31  H    0.588105
 MBS Mulliken charges:
               1
     1  C    0.404653
     2  O   -0.413351
     3  C   -0.033405
     4  C   -0.033176
     5  C   -0.129775
     6  H    0.076199
     7  H    0.085905
     8  C   -0.129780
     9  H    0.076688
    10  H    0.085675
    11  C   -0.131426
    12  H    0.077679
    13  H    0.074438
    14  H    0.077668
    15  H    0.074771
    16  H    0.072778
    17  H    0.067931
    18  N   -0.389548
    19  C    0.047254
    20  C   -0.274330
    21  H    0.105208
    22  H    0.086804
    23  H    0.092846
    24  C   -0.268589
    25  H    0.101367
    26  H    0.083982
    27  H    0.097349
[...]
 ,0.00001342,0.00001170,0.00000767,-0.00000417,0.00000483,-0.00000138,0
 .00000423,0.00001730,0.00001368,0.00000147,0.00001403,0.00000664,0.000
 01343,0.00005582,0.00001224,-0.00000859,0.00000135,-0.00000781,-0.0000
 1714,0.00000419,-0.00004939,-0.00034694,0.00039081,-0.00909018,0.01337
 931,-0.02192679,0.00315201,-0.00372862,-0.00381045,-0.00053406,0.00094
 700,-0.00153161,-0.00008883,-0.00007936,0.00022264,0.00010381,-0.00001
 308,0.00033721,-0.06953862,0.10522758,-0.20651809,0.07553471,-0.114133
 20,0.22754193,-0.00169289,-0.00037476,0.00226441,0.00018698,0.00079352
 ,-0.00047516,0.00016901,0.00001567,-0.00003365,-0.00050997,0.00063797,
 -0.00057982,-0.00003136,-0.00000299,-0.00000593,-0.00000532,0.00006218
 ,-0.00000261,-0.00004377,-0.00006110,-0.00002040,0.00016260,-0.0003511
 5,0.00007867,0.00016146,0.00008410,0.00001982,-0.00003855,-0.00071172,
 0.00023886,-0.00007308,0.00003938,-0.00012372,0.00000824,-0.00001145,0
 .00000037,0.00000396,0.00000040,-0.00000784,-0.00000213,0.00000967,0.0
 0002387,-0.00001079,-0.00000834,-0.00006814,-0.00000112,-0.00006595,-0
 .00001941,0.00000549,0.00000393,0.00000807,0.00048834,0.00038171,-0.00
 009087,0.00217828,0.01185194,0.00234623,-0.00000027,-0.00021990,-0.000
 60539,-0.00008359,0.00015556,-0.00011519,-0.00003874,-0.00016590,-0.00
 003557,0.00022236,-0.00008503,-0.00014199,-0.07167674,-0.07735347,-0.0
 0733821,0.00328853,0.01147356,0.00155308,0.07624829,0.00129694,0.00285
 731,-0.00225113,0.00052480,-0.00121341,0.00022005,-0.00010997,0.000254
 50,0.00017531,0.00036927,-0.00004767,0.00005660,0.00000952,-0.00000967
 ,0.00006801,-0.00002430,-0.00011800,0.00001833,0.00004948,0.00003278,0
 .00001186,-0.00002772,0.00002690,0.00007108,-0.00008008,0.00000278,0.0
 0005271,-0.00004110,-0.00010795,-0.00002621,0.00002819,0.00000908,-0.0
 0004231,-0.00003096,-0.00003217,-0.00002358,0.00000442,0.00001560,-0.0
 0000883,-0.00005622,0.00000051,-0.00001888,0.00001084,-0.00001075,-0.0
 0002297,-0.00002637,-0.00000784,-0.00002304,0.00000129,0.00000409,0.00
 001424,-0.00029017,-0.00053566,-0.00020679,-0.00330286,-0.01452398,-0.
 00240407,-0.00008958,0.00078444,0.00095341,0.00011048,0.00027203,0.000
 00739,0.00001143,-0.00003515,-0.00003775,-0.00009869,0.00052371,-0.000
 58099,-0.07617129,-0.27758396,-0.01922914,-0.00534248,-0.01512554,-0.0
 0144969,0.08381317,0.30247480,0.00303526,0.00216392,-0.00487108,0.0005
 6679,-0.00236312,0.00097028,-0.00013934,0.00014472,0.00015868,0.000225
 73,-0.00009849,-0.00015009,-0.00001025,0.00000343,0.00005616,-0.000044
 89,-0.00015760,0.00000918,0.00006654,0.00004716,0.00001217,-0.00008000
 ,0.00000311,0.00007286,-0.00017157,-0.00002248,0.00005225,-0.00002141,
 -0.00003712,-0.00006098,0.00002622,-0.00001092,-0.00002927,-0.00001798
 ,-0.00001240,-0.00001613,0.00000640,0.00000802,-0.00000002,-0.00003596
 ,-0.00000023,-0.00001926,0.00002049,-0.00000566,-0.00000242,-0.0000164
 6,0.00000444,-0.00000727,-0.00000243,0.00000526,0.00000602,-0.00077193
 ,-0.00072452,0.00030645,-0.00759318,-0.02850771,-0.00578675,-0.0006475
 5,-0.00088591,0.00163062,0.00012816,0.00028754,0.00038107,-0.00003689,
 0.00007663,-0.00008326,0.00016826,0.00068104,-0.00038473,-0.00713263,-
 0.01869047,-0.04681485,0.00927230,0.02410746,0.00264684,0.00451871,0.0
 2335620,0.05187868,-0.00171062,-0.00116596,0.00011521,0.00073348,0.000
 27320,0.00000322,0.00019963,-0.00002719,0.00012097,-0.00163532,-0.0002
 8555,-0.00275759,-0.00006388,0.00005581,-0.00001401,0.00001961,0.00006
 187,-0.00001266,-0.00003588,-0.00007967,-0.00000491,0.00016522,-0.0007
 6257,0.00015075,0.00012132,0.00013596,0.00012207,-0.00070471,-0.002430
 54,-0.00123314,-0.00014512,0.00001402,-0.00023955,0.00002577,-0.000012
 02,0.00001458,0.00000503,0.00000088,-0.00002030,0.00002063,0.00001376,
 0.00003797,0.00000489,-0.00000081,-0.00006372,-0.00000693,-0.00011563,
 -0.00003171,0.00000844,0.00000578,0.00000671,0.00081994,0.00080873,0.0
 0000730,-0.00974338,-0.00047632,-0.00119276,0.00027939,0.00003712,-0.0
 0057432,0.00014056,0.00001887,0.00008324,0.00035403,-0.00012813,0.0004
 1750,-0.00004747,0.00000114,0.00006259,-0.31119472,-0.00047150,0.00750
 654,-0.01030092,-0.00059854,-0.00002589,-0.00925109,-0.00019702,-0.000
 28059,0.34196596,0.00170553,0.00105550,0.00048400,-0.00053088,-0.00008
 602,-0.00012922,-0.00018427,-0.00014747,-0.00002815,-0.00050805,-0.000
 95432,-0.00106653,0.00002646,0.00000071,-0.00001947,0.00000098,-0.0000
 3007,0.00000010,0.00002034,0.00006920,0.00001761,-0.00025894,0.0001583
 7,-0.00007929,-0.00027799,-0.00017147,0.00007938,-0.00070814,-0.000013
 36,-0.00163818,0.00005173,-0.00005846,0.00010111,0.00000398,0.00002280
 ,0.00000643,-0.00000404,-0.00000595,0.00001507,0.00002946,-0.00000546,
 -0.00000796,0.00003203,0.00002005,0.00011549,0.00001207,0.00005525,0.0
 0002280,-0.00001190,-0.00000699,-0.00001202,-0.00045678,-0.00044965,0.
 00016887,0.01295056,-0.00132969,0.00135687,-0.00064018,0.00011173,0.00
 065847,0.00003599,-0.00015726,0.00003149,-0.00008720,0.00034250,-0.000
 04740,-0.00015247,-0.00002449,-0.00006365,-0.00213529,-0.04664826,0.00
 012215,0.01759659,0.00008531,-0.00100308,-0.03130676,0.00087841,0.0002
 7133,0.00379621,0.04716428,0.00046823,0.00122729,0.00073379,-0.0003191
 2,-0.00020493,0.00009313,-0.00031221,-0.00007200,0.00001934,-0.0008124
 1,-0.00189370,-0.00044044,0.00004998,-0.00001545,-0.00001366,0.0000105
 4,-0.00000064,0.00000046,0.00002788,0.00009160,0.00001352,-0.00005811,
 0.00037247,-0.00016334,0.00008863,0.00026973,-0.00001758,-0.00135380,-
 0.00128726,-0.00214530,0.00006019,-0.00008643,0.00013526,-0.00001176,0
 .00002004,-0.00000504,-0.00000477,-0.00000590,0.00000329,-0.00001533,-
 0.00001972,-0.00000230,0.00000505,-0.00002026,0.00000302,0.00000466,0.
 00007066,0.00001957,0.00000174,0.00001011,-0.00001409,-0.00008694,-0.0
 0030017,-0.00013993,0.02650949,0.00213680,0.00085538,0.00039127,0.0001
 6194,0.00215803,-0.00019369,-0.00012399,0.00020746,-0.00054403,0.00011
 223,-0.00045206,-0.00001223,0.00003157,-0.00009936,0.00599298,0.000342
 44,-0.04759244,-0.02573772,-0.00177494,0.00120692,-0.00208835,0.000371
 43,-0.00085357,-0.00524505,0.00319046,0.05119929,-0.01064571,-0.015799
 66,-0.00125765,-0.00404350,0.00299989,-0.00000731,0.00028171,0.0000779
 9,0.00002839,-0.00021328,0.00012967,-0.00000112,-0.00000939,0.00005674
 ,-0.00007113,0.00003521,0.00006849,-0.00001038,-0.00010344,-0.00006626
 ,-0.00000825,0.00002403,-0.00002360,-0.00005393,0.00006129,-0.00000513
 ,-0.00000637,0.00003001,0.00000098,0.00002333,-0.00001683,0.00000459,0
 .00002874,0.00002734,0.00001955,0.00003216,-0.00000156,-0.00000800,0.0
 0001222,0.00002491,-0.00000201,0.00001456,-0.00000594,0.00000648,0.000
 00894,0.00001853,-0.00000196,0.00001039,-0.00000040,-0.00000156,-0.000
 00439,0.00081572,0.00123978,0.00014179,-0.16006716,-0.00699931,-0.0035
 2402,-0.02102942,0.00350423,-0.00929091,0.00077294,-0.00067298,0.00145
 722,0.00040073,0.00022035,-0.00094830,0.00035789,-0.00123624,0.0011534
 2,-0.02397021,0.00251126,0.00841442,0.00086818,-0.00046818,-0.00157067
 ,0.00052097,-0.00121183,-0.00138619,0.00012265,0.00024680,0.00134027,0
 .45395160,-0.03644470,-0.01006641,-0.00188916,-0.00539282,-0.00351143,
 -0.00033906,-0.00136855,0.00038534,-0.00016493,0.00103021,-0.00067416,
 -0.00003874,-0.00004624,-0.00042162,0.00019958,-0.00016683,-0.00036009
 ,0.00003244,-0.00004888,0.00010518,-0.00001739,-0.00017780,0.00011997,
 0.00013782,-0.00018496,0.00004235,0.00004852,-0.00009928,-0.00001631,0
 .00001983,0.00010826,-0.00003708,-0.00004140,-0.00011355,-0.00005357,-
 0.00015403,0.00001428,0.00003076,-0.00002715,-0.00008744,-0.00000027,-
 0.00006004,0.00002720,-0.00003324,-0.00007598,-0.00004004,0.00002434,-
 0.00001640,0.00000382,0.00002576,0.00000964,0.00024598,-0.00666470,-0.
 00043687,-0.00851762,-0.07495496,-0.00030113,0.01750961,0.00118569,0.0
 0267573,-0.00048780,0.00015558,-0.00070798,0.00202186,-0.00172723,0.00
 306957,0.00140199,0.00006212,0.00045759,0.01367270,0.00136162,-0.00083
 908,-0.00071663,0.00000047,0.00061176,0.00126048,0.00009717,-0.0003865
 1,0.00180848,-0.00103233,-0.00250087,-0.02444433,0.57632674,-0.0027006
 4,-0.00124329,-0.00031302,-0.00040690,0.00000492,-0.00207810,-0.000104
 39,-0.00003578,0.00034127,0.00011151,-0.00001041,0.00004059,-0.0000225
 3,0.00006178,0.00001056,-0.00000674,-0.00010487,-0.00001185,-0.0000085
 0,0.00000475,0.00002942,0.00004518,0.00007073,-0.00008949,-0.00012404,
 -0.00016157,0.00007931,0.00001447,0.00005072,-0.00050592,-0.00000603,0
 .00000774,0.00007335,0.00001713,-0.00000249,0.00001301,-0.00001072,0.0
 0001157,-0.00001168,0.00000392,0.00000134,0.00000776,0.00000551,0.0000
 5975,0.00015627,-0.00000061,0.00001446,-0.00000294,-0.00000086,-0.0000
 4005,-0.00000031,0.00000889,-0.00041668,0.00071264,-0.00354587,-0.0001
 8247,-0.07398738,-0.03172161,0.00094369,-0.00580025,-0.00086668,-0.000
 25178,0.00065976,-0.00274357,0.00260140,-0.00467899,-0.00038752,-0.001
 12975,0.00071427,0.03247908,-0.00008567,-0.00320230,0.00082471,0.00014
 026,0.00072167,0.00043588,0.00103572,0.00081438,0.00328361,-0.00211068
 ,-0.00506807,-0.00570822,-0.00170567,0.58467009,-0.00696251,0.00213240
 ,-0.00013279,0.00148848,0.00029398,0.00003118,-0.00046226,0.00016445,-
 0.00004159,0.00042478,-0.00024149,-0.00000502,-0.00001131,-0.00015388,
 0.00007151,-0.00005572,-0.00013474,0.00000319,0.00000079,0.00002004,-0
 .00000583,-0.00004419,0.00002880,0.00005067,-0.00006688,-0.00000068,0.
 00000981,0.00002917,0.00004174,-0.00000104,0.00003589,-0.00000983,-0.0
 0001538,-0.00004165,-0.00002063,-0.00005570,0.00000297,0.00001161,-0.0
 0000902,-0.00003263,0.00000231,-0.00001776,0.00000922,-0.00000894,-0.0
 0001805,-0.00001532,0.00000435,-0.00000806,0.00000081,0.00000588,0.000
 00477,0.00015107,-0.00234966,-0.00014361,-0.00945436,-0.03129475,-0.00
 197321,0.00093689,-0.00156188,0.00075631,-0.00002712,0.00013489,-0.000
 05642,0.00031113,0.00029740,0.00030896,-0.00014921,0.00080612,-0.00050
 636,0.00106248,-0.00153060,-0.00095772,-0.00004427,0.00010313,0.000070
 20,-0.00022415,0.00073378,0.00052726,0.00032759,0.00034751,-0.00023152
 ,-0.05736728,-0.05032687,-0.00334739,0.06516422,0.00212396,-0.00054794
 ,0.00010840,-0.00267939,-0.00024017,-0.00018938,-0.00012986,0.00027964
 ,-0.00003358,0.00033078,-0.00023559,-0.00000286,0.00000710,-0.00004423
 ,0.00008090,-0.00006775,-0.00008030,0.00002652,0.00003462,0.00009539,0
 .00000709,-0.00006986,0.00006166,0.00004648,-0.00011699,0.00002868,0.0
 0003353,-0.00001256,0.00009014,-0.00000270,0.00003119,-0.00000149,-0.0
 0002627,-0.00003525,-0.00002778,-0.00002835,0.00000834,0.00001192,0.00
 000154,-0.00005618,0.00000239,-0.00002700,0.00001388,-0.00001108,-0.00
 001122,-0.00002885,0.00000463,-0.00001953,-0.00000250,0.00000472,0.000
 01322,-0.00082826,-0.00055513,-0.00015568,0.00042523,-0.00522831,-0.00
 017055,0.00112788,0.00004366,0.00048040,-0.00003722,-0.00002650,0.0000
 9442,0.00000620,0.00050453,-0.00002548,0.00007656,0.00089574,-0.000224
 69,0.00096290,-0.00001065,-0.00036091,-0.00002473,-0.00002097,-0.00010
 748,0.00010148,0.00076970,0.00033397,0.00001647,0.00050255,0.00009998,
 -0.05325429,-0.29108933,-0.01636364,0.05727153,0.31888677,-0.00012641,
 0.00006535,0.00005620,-0.00012556,-0.00004555,0.00095998,-0.00002469,0
 .00001590,0.00006770,0.00003632,-0.00002056,-0.00007321,0.00000612,0.0
 0000623,0.00000461,-0.00001409,-0.00002652,0.00000600,0.00000188,0.000
 00736,-0.00000696,-0.00001355,-0.00000909,0.00001227,0.00000303,0.0000
 2044,-0.00000557,-0.00000277,0.00000361,0.00003222,0.00000076,-0.00000
 034,-0.00000821,-0.00000061,0.00000119,0.00000088,0.00000247,0.0000010
 9,0.00000210,-0.00000629,0.00000033,-0.00000296,0.00000266,-0.00000549
 ,-0.00001266,-0.00000325,-0.00000221,-0.00000176,0.00000011,0.00000453
 ,0.00000047,-0.00005839,-0.00012932,0.00011436,-0.00018179,-0.00137258
 ,-0.00181739,-0.00036109,-0.00087210,-0.00011151,-0.00004725,-0.000120
 96,-0.00001231,0.00020610,0.00015322,-0.00004698,-0.00062528,0.0002991
 0,-0.00004816,0.00048979,0.00081226,-0.00007095,0.00006903,0.00014775,
 -0.00000970,0.00061709,-0.00013197,0.00007364,-0.00016973,-0.00006496,
 -0.00008374,-0.00353665,-0.01620949,-0.04976992,0.00407403,0.01822887,
 0.04822833,-0.00103577,0.00196837,-0.00058911,0.00116221,-0.00091551,0
 .00063451,0.00003508,-0.00003878,0.00002221,-0.00002468,0.00021159,-0.
 00004541,-0.00000285,-0.00000027,-0.00002409,-0.00000436,-0.00000325,-
 0.00000314,-0.00000225,-0.00004455,-0.00001256,0.00004259,-0.00001934,
 -0.00005130,0.00001878,-0.00007915,0.00000874,0.00009309,-0.00000410,-
 0.00013665,-0.00001573,0.00001745,0.00002912,0.00001066,-0.00000140,0.
 00000692,-0.00000371,0.00000268,0.00000648,0.00001601,0.00000054,0.000
 01064,-0.00000292,0.00002340,0.00006589,0.00000924,-0.00000662,0.00000
 007,-0.00000375,-0.00001950,0.00000097,0.00034833,-0.00005697,0.000179
 06,-0.01178372,0.01510619,-0.02497563,-0.00660561,-0.00138996,0.000612
 18,0.00005571,-0.00022617,-0.00003079,-0.00069520,0.00101074,-0.001868
 14,0.00007045,0.00003948,0.00033633,0.00141582,0.00019312,-0.00168278,
 -0.00028803,-0.00005059,0.00087616,-0.00007337,0.00005926,0.00015424,0
 .00034878,-0.00037528,0.00014720,-0.08457550,0.04674052,-0.07819141,0.
 00220527,-0.00298531,0.00675900,0.09380784,-0.00102392,0.00016856,-0.0
 0086469,-0.00083370,-0.00160752,-0.00039775,0.00003799,-0.00009852,-0.
 00000517,-0.00011205,0.00014856,-0.00000284,-0.00001015,0.00001285,-0.
 00002517,0.00001881,0.00003223,-0.00001090,-0.00002723,-0.00002770,-0.
 00000705,0.00002747,-0.00004556,-0.00001141,0.00004655,0.00000107,-0.0
 0001918,0.00001726,-0.00002067,0.00003597,-0.00001630,0.00000001,0.000
 00196,0.00001265,0.00001162,0.00000965,0.00000026,-0.00000407,0.000001
 12,0.00002424,0.00000079,0.00001174,-0.00000607,0.00000296,-0.00000573
 ,0.00000912,-0.00000370,0.00000726,0.00000150,0.00000191,-0.00000596,0
 .00051341,0.00016186,0.00008100,-0.00140825,0.00098003,-0.00383448,-0.
 00033329,-0.00030824,-0.00023120,-0.00006856,-0.00003569,0.00022753,-0
 .00014556,0.00062120,0.00002319,-0.00008103,0.00051710,-0.00015129,-0.
 00001741,-0.00001260,0.00012498,0.00028188,0.00028838,-0.00025163,0.00
 009419,-0.00013476,0.00019788,-0.00013691,-0.00000445,-0.00023433,0.04
 858705,-0.10587263,0.10315009,0.01162065,-0.01346752,0.02462934,-0.051
 88290,0.11301718,-0.00208515,0.00200997,0.00005571,0.00219814,-0.00026
 868,0.00097444,-0.00001422,-0.00004071,-0.00000654,-0.00003001,0.00017
 392,-0.00002483,0.00000392,-0.00001847,-0.00003064,0.00000342,0.000004
 46,-0.00000355,-0.00002012,-0.00004513,-0.00001257,0.00005170,-0.00001
 054,-0.00003375,0.00004904,-0.00005623,-0.00000724,0.00004218,-0.00005
 093,-0.00003783,-0.00001113,0.00000869,0.00001576,0.00000316,-0.000003
 50,0.00000344,-0.00000429,0.00000401,0.00000708,0.00001441,-0.00000043
 ,0.00001440,-0.00000288,0.00000621,0.00002925,0.00001076,-0.00000547,0
 .00000057,-0.00000254,-0.00000976,0.00000137,0.00073475,-0.00028531,0.
 00003761,0.00027559,-0.00074046,-0.00173206,-0.00106207,-0.00055603,0.
 00057593,0.00020635,0.00002415,0.00044784,-0.00012709,0.00037347,0.000
 14568,0.00024624,-0.00004183,0.00002425,0.00081775,-0.00033922,0.00056
 680,0.00018692,0.00006867,0.00051744,-0.00009666,-0.00007342,-0.000010
 35,-0.00010833,-0.00011655,0.00020730,-0.08045856,0.10112384,-0.216880
 79,0.00242827,-0.00186106,0.00302567,0.08668335,-0.11223212,0.23286430
 ,-0.00120090,0.00199349,0.00071424,0.00130416,-0.00083459,-0.00069362,
 0.00002644,-0.00002398,0.00000317,-0.00007074,0.00019452,0.00004689,-0
 .00001982,-0.00001635,0.00001059,0.00002858,0.00002145,-0.00002044,-0.
 00000546,-0.00004830,0.00000334,0.00003898,-0.00008145,0.00003324,0.00
 006781,0.00002749,-0.00003496,0.00008169,-0.00004062,0.00015093,-0.000
 01526,0.00001082,-0.00003058,0.00000695,0.00000230,-0.00000665,-0.0000
 0111,-0.00000570,-0.00002118,0.00002252,0.00000118,0.00000572,-0.00001
 041,0.00000117,-0.00003935,0.00000124,-0.00001663,-0.00000071,0.000008
 81,0.00000525,-0.00000491,0.00035600,-0.00008122,-0.00007646,-0.013522
 72,0.01201914,0.02587251,0.00128940,-0.00003627,0.00173515,-0.00009932
 ,0.00005674,-0.00094065,0.00035750,-0.00036338,-0.00019204,-0.00006689
 ,0.00006879,-0.00015195,-0.00661482,-0.00127065,-0.00129399,0.00006720
 ,-0.00021933,-0.00002228,0.00011242,0.00007778,-0.00032709,-0.00082288
 ,0.00078194,0.00192893,-0.09626410,0.04281896,0.09267434,0.00280811,-0
 .00220911,-0.00697099,0.00547758,-0.00518969,-0.00993290,0.10665903,-0
 .00132919,0.00029884,0.00081447,-0.00053960,-0.00157594,0.00003653,0.0
 0003242,-0.00009789,0.00002128,-0.00011386,0.00015932,0.00003046,-0.00
 000511,0.00001221,-0.00002462,0.00002173,0.00002933,-0.00001143,-0.000
 03119,-0.00003371,0.00000200,0.00003220,-0.00001714,-0.00003551,0.0000
 5071,-0.00003676,-0.00001515,0.00002633,-0.00001817,-0.00002513,-0.000
 01635,0.00000428,0.00001258,0.00001328,0.00000918,0.00000976,-0.000007
 65,-0.00000338,-0.00000561,0.00002262,-0.00000159,0.00001222,-0.000007
 18,0.00000795,0.00001528,0.00001328,0.00000021,0.00000790,0.00000159,-
 0.00000623,-0.00000453,0.00056915,0.00013331,0.00006935,-0.00161220,0.
 00035011,0.00385230,0.00012907,-0.00007877,-0.00023664,0.00031754,0.00
 024249,0.00027812,-0.00016737,-0.00003977,0.00019747,0.00008720,-0.000
 10671,-0.00019116,-0.00046626,-0.00036409,0.00008133,-0.00001827,0.000
 00584,-0.00028370,-0.00006038,0.00048273,0.00021104,-0.00015994,0.0006
 5904,0.00003184,0.04452150,-0.08340773,-0.08431412,0.01361336,-0.01059
 512,-0.02538540,-0.00727366,0.00567730,0.01295845,-0.04764377,0.088310
 86,0.00183936,-0.00183917,0.00018563,-0.00225845,-0.00006751,0.0007878
 1,0.00003029,0.00003025,-0.00001131,0.00002248,-0.00013417,-0.00002781
 ,0.00000845,0.00001395,0.00000819,-0.00002286,-0.00000094,0.00001343,0
 .00001745,0.00003952,0.00000003,-0.00005232,0.00006246,0.00000148,-0.0
 0004204,-0.00001069,0.00000896,-0.00002857,0.00005619,-0.00003304,0.00
 001269,-0.00000630,0.00000645,-0.00000142,0.00000310,0.00000135,0.0000
 0207,-0.00000345,0.00000765,-0.00001792,-0.00000145,-0.00001291,0.0000
 0520,-0.00000337,0.00000087,-0.00000239,0.00001039,0.00000210,-0.00000
 320,0.00000245,0.00000094,-0.00061344,0.00030873,-0.00007000,-0.001278
 65,0.00186020,0.00059635,-0.00074295,0.00026599,0.00063661,-0.00019448
 ,-0.00006108,0.00044172,0.00010180,0.00005235,0.00023845,0.00010860,0.
 00006854,-0.00002721,0.00053483,0.00032767,0.00064692,-0.00023856,-0.0
 0009805,0.00039161,-0.00025614,0.00011844,0.00002079,0.00004199,-0.000
 25450,0.00023516,0.09517819,-0.08247443,-0.22664332,-0.00080968,0.0000
 5505,-0.00050243,0.01107795,-0.01021079,-0.02073469,-0.10241831,0.0918
 9061,0.24383025\\-0.00000486,0.00000306,-0.00001156,-0.00000148,-0.000
 00623,0.00000079,-0.00000565,-0.00000030,0.00000936,0.00001827,-0.0000
 0784,0.00000236,0.00000072,0.00000023,0.00000456,-0.00000262,0.0000017
 9,0.00000254,0.00000023,0.00000250,0.00000295,-0.00000750,-0.00000376,
 -0.00000252,-0.00000331,0.00000275,0.00000730,-0.00000037,0.00000346,0
 .00000268,-0.00000009,0.00000459,0.00000472,-0.00000406,-0.00000250,0.
 00000479,-0.00000282,-0.00000178,0.00000229,-0.00000009,0.00000025,0.0
 0000196,0.00000136,-0.00000080,-0.00000081,-0.00000288,-0.00000113,0.0
 0000211,-0.00000044,0.00000037,0.00000581,0.00000042,0.00000709,-0.000
 01023,-0.00000512,-0.00000718,0.00001896,0.00000018,-0.00000400,-0.000
 00857,0.00000150,-0.00000176,0.00000111,-0.00000080,-0.00000114,0.0000
 0071,0.00000223,-0.00000058,-0.00000401,0.00000221,0.00000741,-0.00001
 181,0.00000037,0.00000333,-0.00000365,0.00000212,-0.00000065,-0.000005
 06,0.00000317,-0.00000088,0.00000012,0.00001338,0.00000488,-0.00000723
 ,0.00000035,-0.00000193,-0.00000480,-0.00000152,0.00000064,-0.00000416
 ,-0.00000288,0.00000010,-0.00000074\\\@


 Ideas are like rabbits. You get a couple and learn
 how to handle them, and pretty soon you have a dozen.
                                    -- John Steinbeck
 Job cpu time:       0 days  2 hours  8 minutes  6.9 seconds.
 File lengths (MBytes):  RWF=    406 Int=      0 D2E=      0 Chk=     13 Scr=      1
 Normal termination of Gaussian 09 at Tue Apr 23 13:59:23 2024.
