	You are loading a legacy vmd module, please load an up to date module instead.


	 module load container_env vmd

	Please run vmd command with crun.vmd prepend to it:
	
	 crun.vmd vmd

	 
module: Command not found.
module: Command not found.
 Entering Gaussian System, Link 0=g09
 Initial command:
 /opt/gaussian/g09/l1.exe "/tmp/G09-68.com.o10577460.tmp/Gau-1867359.inp" -scrdir="/tmp/G09-68.com.o10577460.tmp/"
 Entering Link 1 = /opt/gaussian/g09/l1.exe PID=   1867360.
  
 Copyright (c) 1988,1990,1992,1993,1995,1998,2003,2009,2013,
            Gaussian, Inc.  All Rights Reserved.
  
 This is part of the Gaussian(R) 09 program.  It is based on
 the Gaussian(R) 03 system (copyright 2003, Gaussian, Inc.),
 the Gaussian(R) 98 system (copyright 1998, Gaussian, Inc.),
 the Gaussian(R) 94 system (copyright 1995, Gaussian, Inc.),
 the Gaussian 92(TM) system (copyright 1992, Gaussian, Inc.),
 the Gaussian 90(TM) system (copyright 1990, Gaussian, Inc.),
 the Gaussian 88(TM) system (copyright 1988, Gaussian, Inc.),
 the Gaussian 86(TM) system (copyright 1986, Carnegie Mellon
 University), and the Gaussian 82(TM) system (copyright 1983,
 Carnegie Mellon University). Gaussian is a federally registered
 trademark of Gaussian, Inc.
  
 This software contains proprietary and confidential information,
 including trade secrets, belonging to Gaussian, Inc.
  
 This software is provided under written license and may be
 used, copied, transmitted, or stored only in accord with that
 written license.
  
 The following legend is applicable only to US Government
 contracts under FAR:
  
                    RESTRICTED RIGHTS LEGEND
  
 Use, reproduction and disclosure by the US Government is
 subject to restrictions as set forth in subparagraphs (a)
 and (c) of the Commercial Computer Software - Restricted
 Rights clause in FAR 52.227-19.
  
 Gaussian, Inc.
 340 Quinnipiac St., Bldg. 40, Wallingford CT 06492
  
  
 ---------------------------------------------------------------
 Warning -- This program may not be used in any manner that
 competes with the business of Gaussian, Inc. or will provide
 assistance to any competitor of Gaussian, Inc.  The licensee
 of this program is prohibited from giving any competitor of
 Gaussian, Inc. access to this program.  By using this program,
 the user acknowledges that Gaussian, Inc. is engaged in the
 business of creating and licensing software in the field of
 computational chemistry and represents and warrants to the
 licensee that it is not a competitor of Gaussian, Inc. and that
 it will not use this program in any manner prohibited above.
 ---------------------------------------------------------------
  

 Cite this work as:
 Gaussian 09, Revision D.01,
 M. J. Frisch, G. W. Trucks, H. B. Schlegel, G. E. Scuseria, 
 M. A. Robb, J. R. Cheeseman, G. Scalmani, V. Barone, B. Mennucci, 
 G. A. Petersson, H. Nakatsuji, M. Caricato, X. Li, H. P. Hratchian, 
 A. F. Izmaylov, J. Bloino, G. Zheng, J. L. Sonnenberg, M. Hada, 
 M. Ehara, K. Toyota, R. Fukuda, J. Hasegawa, M. Ishida, T. Nakajima, 
 Y. Honda, O. Kitao, H. Nakai, T. Vreven, J. A. Montgomery, Jr., 
 J. E. Peralta, F. Ogliaro, M. Bearpark, J. J. Heyd, E. Brothers, 
 K. N. Kudin, V. N. Staroverov, T. Keith, R. Kobayashi, J. Normand, 
 K. Raghavachari, A. Rendell, J. C. Burant, S. S. Iyengar, J. Tomasi, 
 M. Cossi, N. Rega, J. M. Millam, M. Klene, J. E. Knox, J. B. Cross, 
 V. Bakken, C. Adamo, J. Jaramillo, R. Gomperts, R. E. Stratmann, 
 O. Yazyev, A. J. Austin, R. Cammi, C. Pomelli, J. W. Ochterski, 
 R. L. Martin, K. Morokuma, V. G. Zakrzewski, G. A. Voth, 
 P. Salvador, J. J. Dannenberg, S. Dapprich, A. D. Daniels, 
 O. Farkas, J. B. Foresman, J. V. Ortiz, J. Cioslowski, 
 and D. J. Fox, Gaussian, Inc., Wallingford CT, 2013.
 
 ******************************************
 Gaussian 09:  ES64L-G09RevD.01 24-Apr-2013
                23-Apr-2024 
 ******************************************
 %nprocshared=20
 Will use up to   20 processors via shared memory.
 %mem=4GB
 %chk=68.chk
 ----------------------------------------------------------------------
 # opt freq=noraman b3lyp/6-311+g(d,p) pop=(npa,hirshfeld,chelpg,mbs) g
 eom=connectivity
 ----------------------------------------------------------------------
 1/14=-1,18=20,19=15,26=3,38=1,57=2/1,3;
 2/9=110,12=2,17=6,18=5,40=1/2;
 3/5=4,6=6,7=111,11=2,16=1,25=1,30=1,71=1,74=-5/1,2,3;
 4//1;
 5/5=2,38=5/2;
 6/7=2,8=2,9=2,10=2,15=8,20=3,27=100,28=1,40=-1,79=1/1,2,7;
 7//1,2,3,16;
 1/14=-1,18=20,19=15,26=3/3(2);
 2/9=110/2;
 99//99;
 2/9=110/2;
 3/5=4,6=6,7=111,11=2,16=1,25=1,30=1,71=1,74=-5/1,2,3;
 4/5=5,16=3,69=1/1;
 5/5=2,38=5/2;
 7//1,2,3,16;
 1/14=-1,18=20,19=15,26=3/3(-5);
 2/9=110/2;
 6/7=2,8=2,9=2,10=2,15=8,19=2,20=3,27=100,28=1,40=-1,79=1/1,2,7;
 99/9=1/99;
 -------------------
 Title Card Required
 -------------------
 Symbolic Z-matrix:
 Charge =  0 Multiplicity = 1
 C                    -1.88308  -3.17124   2.32624 
 C                    -0.41775  -3.41671   2.03108 
 C                     0.35644  -2.15669   1.71216 
 C                    -2.11052  -2.56212   3.69417 
 C                    -2.1014   -1.04838   3.71257 
 C                    -1.06761  -0.39463   2.82058 
 H                    -2.32469  -2.51133   1.53466 
 H                     0.0574   -3.93366   2.9069 
 H                    -0.01419  -1.72737   0.74347 
 H                    -1.33088  -2.94621   4.40533 
 H                    -1.9362   -0.71342   4.77203 
 H                    -2.42177  -4.1556    2.27676 
 H                    -0.33811  -4.11357   1.15379 
 H                     1.4347   -2.43194   1.55981 
 H                    -3.10407  -2.90945   4.08719 
 H                    -3.11446  -0.67176   3.40617 
 H                    -0.91676   0.66011   3.17703 
 H                    -1.47048  -0.32631   1.77453 
 C                     1.37919  -0.05741   2.55893 
 O                     2.31154   0.09644   3.34211 
 C                     1.23893   0.78041   1.27442 
 F                     0.16355   1.58965   1.38016 
 F                     1.08077  -0.04212   0.21568 
 F                     2.34953   1.52817   1.10137 
 N                     0.27182  -1.10116   2.79537 
 

 GradGradGradGradGradGradGradGradGradGradGradGradGradGradGradGradGradGrad
 Berny optimization.
 Initialization pass.
                           ----------------------------
                           !    Initial Parameters    !
                           ! (Angstroms and Degrees)  !
 --------------------------                            --------------------------
 ! Name  Definition              Value          Derivative Info.                !
 --------------------------------------------------------------------------------
 ! R1    R(1,2)                  1.5148         estimate D2E/DX2                !
 ! R2    R(1,4)                  1.5146         estimate D2E/DX2                !
 ! R3    R(1,7)                  1.1212         estimate D2E/DX2                !
 ! R4    R(1,12)                 1.1232         estimate D2E/DX2                !
 ! R5    R(2,3)                  1.5129         estimate D2E/DX2                !
 ! R6    R(2,8)                  1.1225         estimate D2E/DX2                !
 ! R7    R(2,13)                 1.1232         estimate D2E/DX2                !
 ! R8    R(3,9)                  1.1225         estimate D2E/DX2                !
 ! R9    R(3,14)                 1.1232         estimate D2E/DX2                !
 ! R10   R(3,25)                 1.5148         estimate D2E/DX2                !
 ! R11   R(4,5)                  1.5139         estimate D2E/DX2                !
 ! R12   R(4,10)                 1.123          estimate D2E/DX2                !
 ! R13   R(4,15)                 1.1235         estimate D2E/DX2                !
 ! R14   R(5,6)                  1.5139         estimate D2E/DX2                !
 ! R15   R(5,11)                 1.1234         estimate D2E/DX2                !
 ! R16   R(5,16)                 1.1234         estimate D2E/DX2                !
 ! R17   R(6,17)                 1.1235         estimate D2E/DX2                !
 ! R18   R(6,18)                 1.123          estimate D2E/DX2                !
 ! R19   R(6,25)                 1.5146         estimate D2E/DX2                !
 ! R20   R(19,20)                1.2273         estimate D2E/DX2                !
 ! R21   R(19,21)                1.54           estimate D2E/DX2                !
 ! R22   R(19,25)                1.54           estimate D2E/DX2                !
 ! R23   R(21,22)                1.35           estimate D2E/DX2                !
 ! R24   R(21,23)                1.35           estimate D2E/DX2                !
 ! R25   R(21,24)                1.35           estimate D2E/DX2                !
 ! A1    A(2,1,4)              112.7316         estimate D2E/DX2                !
 ! A2    A(2,1,7)              109.8055         estimate D2E/DX2                !
 ! A3    A(2,1,12)             108.2607         estimate D2E/DX2                !
 ! A4    A(4,1,7)              109.9862         estimate D2E/DX2                !
 ! A5    A(4,1,12)             108.6759         estimate D2E/DX2                !
 ! A6    A(7,1,12)             107.2065         estimate D2E/DX2                !
 ! A7    A(1,2,3)              113.6492         estimate D2E/DX2                !
 ! A8    A(1,2,8)              109.3948         estimate D2E/DX2                !
 ! A9    A(1,2,13)             108.7422         estimate D2E/DX2                !
 ! A10   A(3,2,8)              109.3556         estimate D2E/DX2                !
 ! A11   A(3,2,13)             108.4087         estimate D2E/DX2                !
 ! A12   A(8,2,13)             107.0779         estimate D2E/DX2                !
 ! A13   A(2,3,9)              109.3602         estimate D2E/DX2                !
 ! A14   A(2,3,14)             108.4057         estimate D2E/DX2                !
 ! A15   A(2,3,25)             113.6418         estimate D2E/DX2                !
 ! A16   A(9,3,14)             107.076          estimate D2E/DX2                !
 ! A17   A(9,3,25)             109.3991         estimate D2E/DX2                !
 ! A18   A(14,3,25)            108.7458         estimate D2E/DX2                !
 ! A19   A(1,4,5)              114.3431         estimate D2E/DX2                !
 ! A20   A(1,4,10)             109.278          estimate D2E/DX2                !
 ! A21   A(1,4,15)             108.9297         estimate D2E/DX2                !
 ! A22   A(5,4,10)             109.2756         estimate D2E/DX2                !
 ! A23   A(5,4,15)             108.0712         estimate D2E/DX2                !
 ! A24   A(10,4,15)            106.6597         estimate D2E/DX2                !
 ! A25   A(4,5,6)              115.3887         estimate D2E/DX2                !
 ! A26   A(4,5,11)             108.0893         estimate D2E/DX2                !
 ! A27   A(4,5,16)             109.0554         estimate D2E/DX2                !
 ! A28   A(6,5,11)             109.0569         estimate D2E/DX2                !
 ! A29   A(6,5,16)             108.0791         estimate D2E/DX2                !
 ! A30   A(11,5,16)            106.8505         estimate D2E/DX2                !
 ! A31   A(5,6,17)             108.0687         estimate D2E/DX2                !
 ! A32   A(5,6,18)             109.2761         estimate D2E/DX2                !
 ! A33   A(5,6,25)             114.3478         estimate D2E/DX2                !
 ! A34   A(17,6,18)            106.6529         estimate D2E/DX2                !
 ! A35   A(17,6,25)            108.9344         estimate D2E/DX2                !
 ! A36   A(18,6,25)            109.2766         estimate D2E/DX2                !
 ! A37   A(20,19,21)           122.2249         estimate D2E/DX2                !
 ! A38   A(20,19,25)           122.2249         estimate D2E/DX2                !
 ! A39   A(21,19,25)           115.5502         estimate D2E/DX2                !
 ! A40   A(19,21,22)           109.4712         estimate D2E/DX2                !
 ! A41   A(19,21,23)           109.4712         estimate D2E/DX2                !
 ! A42   A(19,21,24)           109.4712         estimate D2E/DX2                !
 ! A43   A(22,21,23)           109.4712         estimate D2E/DX2                !
 ! A44   A(22,21,24)           109.4713         estimate D2E/DX2                !
 ! A45   A(23,21,24)           109.4712         estimate D2E/DX2                !
 ! A46   A(3,25,6)             112.7283         estimate D2E/DX2                !
 ! A47   A(3,25,19)            108.8026         estimate D2E/DX2                !
 ! A48   A(6,25,19)            108.8026         estimate D2E/DX2                !
 ! D1    D(4,1,2,3)            -74.7156         estimate D2E/DX2                !
 ! D2    D(4,1,2,8)             47.8152         estimate D2E/DX2                !
 ! D3    D(4,1,2,13)           164.445          estimate D2E/DX2                !
 ! D4    D(7,1,2,3)             48.2923         estimate D2E/DX2                !
 ! D5    D(7,1,2,8)            170.8231         estimate D2E/DX2                !
 ! D6    D(7,1,2,13)           -72.5471         estimate D2E/DX2                !
 ! D7    D(12,1,2,3)           165.0306         estimate D2E/DX2                !
 ! D8    D(12,1,2,8)           -72.4386         estimate D2E/DX2                !
 ! D9    D(12,1,2,13)           44.1912         estimate D2E/DX2                !
 ! D10   D(2,1,4,5)             89.9522         estimate D2E/DX2                !
 ! D11   D(2,1,4,10)           -32.8739         estimate D2E/DX2                !
 ! D12   D(2,1,4,15)          -149.0438         estimate D2E/DX2                !
 ! D13   D(7,1,4,5)            -32.9549         estimate D2E/DX2                !
 ! D14   D(7,1,4,10)          -155.781          estimate D2E/DX2                !
 ! D15   D(7,1,4,15)            88.0491         estimate D2E/DX2                !
 ! D16   D(12,1,4,5)          -150.0329         estimate D2E/DX2                !
 ! D17   D(12,1,4,10)           87.141          estimate D2E/DX2                !
 ! D18   D(12,1,4,15)          -29.029          estimate D2E/DX2                !
 ! D19   D(1,2,3,9)            -66.3842         estimate D2E/DX2                !
 ! D20   D(1,2,3,14)           177.1959         estimate D2E/DX2                !
 ! D21   D(1,2,3,25)            56.1718         estimate D2E/DX2                !
 ! D22   D(8,2,3,9)            171.0634         estimate D2E/DX2                !
 ! D23   D(8,2,3,14)            54.6436         estimate D2E/DX2                !
 ! D24   D(8,2,3,25)           -66.3805         estimate D2E/DX2                !
 ! D25   D(13,2,3,9)            54.6422         estimate D2E/DX2                !
 ! D26   D(13,2,3,14)          -61.7777         estimate D2E/DX2                !
 ! D27   D(13,2,3,25)          177.1983         estimate D2E/DX2                !
 ! D28   D(2,3,25,6)           -74.7339         estimate D2E/DX2                !
 ! D29   D(2,3,25,19)          164.4846         estimate D2E/DX2                !
 ! D30   D(9,3,25,6)            47.8007         estimate D2E/DX2                !
 ! D31   D(9,3,25,19)          -72.9808         estimate D2E/DX2                !
 ! D32   D(14,3,25,6)          164.4328         estimate D2E/DX2                !
 ! D33   D(14,3,25,19)          43.6513         estimate D2E/DX2                !
 ! D34   D(1,4,5,6)            -39.2098         estimate D2E/DX2                !
 ! D35   D(1,4,5,11)          -161.5691         estimate D2E/DX2                !
 ! D36   D(1,4,5,16)            82.6168         estimate D2E/DX2                !
 ! D37   D(10,4,5,6)            83.6176         estimate D2E/DX2                !
 ! D38   D(10,4,5,11)          -38.7417         estimate D2E/DX2                !
 ! D39   D(10,4,5,16)         -154.5558         estimate D2E/DX2                !
 ! D40   D(15,4,5,6)          -160.6873         estimate D2E/DX2                !
 ! D41   D(15,4,5,11)           76.9534         estimate D2E/DX2                !
 ! D42   D(15,4,5,16)          -38.8607         estimate D2E/DX2                !
 ! D43   D(4,5,6,17)          -160.6557         estimate D2E/DX2                !
 ! D44   D(4,5,6,18)            83.6583         estimate D2E/DX2                !
 ! D45   D(4,5,6,25)           -39.171          estimate D2E/DX2                !
 ! D46   D(11,5,6,17)          -38.8147         estimate D2E/DX2                !
 ! D47   D(11,5,6,18)         -154.5007         estimate D2E/DX2                !
 ! D48   D(11,5,6,25)           82.67           estimate D2E/DX2                !
 ! D49   D(16,5,6,17)           76.9947         estimate D2E/DX2                !
 ! D50   D(16,5,6,18)          -38.6913         estimate D2E/DX2                !
 ! D51   D(16,5,6,25)         -161.5206         estimate D2E/DX2                !
 ! D52   D(5,6,25,3)            89.9514         estimate D2E/DX2                !
 ! D53   D(5,6,25,19)         -149.2671         estimate D2E/DX2                !
 ! D54   D(17,6,25,3)         -149.0414         estimate D2E/DX2                !
 ! D55   D(17,6,25,19)         -28.2599         estimate D2E/DX2                !
 ! D56   D(18,6,25,3)          -32.8776         estimate D2E/DX2                !
 ! D57   D(18,6,25,19)          87.9039         estimate D2E/DX2                !
 ! D58   D(20,19,21,22)       -112.2697         estimate D2E/DX2                !
 ! D59   D(20,19,21,23)        127.7303         estimate D2E/DX2                !
 ! D60   D(20,19,21,24)          7.7303         estimate D2E/DX2                !
 ! D61   D(25,19,21,22)         67.7325         estimate D2E/DX2                !
 ! D62   D(25,19,21,23)        -52.2675         estimate D2E/DX2                !
 ! D63   D(25,19,21,24)       -172.2675         estimate D2E/DX2                !
 ! D64   D(20,19,25,3)        -114.2849         estimate D2E/DX2                !
 ! D65   D(20,19,25,6)         122.5485         estimate D2E/DX2                !
 ! D66   D(21,19,25,3)          65.7129         estimate D2E/DX2                !
 ! D67   D(21,19,25,6)         -57.4537         estimate D2E/DX2                !
 --------------------------------------------------------------------------------
 Trust Radius=3.00D-01 FncErr=1.00D-07 GrdErr=1.00D-06
 Number of steps in this run=    150 maximum allowed number of steps=    150.
 GradGradGradGradGradGradGradGradGradGradGradGradGradGradGradGradGradGrad

                          Input orientation:                          
 ---------------------------------------------------------------------
 Center     Atomic      Atomic             Coordinates (Angstroms)
 Number     Number       Type             X           Y           Z
 ---------------------------------------------------------------------
      1          6           0       -1.883080   -3.171239    2.326236
      2          6           0       -0.417745   -3.416712    2.031084
      3          6           0        0.356436   -2.156690    1.712155
      4          6           0       -2.110520   -2.562120    3.694173
      5          6           0       -2.101404   -1.048384    3.712570
      6          6           0       -1.067606   -0.394629    2.820578
      7          1           0       -2.324686   -2.511332    1.534664
      8          1           0        0.057405   -3.933663    2.906897
      9          1           0       -0.014189   -1.727374    0.743472
     10          1           0       -1.330884   -2.946205    4.405333
     11          1           0       -1.936205   -0.713419    4.772032
     12          1           0       -2.421774   -4.155603    2.276760
     13          1           0       -0.338112   -4.113573    1.153785
     14          1           0        1.434696   -2.431943    1.559813
     15          1           0       -3.104066   -2.909451    4.087187
     16          1           0       -3.114463   -0.671756    3.406169
     17          1           0       -0.916762    0.660114    3.177031
     18          1           0       -1.470478   -0.326313    1.774527
     19          6           0        1.379191   -0.057414    2.558930
     20          8           0        2.311537    0.096440    3.342108
     21          6           0        1.238934    0.780412    1.274417
     22          9           0        0.163548    1.589649    1.380162
     23          9           0        1.080775   -0.042124    0.215682
     24          9           0        2.349526    1.528169    1.101373
     25          7           0        0.271815   -1.101164    2.795370
 ---------------------------------------------------------------------
                    Distance matrix (angstroms):
                    1          2          3          4          5
     1  C    0.000000
     2  C    1.514787   0.000000
     3  C    2.534134   1.512854   0.000000
     4  C    1.514597   2.522237   3.190398   0.000000
     5  C    2.544818   3.357243   3.357227   1.513875   0.000000
     6  C    2.935802   3.190393   2.522173   2.559073   1.513863
     7  H    1.121195   2.168541   2.710293   2.170696   2.633125
     8  H    2.164241   1.122521   2.162050   2.683436   3.692478
     9  H    2.842999   2.162098   1.122507   3.714572   3.692294
    10  H    2.162915   2.586939   3.274689   1.122988   2.162255
    11  H    3.467797   4.138394   4.086817   2.147059   1.123366
    12  H    1.123215   2.149988   3.468844   2.155255   3.437877
    13  H    2.156285   1.123214   2.150247   3.464391   4.364855
    14  H    3.484480   2.150211   1.123217   4.140169   4.364928
    15  H    2.158770   3.420701   4.264094   1.123492   2.146915
    16  H    2.988306   4.086310   4.137856   2.159705   1.123396
    17  H    4.041891   4.264121   3.420714   3.474951   2.146891
    18  H    2.927154   3.274849   2.586849   3.015547   2.162282
    19  C    4.515802   3.846100   2.483952   4.443018   3.798348
    20  O    5.413366   4.637888   3.399377   5.171700   4.574047
    21  C    5.144788   4.575258   3.097901   5.314751   4.521829
    22  F    5.267807   5.081855   3.765963   5.269081   4.186806
    23  F    4.798983   4.114498   2.689887   5.351135   4.833947
    24  F    6.442025   5.742300   4.233634   6.583699   5.767820
    25  N    3.024710   2.534046   1.514810   2.935602   2.544840
                    6          7          8          9         10
     6  C    0.000000
     7  H    2.777455   0.000000
     8  H    3.714547   3.095223   0.000000
     9  H    2.683332   2.564951   3.090832   0.000000
    10  H    3.015179   3.068794   2.268860   4.077801   0.000000
    11  H    2.159690   3.723434   4.221750   4.577286   2.342267
    12  H    4.034159   1.806588   2.567617   3.747497   2.680206
    13  H    4.140158   2.580449   1.806157   2.442791   3.594566
    14  H    3.464346   3.760304   2.442689   1.806127   4.001235
    15  H    3.475025   2.698390   3.526612   4.703731   1.801872
    16  H    2.146937   2.740496   4.577123   4.220899   3.058202
    17  H    1.123519   3.838970   4.703696   3.526606   3.832200
    18  H    1.123029   2.358287   4.077948   2.268662   3.715435
    19  C    2.483746   4.559555   4.110171   2.833049   4.370220
    20  O    3.454237   5.617997   4.638130   3.935506   4.863678
    21  C    3.015206   4.858261   5.126744   2.853281   5.504024
    22  F    2.743701   4.799294   5.731418   3.382249   5.653225
    23  F    3.394891   4.408386   4.840868   2.077878   5.639412
    24  F    4.281310   6.193026   6.192362   4.039035   6.669453
    25  N    1.514556   3.212440   2.842790   2.164307   2.926568
                   11         12         13         14         15
    11  H    0.000000
    12  H    4.279111   0.000000
    13  H    5.216000   2.367380   0.000000
    14  H    4.963330   4.284551   2.477012   0.000000
    15  H    2.579819   2.301318   4.207762   5.216896   0.000000
    16  H    1.804331   3.727275   4.962607   5.215567   2.339054
    17  H    2.338778   5.125103   5.216939   4.207799   4.284213
    18  H    3.058069   3.977520   4.001364   3.594415   3.832703
    19  C    4.039803   5.596616   4.623417   2.576762   5.528950
    20  O    4.554543   6.451284   5.434483   3.215299   6.238532
    21  C    4.954427   6.226534   5.143220   3.230944   6.355188
    22  F    4.606285   6.363623   5.729716   4.221527   6.184431
    23  F    5.505736   5.782439   4.412480   2.764631   6.381459
    24  F    6.071733   7.513462   6.249432   4.090180   7.638667
    25  N    2.988794   4.105359   3.484454   2.156355   4.041691
                   16         17         18         19         20
    16  H    0.000000
    17  H    2.579975   0.000000
    18  H    2.341852   1.801848   0.000000
    19  C    4.613909   2.483606   2.967863   0.000000
    20  O    5.480484   3.281295   4.115783   1.227317   0.000000
    21  C    5.060161   2.877749   2.969152   1.540000   2.427683
    22  F    4.468111   2.293435   2.548818   2.362223   3.269979
    23  F    5.308075   3.640451   3.003274   2.362224   3.362814
    24  F    6.325104   3.966172   4.299380   2.362223   2.659359
    25  N    3.467614   2.158815   2.162892   1.540000   2.427683
                   21         22         23         24         25
    21  C    0.000000
    22  F    1.350000   0.000000
    23  F    1.350000   2.204541   0.000000
    24  F    1.350000   2.204541   2.204541   0.000000
    25  N    2.605561   3.042205   2.903580   3.754984   0.000000
 Stoichiometry    C8H12F3NO
 Framework group  C1[X(C8H12F3NO)]
 Deg. of freedom    69
 Full point group                 C1      NOp   1
 Largest Abelian subgroup         C1      NOp   1
 Largest concise Abelian subgroup C1      NOp   1
                         Standard orientation:                         
 ---------------------------------------------------------------------
 Center     Atomic      Atomic             Coordinates (Angstroms)
 Number     Number       Type             X           Y           Z
 ---------------------------------------------------------------------
      1          6           0        3.011254    0.620580   -0.553222
      2          6           0        2.148794    1.650078    0.147402
      3          6           0        0.668863    1.341189    0.091572
      4          6           0        3.145060   -0.665377    0.235710
      5          6           0        2.082856   -1.699368   -0.071543
      6          6           0        0.687155   -1.152818   -0.283863
      7          1           0        2.593402    0.404124   -1.570879
      8          1           0        2.470243    1.738378    1.219283
      9          1           0        0.313330    1.414059   -0.970647
     10          1           0        3.127008   -0.430332    1.333676
     11          1           0        2.062255   -2.439844    0.772982
     12          1           0        4.034302    1.060161   -0.700716
     13          1           0        2.320516    2.651222   -0.332007
     14          1           0        0.120247    2.126791    0.677633
     15          1           0        4.148683   -1.122205    0.020576
     16          1           0        2.379330   -2.266573   -0.994799
     17          1           0       -0.042079   -1.996367   -0.146249
     18          1           0        0.582231   -0.806927   -1.347134
     19          6           0       -1.207032   -0.070285    0.903223
     20          8           0       -1.679145   -0.168065    2.031875
     21          6           0       -2.093416    0.011248   -0.353470
     22          9           0       -1.935363   -1.109619   -1.089117
     23          9           0       -1.735101    1.085806   -1.087932
     24          9           0       -3.386807    0.129030    0.014993
     25          7           0        0.311131   -0.020914    0.649560
 ---------------------------------------------------------------------
 Rotational constants (GHZ):      1.4781051      0.4947313      0.4709492
 Standard basis: 6-311+G(d,p) (5D, 7F)
 There are   371 symmetry adapted cartesian basis functions of A   symmetry.
 There are   358 symmetry adapted basis functions of A   symmetry.
   358 basis functions,   564 primitive gaussians,   371 cartesian basis functions
    51 alpha electrons       51 beta electrons
       nuclear repulsion energy       907.9466345181 Hartrees.
 NAtoms=   25 NActive=   25 NUniq=   25 SFac= 1.00D+00 NAtFMM=   60 NAOKFM=F Big=F
 Integral buffers will be    131072 words long.
 Raffenetti 2 integral format.
 Two-electron integral symmetry is turned on.
 One-electron integrals computed using PRISM.
 NBasis=   358 RedAO= T EigKep=  7.88D-06  NBF=   358
 NBsUse=   358 1.00D-06 EigRej= -1.00D+00 NBFU=   358
 ExpMin= 4.38D-02 ExpMax= 1.14D+04 ExpMxC= 1.72D+03 IAcc=2 IRadAn=         4 AccDes= 0.00D+00
 Harris functional with IExCor=  402 and IRadAn=       4 diagonalized for initial guess.
 HarFok:  IExCor=  402 AccDes= 0.00D+00 IRadAn=         4 IDoV= 1 UseB2=F ITyADJ=14
 ICtDFT=  3500011 ScaDFX=  1.000000  1.000000  1.000000  1.000000
 FoFCou: FMM=F IPFlag=           0 FMFlag=      100000 FMFlg1=           0
         NFxFlg=           0 DoJE=T BraDBF=F KetDBF=T FulRan=T
         wScrn=  0.000000 ICntrl=     500 IOpCl=  0 I1Cent=   200000004 NGrid=           0
         NMat0=    1 NMatS0=      1 NMatT0=    0 NMatD0=    1 NMtDS0=    0 NMtDT0=    0
 Petite list used in FoFCou.
 Requested convergence on RMS density matrix=1.00D-08 within 128 cycles.
 Requested convergence on MAX density matrix=1.00D-06.
 Requested convergence on             energy=1.00D-06.
 No special actions if energy rises.
 SCF Done:  E(RB3LYP) =  -741.753930219     A.U. after   13 cycles
            NFock= 13  Conv=0.99D-08     -V/T= 2.0043

 **********************************************************************

            Population analysis using the SCF density.

 **********************************************************************

 Orbital symmetries:
       Occupied  (A) (A) (A) (A) (A) (A) (A) (A) (A) (A) (A) (A)
                 (A) (A) (A) (A) (A) (A) (A) (A) (A) (A) (A) (A)
                 (A) (A) (A) (A) (A) (A) (A) (A) (A) (A) (A) (A)
                 (A) (A) (A) (A) (A) (A) (A) (A) (A) (A) (A) (A)
                 (A) (A) (A)
       Virtual   (A) (A) (A) (A) (A) (A) (A) (A) (A) (A) (A) (A)
                 (A) (A) (A) (A) (A) (A) (A) (A) (A) (A) (A) (A)
                 (A) (A) (A) (A) (A) (A) (A) (A) (A) (A) (A) (A)
                 (A) (A) (A) (A) (A) (A) (A) (A) (A) (A) (A) (A)
                 (A) (A) (A) (A) (A) (A) (A) (A) (A) (A) (A) (A)
                 (A) (A) (A) (A) (A) (A) (A) (A) (A) (A) (A) (A)
                 (A) (A) (A) (A) (A) (A) (A) (A) (A) (A) (A) (A)
                 (A) (A) (A) (A) (A) (A) (A) (A) (A) (A) (A) (A)
                 (A) (A) (A) (A) (A) (A) (A) (A) (A) (A) (A) (A)
                 (A) (A) (A) (A) (A) (A) (A) (A) (A) (A) (A) (A)
                 (A) (A) (A) (A) (A) (A) (A) (A) (A) (A) (A) (A)
                 (A) (A) (A) (A) (A) (A) (A) (A) (A) (A) (A) (A)
                 (A) (A) (A) (A) (A) (A) (A) (A) (A) (A) (A) (A)
                 (A) (A) (A) (A) (A) (A) (A) (A) (A) (A) (A) (A)
                 (A) (A) (A) (A) (A) (A) (A) (A) (A) (A) (A) (A)
                 (A) (A) (A) (A) (A) (A) (A) (A) (A) (A) (A) (A)
                 (A) (A) (A) (A) (A) (A) (A) (A) (A) (A) (A) (A)
                 (A) (A) (A) (A) (A) (A) (A) (A) (A) (A) (A) (A)
                 (A) (A) (A) (A) (A) (A) (A) (A) (A) (A) (A) (A)
                 (A) (A) (A) (A) (A) (A) (A) (A) (A) (A) (A) (A)
                 (A) (A) (A) (A) (A) (A) (A) (A) (A) (A) (A) (A)
                 (A) (A) (A) (A) (A) (A) (A) (A) (A) (A) (A) (A)
                 (A) (A) (A) (A) (A) (A) (A) (A) (A) (A) (A) (A)
                 (A) (A) (A) (A) (A) (A) (A) (A) (A) (A) (A) (A)
                 (A) (A) (A) (A) (A) (A) (A) (A) (A) (A) (A) (A)
                 (A) (A) (A) (A) (A) (A) (A)
 The electronic state is 1-A.
 Alpha  occ. eigenvalues --  -24.74768 -24.74711 -24.73665 -19.17292 -14.34812
 Alpha  occ. eigenvalues --  -10.46168 -10.33603 -10.22006 -10.21877 -10.18276
 Alpha  occ. eigenvalues --  -10.18144 -10.17857 -10.17494  -1.34764  -1.26781
 Alpha  occ. eigenvalues --   -1.25907  -1.09002  -0.93021  -0.81958  -0.78894
 Alpha  occ. eigenvalues --   -0.77361  -0.69729  -0.67399  -0.66396  -0.63233
 Alpha  occ. eigenvalues --   -0.62598  -0.59592  -0.56797  -0.53726  -0.50934
 Alpha  occ. eigenvalues --   -0.50516  -0.50103  -0.48881  -0.47942  -0.47598
 Alpha  occ. eigenvalues --   -0.46820  -0.45475  -0.44955  -0.44787  -0.43960
 Alpha  occ. eigenvalues --   -0.42884  -0.41728  -0.39505  -0.38304  -0.36806
 Alpha  occ. eigenvalues --   -0.35538  -0.33881  -0.33080  -0.32254  -0.30485
 Alpha  occ. eigenvalues --   -0.26002
 Alpha virt. eigenvalues --   -0.08581  -0.00759   0.00879   0.00977   0.01267
 Alpha virt. eigenvalues --    0.03295   0.03747   0.04167   0.04190   0.04539
 Alpha virt. eigenvalues --    0.06148   0.06695   0.06850   0.07140   0.07849
 Alpha virt. eigenvalues --    0.08323   0.08494   0.08924   0.10277   0.10952
 Alpha virt. eigenvalues --    0.11230   0.11578   0.12340   0.12765   0.13124
 Alpha virt. eigenvalues --    0.13269   0.14198   0.14604   0.15231   0.15310
 Alpha virt. eigenvalues --    0.15698   0.16559   0.16671   0.17453   0.17760
 Alpha virt. eigenvalues --    0.18684   0.18934   0.19090   0.19658   0.19922
 Alpha virt. eigenvalues --    0.20443   0.21480   0.21817   0.22893   0.23006
 Alpha virt. eigenvalues --    0.23471   0.24126   0.25298   0.25397   0.26728
 Alpha virt. eigenvalues --    0.26850   0.27130   0.27500   0.28050   0.28844
 Alpha virt. eigenvalues --    0.29145   0.29955   0.30250   0.30865   0.31134
 Alpha virt. eigenvalues --    0.31953   0.32958   0.33258   0.33759   0.34682
 Alpha virt. eigenvalues --    0.34952   0.35802   0.36877   0.37053   0.37182
 Alpha virt. eigenvalues --    0.38832   0.39163   0.41132   0.41911   0.42692
 Alpha virt. eigenvalues --    0.42996   0.44060   0.45227   0.46059   0.47025
 Alpha virt. eigenvalues --    0.47608   0.48684   0.50585   0.52407   0.53496
 Alpha virt. eigenvalues --    0.54672   0.56775   0.57212   0.58285   0.59114
 Alpha virt. eigenvalues --    0.60829   0.61736   0.63285   0.63416   0.64526
 Alpha virt. eigenvalues --    0.65746   0.67290   0.67697   0.68652   0.68840
 Alpha virt. eigenvalues --    0.69175   0.70267   0.71063   0.71714   0.72318
 Alpha virt. eigenvalues --    0.72488   0.73427   0.73609   0.74659   0.75392
 Alpha virt. eigenvalues --    0.76243   0.77960   0.78191   0.80217   0.85426
 Alpha virt. eigenvalues --    0.87701   0.89392   0.92689   0.96864   0.99456
 Alpha virt. eigenvalues --    1.01608   1.03556   1.07426   1.08440   1.12210
 Alpha virt. eigenvalues --    1.13305   1.13842   1.15721   1.17986   1.19032
 Alpha virt. eigenvalues --    1.20331   1.22649   1.23659   1.24882   1.27407
 Alpha virt. eigenvalues --    1.29276   1.32056   1.32644   1.36039   1.37881
 Alpha virt. eigenvalues --    1.39013   1.40620   1.42353   1.42775   1.43877
 Alpha virt. eigenvalues --    1.44395   1.45433   1.47248   1.47875   1.49914
 Alpha virt. eigenvalues --    1.51355   1.52820   1.53470   1.55205   1.56608
 Alpha virt. eigenvalues --    1.57250   1.57621   1.58531   1.60003   1.60809
 Alpha virt. eigenvalues --    1.61235   1.62052   1.63298   1.64163   1.65495
 Alpha virt. eigenvalues --    1.66894   1.67534   1.68369   1.69580   1.71876
 Alpha virt. eigenvalues --    1.73375   1.74307   1.75928   1.76019   1.77586
 Alpha virt. eigenvalues --    1.78270   1.80029   1.80649   1.82034   1.82787
 Alpha virt. eigenvalues --    1.84859   1.86578   1.90064   1.92867   1.96412
 Alpha virt. eigenvalues --    1.98181   1.99550   2.00313   2.02507   2.03181
 Alpha virt. eigenvalues --    2.06169   2.08702   2.11058   2.11167   2.13808
 Alpha virt. eigenvalues --    2.18302   2.19947   2.21669   2.22227   2.24089
 Alpha virt. eigenvalues --    2.26019   2.28030   2.30315   2.32165   2.33884
 Alpha virt. eigenvalues --    2.36699   2.39272   2.40278   2.46186   2.47104
 Alpha virt. eigenvalues --    2.48401   2.50019   2.51120   2.53277   2.54072
 Alpha virt. eigenvalues --    2.54408   2.62057   2.63368   2.66700   2.67336
 Alpha virt. eigenvalues --    2.69097   2.69590   2.71026   2.72424   2.73349
 Alpha virt. eigenvalues --    2.74965   2.78419   2.80333   2.81706   2.82249
 Alpha virt. eigenvalues --    2.85435   2.86887   2.87924   2.89895   2.90647
 Alpha virt. eigenvalues --    2.91476   2.95049   2.97150   3.00554   3.03079
 Alpha virt. eigenvalues --    3.04555   3.11386   3.14141   3.28565   3.29687
 Alpha virt. eigenvalues --    3.35745   3.37017   3.38673   3.41966   3.46815
 Alpha virt. eigenvalues --    3.55263   3.61585   3.63178   3.68590   3.70088
 Alpha virt. eigenvalues --    3.72478   3.73626   3.74340   3.75278   3.76941
 Alpha virt. eigenvalues --    3.78127   3.80257   3.83307   3.85637   3.89067
 Alpha virt. eigenvalues --    3.89930   3.90946   3.93528   4.02174   4.08370
 Alpha virt. eigenvalues --    4.08823   4.13051   4.15959   4.18585   4.22477
 Alpha virt. eigenvalues --    4.34241   4.39136   4.51929   4.72840   4.75564
 Alpha virt. eigenvalues --    4.90999   4.91566   5.04899   5.13791   5.67024
 Alpha virt. eigenvalues --    6.31440   6.32805   6.34181   6.34505   6.38231
 Alpha virt. eigenvalues --    6.41263   6.43997   6.73652   6.74325  23.49920
 Alpha virt. eigenvalues --   23.73198  23.81064  23.83273  23.83981  23.86916
 Alpha virt. eigenvalues --   23.92585  23.94800  35.53099  49.93073  66.73143
 Alpha virt. eigenvalues --   66.74322  66.79361
          Condensed to atoms (all electrons):
               1          2          3          4          5          6
     1  C    5.625761   0.054822  -0.165256   0.078935  -0.002194  -0.041459
     2  C    0.054822   7.489472  -1.373037  -0.397158   0.652019  -0.204223
     3  C   -0.165256  -1.373037   7.230670   0.202190  -0.544981  -0.081792
     4  C    0.078935  -0.397158   0.202190   5.904625  -0.296600   0.042617
     5  C   -0.002194   0.652019  -0.544981  -0.296600   8.558484  -2.276541
     6  C   -0.041459  -0.204223  -0.081792   0.042617  -2.276541   8.014033
     7  H    0.479024  -0.050719  -0.025398  -0.038639  -0.064133   0.036776
     8  H   -0.042731   0.485808  -0.078864  -0.038123  -0.002381   0.013721
     9  H   -0.016691  -0.087300   0.428742  -0.016083  -0.004738   0.035502
    10  H   -0.063888  -0.046922   0.013224   0.552609  -0.124111   0.020710
    11  H    0.010021  -0.000471  -0.000702  -0.046721   0.421412  -0.043602
    12  H    0.376350  -0.053734   0.040516  -0.030391   0.019139   0.003158
    13  H   -0.042665   0.337347   0.010570   0.031504  -0.002704  -0.006759
    14  H    0.022506  -0.008854   0.386784   0.004579  -0.013924   0.015830
    15  H   -0.040842   0.036499  -0.006572   0.357256  -0.016557   0.016444
    16  H   -0.011934  -0.011266   0.000233  -0.023352   0.444069  -0.070809
    17  H    0.004270  -0.006561   0.011711   0.012175  -0.051610   0.433029
    18  H   -0.025325  -0.023774   0.060988   0.016571  -0.184300   0.496861
    19  C   -0.006129  -0.102068  -0.152710   0.068719   0.064738  -0.147941
    20  O    0.006161   0.012824  -0.041957  -0.001825   0.007753  -0.020226
    21  C    0.038242  -0.236831   0.134777  -0.028016  -0.364051   0.036876
    22  F   -0.003252   0.009124  -0.020293  -0.003794   0.071934  -0.038548
    23  F    0.000911   0.048877   0.007991   0.001280   0.015074  -0.033147
    24  F   -0.000294   0.002960  -0.007838   0.000011   0.013247   0.017637
    25  N   -0.018940  -0.154640   0.260968  -0.020480   0.026186   0.106127
               7          8          9         10         11         12
     1  C    0.479024  -0.042731  -0.016691  -0.063888   0.010021   0.376350
     2  C   -0.050719   0.485808  -0.087300  -0.046922  -0.000471  -0.053734
     3  C   -0.025398  -0.078864   0.428742   0.013224  -0.000702   0.040516
     4  C   -0.038639  -0.038123  -0.016083   0.552609  -0.046721  -0.030391
     5  C   -0.064133  -0.002381  -0.004738  -0.124111   0.421412   0.019139
     6  C    0.036776   0.013721   0.035502   0.020710  -0.043602   0.003158
     7  H    0.546129   0.006636   0.003326   0.006016   0.000254  -0.029486
     8  H    0.006636   0.529149   0.008222   0.005086  -0.000085  -0.003857
     9  H    0.003326   0.008222   0.581996   0.000003  -0.000004  -0.000246
    10  H    0.006016   0.005086   0.000003   0.532060  -0.012243  -0.000358
    11  H    0.000254  -0.000085  -0.000004  -0.012243   0.548266  -0.000412
    12  H   -0.029486  -0.003857  -0.000246  -0.000358  -0.000412   0.562520
    13  H   -0.003429  -0.028417  -0.006368   0.000766   0.000035  -0.008451
    14  H    0.000077  -0.008083  -0.031918  -0.000272   0.000012  -0.000459
    15  H   -0.000399   0.000456   0.000098  -0.031635  -0.001374  -0.011507
    16  H    0.002658   0.000010   0.000080   0.007652  -0.031908  -0.000195
    17  H   -0.000173  -0.000026   0.000473  -0.000176  -0.011120   0.000035
    18  H   -0.002373   0.000059   0.011702  -0.001214   0.008314   0.000027
    19  C   -0.001671  -0.003176   0.019927  -0.002100   0.002672  -0.000023
    20  O   -0.000003  -0.000140  -0.003797  -0.000044  -0.000295  -0.000002
    21  C    0.001134   0.002314   0.008491   0.001406   0.001022  -0.000044
    22  F    0.000015   0.000005   0.000940  -0.000017  -0.000177   0.000000
    23  F   -0.000262  -0.000301  -0.026212  -0.000027  -0.000003   0.000015
    24  F   -0.000002  -0.000010  -0.001000  -0.000002  -0.000004   0.000000
    25  N   -0.004610  -0.001523  -0.078105  -0.010651   0.002498  -0.002102
              13         14         15         16         17         18
     1  C   -0.042665   0.022506  -0.040842  -0.011934   0.004270  -0.025325
     2  C    0.337347  -0.008854   0.036499  -0.011266  -0.006561  -0.023774
     3  C    0.010570   0.386784  -0.006572   0.000233   0.011711   0.060988
     4  C    0.031504   0.004579   0.357256  -0.023352   0.012175   0.016571
     5  C   -0.002704  -0.013924  -0.016557   0.444069  -0.051610  -0.184300
     6  C   -0.006759   0.015830   0.016444  -0.070809   0.433029   0.496861
     7  H   -0.003429   0.000077  -0.000399   0.002658  -0.000173  -0.002373
     8  H   -0.028417  -0.008083   0.000456   0.000010  -0.000026   0.000059
     9  H   -0.006368  -0.031918   0.000098   0.000080   0.000473   0.011702
    10  H    0.000766  -0.000272  -0.031635   0.007652  -0.000176  -0.001214
    11  H    0.000035   0.000012  -0.001374  -0.031908  -0.011120   0.008314
    12  H   -0.008451  -0.000459  -0.011507  -0.000195   0.000035   0.000027
    13  H    0.560413  -0.005637  -0.000553   0.000055   0.000045   0.000127
    14  H   -0.005637   0.547486   0.000052   0.000030  -0.000200   0.000147
    15  H   -0.000553   0.000052   0.569035  -0.013242  -0.000345   0.000143
    16  H    0.000055   0.000030  -0.013242   0.552506  -0.000735  -0.009626
    17  H    0.000045  -0.000200  -0.000345  -0.000735   0.537504  -0.027678
    18  H    0.000127   0.000147   0.000143  -0.009626  -0.027678   0.565639
    19  C    0.003088   0.004037   0.000941   0.002172  -0.000621   0.029165
    20  O   -0.000096   0.004166   0.000009  -0.000067   0.004573  -0.003681
    21  C    0.000609   0.000725  -0.000178   0.000033   0.002600   0.006271
    22  F   -0.000004  -0.000050   0.000009  -0.000127   0.001423  -0.002015
    23  F   -0.000130  -0.002159   0.000000  -0.000019   0.000078  -0.001829
    24  F   -0.000006  -0.000620   0.000000  -0.000007  -0.001286  -0.000580
    25  N    0.013425  -0.077375   0.003243   0.008609  -0.073511  -0.084037
              19         20         21         22         23         24
     1  C   -0.006129   0.006161   0.038242  -0.003252   0.000911  -0.000294
     2  C   -0.102068   0.012824  -0.236831   0.009124   0.048877   0.002960
     3  C   -0.152710  -0.041957   0.134777  -0.020293   0.007991  -0.007838
     4  C    0.068719  -0.001825  -0.028016  -0.003794   0.001280   0.000011
     5  C    0.064738   0.007753  -0.364051   0.071934   0.015074   0.013247
     6  C   -0.147941  -0.020226   0.036876  -0.038548  -0.033147   0.017637
     7  H   -0.001671  -0.000003   0.001134   0.000015  -0.000262  -0.000002
     8  H   -0.003176  -0.000140   0.002314   0.000005  -0.000301  -0.000010
     9  H    0.019927  -0.003797   0.008491   0.000940  -0.026212  -0.001000
    10  H   -0.002100  -0.000044   0.001406  -0.000017  -0.000027  -0.000002
    11  H    0.002672  -0.000295   0.001022  -0.000177  -0.000003  -0.000004
    12  H   -0.000023  -0.000002  -0.000044   0.000000   0.000015   0.000000
    13  H    0.003088  -0.000096   0.000609  -0.000004  -0.000130  -0.000006
    14  H    0.004037   0.004166   0.000725  -0.000050  -0.002159  -0.000620
    15  H    0.000941   0.000009  -0.000178   0.000009   0.000000   0.000000
    16  H    0.002172  -0.000067   0.000033  -0.000127  -0.000019  -0.000007
    17  H   -0.000621   0.004573   0.002600   0.001423   0.000078  -0.001286
    18  H    0.029165  -0.003681   0.006271  -0.002015  -0.001829  -0.000580
    19  C    6.658819   0.445743  -0.629263  -0.051680  -0.121768  -0.091930
    20  O    0.445743   7.817087  -0.112531  -0.005663  -0.000297   0.030785
    21  C   -0.629263  -0.112531   6.254467   0.210283   0.243804   0.151155
    22  F   -0.051680  -0.005663   0.210283   8.953971  -0.026020  -0.027105
    23  F   -0.121768  -0.000297   0.243804  -0.026020   8.967316  -0.020219
    24  F   -0.091930   0.030785   0.151155  -0.027105  -0.020219   9.010232
    25  N   -0.052871   0.014962  -0.045516  -0.009466   0.015189   0.018589
              25
     1  C   -0.018940
     2  C   -0.154640
     3  C    0.260968
     4  C   -0.020480
     5  C    0.026186
     6  C    0.106127
     7  H   -0.004610
     8  H   -0.001523
     9  H   -0.078105
    10  H   -0.010651
    11  H    0.002498
    12  H   -0.002102
    13  H    0.013425
    14  H   -0.077375
    15  H    0.003243
    16  H    0.008609
    17  H   -0.073511
    18  H   -0.084037
    19  C   -0.052871
    20  O    0.014962
    21  C   -0.045516
    22  F   -0.009466
    23  F    0.015189
    24  F    0.018589
    25  N    7.154251
 Mulliken charges:
               1
     1  C   -0.215403
     2  C   -0.372193
     3  C   -0.289964
     4  C   -0.331889
     5  C   -0.345231
     6  C   -0.324274
     7  H    0.139251
     8  H    0.156249
     9  H    0.172958
    10  H    0.154128
    11  H    0.154617
    12  H    0.139510
    13  H    0.147236
    14  H    0.163117
    15  H    0.139018
    16  H    0.155181
    17  H    0.166127
    18  H    0.170417
    19  C    0.063932
    20  O   -0.153438
    21  C    0.322221
    22  F   -0.059493
    23  F   -0.068141
    24  F   -0.093714
    25  N    0.009780
 Sum of Mulliken charges =   0.00000
 Mulliken charges with hydrogens summed into heavy atoms:
               1
     1  C    0.063358
     2  C   -0.068708
     3  C    0.046110
     4  C   -0.038743
     5  C   -0.035434
     6  C    0.012270
    19  C    0.063932
    20  O   -0.153438
    21  C    0.322221
    22  F   -0.059493
    23  F   -0.068141
    24  F   -0.093714
    25  N    0.009780
 Electronic spatial extent (au):  <R**2>=           2529.8181
 Charge=              0.0000 electrons
 Dipole moment (field-independent basis, Debye):
    X=              2.4433    Y=              0.2799    Z=             -2.0570  Tot=              3.2061
 Quadrupole moment (field-independent basis, Debye-Ang):
   XX=            -80.6419   YY=            -74.1437   ZZ=            -84.1720
   XY=              0.0711   XZ=              1.6666   YZ=              1.0389
 Traceless Quadrupole moment (field-independent basis, Debye-Ang):
   XX=             -0.9894   YY=              5.5088   ZZ=             -4.5195
   XY=              0.0711   XZ=              1.6666   YZ=              1.0389
 Octapole moment (field-independent basis, Debye-Ang**2):
  XXX=            -30.1920  YYY=              1.0546  ZZZ=            -22.3653  XYY=            -15.8131
  XXY=              0.8386  XXZ=             -9.0670  XZZ=             -9.1813  YZZ=              1.5854
  YYZ=              0.5608  XYZ=              0.0982
 Hexadecapole moment (field-independent basis, Debye-Ang**3):
 XXXX=          -2182.6966 YYYY=           -598.9108 ZZZZ=           -428.8359 XXXY=              2.5494
 XXXZ=             28.6509 YYYX=              3.5334 YYYZ=             -1.9847 ZZZX=             38.7780
 ZZZY=              3.8078 XXYY=           -454.9690 XXZZ=           -442.1592 YYZZ=           -165.4672
 XXYZ=              3.0173 YYXZ=             -1.0111 ZZXY=             -3.8342
 N-N= 9.079466345181D+02 E-N=-3.558728857718D+03  KE= 7.385864051000D+02
 There are a total of      206410 grid points.
 ElSum from          density=      102.0000039633
 ElSum from atomic densities=      102.0000228335

 Hirshfeld populations at iteration   1 (CX, CA, CB, DipXYZ):
               1          2          3          4          5          6
     1  C    0.000000   3.031142   3.031142  -0.004996  -0.004899   0.018114
     2  C    0.000000   3.029613   3.029613  -0.004566  -0.010915  -0.007671
     3  C    0.000000   3.009220   3.009220   0.033328  -0.034574   0.037416
     4  C    0.000000   3.030937   3.030937  -0.014382   0.002623  -0.016884
     5  C    0.000000   3.029866   3.029866  -0.003738   0.019667  -0.000368
     6  C    0.000000   3.008496   3.008496   0.036185   0.021254   0.050225
     7  H    0.000000   0.483960   0.483960  -0.043983  -0.025476  -0.122299
     8  H    0.000000   0.480894   0.480894   0.042069   0.016261   0.132205
     9  H    0.000000   0.490656   0.490656  -0.013422   0.024711  -0.119051
    10  H    0.000000   0.482282   0.482282   0.004687   0.023167   0.134268
    11  H    0.000001   0.481199   0.481199  -0.000416  -0.091499   0.109384
    12  H    0.000001   0.481625   0.481625   0.130675   0.055246  -0.010973
    13  H    0.000000   0.479487   0.479487   0.025863   0.125970  -0.064044
    14  H    0.000001   0.478488   0.478488  -0.053918   0.113581   0.077831
    15  H    0.000000   0.482510   0.482510   0.124618  -0.056586  -0.033220
    16  H    0.000000   0.480659   0.480659   0.041937  -0.070368  -0.116108
    17  H    0.000001   0.480272   0.480272  -0.067450  -0.126407   0.023910
    18  H    0.000000   0.488262   0.488262   0.004934   0.027245  -0.123910
    19  C    0.000000   2.900480   2.900480   0.035011   0.002995  -0.032041
    20  O    0.000011   4.106803   4.106803   0.026929   0.005320  -0.062767
    21  C    0.000000   2.883522   2.883522  -0.023662   0.004343  -0.064468
    22  F    0.000005   4.533417   4.533417   0.020513   0.066174   0.063973
    23  F    0.000005   4.530267   4.530267   0.018962  -0.064456   0.064046
    24  F    0.000013   4.541113   4.541113   0.093473  -0.008811  -0.018278
    25  N    0.000000   3.574830   3.574830  -0.031064   0.019711  -0.145355
       Tot   0.000039  51.000002  51.000002   0.377587   0.034274  -0.226066

 Dip from Atomic Chgs              0.583556   0.075697  -0.583602
         Total Dipole              0.961143   0.109971  -0.809668

 Hirshfeld charges, spin densities, dipoles, and CM5 charges using IRadAn=      4:
              Q-H        S-H        Dx         Dy         Dz        Q-CM5   
     1  C   -0.062284   0.000000  -0.004996  -0.004899   0.018114  -0.164748
     2  C   -0.059226   0.000000  -0.004566  -0.010915  -0.007671  -0.158665
     3  C   -0.018441   0.000000   0.033328  -0.034574   0.037416  -0.067998
     4  C   -0.061874   0.000000  -0.014382   0.002623  -0.016884  -0.163741
     5  C   -0.059733   0.000000  -0.003738   0.019667  -0.000368  -0.159026
     6  C   -0.016993   0.000000   0.036185   0.021254   0.050225  -0.066334
     7  H    0.032080   0.000000  -0.043983  -0.025476  -0.122299   0.086359
     8  H    0.038213   0.000000   0.042069   0.016261   0.132205   0.092103
     9  H    0.018688   0.000000  -0.013422   0.024711  -0.119051   0.075663
    10  H    0.035435   0.000000   0.004687   0.023167   0.134268   0.089620
    11  H    0.037602   0.000000  -0.000416  -0.091499   0.109384   0.090086
    12  H    0.036750   0.000000   0.130675   0.055246  -0.010973   0.088049
    13  H    0.041026   0.000000   0.025863   0.125970  -0.064044   0.092494
    14  H    0.043024   0.000000  -0.053918   0.113581   0.077831   0.102884
    15  H    0.034979   0.000000   0.124618  -0.056586  -0.033220   0.086250
    16  H    0.038682   0.000000   0.041937  -0.070368  -0.116108   0.090464
    17  H    0.039455   0.000000  -0.067450  -0.126407   0.023910   0.098179
    18  H    0.023477   0.000000   0.004934   0.027245  -0.123910   0.083126
    19  C    0.199039   0.000000   0.035011   0.002995  -0.032041   0.271238
    20  O   -0.213606   0.000000   0.026929   0.005320  -0.062767  -0.248994
    21  C    0.232956   0.000000  -0.023662   0.004343  -0.064468   0.181225
    22  F   -0.066833   0.000000   0.020513   0.066174   0.063973  -0.042185
    23  F   -0.060534   0.000000   0.018962  -0.064456   0.064046  -0.034032
    24  F   -0.082226   0.000000   0.093473  -0.008811  -0.018278  -0.062703
    25  N   -0.149661   0.000000  -0.031064   0.019711  -0.145355  -0.359318
       Tot  -0.000004   0.000000   0.377587   0.034274  -0.226066  -0.000004
 Hirshfeld charges with hydrogens summed into heavy atoms:
              Q-H       Q-CM5   
     1  C    0.006546   0.009659
     2  C    0.020013   0.025932
     3  C    0.043271   0.110550
     4  C    0.008540   0.012129
     5  C    0.016550   0.021524
     6  C    0.045939   0.114971
    19  C    0.199039   0.271238
    20  O   -0.213606  -0.248994
    21  C    0.232956   0.181225
    22  F   -0.066833  -0.042185
    23  F   -0.060534  -0.034032
    24  F   -0.082226  -0.062703
    25  N   -0.149661  -0.359318
 
 EQQ= 0.000000000000E+00 EQD= 0.000000000000E+00 EDD=-0.354795580212E-02
 EQQ+QD+DD=-0.354795580212E-02
 
          MBS Condensed to atoms (all electrons):
               1          2          3          4          5          6
     1  C    4.806141   0.372131  -0.025327   0.370293  -0.024828  -0.003155
     2  C    0.372131   4.796558   0.369224  -0.026736   0.000172   0.000089
     3  C   -0.025327   0.369224   4.766279  -0.000510   0.000471  -0.026222
     4  C    0.370293  -0.026736  -0.000510   4.802790   0.368018  -0.023728
     5  C   -0.024828   0.000172   0.000471   0.368018   4.800068   0.366511
     6  C   -0.003155   0.000089  -0.026222  -0.023728   0.366511   4.772954
     7  H    0.366509  -0.024204  -0.003561  -0.024212  -0.004845  -0.000810
     8  H   -0.024386   0.367311  -0.023845  -0.004928   0.000020  -0.000016
     9  H   -0.002580  -0.026470   0.358242   0.000014  -0.000100  -0.005190
    10  H   -0.024922  -0.006304  -0.000117   0.370130  -0.023814  -0.000800
    11  H    0.001534  -0.000026  -0.000035  -0.023467   0.369611  -0.023802
    12  H    0.370859  -0.022973   0.001566  -0.022758   0.001511   0.000033
    13  H   -0.022060   0.367071  -0.021063   0.001581  -0.000023  -0.000037
    14  H    0.001512  -0.022130   0.368548  -0.000023  -0.000025   0.001558
    15  H   -0.022530   0.001538  -0.000008   0.369899  -0.022995   0.001524
    16  H   -0.000697  -0.000023  -0.000033  -0.022871   0.367728  -0.022614
    17  H    0.000039  -0.000013   0.001479   0.001392  -0.022681   0.368315
    18  H   -0.000296  -0.000342  -0.006122  -0.000628  -0.028042   0.359901
    19  C    0.000002   0.000815  -0.022890   0.000007   0.000786  -0.023491
    20  O    0.000000  -0.000001   0.000126   0.000000   0.000000   0.000235
    21  C    0.000000  -0.000017  -0.000356   0.000000  -0.000019  -0.000760
    22  F    0.000000   0.000000   0.000001   0.000000   0.000014  -0.002157
    23  F    0.000000   0.000020  -0.003554   0.000000   0.000000  -0.000024
    24  F    0.000000   0.000000  -0.000001   0.000000   0.000000   0.000001
    25  N   -0.001062  -0.020667   0.303299  -0.001370  -0.020977   0.302233
               7          8          9         10         11         12
     1  C    0.366509  -0.024386  -0.002580  -0.024922   0.001534   0.370859
     2  C   -0.024204   0.367311  -0.026470  -0.006304  -0.000026  -0.022973
     3  C   -0.003561  -0.023845   0.358242  -0.000117  -0.000035   0.001566
     4  C   -0.024212  -0.004928   0.000014   0.370130  -0.023467  -0.022758
     5  C   -0.004845   0.000020  -0.000100  -0.023814   0.369611   0.001511
     6  C   -0.000810  -0.000016  -0.005190  -0.000800  -0.023802   0.000033
     7  H    0.641211   0.002273   0.001486   0.002235   0.000060  -0.021602
     8  H    0.002273   0.625625   0.002259   0.002566  -0.000004  -0.001145
     9  H    0.001486   0.002259   0.636801   0.000018   0.000003   0.000013
    10  H    0.002235   0.002566   0.000018   0.625903  -0.005509   0.000217
    11  H    0.000060  -0.000004   0.000003  -0.005509   0.628830  -0.000048
    12  H   -0.021602  -0.001145   0.000013   0.000217  -0.000048   0.631283
    13  H   -0.000980  -0.021199  -0.002337   0.000098   0.000001  -0.004609
    14  H    0.000033  -0.003464  -0.023543  -0.000013   0.000001  -0.000053
    15  H    0.000270   0.000092  -0.000001  -0.022071  -0.000349  -0.006476
    16  H    0.000853   0.000001   0.000005   0.002235  -0.022019  -0.000027
    17  H   -0.000002   0.000000   0.000087  -0.000005  -0.005672  -0.000001
    18  H    0.000732   0.000021   0.004841  -0.000015   0.002333  -0.000001
    19  C   -0.000004  -0.000005  -0.001882  -0.000005  -0.000025   0.000000
    20  O    0.000000   0.000000  -0.000021   0.000000   0.000001   0.000000
    21  C    0.000000   0.000000  -0.000141   0.000000   0.000001   0.000000
    22  F    0.000000   0.000000   0.000005   0.000000   0.000000   0.000000
    23  F   -0.000001   0.000000   0.002438   0.000000   0.000000   0.000000
    24  F    0.000000   0.000000  -0.000001   0.000000   0.000000   0.000000
    25  N    0.000002  -0.000464  -0.022257   0.000738   0.000213  -0.000003
              13         14         15         16         17         18
     1  C   -0.022060   0.001512  -0.022530  -0.000697   0.000039  -0.000296
     2  C    0.367071  -0.022130   0.001538  -0.000023  -0.000013  -0.000342
     3  C   -0.021063   0.368548  -0.000008  -0.000033   0.001479  -0.006122
     4  C    0.001581  -0.000023   0.369899  -0.022871   0.001392  -0.000628
     5  C   -0.000023  -0.000025  -0.022995   0.367728  -0.022681  -0.028042
     6  C   -0.000037   0.001558   0.001524  -0.022614   0.368315   0.359901
     7  H   -0.000980   0.000033   0.000270   0.000853  -0.000002   0.000732
     8  H   -0.021199  -0.003464   0.000092   0.000001   0.000000   0.000021
     9  H   -0.002337  -0.023543  -0.000001   0.000005   0.000087   0.004841
    10  H    0.000098  -0.000013  -0.022071   0.002235  -0.000005  -0.000015
    11  H    0.000001   0.000001  -0.000349  -0.022019  -0.005672   0.002333
    12  H   -0.004609  -0.000053  -0.006476  -0.000027  -0.000001  -0.000001
    13  H    0.627464  -0.001873  -0.000062   0.000001   0.000001   0.000006
    14  H   -0.001873   0.611806   0.000001   0.000001  -0.000057   0.000054
    15  H   -0.000062   0.000001   0.635361  -0.005729  -0.000043  -0.000003
    16  H    0.000001   0.000001  -0.005729   0.632386  -0.000058  -0.004451
    17  H    0.000001  -0.000057  -0.000043  -0.000058   0.607559  -0.022750
    18  H    0.000006   0.000054  -0.000003  -0.004451  -0.022750   0.646975
    19  C   -0.000022  -0.002430   0.000000  -0.000019  -0.003978  -0.000581
    20  O    0.000000   0.000075   0.000000   0.000000   0.000011  -0.000018
    21  C    0.000001   0.000081   0.000000   0.000001  -0.000247   0.000212
    22  F    0.000000   0.000001   0.000000   0.000000   0.000937   0.000103
    23  F    0.000000  -0.000059   0.000000   0.000000   0.000010   0.000050
    24  F    0.000000  -0.000002   0.000000   0.000000  -0.000003  -0.000001
    25  N    0.000982  -0.019452   0.000015   0.000975  -0.018366  -0.022236
              19         20         21         22         23         24
     1  C    0.000002   0.000000   0.000000   0.000000   0.000000   0.000000
     2  C    0.000815  -0.000001  -0.000017   0.000000   0.000020   0.000000
     3  C   -0.022890   0.000126  -0.000356   0.000001  -0.003554  -0.000001
     4  C    0.000007   0.000000   0.000000   0.000000   0.000000   0.000000
     5  C    0.000786   0.000000  -0.000019   0.000014   0.000000   0.000000
     6  C   -0.023491   0.000235  -0.000760  -0.002157  -0.000024   0.000001
     7  H   -0.000004   0.000000   0.000000   0.000000  -0.000001   0.000000
     8  H   -0.000005   0.000000   0.000000   0.000000   0.000000   0.000000
     9  H   -0.001882  -0.000021  -0.000141   0.000005   0.002438  -0.000001
    10  H   -0.000005   0.000000   0.000000   0.000000   0.000000   0.000000
    11  H   -0.000025   0.000001   0.000001   0.000000   0.000000   0.000000
    12  H    0.000000   0.000000   0.000000   0.000000   0.000000   0.000000
    13  H   -0.000022   0.000000   0.000001   0.000000   0.000000   0.000000
    14  H   -0.002430   0.000075   0.000081   0.000001  -0.000059  -0.000002
    15  H    0.000000   0.000000   0.000000   0.000000   0.000000   0.000000
    16  H   -0.000019   0.000000   0.000001   0.000000   0.000000   0.000000
    17  H   -0.003978   0.000011  -0.000247   0.000937   0.000010  -0.000003
    18  H   -0.000581  -0.000018   0.000212   0.000103   0.000050  -0.000001
    19  C    4.628960   0.463002   0.313693  -0.018169  -0.018419  -0.018710
    20  O    0.463002   7.914519  -0.025337   0.000031   0.000037  -0.000036
    21  C    0.313693  -0.025337   4.396219   0.221206   0.221077   0.225219
    22  F   -0.018169   0.000031   0.221206   9.061926  -0.010593  -0.010562
    23  F   -0.018419   0.000037   0.221077  -0.010593   9.060699  -0.010559
    24  F   -0.018710  -0.000036   0.225219  -0.010562  -0.010559   9.050939
    25  N    0.294457  -0.021179  -0.027886   0.000155   0.000186   0.000056
              25
     1  C   -0.001062
     2  C   -0.020667
     3  C    0.303299
     4  C   -0.001370
     5  C   -0.020977
     6  C    0.302233
     7  H    0.000002
     8  H   -0.000464
     9  H   -0.022257
    10  H    0.000738
    11  H    0.000213
    12  H   -0.000003
    13  H    0.000982
    14  H   -0.019452
    15  H    0.000015
    16  H    0.000975
    17  H   -0.018366
    18  H   -0.022236
    19  C    0.294457
    20  O   -0.021179
    21  C   -0.027886
    22  F    0.000155
    23  F    0.000186
    24  F    0.000056
    25  N    6.639684
 MBS Mulliken charges:
               1
     1  C   -0.137177
     2  C   -0.125022
     3  C   -0.035591
     4  C   -0.132895
     5  C   -0.126562
     6  C   -0.040548
     7  H    0.064558
     8  H    0.079287
     9  H    0.078310
    10  H    0.079434
    11  H    0.078367
    12  H    0.074212
    13  H    0.077059
    14  H    0.089454
    15  H    0.071565
    16  H    0.074354
    17  H    0.094047
    18  H    0.070258
    19  C    0.408909
    20  O   -0.331445
    21  C    0.677051
    22  F   -0.242898
    23  F   -0.241308
    24  F   -0.236342
    25  N   -0.367078
 Sum of MBS Mulliken charges =   0.00000
 MBS Mulliken charges with hydrogens summed into heavy atoms:
               1
     1  C    0.001594
     2  C    0.031325
     3  C    0.132172
     4  C    0.018104
     5  C    0.026159
     6  C    0.123757
    19  C    0.408909
    20  O   -0.331445
    21  C    0.677051
    22  F   -0.242898
    23  F   -0.241308
    24  F   -0.236342
    25  N   -0.367078
 Breneman (CHELPG) radii used.
 Generate Potential Derived Charges using the Breneman model, NDens= 1.
 Grid spacing= 0.300 Box extension= 2.800
 NStep X,Y,Z=   45     36     31   Total possible points=       50220
 Number of Points to Fit=   13817

 **********************************************************************

            Electrostatic Properties Using The SCF Density

 **********************************************************************

       Atomic Center    1 is at   3.011254  0.620580 -0.553222
       Atomic Center    2 is at   2.148794  1.650078  0.147402
       Atomic Center    3 is at   0.668863  1.341189  0.091572
       Atomic Center    4 is at   3.145060 -0.665377  0.235710
       Atomic Center    5 is at   2.082856 -1.699368 -0.071543
       Atomic Center    6 is at   0.687155 -1.152818 -0.283863
       Atomic Center    7 is at   2.593402  0.404124 -1.570879
       Atomic Center    8 is at   2.470243  1.738378  1.219283
       Atomic Center    9 is at   0.313330  1.414059 -0.970647
       Atomic Center   10 is at   3.127008 -0.430332  1.333676
       Atomic Center   11 is at   2.062255 -2.439844  0.772982
       Atomic Center   12 is at   4.034302  1.060161 -0.700716
       Atomic Center   13 is at   2.320516  2.651222 -0.332007
       Atomic Center   14 is at   0.120247  2.126791  0.677633
       Atomic Center   15 is at   4.148683 -1.122205  0.020576
       Atomic Center   16 is at   2.379330 -2.266573 -0.994799
       Atomic Center   17 is at  -0.042079 -1.996367 -0.146249
       Atomic Center   18 is at   0.582231 -0.806927 -1.347134
       Atomic Center   19 is at  -1.207032 -0.070285  0.903223
       Atomic Center   20 is at  -1.679145 -0.168065  2.031875
       Atomic Center   21 is at  -2.093416  0.011248 -0.353470
       Atomic Center   22 is at  -1.935363 -1.109619 -1.089117
       Atomic Center   23 is at  -1.735101  1.085806 -1.087932
       Atomic Center   24 is at  -3.386807  0.129030  0.014993
       Atomic Center   25 is at   0.311131 -0.020914  0.649560
   13817 points will be used for fitting atomic charges
 Fitting point charges to electrostatic potential
 Charges from ESP fit, RMS=   0.00253 RRMS=   0.20179:
 ESP charges:
               1
     1  C    0.015627
     2  C   -0.053373
     3  C    0.194806
     4  C    0.081548
     5  C   -0.139552
     6  C    0.308804
     7  H    0.003486
     8  H    0.038637
     9  H   -0.000231
    10  H   -0.012064
    11  H    0.039346
    12  H   -0.001570
    13  H    0.005265
    14  H    0.013325
    15  H   -0.006211
    16  H    0.019590
    17  H   -0.008288
    18  H   -0.028452
    19  C    0.618044
    20  O   -0.440407
    21  C    0.676572
    22  F   -0.236944
    23  F   -0.234966
    24  F   -0.254769
    25  N   -0.598224
 Sum of ESP charges =   0.00000
 ESP charges with hydrogens summed into heavy atoms:
               1
     1  C    0.017543
     2  C   -0.009471
     3  C    0.207899
     4  C    0.063273
     5  C   -0.080616
     6  C    0.272064
    19  C    0.618044
    20  O   -0.440407
    21  C    0.676572
    22  F   -0.236944
    23  F   -0.234966
    24  F   -0.254769
    25  N   -0.598224
 Charge=   0.00000 Dipole=     2.5013     0.2669    -2.0516 Tot=     3.2460
 -----------------------------------------------------------------

              Electrostatic Properties (Atomic Units)

 -----------------------------------------------------------------
    Center     Electric         -------- Electric Field --------
               Potential          X             Y             Z
 -----------------------------------------------------------------
    1 Atom    -14.766745
    2 Atom    -14.763036
    3 Atom    -14.726620
    4 Atom    -14.770400
    5 Atom    -14.764341
    6 Atom    -14.725257
    7 Atom     -1.115002
    8 Atom     -1.117516
    9 Atom     -1.111392
   10 Atom     -1.125087
   11 Atom     -1.120726
   12 Atom     -1.120456
   13 Atom     -1.111360
   14 Atom     -1.100262
   15 Atom     -1.123561
   16 Atom     -1.113125
   17 Atom     -1.097786
   18 Atom     -1.109267
   19 Atom    -14.616001
   20 Atom    -22.329871
   21 Atom    -14.480342
   22 Atom    -26.536797
   23 Atom    -26.536256
   24 Atom    -26.547328
   25 Atom    -18.367321
 -----------------------------------------------------------------
 ******************************Gaussian NBO Version 3.1******************************
             N A T U R A L   A T O M I C   O R B I T A L   A N D
          N A T U R A L   B O N D   O R B I T A L   A N A L Y S I S
 ******************************Gaussian NBO Version 3.1******************************
       /RESON  / : Allow strongly delocalized NBO set

 Analyzing the SCF density

 Job title: Title Card Required                                             

 Storage needed:    386750 in NPA ( 536867537 available)


 NATURAL POPULATIONS:  Natural atomic orbital occupancies 
                                                          
   NAO  Atom  No  lang   Type(AO)    Occupancy      Energy
 ----------------------------------------------------------
     1    C    1  S      Cor( 1S)     1.99926     -10.03672
     2    C    1  S      Val( 2S)     1.01844      -0.23072
     3    C    1  S      Ryd( 3S)     0.00141       0.86614
     4    C    1  S      Ryd( 4S)     0.00046       1.03988
     5    C    1  S      Ryd( 5S)     0.00000      23.22944
     6    C    1  px     Val( 2p)     1.16553      -0.09541
     7    C    1  px     Ryd( 4p)     0.00574       0.71692
     8    C    1  px     Ryd( 3p)     0.00040       0.28072
     9    C    1  px     Ryd( 5p)     0.00005       3.18915
    10    C    1  py     Val( 2p)     1.06136      -0.08292
    11    C    1  py     Ryd( 4p)     0.00319       0.57976
    12    C    1  py     Ryd( 3p)     0.00070       0.39105
    13    C    1  py     Ryd( 5p)     0.00011       3.11626
    14    C    1  pz     Val( 2p)     1.13931      -0.09437
    15    C    1  pz     Ryd( 4p)     0.00127       0.53188
    16    C    1  pz     Ryd( 3p)     0.00025       0.34323
    17    C    1  pz     Ryd( 5p)     0.00007       3.07119
    18    C    1  dxy    Ryd( 3d)     0.00079       2.12573
    19    C    1  dxz    Ryd( 3d)     0.00047       1.99685
    20    C    1  dyz    Ryd( 3d)     0.00063       2.15031
    21    C    1  dx2y2  Ryd( 3d)     0.00071       2.07528
    22    C    1  dz2    Ryd( 3d)     0.00084       2.09304

    23    C    2  S      Cor( 1S)     1.99925     -10.04076
    24    C    2  S      Val( 2S)     1.02342      -0.23825
    25    C    2  S      Ryd( 4S)     0.00167       1.00930
    26    C    2  S      Ryd( 3S)     0.00044       0.94940
    27    C    2  S      Ryd( 5S)     0.00000      23.19960
    28    C    2  px     Val( 2p)     1.04113      -0.08764
    29    C    2  px     Ryd( 4p)     0.00221       0.54619
    30    C    2  px     Ryd( 3p)     0.00056       0.34013
    31    C    2  px     Ryd( 5p)     0.00012       3.13074
    32    C    2  py     Val( 2p)     1.13966      -0.10013
    33    C    2  py     Ryd( 4p)     0.00447       0.61915
    34    C    2  py     Ryd( 3p)     0.00040       0.26782
    35    C    2  py     Ryd( 5p)     0.00006       3.15620
    36    C    2  pz     Val( 2p)     1.17480      -0.09623
    37    C    2  pz     Ryd( 4p)     0.00304       0.62169
    38    C    2  pz     Ryd( 3p)     0.00019       0.27558
    39    C    2  pz     Ryd( 5p)     0.00005       3.12986
    40    C    2  dxy    Ryd( 3d)     0.00042       2.03601
    41    C    2  dxz    Ryd( 3d)     0.00051       1.98125
    42    C    2  dyz    Ryd( 3d)     0.00066       2.04789
    43    C    2  dx2y2  Ryd( 3d)     0.00089       2.22336
    44    C    2  dz2    Ryd( 3d)     0.00092       2.14762

    45    C    3  S      Cor( 1S)     1.99921     -10.08600
    46    C    3  S      Val( 2S)     1.01991      -0.25696
    47    C    3  S      Ryd( 3S)     0.00223       1.07900
    48    C    3  S      Ryd( 4S)     0.00019       1.08602
    49    C    3  S      Ryd( 5S)     0.00001      23.01543
    50    C    3  px     Val( 2p)     1.08990      -0.10922
    51    C    3  px     Ryd( 4p)     0.00248       0.70521
    52    C    3  px     Ryd( 3p)     0.00053       0.58648
    53    C    3  px     Ryd( 5p)     0.00013       3.11148
    54    C    3  py     Val( 2p)     0.90999      -0.08897
    55    C    3  py     Ryd( 4p)     0.00309       0.60997
    56    C    3  py     Ryd( 3p)     0.00051       0.36085
    57    C    3  py     Ryd( 5p)     0.00012       3.09866
    58    C    3  pz     Val( 2p)     1.14849      -0.10648
    59    C    3  pz     Ryd( 4p)     0.00412       0.64271
    60    C    3  pz     Ryd( 3p)     0.00034       0.37005
    61    C    3  pz     Ryd( 5p)     0.00012       3.09079
    62    C    3  dxy    Ryd( 3d)     0.00110       2.03436
    63    C    3  dxz    Ryd( 3d)     0.00084       1.95919
    64    C    3  dyz    Ryd( 3d)     0.00124       1.97562
    65    C    3  dx2y2  Ryd( 3d)     0.00107       2.19469
    66    C    3  dz2    Ryd( 3d)     0.00110       2.13668

    67    C    4  S      Cor( 1S)     1.99927     -10.03325
    68    C    4  S      Val( 2S)     1.01891      -0.22740
    69    C    4  S      Ryd( 3S)     0.00151       0.96513
    70    C    4  S      Ryd( 4S)     0.00049       0.99395
    71    C    4  S      Ryd( 5S)     0.00000      23.20436
    72    C    4  px     Val( 2p)     1.13945      -0.09108
    73    C    4  px     Ryd( 4p)     0.00474       0.65110
    74    C    4  px     Ryd( 3p)     0.00043       0.31095
    75    C    4  px     Ryd( 5p)     0.00007       3.16618
    76    C    4  py     Val( 2p)     1.05677      -0.07755
    77    C    4  py     Ryd( 4p)     0.00353       0.59520
    78    C    4  py     Ryd( 3p)     0.00071       0.41608
    79    C    4  py     Ryd( 5p)     0.00011       3.09665
    80    C    4  pz     Val( 2p)     1.16283      -0.08977
    81    C    4  pz     Ryd( 4p)     0.00228       0.56227
    82    C    4  pz     Ryd( 3p)     0.00029       0.34405
    83    C    4  pz     Ryd( 5p)     0.00005       3.06506
    84    C    4  dxy    Ryd( 3d)     0.00086       2.22359
    85    C    4  dxz    Ryd( 3d)     0.00027       1.86070
    86    C    4  dyz    Ryd( 3d)     0.00068       2.09393
    87    C    4  dx2y2  Ryd( 3d)     0.00059       2.06532
    88    C    4  dz2    Ryd( 3d)     0.00103       2.22480

    89    C    5  S      Cor( 1S)     1.99926     -10.03955
    90    C    5  S      Val( 2S)     1.02179      -0.23642
    91    C    5  S      Ryd( 4S)     0.00167       0.99895
    92    C    5  S      Ryd( 3S)     0.00041       0.85885
    93    C    5  S      Ryd( 5S)     0.00000      23.19439
    94    C    5  px     Val( 2p)     1.03465      -0.08424
    95    C    5  px     Ryd( 4p)     0.00239       0.55050
    96    C    5  px     Ryd( 3p)     0.00055       0.34620
    97    C    5  px     Ryd( 5p)     0.00014       3.13909
    98    C    5  py     Val( 2p)     1.12914      -0.09873
    99    C    5  py     Ryd( 4p)     0.00271       0.49429
   100    C    5  py     Ryd( 3p)     0.00031       0.26652
   101    C    5  py     Ryd( 5p)     0.00006       3.12070
   102    C    5  pz     Val( 2p)     1.19226      -0.09438
   103    C    5  pz     Ryd( 4p)     0.00524       0.66882
   104    C    5  pz     Ryd( 3p)     0.00019       0.23683
   105    C    5  pz     Ryd( 5p)     0.00005       3.15793
   106    C    5  dxy    Ryd( 3d)     0.00063       2.20336
   107    C    5  dxz    Ryd( 3d)     0.00033       1.90806
   108    C    5  dyz    Ryd( 3d)     0.00109       2.22518
   109    C    5  dx2y2  Ryd( 3d)     0.00061       2.04773
   110    C    5  dz2    Ryd( 3d)     0.00072       2.05848

   111    C    6  S      Cor( 1S)     1.99922     -10.08738
   112    C    6  S      Val( 2S)     1.01946      -0.25858
   113    C    6  S      Ryd( 3S)     0.00235       1.07083
   114    C    6  S      Ryd( 4S)     0.00020       1.08355
   115    C    6  S      Ryd( 5S)     0.00001      23.05032
   116    C    6  px     Val( 2p)     1.10488      -0.11266
   117    C    6  px     Ryd( 4p)     0.00282       0.72670
   118    C    6  px     Ryd( 3p)     0.00052       0.58478
   119    C    6  px     Ryd( 5p)     0.00012       3.12960
   120    C    6  py     Val( 2p)     1.00394      -0.09665
   121    C    6  py     Ryd( 4p)     0.00401       0.68475
   122    C    6  py     Ryd( 3p)     0.00045       0.36576
   123    C    6  py     Ryd( 5p)     0.00010       3.14684
   124    C    6  pz     Val( 2p)     1.04867      -0.10134
   125    C    6  pz     Ryd( 4p)     0.00290       0.57273
   126    C    6  pz     Ryd( 3p)     0.00042       0.36670
   127    C    6  pz     Ryd( 5p)     0.00017       3.08115
   128    C    6  dxy    Ryd( 3d)     0.00123       2.20611
   129    C    6  dxz    Ryd( 3d)     0.00060       1.85313
   130    C    6  dyz    Ryd( 3d)     0.00126       2.01266
   131    C    6  dx2y2  Ryd( 3d)     0.00081       2.02423
   132    C    6  dz2    Ryd( 3d)     0.00137       2.18217

   133    H    7  S      Val( 1S)     0.80408       0.01343
   134    H    7  S      Ryd( 2S)     0.00148       1.04469
   135    H    7  S      Ryd( 3S)     0.00013       1.80058
   136    H    7  px     Ryd( 2p)     0.00015       1.94299
   137    H    7  py     Ryd( 2p)     0.00017       1.78647
   138    H    7  pz     Ryd( 2p)     0.00030       2.56588

   139    H    8  S      Val( 1S)     0.79450       0.01978
   140    H    8  S      Ryd( 2S)     0.00157       1.18606
   141    H    8  S      Ryd( 3S)     0.00015       1.70677
   142    H    8  px     Ryd( 2p)     0.00014       1.85347
   143    H    8  py     Ryd( 2p)     0.00011       1.87483
   144    H    8  pz     Ryd( 2p)     0.00033       2.58047

   145    H    9  S      Val( 1S)     0.81159       0.00687
   146    H    9  S      Ryd( 2S)     0.00190       1.12056
   147    H    9  S      Ryd( 3S)     0.00022       1.73378
   148    H    9  px     Ryd( 2p)     0.00024       1.96788
   149    H    9  py     Ryd( 2p)     0.00008       1.85228
   150    H    9  pz     Ryd( 2p)     0.00032       2.60000

   151    H   10  S      Val( 1S)     0.79326       0.02884
   152    H   10  S      Ryd( 2S)     0.00122       1.45003
   153    H   10  S      Ryd( 3S)     0.00026       1.45110
   154    H   10  px     Ryd( 2p)     0.00012       1.87324
   155    H   10  py     Ryd( 2p)     0.00015       1.82450
   156    H   10  pz     Ryd( 2p)     0.00032       2.66307

   157    H   11  S      Val( 1S)     0.79197       0.02191
   158    H   11  S      Ryd( 2S)     0.00116       0.93851
   159    H   11  S      Ryd( 3S)     0.00016       1.94674
   160    H   11  px     Ryd( 2p)     0.00018       1.78132
   161    H   11  py     Ryd( 2p)     0.00021       2.23073
   162    H   11  pz     Ryd( 2p)     0.00022       2.26797

   163    H   12  S      Val( 1S)     0.78984       0.02262
   164    H   12  S      Ryd( 2S)     0.00077       0.67876
   165    H   12  S      Ryd( 3S)     0.00009       2.20189
   166    H   12  px     Ryd( 2p)     0.00030       2.50947
   167    H   12  py     Ryd( 2p)     0.00020       1.89578
   168    H   12  pz     Ryd( 2p)     0.00015       1.83613

   169    H   13  S      Val( 1S)     0.78801       0.01400
   170    H   13  S      Ryd( 2S)     0.00089       0.67217
   171    H   13  S      Ryd( 3S)     0.00011       2.20314
   172    H   13  px     Ryd( 2p)     0.00018       1.80055
   173    H   13  py     Ryd( 2p)     0.00032       2.49722
   174    H   13  pz     Ryd( 2p)     0.00015       1.94947

   175    H   14  S      Val( 1S)     0.78990       0.00991
   176    H   14  S      Ryd( 2S)     0.00063       1.11413
   177    H   14  S      Ryd( 3S)     0.00028       1.71001
   178    H   14  px     Ryd( 2p)     0.00027       2.02677
   179    H   14  py     Ryd( 2p)     0.00024       2.26230
   180    H   14  pz     Ryd( 2p)     0.00018       2.03908

   181    H   15  S      Val( 1S)     0.79341       0.02281
   182    H   15  S      Ryd( 2S)     0.00078       0.68646
   183    H   15  S      Ryd( 3S)     0.00011       2.19651
   184    H   15  px     Ryd( 2p)     0.00031       2.50274
   185    H   15  py     Ryd( 2p)     0.00022       1.93094
   186    H   15  pz     Ryd( 2p)     0.00010       1.85815

   187    H   16  S      Val( 1S)     0.79437       0.01241
   188    H   16  S      Ryd( 2S)     0.00103       0.78059
[...]
 ,-0.00007749,0.00004943,-0.00006886,-0.00056898,0.00004541,0.00017324,
 -0.00018193,0.00013430,-0.00029636,-0.00040838,0.00081054,0.02423723,0
 .34029765,-0.00012554,-0.00051550,-0.00002402,0.00021815,0.00008568,-0
 .00019366,0.00080760,-0.00126253,-0.00047832,0.00405291,-0.00030925,-0
 .00348411,0.00290240,0.02819042,-0.00652058,0.00091059,0.03404099,-0.0
 5009974,0.00009434,0.00006576,0.00014248,0.00001237,-0.00002155,0.0000
 5319,0.00044011,0.00001138,0.00044260,-0.00014407,-0.00007752,0.000033
 09,-0.00090715,0.00030388,0.00112079,0.00002572,0.00004771,0.00013286,
 -0.00006120,0.00000792,0.00005663,0.00021729,-0.00035164,0.00021935,-0
 .00038126,0.00129993,-0.00098839,0.00064140,0.00002347,-0.00006638,-0.
 00538579,-0.03411411,0.05610189,-0.00008078,-0.00026054,-0.00011502,0.
 00019286,0.00038823,0.00020357,-0.00033441,-0.00311805,-0.00218238,-0.
 00012169,0.00056818,0.00012819,0.00562102,0.00553825,0.01438525,-0.104
 76930,-0.04434517,-0.09858079,0.00011868,-0.00011419,-0.00001951,-0.00
 004747,-0.00017428,0.00020367,0.00049043,0.00107610,0.00112901,0.00002
 536,-0.00008154,0.00008429,-0.00049501,-0.00069286,0.00317934,0.000032
 27,0.00000783,0.00001472,0.00005474,0.00013170,-0.00008576,0.00022859,
 -0.00024027,0.00028847,-0.00001259,-0.00003146,-0.00003829,0.00125609,
 0.00011456,0.00082571,-0.00047044,-0.00180990,-0.00152712,0.13387882,-
 0.00006931,-0.00010778,0.00003510,-0.00007603,-0.00020838,-0.00024511,
 0.00298340,0.00037539,0.00205323,-0.00002987,0.00044397,0.00006749,0.0
 0412326,0.00349229,0.00681288,-0.05243523,-0.08685505,-0.07596320,-0.0
 0009035,-0.00053194,0.00004967,-0.00002616,0.00006643,-0.00006690,0.00
 040899,-0.00001562,-0.00032701,0.00000242,0.00001555,-0.00004757,-0.00
 051365,0.00052888,0.00103375,-0.00001358,0.00008279,-0.00008941,0.0000
 3876,-0.00004690,-0.00000264,0.00007263,-0.00002082,0.00025552,-0.0000
 4818,-0.00008834,-0.00007166,0.00072192,0.00093332,-0.00093753,-0.0168
 5297,-0.01008289,-0.02534338,0.04691767,0.09030980,-0.00070087,0.00004
 083,-0.00044896,-0.00015720,0.00021307,-0.00013580,0.00150159,-0.00107
 384,0.00073530,0.00052558,-0.00083792,-0.00026513,-0.00994289,-0.01187
 904,-0.02336921,-0.10384583,-0.07364501,-0.20858718,0.00029883,0.00024
 332,0.00041924,0.00008690,-0.00004712,0.00003673,0.00031148,0.00043044
 ,0.00081106,0.00004444,-0.00004280,0.00010477,0.00262692,0.00187158,-0
 .00354941,0.00014433,0.00005485,0.00023190,-0.00001565,0.00001074,0.00
 004336,0.00043252,-0.00005435,0.00053409,0.00001058,0.00029568,0.00001
 156,0.00012798,0.00003480,0.00143984,0.00290782,0.00065907,0.00424424,
 0.10596931,0.08304809,0.22522297,-0.00177029,-0.00101620,-0.00048961,-
 0.00018865,0.00474267,0.00568061,0.00833210,-0.02653934,-0.01394038,0.
 00049118,-0.00110310,0.00069613,0.00131533,-0.00110995,0.00146797,-0.0
 3165434,-0.00019955,-0.00806062,-0.00034627,-0.00021456,0.00024013,0.0
 0020998,0.00045320,-0.00176983,-0.00141299,0.00529808,0.00390260,0.000
 05670,0.00006903,0.00050945,0.00051774,-0.00026910,-0.00108561,0.00033
 499,0.00046311,-0.00025022,0.00064985,0.00301281,-0.00154708,-0.000245
 00,0.00624425,0.00432173,0.00059929,0.00049433,-0.00045368,0.00153508,
 0.00014648,-0.00102989,0.00370404,-0.00182770,0.00018193,0.00135823,0.
 00010019,0.00222781,0.89571359,-0.00013394,-0.00017807,0.00019867,-0.0
 0056104,-0.00137579,-0.00382417,-0.03300982,-0.02281487,-0.01201093,-0
 .00038921,-0.00020210,-0.00052321,0.00188146,0.00026501,0.00083214,0.0
 0550222,0.01571585,0.01171961,0.00011979,-0.00009804,0.00001720,0.0001
 9829,-0.00056069,0.00080089,0.00169022,-0.00385638,-0.00104481,-0.0001
 2711,0.00030711,0.00038025,0.00036793,-0.00023326,-0.00082212,-0.00000
 221,0.00010302,-0.00008410,0.00020515,-0.00051783,0.00105812,-0.001288
 00,-0.00115567,-0.00162290,0.00026685,0.00017027,-0.00003683,0.0004112
 5,-0.00008525,-0.00092650,0.00185379,-0.00048238,0.00047775,0.00640849
 ,-0.00228593,0.00046781,-0.12771638,0.58237536,-0.00045832,-0.00016727
 ,0.00000277,0.00066949,0.00228132,0.00080536,-0.01160716,-0.01234409,-
 0.00623733,0.00044326,-0.00043160,0.00066481,0.00507831,-0.00098986,0.
 00131884,-0.00123546,0.00865709,-0.01013202,-0.00002807,-0.00006945,-0
 .00004645,-0.00013648,0.00014748,-0.00005312,-0.00079359,-0.00283852,-
 0.00145486,0.00003252,0.00027593,-0.00034215,0.00026792,-0.00031529,-0
 .00032992,0.00005442,0.00011547,-0.00003608,0.00004341,0.00065151,-0.0
 0032972,-0.00136231,-0.00054863,0.00101506,-0.00006630,-0.00000462,-0.
 00015718,0.00098585,0.00003046,-0.00147140,0.00075989,-0.00073755,0.00
 040588,-0.00171624,-0.00005449,-0.00022465,0.05300805,0.10292252,0.255
 45875,0.00080846,0.00048968,0.00033287,0.00078247,-0.00145360,-0.00278
 583,-0.00264327,0.01051290,0.00478287,-0.00042986,0.00080626,-0.000677
 57,-0.00154049,0.00120227,-0.00231650,0.00646786,-0.00940034,-0.002472
 78,0.00023987,0.00020488,-0.00009164,-0.00012743,-0.00045220,0.0009951
 1,0.00000237,-0.00124315,-0.00049811,0.00020778,-0.00018895,0.00003864
 ,-0.00042969,0.00013526,0.00084042,-0.00012720,-0.00033880,0.00015231,
 -0.00025497,-0.00134624,0.00067974,-0.00198913,-0.00305821,-0.00213209
 ,-0.00015466,-0.00036739,0.00034899,-0.00099291,-0.00012774,0.00126110
 ,-0.00122392,0.00071596,-0.00013372,-0.00349512,0.00159362,-0.00041475
 ,-0.53213227,0.24049501,0.01357086,0.64787681,-0.00019191,-0.00035774,
 -0.00039889,0.00044672,0.00113070,0.00214425,0.00026431,-0.00433843,-0
 .00421379,0.00020909,-0.00045345,0.00041481,0.00052016,-0.00078215,0.0
 0079932,-0.00289931,0.00043528,-0.00539888,-0.00022741,0.00001799,0.00
 006868,0.00001094,0.00031757,-0.00087485,-0.00252423,0.00155924,0.0014
 5292,0.00003649,-0.00006257,-0.00009136,-0.00000218,0.00006698,-0.0000
 2994,-0.00002383,0.00012663,0.00011334,0.00001677,0.00075322,-0.000464
 36,-0.00287792,0.00121219,0.00193387,-0.00002841,0.00017639,-0.0000647
 3,0.00039818,0.00010061,-0.00032115,-0.00021414,0.00013629,-0.00004068
 ,-0.00058150,0.00043643,0.00045285,0.23474679,-0.23228657,-0.01846240,
 -0.27509604,0.23905790,0.00017875,-0.00031014,0.00041467,-0.00102858,0
 .00115747,-0.00000447,-0.00003471,0.00073799,-0.00529181,-0.00024481,0
 .00009582,-0.00031699,-0.00185768,0.00043511,-0.00084848,-0.00056099,-
 0.00341726,0.00686992,0.00015584,0.00002373,-0.00000548,0.00018492,-0.
 00023257,0.00040462,-0.00050305,0.00005129,0.00050498,0.00003635,-0.00
 004293,0.00011160,-0.00009851,0.00007389,0.00007569,-0.00013410,-0.000
 04257,0.00010119,0.00018535,0.00021848,-0.00004695,-0.00181584,0.00077
 164,-0.00033136,0.00003696,0.00003020,0.00005048,-0.00029899,-0.000043
 11,0.00060903,0.00013968,-0.00000556,-0.00007834,0.00066667,-0.0001593
 8,0.00009484,0.01241627,-0.01859660,-0.07641252,-0.00099431,0.02976297
 ,0.04134240,0.00029295,-0.00011919,-0.00041594,0.00025687,-0.00023665,
 -0.00037852,-0.00494345,0.00031345,-0.00120787,0.00043010,-0.00047425,
 0.00029363,-0.00136772,-0.00048572,-0.00035367,0.00313776,-0.00641938,
 0.00009246,-0.00010756,-0.00002535,0.00007654,-0.00002439,0.00000238,-
 0.00001192,-0.00005360,-0.00134288,-0.00066260,0.00000836,-0.00031862,
 0.00005825,-0.00147474,0.00015434,0.00120495,-0.00014230,0.00035461,0.
 00008242,-0.00010164,0.00001006,0.00035281,-0.00018928,0.00063620,0.00
 011988,0.00004447,0.00036399,-0.00014052,0.00030931,0.00062125,0.00049
 716,-0.00339128,0.00102877,-0.00282897,-0.00002572,0.00206506,0.000127
 25,-0.05339169,-0.01646241,-0.00244806,-0.02617580,0.03933245,0.006156
 16,0.52259688,-0.00045746,-0.00001458,0.00001817,-0.00033018,0.0002681
 3,0.00188180,0.00220295,0.00081152,-0.00264626,-0.00048501,-0.00014445
 ,-0.00010261,0.00031390,-0.00097255,0.00116724,-0.00676323,0.00379519,
 -0.00080435,0.00013976,-0.00006362,0.00011152,-0.00004478,-0.00031996,
 0.00004755,0.00073477,0.00091496,0.00069046,0.00004569,-0.00009510,0.0
 0046928,0.00015847,-0.00002773,-0.00058330,0.00023792,0.00008857,-0.00
 023939,0.00033370,0.00083940,-0.00034425,0.00008056,-0.00021538,-0.000
 25050,0.00039198,0.00006048,-0.00009581,0.00063097,0.00001022,-0.00049
 247,0.00124595,0.00026729,-0.00036360,0.00118971,-0.00021885,0.0002172
 3,-0.02550556,-0.14650613,-0.02736551,0.02581894,-0.01719230,-0.006840
 72,0.01794947,0.53822854,-0.00036679,0.00022848,0.00003419,0.00026196,
 -0.00153091,-0.00026294,-0.00079530,-0.00198307,0.00531379,0.00114415,
 -0.00005993,-0.00045331,-0.00060707,0.00222490,0.00189884,-0.00128127,
 -0.00069472,0.00162927,-0.00011206,-0.00021614,-0.00015466,-0.00008111
 ,0.00019558,-0.00025350,-0.00047544,0.00088484,0.00048643,-0.00040544,
 0.00065898,-0.00024204,0.00190068,-0.00049232,-0.00155945,0.00020174,-
 0.00009169,-0.00017762,0.00000548,-0.00012837,0.00001352,0.00058254,0.
 00017799,0.00033516,-0.00008322,0.00019307,-0.00031416,-0.00024886,-0.
 00073561,-0.00088053,-0.00305739,-0.00013140,0.00213450,0.00056449,-0.
 00029752,-0.00040601,-0.00534581,-0.02483265,-0.07723328,0.00173305,-0
 .00567739,0.01342042,0.02158791,0.03603466,0.44850680,-0.00019679,-0.0
 0001708,0.00025405,-0.00023134,0.00019380,0.00058435,0.00099770,0.0001
 6073,-0.00108683,-0.00006623,0.00020818,-0.00042734,-0.00090363,0.0006
 6424,0.00081806,-0.00331500,0.00160557,-0.00072625,0.00006142,-0.00001
 402,-0.00003383,-0.00001657,-0.00003583,0.00004811,0.00015590,0.000115
 43,0.00019660,-0.00004834,0.00018133,0.00004669,0.00013539,-0.00135525
 ,-0.00168246,0.00012169,-0.00018014,-0.00008882,0.00013005,0.00014652,
 -0.00021811,-0.00007617,-0.00027786,-0.00016790,0.00000333,-0.00006888
 ,-0.00002616,-0.00017005,-0.00081436,-0.00063643,-0.00061304,-0.001797
 82,0.00078096,0.00024536,-0.00100539,-0.00009214,-0.00829388,-0.004596
 25,0.01223459,0.00216723,0.00424468,-0.00029958,-0.12122327,0.03182403
 ,0.07096932,0.18985465,0.00015915,0.00001252,-0.00009463,0.00017621,-0
 .00021271,-0.00059445,-0.00059476,0.00030784,0.00152195,0.00011815,0.0
 0015647,0.00013872,-0.00091362,0.00010447,-0.00041175,0.00083194,-0.00
 162345,-0.00066985,-0.00003847,0.00002441,-0.00002110,0.00002843,0.000
 08802,-0.00003778,-0.00018676,-0.00010875,-0.00011446,0.00001375,-0.00
 000836,-0.00018471,-0.00081319,-0.00055995,0.00003193,-0.00007674,-0.0
 0001131,0.00008842,-0.00011850,-0.00027911,0.00012668,0.00022531,0.000
 12178,0.00016701,-0.00013955,-0.00004652,0.00003442,-0.00017977,-0.000
 17020,0.00005329,-0.00101013,-0.00025596,-0.00070020,-0.00030395,-0.00
 001003,0.00002133,0.02143322,0.01006932,-0.02348193,0.00203280,-0.0088
 4102,0.00067952,0.02753063,-0.09308647,-0.04430872,-0.02033670,0.07018
 870,0.00029127,-0.00005905,-0.00016937,0.00015882,-0.00005831,-0.00062
 643,-0.00055499,0.00036966,0.00079291,-0.00042085,-0.00003350,0.000304
 14,0.00040495,-0.00088986,-0.00156427,0.00003876,-0.00071638,-0.002632
 74,-0.00000285,0.00011771,0.00009293,0.00005768,0.00002271,-0.00001205
 ,-0.00012896,-0.00011315,-0.00009321,0.00026793,-0.00034230,0.00003772
 ,-0.00105041,0.00062885,0.00109689,-0.00012536,0.00009843,0.00012437,-
 0.00014014,-0.00019262,0.00020154,0.00016837,0.00022079,0.00020877,0.0
 0000379,-0.00004573,0.00015399,0.00011599,0.00047613,0.00059587,-0.000
 70804,-0.00103922,-0.00149063,-0.00041961,-0.00017140,0.00033164,0.022
 39431,0.00773664,-0.01189795,0.00188103,-0.01005686,-0.00091213,0.0697
 2645,-0.04544887,-0.16562916,-0.13164072,0.02793449,0.23729539,-0.0000
 6914,0.00006785,0.00004898,-0.00008273,-0.00008345,0.00001820,0.000785
 77,-0.00015418,0.00048059,-0.00044411,0.00013609,0.00013312,0.00057002
 ,-0.00091536,-0.00013637,-0.00347117,0.00211249,-0.00058939,0.00005415
 ,0.00003572,0.00001256,0.00001627,-0.00002862,0.00002647,0.00000883,0.
 00033791,0.00023557,0.00006904,-0.00003807,0.00006862,0.00001646,0.000
 05108,-0.00001287,0.00004101,-0.00006056,-0.00001777,0.00002928,0.0000
 1477,-0.00003533,0.00002054,-0.00013135,-0.00004390,0.00005771,-0.0001
 6673,0.00011053,0.00003435,-0.00000273,-0.00002219,-0.00110373,-0.0037
 1556,0.00038142,0.00005051,-0.00085473,0.00015791,0.00238238,0.0036960
 8,-0.00828541,0.00218958,-0.00018925,0.00161950,-0.08079362,0.03186774
 ,-0.02617520,0.01324556,-0.01407163,0.01972839,0.10409017,0.00018239,-
 0.00003413,0.00004256,0.00005177,0.00038088,-0.00029454,-0.00069036,0.
 00109823,-0.00103703,0.00019141,0.00008282,-0.00002445,-0.00034075,0.0
 0042671,-0.00015943,0.00054217,-0.00213263,0.00025755,-0.00005984,0.00
 002599,-0.00006737,-0.00000147,0.00009005,0.00000319,-0.00012897,-0.00
 070280,-0.00045680,-0.00005067,0.00007645,-0.00017294,0.00007697,-0.00
 007969,0.00016862,-0.00010287,-0.00004838,0.00009701,-0.00007373,-0.00
 020057,0.00003109,-0.00002993,0.00002547,0.00015295,-0.00014482,-0.000
 01266,0.00004386,-0.00028642,-0.00009356,0.00010964,-0.00253146,-0.002
 15387,0.00057780,-0.00063201,-0.00018581,-0.00009384,0.01444695,-0.010
 20276,0.03895958,0.00398042,-0.00893565,-0.00686921,0.02995623,-0.1673
 0313,0.07423370,-0.00958579,0.01220844,0.01870195,-0.04485569,0.163692
 45,0.00002574,-0.00001122,-0.00003524,-0.00005249,-0.00000192,-0.00003
 206,0.00055251,0.00005985,0.00016184,-0.00045906,0.00002268,0.00016761
 ,0.00043332,-0.00095976,-0.00040656,-0.00034166,0.00096210,-0.00022645
 ,0.00005533,0.00005009,0.00006387,0.00002405,-0.00007003,0.00005575,0.
 00014902,0.00026220,0.00012439,0.00013150,-0.00018535,0.00011022,-0.00
 046012,0.00018758,0.00028936,-0.00000519,0.00002782,0.00000392,-0.0000
 0196,0.00004636,0.00002855,-0.00007417,-0.00006353,-0.00016032,0.00007
 058,-0.00008906,0.00008581,0.00016112,0.00020360,0.00015775,0.00122120
 ,0.00003569,-0.00083357,0.00020467,0.00011569,0.00009173,-0.00605582,0
 .00042358,-0.00505700,-0.00054677,0.00404595,0.00217525,-0.02822144,0.
 07615154,-0.13304244,0.01354999,0.03083397,-0.06849439,0.06279035,-0.1
 2622556,0.22918301,0.00005618,0.00000312,0.00017552,-0.00009315,-0.000
 25203,-0.00041945,-0.00107331,0.00104445,0.00041580,-0.00016646,0.0001
 5496,-0.00019991,0.00014675,0.00021562,0.00021188,0.00044075,0.0008287
 9,0.00012134,0.00003780,0.00003931,-0.00003594,0.00000347,0.00002675,0
 .00009844,0.00001430,-0.00039388,-0.00011046,0.00002648,0.00008644,-0.
 00004664,0.00042234,-0.00011663,-0.00041185,-0.00001143,-0.00014589,0.
 00003119,-0.00003710,-0.00020629,0.00008298,0.00008890,-0.00012978,-0.
 00005352,-0.00006666,-0.00011361,0.00008407,-0.00016600,-0.00024592,-0
 .00013429,0.00066331,-0.00013880,0.00043489,-0.00003763,-0.00037694,-0
 .00012085,-0.02845977,-0.00065732,-0.00720774,0.00960310,0.00278282,0.
 00269196,-0.22937126,-0.08028906,-0.05833809,-0.07527252,-0.01110780,0
 .02410546,-0.03889934,0.01300555,-0.04453362,0.35808542,0.00018118,-0.
 00001244,0.00003283,0.00001866,-0.00032475,-0.00063103,-0.00209622,0.0
 0132852,0.00052887,-0.00000361,0.00004386,-0.00004057,-0.00011202,0.00
 013402,-0.00020918,0.00212703,-0.00064265,-0.00002751,-0.00001563,0.00
 004187,-0.00002929,0.00001223,0.00007799,0.00005372,-0.00023413,-0.000
 73806,-0.00028280,0.00001935,0.00000363,-0.00009324,0.00001876,0.00003
 095,0.00006942,-0.00007571,-0.00005491,0.00008787,-0.00009834,-0.00027
 496,0.00018510,0.00002185,0.00011627,0.00012904,-0.00010299,-0.0000346
 1,0.00006673,-0.00017289,-0.00004394,0.00011311,-0.00012782,0.00007342
 ,0.00017960,-0.00031896,-0.00002398,-0.00006202,-0.03611324,-0.0101789
 0,-0.01332762,-0.00378032,-0.00199919,-0.00111865,-0.06241275,-0.11284
 979,-0.02599180,-0.00353996,0.01422273,0.00582643,0.02388600,0.0172357
 3,0.01265078,0.08128302,0.10308851,0.00010333,-0.00002437,0.00000354,-
 0.00002135,-0.00004568,-0.00022370,-0.00084760,0.00086742,-0.00015337,
 -0.00018325,0.00003374,0.00002946,0.00012409,-0.00025481,-0.00026477,0
 .00080638,0.00007373,-0.00023310,0.00001756,0.00004178,0.00001032,0.00
 001546,0.00000072,0.00005874,-0.00001589,-0.00035132,-0.00011388,0.000
 06155,-0.00005282,-0.00000799,-0.00013434,0.00008741,0.00017368,-0.000
 04506,-0.00002465,0.00004747,-0.00003879,-0.00009998,0.00007886,0.0000
 0467,-0.00000338,-0.00000595,-0.00002998,-0.00005144,0.00006842,-0.000
 02899,0.00005464,0.00011616,0.00041836,0.00007907,-0.00016818,-0.00012
 888,-0.00003664,0.00001665,-0.01821988,-0.00629696,0.00267694,0.000439
 27,-0.00014993,0.00002939,-0.05227292,-0.02922530,-0.09236998,0.036676
 69,0.00961297,0.01185093,-0.05212447,0.00497048,-0.02709493,0.08435421
 ,0.02509775,0.10594072,0.00089631,0.00012762,-0.00070392,0.00158177,-0
 .01105400,-0.00704765,-0.10504141,0.00797171,0.00261963,0.00188011,0.0
 0222022,-0.00169731,-0.03100219,0.00661018,0.00423440,-0.16344282,0.02
 957270,-0.00438640,0.00014815,0.00011956,-0.00002959,0.00010138,0.0004
 6709,0.00100513,-0.00044036,-0.02330300,-0.01012139,0.00009237,-0.0008
 8593,0.00033014,-0.00034280,0.00094848,0.00108912,0.00023126,-0.000188
 36,-0.00013467,0.00045379,-0.00305405,0.00201915,0.00066742,0.03133077
 ,0.01050964,0.00000417,0.00027342,-0.00025252,-0.00226697,0.00021909,0
 .00522592,-0.00349430,0.00370283,-0.00060726,-0.03366280,0.01336444,-0
 .00221108,-0.25930532,-0.07815284,-0.05180343,-0.09862881,0.00184675,-
 0.01659728,-0.00429940,-0.00129126,-0.00157826,0.00330856,-0.00265799,
 -0.00415128,0.00120223,-0.00291909,0.00138292,0.00406585,0.00163651,0.
 00106985,0.68729381,0.00184932,0.00229955,-0.00136110,-0.00122674,-0.0
 4022014,-0.01206728,0.00250711,-0.15540599,-0.04033257,-0.00093140,0.0
 0076905,0.00066300,-0.00307633,0.00479000,-0.00373948,0.04232251,-0.12
 099178,-0.01297276,-0.00029027,-0.00000846,0.00000072,0.00071377,0.002
 32241,-0.00048511,-0.00111617,-0.01575982,-0.00919135,-0.00039774,0.00
 015289,-0.00073623,-0.00054729,0.00019935,0.00081901,0.00021637,0.0002
 2494,0.00002846,-0.00183974,-0.00451477,0.00524113,0.00367862,-0.01450
 105,-0.00669667,-0.00071964,0.00024382,-0.00008782,-0.00141113,0.00009
 799,0.00210794,0.03795667,-0.01255532,-0.00221232,-0.00963606,0.003997
 44,-0.00032577,-0.07003646,-0.17598534,-0.05290252,0.00886501,0.029721
 65,0.00364057,-0.03202171,-0.00627428,-0.00765996,0.00428082,-0.002290
 87,-0.00296653,0.00306220,-0.00325759,0.00152695,-0.00529689,-0.009219
 32,-0.00430241,0.02309515,0.51616563,-0.00033915,-0.00092444,0.0005648
 5,-0.00211678,0.01347592,0.01418983,-0.00441957,-0.03462095,-0.0787043
 0,-0.00096713,-0.00027228,0.00070097,0.02275468,-0.01008689,0.00508853
 ,0.00314492,-0.02030672,-0.05928739,0.00031421,0.00014686,0.00000250,-
 0.00015337,-0.00103199,0.00196881,0.00156542,-0.02927561,-0.00958621,0
 .00071940,-0.00013923,0.00042382,0.00003034,0.00001126,0.00027454,-0.0
 0047288,-0.00007141,0.00024411,0.00138031,0.00350006,-0.00197477,-0.00
 081901,-0.01276128,-0.00568626,0.00064336,-0.00045635,0.00082216,0.002
 75930,0.00013981,-0.00359616,-0.00000472,-0.00155607,-0.00066159,-0.02
 303375,0.01034241,0.00261642,-0.04879857,-0.05641341,-0.07093277,-0.01
 399218,0.00505625,0.01804407,-0.01143342,-0.00198652,-0.00079384,0.000
 96715,-0.00062514,0.00043524,0.00163067,-0.00294880,0.00268390,-0.0011
 9537,-0.00320754,-0.00046544,0.07183614,0.14401209,0.18362897\\-0.0000
 0547,-0.00000223,-0.00000156,0.00000597,-0.00001290,-0.00000451,-0.000
 00052,0.00001180,-0.00001849,0.00000500,0.00000004,0.00000350,-0.00000
 006,0.00001804,0.00000562,-0.00000962,0.00000069,0.00000912,0.00000091
 ,-0.00000021,0.00000126,-0.00000474,-0.00000393,-0.00000937,-0.0000053
 1,0.00000375,0.00000082,0.00000244,-0.00000050,-0.00000422,0.00000269,
 -0.00000733,0.00001007,-0.00000258,0.00000344,-0.00000164,-0.00000981,
 0.00000618,-0.00000534,-0.00001417,0.00000497,-0.00000503,0.00001069,-
 0.00000618,0.00000415,0.00000821,0.00000262,0.00000565,0.00000723,-0.0
 0000323,0.00000154,0.00000097,0.00000286,0.00000587,0.00001614,0.00000
 282,-0.00001191,-0.00001597,0.00001069,-0.00000514,0.00001492,-0.00000
 491,-0.00001847,0.00000223,0.00000057,0.00001276,-0.00000112,-0.000014
 88,0.00001161,-0.00000110,-0.00000645,0.00000124,-0.00000693,-0.000005
 72,0.00001248\\\@


 SIGN SEEN IN A RESTAURANT-
 WE RESERVE THE RIGHT TO SERVE REFUSE TO ANYONE.
 Job cpu time:       0 days  1 hours 29 minutes  9.0 seconds.
 File lengths (MBytes):  RWF=    309 Int=      0 D2E=      0 Chk=     11 Scr=      1
 Normal termination of Gaussian 09 at Tue Apr 23 13:48:53 2024.
