 Entering Gaussian System, Link 0=g09
 Initial command:
 /cm/shared/apps/gaussian/g09revD.01/g09/l1.exe "//home/sweav003/CHB/validation/G09-BocProc_Smith4.com.o9823011.tmp/Gau-13742.inp" -scrdir="//home/sweav003/CHB/validation/G09-BocProc_Smith4.com.o9823011.tmp/"
 Entering Link 1 = /cm/shared/apps/gaussian/g09revD.01/g09/l1.exe PID=     13743.
  
 Copyright (c) 1988,1990,1992,1993,1995,1998,2003,2009,2013,
            Gaussian, Inc.  All Rights Reserved.
  
 This is part of the Gaussian(R) 09 program.  It is based on
 the Gaussian(R) 03 system (copyright 2003, Gaussian, Inc.),
 the Gaussian(R) 98 system (copyright 1998, Gaussian, Inc.),
 the Gaussian(R) 94 system (copyright 1995, Gaussian, Inc.),
 the Gaussian 92(TM) system (copyright 1992, Gaussian, Inc.),
 the Gaussian 90(TM) system (copyright 1990, Gaussian, Inc.),
 the Gaussian 88(TM) system (copyright 1988, Gaussian, Inc.),
 the Gaussian 86(TM) system (copyright 1986, Carnegie Mellon
 University), and the Gaussian 82(TM) system (copyright 1983,
 Carnegie Mellon University). Gaussian is a federally registered
 trademark of Gaussian, Inc.
  
 This software contains proprietary and confidential information,
 including trade secrets, belonging to Gaussian, Inc.
  
 This software is provided under written license and may be
 used, copied, transmitted, or stored only in accord with that
 written license.
  
 The following legend is applicable only to US Government
 contracts under FAR:
  
                    RESTRICTED RIGHTS LEGEND
  
 Use, reproduction and disclosure by the US Government is
 subject to restrictions as set forth in subparagraphs (a)
 and (c) of the Commercial Computer Software - Restricted
 Rights clause in FAR 52.227-19.
  
 Gaussian, Inc.
 340 Quinnipiac St., Bldg. 40, Wallingford CT 06492
  
  
 ---------------------------------------------------------------
 Warning -- This program may not be used in any manner that
 competes with the business of Gaussian, Inc. or will provide
 assistance to any competitor of Gaussian, Inc.  The licensee
 of this program is prohibited from giving any competitor of
 Gaussian, Inc. access to this program.  By using this program,
 the user acknowledges that Gaussian, Inc. is engaged in the
 business of creating and licensing software in the field of
 computational chemistry and represents and warrants to the
 licensee that it is not a competitor of Gaussian, Inc. and that
 it will not use this program in any manner prohibited above.
 ---------------------------------------------------------------
  

 Cite this work as:
 Gaussian 09, Revision D.01,
 M. J. Frisch, G. W. Trucks, H. B. Schlegel, G. E. Scuseria, 
 M. A. Robb, J. R. Cheeseman, G. Scalmani, V. Barone, B. Mennucci, 
 G. A. Petersson, H. Nakatsuji, M. Caricato, X. Li, H. P. Hratchian, 
 A. F. Izmaylov, J. Bloino, G. Zheng, J. L. Sonnenberg, M. Hada, 
 M. Ehara, K. Toyota, R. Fukuda, J. Hasegawa, M. Ishida, T. Nakajima, 
 Y. Honda, O. Kitao, H. Nakai, T. Vreven, J. A. Montgomery, Jr., 
 J. E. Peralta, F. Ogliaro, M. Bearpark, J. J. Heyd, E. Brothers, 
 K. N. Kudin, V. N. Staroverov, T. Keith, R. Kobayashi, J. Normand, 
 K. Raghavachari, A. Rendell, J. C. Burant, S. S. Iyengar, J. Tomasi, 
 M. Cossi, N. Rega, J. M. Millam, M. Klene, J. E. Knox, J. B. Cross, 
 V. Bakken, C. Adamo, J. Jaramillo, R. Gomperts, R. E. Stratmann, 
 O. Yazyev, A. J. Austin, R. Cammi, C. Pomelli, J. W. Ochterski, 
 R. L. Martin, K. Morokuma, V. G. Zakrzewski, G. A. Voth, 
 P. Salvador, J. J. Dannenberg, S. Dapprich, A. D. Daniels, 
 O. Farkas, J. B. Foresman, J. V. Ortiz, J. Cioslowski, 
 and D. J. Fox, Gaussian, Inc., Wallingford CT, 2013.
 
 ******************************************
 Gaussian 09:  ES64L-G09RevD.01 24-Apr-2013
                10-Jan-2023 
 ******************************************
 %nprocshared=20
 Will use up to   20 processors via shared memory.
 %mem=4GB
 %chk=BocProc_Smith4.chk
 ----------------------------------------------------------------------
 # opt freq=noraman b3lyp/6-311+g(d,p) geom=connectivity pop=(hirshfeld
 ,npa,mbs,chelpg)
 ----------------------------------------------------------------------
 1/14=-1,18=20,19=15,26=3,38=1,57=2/1,3;
 2/9=110,12=2,17=6,18=5,40=1/2;
 3/5=4,6=6,7=111,11=2,16=1,25=1,30=1,71=1,74=-5/1,2,3;
 4//1;
 5/5=2,38=5/2;
 6/7=2,8=2,9=2,10=2,15=8,20=3,27=100,28=1,40=-1,79=1/1,2,7;
 7//1,2,3,16;
 1/14=-1,18=20,19=15,26=3/3(2);
 2/9=110/2;
 99//99;
 2/9=110/2;
 3/5=4,6=6,7=111,11=2,16=1,25=1,30=1,71=1,74=-5/1,2,3;
 4/5=5,16=3,69=1/1;
 5/5=2,38=5/2;
 7//1,2,3,16;
 1/14=-1,18=20,19=15,26=3/3(-5);
 2/9=110/2;
 6/7=2,8=2,9=2,10=2,15=8,19=2,20=3,27=100,28=1,40=-1,79=1/1,2,7;
 99/9=1/99;
 -------------------
 Title Card Required
 -------------------
 Symbolic Z-matrix:
 Charge =  0 Multiplicity = 1
 C                    -1.07335  -1.88713   0. 
 C                    -1.16791  -0.44445   0. 
 C                    -2.4015    0.17489   0. 
 C                    -3.55389  -0.6287    0.00013 
 C                    -3.46299  -2.01569   0.00025 
 C                    -2.21558  -2.66204   0.00025 
 C                     0.34531  -2.22207  -0.00023 
 C                     1.07987  -1.02183  -0.00032 
 H                    -2.48986   1.27024  -0.00015 
 H                    -4.5428   -0.14638   0.00015 
 H                    -4.38044  -2.623     0.00049 
 H                    -2.16038  -3.75954   0.00045 
 H                     0.74282  -3.23437  -0.00023 
 H                     2.16712  -0.95047  -0.00051 
 N                     0.19474   0.07276  -0.00014 
 C                     0.54931   1.49936   0.00006 
 O                     0.507     2.3261   -0.91003 
 O                     0.98474   1.92142   1.21401 
 C                     1.31909   3.3112    1.17351 
 C                     0.07436   4.12732   0.77829 
 H                     0.0661    5.05005   1.31995 
 H                     0.09974   4.33046  -0.27194 
 H                    -0.80761   3.56849   1.01226 
 C                     2.43411   3.54092   0.13642 
 H                     2.0047    3.90087  -0.77514 
 H                     3.12834   4.26277   0.51309 
 H                     2.944     2.61873  -0.04926 
 C                     1.80885   3.76203   2.56221 
 H                     2.66853   3.189     2.84057 
 H                     2.06723   4.79986   2.52968 
 H                     1.03108   3.61048   3.28124 
 

 GradGradGradGradGradGradGradGradGradGradGradGradGradGradGradGradGradGrad
 Berny optimization.
 Initialization pass.
                           ----------------------------
                           !    Initial Parameters    !
                           ! (Angstroms and Degrees)  !
 --------------------------                            --------------------------
 ! Name  Definition              Value          Derivative Info.                !
 --------------------------------------------------------------------------------
 ! R1    R(1,2)                  1.4458         estimate D2E/DX2                !
 ! R2    R(1,6)                  1.3803         estimate D2E/DX2                !
 ! R3    R(1,7)                  1.4577         estimate D2E/DX2                !
 ! R4    R(2,3)                  1.3803         estimate D2E/DX2                !
 ! R5    R(2,15)                 1.4575         estimate D2E/DX2                !
 ! R6    R(3,4)                  1.4049         estimate D2E/DX2                !
 ! R7    R(3,9)                  1.0989         estimate D2E/DX2                !
 ! R8    R(4,5)                  1.39           estimate D2E/DX2                !
 ! R9    R(4,10)                 1.1003         estimate D2E/DX2                !
 ! R10   R(5,6)                  1.4049         estimate D2E/DX2                !
 ! R11   R(5,11)                 1.1002         estimate D2E/DX2                !
 ! R12   R(6,12)                 1.0989         estimate D2E/DX2                !
 ! R13   R(7,8)                  1.4072         estimate D2E/DX2                !
 ! R14   R(7,13)                 1.0875         estimate D2E/DX2                !
 ! R15   R(8,14)                 1.0896         estimate D2E/DX2                !
 ! R16   R(8,15)                 1.4077         estimate D2E/DX2                !
 ! R17   R(15,16)                1.47           estimate D2E/DX2                !
 ! R18   R(16,17)                1.2303         estimate D2E/DX2                !
 ! R19   R(16,18)                1.357          estimate D2E/DX2                !
 ! R20   R(18,19)                1.43           estimate D2E/DX2                !
 ! R21   R(19,20)                1.54           estimate D2E/DX2                !
 ! R22   R(19,24)                1.54           estimate D2E/DX2                !
 ! R23   R(19,28)                1.54           estimate D2E/DX2                !
 ! R24   R(20,21)                1.07           estimate D2E/DX2                !
 ! R25   R(20,22)                1.07           estimate D2E/DX2                !
 ! R26   R(20,23)                1.07           estimate D2E/DX2                !
 ! R27   R(24,25)                1.07           estimate D2E/DX2                !
 ! R28   R(24,26)                1.07           estimate D2E/DX2                !
 ! R29   R(24,27)                1.07           estimate D2E/DX2                !
 ! R30   R(28,29)                1.07           estimate D2E/DX2                !
 ! R31   R(28,30)                1.07           estimate D2E/DX2                !
 ! R32   R(28,31)                1.07           estimate D2E/DX2                !
 ! A1    A(2,1,6)              120.4036         estimate D2E/DX2                !
 ! A2    A(2,1,7)              107.0339         estimate D2E/DX2                !
 ! A3    A(6,1,7)              132.5625         estimate D2E/DX2                !
 ! A4    A(1,2,3)              120.4093         estimate D2E/DX2                !
 ! A5    A(1,2,15)             107.0347         estimate D2E/DX2                !
 ! A6    A(3,2,15)             132.5559         estimate D2E/DX2                !
 ! A7    A(2,3,4)              118.452          estimate D2E/DX2                !
 ! A8    A(2,3,9)              121.2714         estimate D2E/DX2                !
 ! A9    A(4,3,9)              120.2766         estimate D2E/DX2                !
 ! A10   A(3,4,5)              121.1386         estimate D2E/DX2                !
 ! A11   A(3,4,10)             119.1113         estimate D2E/DX2                !
 ! A12   A(5,4,10)             119.7501         estimate D2E/DX2                !
 ! A13   A(4,5,6)              121.1411         estimate D2E/DX2                !
 ! A14   A(4,5,11)             119.7526         estimate D2E/DX2                !
 ! A15   A(6,5,11)             119.1063         estimate D2E/DX2                !
 ! A16   A(1,6,5)              118.4553         estimate D2E/DX2                !
 ! A17   A(1,6,12)             121.2745         estimate D2E/DX2                !
 ! A18   A(5,6,12)             120.2702         estimate D2E/DX2                !
 ! A19   A(1,7,8)              108.183          estimate D2E/DX2                !
 ! A20   A(1,7,13)             124.7225         estimate D2E/DX2                !
 ! A21   A(8,7,13)             127.0945         estimate D2E/DX2                !
 ! A22   A(7,8,14)             125.2222         estimate D2E/DX2                !
 ! A23   A(7,8,15)             109.5728         estimate D2E/DX2                !
 ! A24   A(14,8,15)            125.205          estimate D2E/DX2                !
 ! A25   A(2,15,8)             108.1756         estimate D2E/DX2                !
 ! A26   A(2,15,16)            124.7422         estimate D2E/DX2                !
 ! A27   A(8,15,16)            127.0822         estimate D2E/DX2                !
 ! A28   A(15,16,17)           130.0733         estimate D2E/DX2                !
 ! A29   A(15,16,18)           112.2947         estimate D2E/DX2                !
 ! A30   A(17,16,18)           117.632          estimate D2E/DX2                !
 ! A31   A(16,18,19)           110.6079         estimate D2E/DX2                !
 ! A32   A(18,19,20)           109.4712         estimate D2E/DX2                !
 ! A33   A(18,19,24)           109.4712         estimate D2E/DX2                !
 ! A34   A(18,19,28)           109.4712         estimate D2E/DX2                !
 ! A35   A(20,19,24)           109.4712         estimate D2E/DX2                !
 ! A36   A(20,19,28)           109.4712         estimate D2E/DX2                !
 ! A37   A(24,19,28)           109.4713         estimate D2E/DX2                !
 ! A38   A(19,20,21)           109.4712         estimate D2E/DX2                !
 ! A39   A(19,20,22)           109.4712         estimate D2E/DX2                !
 ! A40   A(19,20,23)           109.4712         estimate D2E/DX2                !
 ! A41   A(21,20,22)           109.4713         estimate D2E/DX2                !
 ! A42   A(21,20,23)           109.4712         estimate D2E/DX2                !
 ! A43   A(22,20,23)           109.4712         estimate D2E/DX2                !
 ! A44   A(19,24,25)           109.4712         estimate D2E/DX2                !
 ! A45   A(19,24,26)           109.4712         estimate D2E/DX2                !
 ! A46   A(19,24,27)           109.4712         estimate D2E/DX2                !
 ! A47   A(25,24,26)           109.4713         estimate D2E/DX2                !
 ! A48   A(25,24,27)           109.4712         estimate D2E/DX2                !
 ! A49   A(26,24,27)           109.4712         estimate D2E/DX2                !
 ! A50   A(19,28,29)           109.4712         estimate D2E/DX2                !
 ! A51   A(19,28,30)           109.4712         estimate D2E/DX2                !
 ! A52   A(19,28,31)           109.4712         estimate D2E/DX2                !
 ! A53   A(29,28,30)           109.4713         estimate D2E/DX2                !
 ! A54   A(29,28,31)           109.4712         estimate D2E/DX2                !
 ! A55   A(30,28,31)           109.4712         estimate D2E/DX2                !
 ! D1    D(6,1,2,3)             -0.0121         estimate D2E/DX2                !
 ! D2    D(6,1,2,15)           179.9938         estimate D2E/DX2                !
 ! D3    D(7,1,2,3)            179.9905         estimate D2E/DX2                !
 ! D4    D(7,1,2,15)            -0.0036         estimate D2E/DX2                !
 ! D5    D(2,1,6,5)              0.012          estimate D2E/DX2                !
 ! D6    D(2,1,6,12)          -179.9879         estimate D2E/DX2                !
 ! D7    D(7,1,6,5)           -179.9914         estimate D2E/DX2                !
 ! D8    D(7,1,6,12)             0.0086         estimate D2E/DX2                !
 ! D9    D(2,1,7,8)              0.0018         estimate D2E/DX2                !
 ! D10   D(2,1,7,13)           179.9965         estimate D2E/DX2                !
 ! D11   D(6,1,7,8)           -179.9951         estimate D2E/DX2                !
 ! D12   D(6,1,7,13)            -0.0004         estimate D2E/DX2                !
 ! D13   D(1,2,3,4)              0.006          estimate D2E/DX2                !
 ! D14   D(1,2,3,9)           -179.991          estimate D2E/DX2                !
 ! D15   D(15,2,3,4)           179.9984         estimate D2E/DX2                !
 ! D16   D(15,2,3,9)             0.0013         estimate D2E/DX2                !
 ! D17   D(1,2,15,8)             0.0041         estimate D2E/DX2                !
 ! D18   D(1,2,15,16)         -179.9881         estimate D2E/DX2                !
 ! D19   D(3,2,15,8)          -179.989          estimate D2E/DX2                !
 ! D20   D(3,2,15,16)            0.0188         estimate D2E/DX2                !
 ! D21   D(2,3,4,5)             -0.0004         estimate D2E/DX2                !
 ! D22   D(2,3,4,10)           179.9989         estimate D2E/DX2                !
 ! D23   D(9,3,4,5)            179.9967         estimate D2E/DX2                !
 ! D24   D(9,3,4,10)            -0.004          estimate D2E/DX2                !
 ! D25   D(3,4,5,6)              0.0006         estimate D2E/DX2                !
 ! D26   D(3,4,5,11)           179.9918         estimate D2E/DX2                !
 ! D27   D(10,4,5,6)          -179.9987         estimate D2E/DX2                !
 ! D28   D(10,4,5,11)           -0.0076         estimate D2E/DX2                !
 ! D29   D(4,5,6,1)             -0.0065         estimate D2E/DX2                !
 ! D30   D(4,5,6,12)           179.9934         estimate D2E/DX2                !
 ! D31   D(11,5,6,1)          -179.9977         estimate D2E/DX2                !
 ! D32   D(11,5,6,12)            0.0022         estimate D2E/DX2                !
 ! D33   D(1,7,8,14)          -179.9992         estimate D2E/DX2                !
 ! D34   D(1,7,8,15)             0.0008         estimate D2E/DX2                !
 ! D35   D(13,7,8,14)            0.0063         estimate D2E/DX2                !
 ! D36   D(13,7,8,15)         -179.9938         estimate D2E/DX2                !
 ! D37   D(7,8,15,2)            -0.003          estimate D2E/DX2                !
 ! D38   D(7,8,15,16)          179.9889         estimate D2E/DX2                !
 ! D39   D(14,8,15,2)          179.9969         estimate D2E/DX2                !
 ! D40   D(14,8,15,16)          -0.0112         estimate D2E/DX2                !
 ! D41   D(2,15,16,17)         -75.2131         estimate D2E/DX2                !
 ! D42   D(2,15,16,18)         104.79           estimate D2E/DX2                !
 ! D43   D(8,15,16,17)         104.7962         estimate D2E/DX2                !
 ! D44   D(8,15,16,18)         -75.2007         estimate D2E/DX2                !
 ! D45   D(15,16,18,19)        179.9996         estimate D2E/DX2                !
 ! D46   D(17,16,18,19)          0.0023         estimate D2E/DX2                !
 ! D47   D(16,18,19,20)         59.9853         estimate D2E/DX2                !
 ! D48   D(16,18,19,24)        -60.0147         estimate D2E/DX2                !
 ! D49   D(16,18,19,28)        179.9853         estimate D2E/DX2                !
 ! D50   D(18,19,20,21)        143.1027         estimate D2E/DX2                !
 ! D51   D(18,19,20,22)        -96.8973         estimate D2E/DX2                !
 ! D52   D(18,19,20,23)         23.1027         estimate D2E/DX2                !
 ! D53   D(24,19,20,21)        -96.8974         estimate D2E/DX2                !
 ! D54   D(24,19,20,22)         23.1027         estimate D2E/DX2                !
 ! D55   D(24,19,20,23)        143.1027         estimate D2E/DX2                !
 ! D56   D(28,19,20,21)         23.1027         estimate D2E/DX2                !
 ! D57   D(28,19,20,22)        143.1027         estimate D2E/DX2                !
 ! D58   D(28,19,20,23)        -96.8973         estimate D2E/DX2                !
 ! D59   D(18,19,24,25)         99.4621         estimate D2E/DX2                !
 ! D60   D(18,19,24,26)       -140.5379         estimate D2E/DX2                !
 ! D61   D(18,19,24,27)        -20.5379         estimate D2E/DX2                !
 ! D62   D(20,19,24,25)        -20.5379         estimate D2E/DX2                !
 ! D63   D(20,19,24,26)         99.4621         estimate D2E/DX2                !
 ! D64   D(20,19,24,27)       -140.5379         estimate D2E/DX2                !
 ! D65   D(28,19,24,25)       -140.5379         estimate D2E/DX2                !
 ! D66   D(28,19,24,26)        -20.5379         estimate D2E/DX2                !
 ! D67   D(28,19,24,27)         99.4621         estimate D2E/DX2                !
 ! D68   D(18,19,28,29)         59.5029         estimate D2E/DX2                !
 ! D69   D(18,19,28,30)        179.5029         estimate D2E/DX2                !
 ! D70   D(18,19,28,31)        -60.4971         estimate D2E/DX2                !
 ! D71   D(20,19,28,29)        179.5029         estimate D2E/DX2                !
 ! D72   D(20,19,28,30)        -60.4971         estimate D2E/DX2                !
 ! D73   D(20,19,28,31)         59.5029         estimate D2E/DX2                !
 ! D74   D(24,19,28,29)        -60.4971         estimate D2E/DX2                !
 ! D75   D(24,19,28,30)         59.5029         estimate D2E/DX2                !
 ! D76   D(24,19,28,31)        179.5029         estimate D2E/DX2                !
 --------------------------------------------------------------------------------
 Trust Radius=3.00D-01 FncErr=1.00D-07 GrdErr=1.00D-06
 Number of steps in this run=    173 maximum allowed number of steps=    186.
 GradGradGradGradGradGradGradGradGradGradGradGradGradGradGradGradGradGrad

                          Input orientation:                          
 ---------------------------------------------------------------------
 Center     Atomic      Atomic             Coordinates (Angstroms)
 Number     Number       Type             X           Y           Z
 ---------------------------------------------------------------------
      1          6           0       -1.073350   -1.887131    0.000000
      2          6           0       -1.167908   -0.444447    0.000000
      3          6           0       -2.401496    0.174886    0.000000
      4          6           0       -3.553894   -0.628700    0.000130
      5          6           0       -3.462985   -2.015687    0.000247
      6          6           0       -2.215576   -2.662036    0.000252
      7          6           0        0.345313   -2.222067   -0.000230
      8          6           0        1.079866   -1.021830   -0.000322
      9          1           0       -2.489857    1.270239   -0.000147
     10          1           0       -4.542799   -0.146378    0.000150
     11          1           0       -4.380438   -2.622996    0.000485
     12          1           0       -2.160380   -3.759538    0.000454
     13          1           0        0.742815   -3.234366   -0.000230
     14          1           0        2.167122   -0.950466   -0.000505
     15          7           0        0.194742    0.072759   -0.000143
     16          6           0        0.549309    1.499357    0.000062
     17          8           0        0.507000    2.326105   -0.910025
     18          8           0        0.984742    1.921422    1.214010
     19          6           0        1.319085    3.311197    1.173511
     20          6           0        0.074359    4.127320    0.778290
     21          1           0        0.066100    5.050051    1.319952
     22          1           0        0.099744    4.330463   -0.271942
     23          1           0       -0.807610    3.568491    1.012259
     24          6           0        2.434106    3.540921    0.136421
     25          1           0        2.004701    3.900874   -0.775141
     26          1           0        3.128337    4.262767    0.513092
     27          1           0        2.944002    2.618735   -0.049263
     28          6           0        1.808853    3.762030    2.562207
     29          1           0        2.668533    3.189000    2.840572
     30          1           0        2.067234    4.799855    2.529683
     31          1           0        1.031085    3.610476    3.281240
 ---------------------------------------------------------------------
                    Distance matrix (angstroms):
                    1          2          3          4          5
     1  C    0.000000
     2  C    1.445779   0.000000
     3  C    2.452730   1.380331   0.000000
     4  C    2.781501   2.393090   1.404910   0.000000
     5  C    2.393091   2.781397   2.434208   1.389963   0.000000
     6  C    1.380275   2.452613   2.843008   2.434246   1.404919
     7  C    1.457664   2.334474   3.645592   4.212200   3.813886
     8  C    2.320578   2.320746   3.681306   4.650407   4.650296
     9  H    3.460561   2.165110   1.098911   2.176728   3.426994
    10  H    3.881662   3.388028   2.165269   1.100258   2.158776
    11  H    3.387969   3.881550   3.427005   2.158795   1.100248
    12  H    2.165073   3.460466   3.941806   3.426956   2.176648
    13  H    2.261304   3.381495   4.637854   5.025058   4.378805
    14  H    3.373128   3.373200   4.705176   5.730057   5.729991
    15  N    2.334357   1.457503   2.598245   3.813701   4.211955
    16  C    3.755172   2.593686   3.234419   4.622218   5.334232
    17  O    4.590970   3.362948   3.730313   5.103931   5.953195
    18  O    4.496069   3.421266   3.998851   5.345638   6.062699
    19  C    5.841531   4.654796   5.005626   6.375385   7.253994
    20  C    6.172243   4.801043   4.728353   6.032369   7.131247
    21  H    7.152980   5.783992   5.621258   6.862543   8.007541
    22  H    6.333133   4.947794   4.857877   6.165743   7.282908
    23  H    5.555096   4.154293   3.883515   5.116922   6.265638
    24  C    6.464101   5.373665   5.893373   7.297976   8.103710
    25  H    6.601231   5.435818   5.822233   7.212217   8.093362
    26  H    7.465834   6.393658   6.895875   8.297096   9.117430
    27  H    6.036917   5.127701   5.877854   7.264360   7.907578
    28  C    6.839957   5.755038   6.095863   7.389303   8.230305
    29  H    6.916476   5.999089   6.546672   7.833360   8.529462
    30  H    7.808863   6.660942   6.910801   8.213703   9.134165
    31  H    6.739351   5.660787   5.861094   7.053958   7.912982
                    6          7          8          9         10
     6  C    0.000000
     7  C    2.598408   0.000000
     8  C    3.681062   1.407174   0.000000
     9  H    3.941830   4.498266   4.242229   0.000000
    10  H    3.427025   5.310567   5.690411   2.494268   0.000000
    11  H    2.165214   4.742728   5.690225   4.328000   2.481935
    12  H    1.098889   2.939781   4.241962   5.040557   4.327915
    13  H    3.013244   1.087546   2.238061   5.544514   6.121551
    14  H    4.705052   2.221701   1.089595   5.159359   6.757928
    15  N    3.645371   2.299760   1.407683   2.939563   4.742606
    16  C    4.996176   3.727011   2.576407   3.047790   5.351448
    17  O    5.755222   4.641092   3.516305   3.305130   5.695793
    18  O    5.720431   4.364831   3.185339   3.737788   6.025193
    19  C    7.039167   5.739591   4.495579   4.477837   6.906032
    20  C    7.207253   6.402673   5.303869   3.917152   6.339411
    21  H    8.150089   7.396252   6.295919   4.750006   7.070127
    22  H    7.370878   6.562757   5.448069   4.018069   6.455179
    23  H    6.467302   5.990402   5.065464   3.022728   5.364350
    24  C    7.753371   6.131375   4.761445   5.424026   7.892524
    25  H    7.841159   6.390968   5.068400   5.265160   7.736348
    26  H    8.762038   7.075436   5.690940   6.386137   8.862843
    27  H    7.383105   5.494447   4.090368   5.598900   7.981257
    28  C    8.001766   6.672140   5.475700   5.590491   7.885637
    29  H    8.133668   6.538130   5.322183   6.193570   8.437775
    30  H    8.967737   7.659821   6.424005   6.294864   8.634598
    31  H    7.787817   6.727324   5.677084   5.351751   7.479818
                   11         12         13         14         15
    11  H    0.000000
    12  H    2.494070   0.000000
    13  H    5.159603   2.950313   0.000000
    14  H    6.757803   5.159278   2.691625   0.000000
    15  N    5.310308   4.498121   3.352231   2.221997   0.000000
    16  C    6.426212   5.915943   4.737676   2.935805   1.470000
    17  O    7.014962   6.706634   5.639341   3.784065   2.450094
    18  O    7.135092   6.605892   5.302363   3.334788   2.348579
    19  C    8.311150   7.967310   6.674889   4.501028   3.623409
    20  C    8.125082   8.234173   7.432855   5.547079   4.130365
    21  H    8.965956   9.181893   8.416198   6.493390   5.150985
    22  H    8.276282   8.404194   7.596973   5.677671   4.267429
    23  H    7.219647   7.520222   7.050376   5.504152   3.774892
    24  C    9.189688   8.626963   6.984529   4.501399   4.130563
    25  H    9.161468   8.753934   7.287283   4.915480   4.304770
    26  H   10.200893   9.622407   7.884238   5.325929   5.140580
    27  H    9.006977   8.169427   6.253512   3.653097   3.747378
    28  C    9.254097   8.882081   7.526757   5.376195   4.773020
    29  H    9.567308   8.925628   7.282730   5.045623   4.888789
    30  H   10.152243   9.875876   8.526620   6.283154   5.679057
    31  H    8.882799   8.675604   7.596249   5.732593   4.897181
                   16         17         18         19         20
    16  C    0.000000
    17  O    1.230269   0.000000
    18  O    1.356986   2.214392   0.000000
    19  C    2.291790   2.443565   1.430000   0.000000
    20  C    2.781619   2.506384   2.425826   1.540000   0.000000
    21  H    3.818774   3.547827   3.262430   2.148263   1.070000
    22  H    2.879455   2.142536   2.965595   2.148263   1.070000
    23  H    2.673403   2.639488   2.442553   2.148263   1.070000
    24  C    2.781913   2.506904   2.425826   1.540000   2.514809
    25  H    2.913142   2.177430   2.985845   2.148263   2.488101
    26  H    3.814581   3.556309   3.250875   2.148263   3.068462
    27  H    2.643860   2.601061   2.433270   2.148263   3.345971
    28  C    3.642901   3.976569   2.425826   1.540000   2.514809
    29  H    3.926130   4.414044   2.662256   2.148263   3.444298
    30  H    4.426778   4.515015   3.344871   2.148263   2.737011
    31  H    3.931292   4.414859   2.669923   2.148263   2.728958
                   21         22         23         24         25
    21  H    0.000000
    22  H    1.747303   0.000000
    23  H    1.747303   1.747303   0.000000
    24  C    3.047240   2.497876   3.358061   0.000000
    25  H    3.077044   2.016585   3.348786   1.070000   0.000000
    26  H    3.263148   3.129415   4.027762   1.070000   1.747303
    27  H    4.008537   3.327071   4.012911   1.070000   1.747303
    28  C    2.497876   3.358061   3.047240   2.514810   3.345972
    29  H    3.542380   4.193967   3.945923   2.737012   3.744438
    30  H    2.351719   3.455495   3.476141   2.728958   3.425483
    31  H    2.617293   3.743111   2.920759   3.444299   4.181685
                   26         27         28         29         30
    26  H    0.000000
    27  H    1.747303   0.000000
    28  C    2.488102   3.068463   0.000000
    29  H    2.604143   2.958417   1.070000   0.000000
    30  H    2.341163   3.489552   1.070000   1.747303   0.000000
    31  H    3.533638   3.966743   1.070000   1.747303   1.747303
                   31
    31  H    0.000000
 Stoichiometry    C13H15NO2
 Framework group  C1[X(C13H15NO2)]
 Deg. of freedom    87
 Full point group                 C1      NOp   1
 Largest Abelian subgroup         C1      NOp   1
 Largest concise Abelian subgroup C1      NOp   1
                         Standard orientation:                         
 ---------------------------------------------------------------------
 Center     Atomic      Atomic             Coordinates (Angstroms)
 Number     Number       Type             X           Y           Z
 ---------------------------------------------------------------------
      1          6           0        2.743120    0.785983    0.149671
      2          6           0        1.622338   -0.093725   -0.095764
      3          6           0        1.807478   -1.460097   -0.159499
      4          6           0        3.104769   -1.968828    0.019386
      5          6           0        4.182263   -1.123090    0.255460
      6          6           0        4.011379    0.269743    0.323376
      7          6           0        2.223302    2.147787    0.157689
      8          6           0        0.836702    2.089897   -0.074966
      9          1           0        0.965805   -2.141734   -0.345411
     10          1           0        3.264708   -3.056313   -0.029245
     11          1           0        5.188654   -1.546135    0.392414
     12          1           0        4.873315    0.925083    0.510870
     13          1           0        2.824781    3.039508    0.318349
     14          1           0        0.171449    2.951358   -0.125388
     15          7           0        0.440588    0.748328   -0.232623
     16          6           0       -0.917979    0.249764   -0.490754
     17          8           0       -1.419212   -0.182718   -1.527714
     18          8           0       -1.701496    0.293768    0.616303
     19          6           0       -3.012208   -0.198339    0.325157
     20          6           0       -2.916797   -1.656412   -0.161176
     21          1           0       -3.750704   -2.212571    0.213239
     22          1           0       -2.925806   -1.676893   -1.230943
     23          1           0       -2.007590   -2.092848    0.196267
     24          6           0       -3.653531    0.668583   -0.774275
     25          1           0       -3.558604    0.174668   -1.718699
     26          1           0       -4.689587    0.817413   -0.552155
     27          1           0       -3.157996    1.616008   -0.815861
     28          6           0       -3.877829   -0.137150    1.597381
     29          1           0       -3.936981    0.874716    1.940205
     30          1           0       -4.861106   -0.497264    1.377417
     31          1           0       -3.436839   -0.746388    2.358471
 ---------------------------------------------------------------------
 Rotational constants (GHZ):      1.2255916      0.2989598      0.2675748
 Standard basis: 6-311+G(d,p) (5D, 7F)
 There are   458 symmetry adapted cartesian basis functions of A   symmetry.
 There are   442 symmetry adapted basis functions of A   symmetry.
   442 basis functions,   696 primitive gaussians,   458 cartesian basis functions
    58 alpha electrons       58 beta electrons
       nuclear repulsion energy      1082.6267532355 Hartrees.
 NAtoms=   31 NActive=   31 NUniq=   31 SFac= 1.00D+00 NAtFMM=   60 NAOKFM=F Big=F
 Integral buffers will be    131072 words long.
 Raffenetti 2 integral format.
 Two-electron integral symmetry is turned on.
 One-electron integrals computed using PRISM.
 NBasis=   442 RedAO= T EigKep=  1.29D-06  NBF=   442
 NBsUse=   441 1.00D-06 EigRej=  6.60D-07 NBFU=   441
 ExpMin= 4.38D-02 ExpMax= 8.59D+03 ExpMxC= 1.30D+03 IAcc=2 IRadAn=         4 AccDes= 0.00D+00
 Harris functional with IExCor=  402 and IRadAn=       4 diagonalized for initial guess.
 HarFok:  IExCor=  402 AccDes= 0.00D+00 IRadAn=         4 IDoV= 1 UseB2=F ITyADJ=14
 ICtDFT=  3500011 ScaDFX=  1.000000  1.000000  1.000000  1.000000
 FoFCou: FMM=F IPFlag=           0 FMFlag=      100000 FMFlg1=           0
         NFxFlg=           0 DoJE=T BraDBF=F KetDBF=T FulRan=T
         wScrn=  0.000000 ICntrl=     500 IOpCl=  0 I1Cent=   200000004 NGrid=           0
         NMat0=    1 NMatS0=      1 NMatT0=    0 NMatD0=    1 NMtDS0=    0 NMtDT0=    0
 Petite list used in FoFCou.
 Requested convergence on RMS density matrix=1.00D-08 within 128 cycles.
 Requested convergence on MAX density matrix=1.00D-06.
 Requested convergence on             energy=1.00D-06.
 No special actions if energy rises.
 SCF Done:  E(RB3LYP) =  -709.778779496     A.U. after   15 cycles
            NFock= 15  Conv=0.61D-08     -V/T= 2.0045

 **********************************************************************

            Population analysis using the SCF density.

 **********************************************************************

 Orbital symmetries:
       Occupied  (A) (A) (A) (A) (A) (A) (A) (A) (A) (A) (A) (A)
                 (A) (A) (A) (A) (A) (A) (A) (A) (A) (A) (A) (A)
                 (A) (A) (A) (A) (A) (A) (A) (A) (A) (A) (A) (A)
                 (A) (A) (A) (A) (A) (A) (A) (A) (A) (A) (A) (A)
                 (A) (A) (A) (A) (A) (A) (A) (A) (A) (A)
       Virtual   (A) (A) (A) (A) (A) (A) (A) (A) (A) (A) (A) (A)
                 (A) (A) (A) (A) (A) (A) (A) (A) (A) (A) (A) (A)
                 (A) (A) (A) (A) (A) (A) (A) (A) (A) (A) (A) (A)
                 (A) (A) (A) (A) (A) (A) (A) (A) (A) (A) (A) (A)
                 (A) (A) (A) (A) (A) (A) (A) (A) (A) (A) (A) (A)
                 (A) (A) (A) (A) (A) (A) (A) (A) (A) (A) (A) (A)
                 (A) (A) (A) (A) (A) (A) (A) (A) (A) (A) (A) (A)
                 (A) (A) (A) (A) (A) (A) (A) (A) (A) (A) (A) (A)
                 (A) (A) (A) (A) (A) (A) (A) (A) (A) (A) (A) (A)
                 (A) (A) (A) (A) (A) (A) (A) (A) (A) (A) (A) (A)
                 (A) (A) (A) (A) (A) (A) (A) (A) (A) (A) (A) (A)
                 (A) (A) (A) (A) (A) (A) (A) (A) (A) (A) (A) (A)
                 (A) (A) (A) (A) (A) (A) (A) (A) (A) (A) (A) (A)
                 (A) (A) (A) (A) (A) (A) (A) (A) (A) (A) (A) (A)
                 (A) (A) (A) (A) (A) (A) (A) (A) (A) (A) (A) (A)
                 (A) (A) (A) (A) (A) (A) (A) (A) (A) (A) (A) (A)
                 (A) (A) (A) (A) (A) (A) (A) (A) (A) (A) (A) (A)
                 (A) (A) (A) (A) (A) (A) (A) (A) (A) (A) (A) (A)
                 (A) (A) (A) (A) (A) (A) (A) (A) (A) (A) (A) (A)
                 (A) (A) (A) (A) (A) (A) (A) (A) (A) (A) (A) (A)
                 (A) (A) (A) (A) (A) (A) (A) (A) (A) (A) (A) (A)
                 (A) (A) (A) (A) (A) (A) (A) (A) (A) (A) (A) (A)
                 (A) (A) (A) (A) (A) (A) (A) (A) (A) (A) (A) (A)
                 (A) (A) (A) (A) (A) (A) (A) (A) (A) (A) (A) (A)
                 (A) (A) (A) (A) (A) (A) (A) (A) (A) (A) (A) (A)
                 (A) (A) (A) (A) (A) (A) (A) (A) (A) (A) (A) (A)
                 (A) (A) (A) (A) (A) (A) (A) (A) (A) (A) (A) (A)
                 (A) (A) (A) (A) (A) (A) (A) (A) (A) (A) (A) (A)
                 (A) (A) (A) (A) (A) (A) (A) (A) (A) (A) (A) (A)
                 (A) (A) (A) (A) (A) (A) (A) (A) (A) (A) (A) (A)
                 (A) (A) (A) (A) (A) (A) (A) (A) (A) (A) (A) (A)
                 (A) (A) (A) (A) (A) (A) (A) (A) (A) (A) (A)
 The electronic state is 1-A.
 Alpha  occ. eigenvalues --  -19.18981 -19.13945 -14.38897 -10.36388 -10.24845
 Alpha  occ. eigenvalues --  -10.22992 -10.22731 -10.18706 -10.18664 -10.18038
 Alpha  occ. eigenvalues --  -10.18009 -10.17989 -10.17638 -10.16737 -10.15700
 Alpha  occ. eigenvalues --  -10.15632  -1.14348  -1.03959  -0.98078  -0.85792
 Alpha  occ. eigenvalues --   -0.82539  -0.79186  -0.75266  -0.72922  -0.71058
 Alpha  occ. eigenvalues --   -0.70753  -0.66970  -0.62844  -0.60667  -0.59319
 Alpha  occ. eigenvalues --   -0.55732  -0.53586  -0.50494  -0.50042  -0.48843
 Alpha  occ. eigenvalues --   -0.48426  -0.47699  -0.45875  -0.45393  -0.44103
 Alpha  occ. eigenvalues --   -0.43616  -0.42465  -0.42078  -0.41156  -0.40482
 Alpha  occ. eigenvalues --   -0.39340  -0.38142  -0.37987  -0.36704  -0.35570
 Alpha  occ. eigenvalues --   -0.35030  -0.34678  -0.34447  -0.31592  -0.30604
 Alpha  occ. eigenvalues --   -0.28936  -0.24265  -0.21830
 Alpha virt. eigenvalues --   -0.04343  -0.03311  -0.00303  -0.00269   0.00863
 Alpha virt. eigenvalues --    0.01151   0.02231   0.02653   0.02858   0.03063
 Alpha virt. eigenvalues --    0.03906   0.04282   0.04715   0.05163   0.05649
 Alpha virt. eigenvalues --    0.05814   0.06232   0.06667   0.06909   0.07397
 Alpha virt. eigenvalues --    0.07884   0.08357   0.09002   0.09551   0.09931
 Alpha virt. eigenvalues --    0.10327   0.10830   0.11216   0.11417   0.12238
 Alpha virt. eigenvalues --    0.12329   0.12575   0.12973   0.14098   0.14614
 Alpha virt. eigenvalues --    0.15478   0.15575   0.15731   0.16272   0.16581
 Alpha virt. eigenvalues --    0.16774   0.17040   0.17334   0.17590   0.18089
 Alpha virt. eigenvalues --    0.18449   0.18515   0.18886   0.19073   0.19466
 Alpha virt. eigenvalues --    0.19792   0.20273   0.20963   0.21289   0.21491
 Alpha virt. eigenvalues --    0.21694   0.22833   0.23205   0.23496   0.23827
 Alpha virt. eigenvalues --    0.24148   0.24555   0.24700   0.25144   0.25250
 Alpha virt. eigenvalues --    0.25706   0.26228   0.26432   0.27165   0.27452
 Alpha virt. eigenvalues --    0.27583   0.28122   0.28467   0.28764   0.29629
 Alpha virt. eigenvalues --    0.29827   0.30355   0.31036   0.31690   0.32320
 Alpha virt. eigenvalues --    0.32703   0.32800   0.33917   0.34630   0.34784
 Alpha virt. eigenvalues --    0.35332   0.36057   0.37038   0.38573   0.38879
 Alpha virt. eigenvalues --    0.39256   0.40210   0.40405   0.41112   0.42434
 Alpha virt. eigenvalues --    0.44031   0.44090   0.45838   0.46615   0.47800
 Alpha virt. eigenvalues --    0.48248   0.48953   0.49553   0.50194   0.51740
 Alpha virt. eigenvalues --    0.52584   0.53281   0.54506   0.54672   0.55413
 Alpha virt. eigenvalues --    0.55747   0.56518   0.57781   0.57847   0.58542
 Alpha virt. eigenvalues --    0.59502   0.60468   0.60862   0.61972   0.62239
 Alpha virt. eigenvalues --    0.63199   0.64305   0.64817   0.65602   0.66395
 Alpha virt. eigenvalues --    0.66512   0.67137   0.68705   0.69053   0.69799
 Alpha virt. eigenvalues --    0.70193   0.70560   0.71113   0.71764   0.72062
 Alpha virt. eigenvalues --    0.73045   0.73868   0.74412   0.74765   0.76468
 Alpha virt. eigenvalues --    0.76838   0.77314   0.77936   0.80045   0.80943
 Alpha virt. eigenvalues --    0.81842   0.81915   0.82891   0.84601   0.85002
 Alpha virt. eigenvalues --    0.87165   0.87416   0.88372   0.89252   0.90324
 Alpha virt. eigenvalues --    0.91050   0.93537   0.95051   0.96405   0.96649
 Alpha virt. eigenvalues --    0.98234   0.99147   0.99491   1.01000   1.01712
 Alpha virt. eigenvalues --    1.03010   1.04195   1.05278   1.06678   1.07193
 Alpha virt. eigenvalues --    1.08277   1.10963   1.12195   1.12451   1.13989
 Alpha virt. eigenvalues --    1.14869   1.15253   1.18207   1.19081   1.20612
 Alpha virt. eigenvalues --    1.24875   1.26655   1.28115   1.29069   1.31152
 Alpha virt. eigenvalues --    1.32815   1.36300   1.37403   1.39759   1.41211
 Alpha virt. eigenvalues --    1.42296   1.42789   1.45189   1.45476   1.46620
 Alpha virt. eigenvalues --    1.48425   1.49130   1.49330   1.50660   1.50682
 Alpha virt. eigenvalues --    1.53166   1.54194   1.56113   1.56358   1.56534
 Alpha virt. eigenvalues --    1.57373   1.58846   1.59141   1.59889   1.61039
 Alpha virt. eigenvalues --    1.61751   1.62873   1.63766   1.64949   1.65806
 Alpha virt. eigenvalues --    1.66483   1.67678   1.67744   1.69925   1.70468
 Alpha virt. eigenvalues --    1.70915   1.72531   1.73474   1.74441   1.75971
 Alpha virt. eigenvalues --    1.76695   1.78178   1.78477   1.80508   1.81775
 Alpha virt. eigenvalues --    1.82537   1.83101   1.83891   1.84862   1.85648
 Alpha virt. eigenvalues --    1.88012   1.89188   1.90262   1.90474   1.91994
 Alpha virt. eigenvalues --    1.92338   1.92769   1.94035   1.96394   1.97204
 Alpha virt. eigenvalues --    1.98358   1.99154   2.01787   2.03246   2.04658
 Alpha virt. eigenvalues --    2.06123   2.06809   2.10859   2.13132   2.14138
 Alpha virt. eigenvalues --    2.15647   2.16342   2.22038   2.22226   2.25556
 Alpha virt. eigenvalues --    2.26363   2.30064   2.31892   2.33480   2.34100
 Alpha virt. eigenvalues --    2.35000   2.36069   2.38544   2.41373   2.42373
 Alpha virt. eigenvalues --    2.43547   2.45963   2.46624   2.49536   2.51620
 Alpha virt. eigenvalues --    2.53127   2.53741   2.54253   2.54476   2.55839
 Alpha virt. eigenvalues --    2.57560   2.59279   2.59921   2.61508   2.62379
 Alpha virt. eigenvalues --    2.63719   2.64269   2.64830   2.65673   2.66912
 Alpha virt. eigenvalues --    2.68514   2.70000   2.70448   2.71302   2.71725
 Alpha virt. eigenvalues --    2.72665   2.73743   2.74981   2.75423   2.75952
 Alpha virt. eigenvalues --    2.77243   2.77425   2.80700   2.80951   2.82198
 Alpha virt. eigenvalues --    2.83012   2.84375   2.87153   2.90095   2.91528
 Alpha virt. eigenvalues --    2.93359   2.94208   2.95457   2.97497   2.98934
 Alpha virt. eigenvalues --    3.00123   3.00618   3.03306   3.06278   3.08375
 Alpha virt. eigenvalues --    3.10070   3.13137   3.16076   3.18589   3.21327
 Alpha virt. eigenvalues --    3.24913   3.25643   3.31447   3.33339   3.36785
 Alpha virt. eigenvalues --    3.38773   3.41935   3.43929   3.46984   3.51572
 Alpha virt. eigenvalues --    3.56825   3.58051   3.62520   3.65065   3.68912
 Alpha virt. eigenvalues --    3.81052   3.82437   3.84840   3.86609   3.86754
 Alpha virt. eigenvalues --    3.88221   3.89557   3.91138   3.96563   4.01252
 Alpha virt. eigenvalues --    4.04557   4.10146   4.12068   4.18546   4.22668
 Alpha virt. eigenvalues --    4.30164   4.34652   4.37421   4.83702   4.89262
 Alpha virt. eigenvalues --    5.04685   5.07207   5.15606   5.27086   5.43269
 Alpha virt. eigenvalues --    5.63717   5.87039  23.57049  23.74181  23.77248
 Alpha virt. eigenvalues --   23.82528  23.88472  23.94669  23.99439  24.02232
 Alpha virt. eigenvalues --   24.03254  24.04358  24.06803  24.11026  24.17754
 Alpha virt. eigenvalues --   35.52679  49.92071  49.98478
          Condensed to atoms (all electrons):
               1          2          3          4          5          6
     1  C   21.625134  -7.695368  -2.363955  -2.101214   1.093020  -3.541788
     2  C   -7.695368  16.521811  -0.795224   0.536749  -1.107029   0.302235
     3  C   -2.363955  -0.795224   9.415816  -1.242167  -0.174551   0.856041
     4  C   -2.101214   0.536749  -1.242167   9.088162   0.180281  -0.089998
     5  C    1.093020  -1.107029  -0.174551   0.180281   5.714216   0.161056
     6  C   -3.541788   0.302235   0.856041  -0.089998   0.161056   7.835671
     7  C   -2.558117   0.765593  -0.361234   0.505635  -0.287997   0.617694
     8  C    0.957441  -0.558499   0.090660  -0.070884   0.012013  -0.296862
     9  H   -0.068788   0.058102   0.408865  -0.058048  -0.004577  -0.002272
    10  H   -0.028893   0.077927  -0.076928   0.369786   0.002553  -0.001981
    11  H    0.000601   0.008131  -0.022733  -0.009685   0.378724  -0.022140
    12  H   -0.062404   0.003878   0.007902  -0.021222   0.012823   0.411765
    13  H    0.049081  -0.071456  -0.003950   0.001649   0.010934   0.001856
    14  H   -0.024518   0.005889   0.008669  -0.000076   0.000159   0.013357
    15  N   -0.130412  -0.121678   0.066918  -0.006143   0.027087   0.004409
    16  C    0.138766  -1.235327   0.027975  -0.762060   0.035004   0.123761
    17  O   -0.001952   0.164377  -0.111779   0.004494  -0.003343  -0.000404
    18  O   -0.013709   0.003521  -0.046904  -0.000501  -0.001513   0.001257
    19  C   -0.299880   0.095844   0.215645   0.102616  -0.005646  -0.011676
    20  C    0.068991   0.058106  -0.052882  -0.004280  -0.000066  -0.002195
    21  H   -0.000415  -0.001994  -0.000644  -0.000653  -0.000001   0.000023
    22  H    0.000847   0.003109  -0.000139   0.000435   0.000070  -0.000060
    23  H   -0.007890  -0.032334   0.030358   0.014075   0.000380   0.000049
    24  C    0.072514  -0.132675  -0.066267  -0.031155   0.002111   0.004687
    25  H   -0.000335  -0.000612   0.000608   0.000117  -0.000002   0.000003
    26  H    0.000143   0.002599  -0.000384   0.000007  -0.000002  -0.000016
    27  H    0.001266  -0.003260  -0.001104  -0.000147   0.000001   0.000220
    28  C   -0.038957  -0.022265   0.036240   0.007162  -0.000519  -0.001515
    29  H    0.000937   0.002137  -0.001634  -0.000144   0.000005  -0.000006
    30  H   -0.000171  -0.000432   0.000520   0.000044  -0.000002   0.000003
    31  H    0.000351  -0.000725  -0.000806  -0.000245   0.000019  -0.000012
               7          8          9         10         11         12
     1  C   -2.558117   0.957441  -0.068788  -0.028893   0.000601  -0.062404
     2  C    0.765593  -0.558499   0.058102   0.077927   0.008131   0.003878
     3  C   -0.361234   0.090660   0.408865  -0.076928  -0.022733   0.007902
     4  C    0.505635  -0.070884  -0.058048   0.369786  -0.009685  -0.021222
     5  C   -0.287997   0.012013  -0.004577   0.002553   0.378724   0.012823
     6  C    0.617694  -0.296862  -0.002272  -0.001981  -0.022140   0.411765
     7  C    8.759124  -0.842897   0.004139  -0.002017   0.010574  -0.024503
     8  C   -0.842897   6.098372  -0.006121  -0.000079   0.000269   0.008557
     9  H    0.004139  -0.006121   0.542315  -0.006871  -0.000284   0.000058
    10  H   -0.002017  -0.000079  -0.006871   0.543428  -0.008165  -0.000247
    11  H    0.010574   0.000269  -0.000284  -0.008165   0.545853  -0.007519
    12  H   -0.024503   0.008557   0.000058  -0.000247  -0.007519   0.545777
    13  H    0.370447  -0.018668   0.000016  -0.000002  -0.000005   0.001995
    14  H   -0.031288   0.413154  -0.000015   0.000000   0.000000  -0.000011
    15  N   -0.281220   0.285796  -0.026966  -0.000632   0.000797  -0.001264
    16  C   -0.380560  -0.146897   0.036135   0.005377   0.000908   0.002031
    17  O    0.025625   0.013380   0.001144   0.000004  -0.000002  -0.000005
    18  O    0.042310  -0.026355  -0.001286   0.000018  -0.000001  -0.000007
    19  C   -0.012005   0.053690   0.002493   0.000040   0.000009  -0.000004
    20  C   -0.003354  -0.007725  -0.001700  -0.000058  -0.000005  -0.000001
    21  H    0.000087   0.000114  -0.000012   0.000000   0.000000   0.000000
    22  H    0.000069   0.000570  -0.000064   0.000000   0.000000   0.000000
    23  H   -0.000407  -0.002129   0.000669  -0.000003   0.000000   0.000000
    24  C    0.008576  -0.039270  -0.000508   0.000024   0.000001   0.000005
    25  H   -0.000009  -0.000123   0.000004   0.000000   0.000000   0.000000
    26  H   -0.000261   0.000311   0.000001   0.000000   0.000000   0.000000
    27  H    0.003361  -0.000805   0.000001   0.000000   0.000000   0.000000
    28  C   -0.006060   0.008428   0.001036   0.000013   0.000000   0.000000
    29  H   -0.000140   0.000044   0.000001   0.000000   0.000000   0.000000
    30  H    0.000040  -0.000017   0.000000   0.000000   0.000000   0.000000
    31  H   -0.000160   0.000442   0.000002   0.000000   0.000000   0.000000
              13         14         15         16         17         18
     1  C    0.049081  -0.024518  -0.130412   0.138766  -0.001952  -0.013709
     2  C   -0.071456   0.005889  -0.121678  -1.235327   0.164377   0.003521
     3  C   -0.003950   0.008669   0.066918   0.027975  -0.111779  -0.046904
     4  C    0.001649  -0.000076  -0.006143  -0.762060   0.004494  -0.000501
     5  C    0.010934   0.000159   0.027087   0.035004  -0.003343  -0.001513
     6  C    0.001856   0.013357   0.004409   0.123761  -0.000404   0.001257
     7  C    0.370447  -0.031288  -0.281220  -0.380560   0.025625   0.042310
     8  C   -0.018668   0.413154   0.285796  -0.146897   0.013380  -0.026355
     9  H    0.000016  -0.000015  -0.026966   0.036135   0.001144  -0.001286
    10  H   -0.000002   0.000000  -0.000632   0.005377   0.000004   0.000018
    11  H   -0.000005   0.000000   0.000797   0.000908  -0.000002  -0.000001
    12  H    0.001995  -0.000011  -0.001264   0.002031  -0.000005  -0.000007
    13  H    0.534541  -0.003794   0.012495  -0.007684   0.000014   0.000003
    14  H   -0.003794   0.517059  -0.067288   0.031519  -0.000316   0.001319
    15  N    0.012495  -0.067288   7.036500   0.159880  -0.049633  -0.233938
    16  C   -0.007684   0.031519   0.159880   8.039592   0.372236   0.460957
    17  O    0.000014  -0.000316  -0.049633   0.372236   7.970954  -0.204301
    18  O    0.000003   0.001319  -0.233938   0.460957  -0.204301   8.133313
    19  C   -0.000249  -0.001110   0.160085  -0.867201   0.169311  -0.085836
    20  C    0.000002   0.000380  -0.081347   0.099881  -0.117655   0.037686
    21  H    0.000000   0.000000   0.000291   0.023375   0.005747   0.005154
    22  H    0.000000  -0.000001   0.001720  -0.023601  -0.029540   0.004148
    23  H    0.000000  -0.000007   0.001254  -0.033146  -0.016615  -0.003736
    24  C    0.000028  -0.000552  -0.017477   0.237027  -0.104617   0.017289
    25  H    0.000000   0.000017  -0.002209  -0.018753  -0.029031   0.005193
    26  H    0.000000   0.000002  -0.000097   0.022954   0.005695   0.002932
    27  H    0.000000   0.000059  -0.005266  -0.010893  -0.018677  -0.001271
    28  C   -0.000032   0.000837   0.012902  -0.098791   0.035980  -0.211163
    29  H    0.000000   0.000003  -0.001104   0.005496  -0.000036  -0.007867
    30  H    0.000000   0.000000   0.000399   0.002850   0.000138   0.017152
    31  H    0.000000   0.000001  -0.000500   0.003626  -0.000205  -0.006739
              19         20         21         22         23         24
     1  C   -0.299880   0.068991  -0.000415   0.000847  -0.007890   0.072514
     2  C    0.095844   0.058106  -0.001994   0.003109  -0.032334  -0.132675
     3  C    0.215645  -0.052882  -0.000644  -0.000139   0.030358  -0.066267
     4  C    0.102616  -0.004280  -0.000653   0.000435   0.014075  -0.031155
     5  C   -0.005646  -0.000066  -0.000001   0.000070   0.000380   0.002111
     6  C   -0.011676  -0.002195   0.000023  -0.000060   0.000049   0.004687
     7  C   -0.012005  -0.003354   0.000087   0.000069  -0.000407   0.008576
     8  C    0.053690  -0.007725   0.000114   0.000570  -0.002129  -0.039270
     9  H    0.002493  -0.001700  -0.000012  -0.000064   0.000669  -0.000508
    10  H    0.000040  -0.000058   0.000000   0.000000  -0.000003   0.000024
    11  H    0.000009  -0.000005   0.000000   0.000000   0.000000   0.000001
    12  H   -0.000004  -0.000001   0.000000   0.000000   0.000000   0.000005
    13  H   -0.000249   0.000002   0.000000   0.000000   0.000000   0.000028
    14  H   -0.001110   0.000380   0.000000  -0.000001  -0.000007  -0.000552
    15  N    0.160085  -0.081347   0.000291   0.001720   0.001254  -0.017477
    16  C   -0.867201   0.099881   0.023375  -0.023601  -0.033146   0.237027
    17  O    0.169311  -0.117655   0.005747  -0.029540  -0.016615  -0.104617
    18  O   -0.085836   0.037686   0.005154   0.004148  -0.003736   0.017289
    19  C    6.884873  -0.148408  -0.064721  -0.006227   0.029137  -0.317598
    20  C   -0.148408   5.754774   0.417926   0.427052   0.362625  -0.098960
    21  H   -0.064721   0.417926   0.538457  -0.027029  -0.023289   0.020077
    22  H   -0.006227   0.427052  -0.027029   0.501768  -0.022622  -0.023401
    23  H    0.029137   0.362625  -0.023289  -0.022622   0.525584  -0.005086
    24  C   -0.317598  -0.098960   0.020077  -0.023401  -0.005086   5.875638
    25  H   -0.017847  -0.017310   0.000486   0.001917   0.000759   0.433115
    26  H   -0.044767   0.019067   0.000123   0.000441  -0.000327   0.395979
    27  H   -0.005252  -0.004052  -0.000347   0.000850  -0.000794   0.395798
    28  C    0.525076  -0.366422  -0.030039   0.015364   0.030832  -0.334779
    29  H   -0.018425   0.022326   0.001220  -0.000511  -0.000629  -0.020275
    30  H   -0.024104  -0.017104  -0.000341   0.000323   0.000066  -0.009611
    31  H   -0.024174  -0.011319  -0.001137   0.000242   0.000912   0.018080
              25         26         27         28         29         30
     1  C   -0.000335   0.000143   0.001266  -0.038957   0.000937  -0.000171
     2  C   -0.000612   0.002599  -0.003260  -0.022265   0.002137  -0.000432
     3  C    0.000608  -0.000384  -0.001104   0.036240  -0.001634   0.000520
     4  C    0.000117   0.000007  -0.000147   0.007162  -0.000144   0.000044
     5  C   -0.000002  -0.000002   0.000001  -0.000519   0.000005  -0.000002
     6  C    0.000003  -0.000016   0.000220  -0.001515  -0.000006   0.000003
     7  C   -0.000009  -0.000261   0.003361  -0.006060  -0.000140   0.000040
     8  C   -0.000123   0.000311  -0.000805   0.008428   0.000044  -0.000017
     9  H    0.000004   0.000001   0.000001   0.001036   0.000001   0.000000
    10  H    0.000000   0.000000   0.000000   0.000013   0.000000   0.000000
    11  H    0.000000   0.000000   0.000000   0.000000   0.000000   0.000000
    12  H    0.000000   0.000000   0.000000   0.000000   0.000000   0.000000
    13  H    0.000000   0.000000   0.000000  -0.000032   0.000000   0.000000
    14  H    0.000017   0.000002   0.000059   0.000837   0.000003   0.000000
    15  N   -0.002209  -0.000097  -0.005266   0.012902  -0.001104   0.000399
    16  C   -0.018753   0.022954  -0.010893  -0.098791   0.005496   0.002850
    17  O   -0.029031   0.005695  -0.018677   0.035980  -0.000036   0.000138
    18  O    0.005193   0.002932  -0.001271  -0.211163  -0.007867   0.017152
    19  C   -0.017847  -0.044767  -0.005252   0.525076  -0.018425  -0.024104
    20  C   -0.017310   0.019067  -0.004052  -0.366422   0.022326  -0.017104
    21  H    0.000486   0.000123  -0.000347  -0.030039   0.001220  -0.000341
    22  H    0.001917   0.000441   0.000850   0.015364  -0.000511   0.000323
    23  H    0.000759  -0.000327  -0.000794   0.030832  -0.000629   0.000066
    24  C    0.433115   0.395979   0.395798  -0.334779  -0.020275  -0.009611
    25  H    0.503114  -0.026870  -0.024064   0.019849   0.000327   0.000267
    26  H   -0.026870   0.541082  -0.024311  -0.029534  -0.001429  -0.000401
    27  H   -0.024064  -0.024311   0.525509   0.016223   0.001252   0.000108
    28  C    0.019849  -0.029534   0.016223   5.698188   0.392390   0.412727
    29  H    0.000327  -0.001429   0.001252   0.392390   0.525663  -0.027807
    30  H    0.000267  -0.000401   0.000108   0.412727  -0.027807   0.521943
    31  H   -0.000484   0.001264  -0.000557   0.397993  -0.022898  -0.027897
              31
     1  C    0.000351
     2  C   -0.000725
     3  C   -0.000806
     4  C   -0.000245
     5  C    0.000019
     6  C   -0.000012
     7  C   -0.000160
     8  C    0.000442
     9  H    0.000002
    10  H    0.000000
    11  H    0.000000
    12  H    0.000000
    13  H    0.000000
    14  H    0.000001
    15  N   -0.000500
    16  C    0.003626
    17  O   -0.000205
    18  O   -0.006739
    19  C   -0.024174
    20  C   -0.011319
    21  H   -0.001137
    22  H    0.000242
    23  H    0.000912
    24  C    0.018080
    25  H   -0.000484
    26  H    0.001264
    27  H   -0.000557
    28  C    0.397993
    29  H   -0.022898
    30  H   -0.027897
    31  H    0.525158
 Mulliken charges:
               1
     1  C    0.929674
     2  C   -0.831131
     3  C    0.157065
     4  C   -0.412590
     5  C   -0.045207
     6  C   -0.363163
     7  C   -0.321043
     8  C    0.074087
     9  H    0.122530
    10  H    0.126704
    11  H    0.124670
    12  H    0.122396
    13  H    0.122775
    14  H    0.136551
    15  N    0.256642
    16  C   -0.244439
    17  O   -0.080990
    18  O    0.112875
    19  C   -0.283688
    20  C   -0.333972
    21  H    0.137542
    22  H    0.174269
    23  H    0.152314
    24  C   -0.278717
    25  H    0.171873
    26  H    0.135804
    27  H    0.156152
    28  C   -0.471162
    29  H    0.151103
    30  H    0.151307
    31  H    0.149767
 Sum of Mulliken charges =   0.00000
 Mulliken charges with hydrogens summed into heavy atoms:
               1
     1  C    0.929674
     2  C   -0.831131
     3  C    0.279595
     4  C   -0.285886
     5  C    0.079463
     6  C   -0.240766
     7  C   -0.198268
     8  C    0.210639
    15  N    0.256642
    16  C   -0.244439
    17  O   -0.080990
    18  O    0.112875
    19  C   -0.283688
    20  C    0.130153
    24  C    0.185111
    28  C   -0.018984
 Electronic spatial extent (au):  <R**2>=           4236.1630
 Charge=              0.0000 electrons
 Dipole moment (field-independent basis, Debye):
    X=             -1.4675    Y=              0.3634    Z=              1.1230  Tot=              1.8833
 Quadrupole moment (field-independent basis, Debye-Ang):
   XX=            -84.7633   YY=            -88.0374   ZZ=           -104.8853
   XY=              0.6134   XZ=             -0.7749   YZ=             -0.5067
 Traceless Quadrupole moment (field-independent basis, Debye-Ang):
   XX=              7.7987   YY=              4.5246   ZZ=            -12.3233
   XY=              0.6134   XZ=             -0.7749   YZ=             -0.5067
 Octapole moment (field-independent basis, Debye-Ang**2):
  XXX=            -25.2340  YYY=              8.5798  ZZZ=              1.7514  XYY=              2.8250
  XXY=             -1.8341  XXZ=             14.0741  XZZ=            -17.6135  YZZ=             -0.9761
  YYZ=             -1.0304  XYZ=              3.8307
 Hexadecapole moment (field-independent basis, Debye-Ang**3):
 XXXX=          -4201.3364 YYYY=           -914.9569 ZZZZ=           -417.8955 XXXY=             25.8852
 XXXZ=             24.9991 YYYX=            -12.2913 YYYZ=              7.4093 ZZZX=             -8.5080
 ZZZY=              0.3527 XXYY=           -872.0099 XXZZ=           -871.9447 YYZZ=           -250.0729
 XXYZ=              5.7671 YYXZ=              5.5301 ZZXY=              6.3941
 N-N= 1.082626753235D+03 E-N=-3.817648425681D+03  KE= 7.065930315471D+02
 There are a total of      256804 grid points.
 ElSum from          density=      115.9999055005
 ElSum from atomic densities=      116.0001383218

 Hirshfeld populations at iteration   1 (CX, CA, CB, DipXYZ):
               1          2          3          4          5          6
     1  C    0.000000   3.010556   3.010556   0.016852   0.009873   0.002378
     2  C    0.000000   2.978186   2.978186  -0.086433   0.030465  -0.014166
     3  C    0.000000   3.029955   3.029955  -0.040189  -0.035382  -0.013369
     4  C    0.000000   3.027022   3.027022   0.005897  -0.053298  -0.005231
     5  C    0.000000   3.028604   3.028604   0.048388  -0.021381   0.005468
     6  C    0.000000   3.025305   3.025305   0.046053   0.047282   0.009954
     7  C    0.000001   3.042880   3.042880   0.082043   0.039829   0.015125
     8  C    0.000001   3.000475   3.000475  -0.118612  -0.005817  -0.020925
     9  H    0.000001   0.475585   0.475585  -0.111283  -0.107373  -0.026081
    10  H    0.000002   0.475861   0.475861   0.024583  -0.158468  -0.007435
    11  H    0.000002   0.477073   0.477073   0.145337  -0.060986   0.019585
    12  H    0.000002   0.474591   0.474591   0.126711   0.093551   0.027090
    13  H    0.000003   0.473895   0.473895   0.100030   0.135187   0.026202
    14  H    0.000003   0.467010   0.467010  -0.096734   0.145551  -0.006884
    15  N    0.000000   3.530811   3.530811  -0.042342  -0.030218  -0.011327
    16  C    0.000000   2.857034   2.857034   0.015051   0.018854   0.058484
    17  O    0.000005   4.109463   4.109463  -0.086329  -0.006686   0.085798
    18  O    0.000000   4.062487   4.062487  -0.077498  -0.053343  -0.108354
    19  C    0.000000   2.951859   2.951859   0.066441   0.029042   0.032574
    20  C    0.000000   3.057754   3.057754  -0.030625  -0.011290   0.013069
    21  H    0.000000   0.482468   0.482468  -0.116574  -0.079397   0.046001
    22  H    0.000000   0.483524   0.483524  -0.022102  -0.021946  -0.145370
    23  H    0.000000   0.483410   0.483410   0.116979  -0.073621   0.049703
    24  C    0.000000   3.057507   3.057507  -0.033087  -0.003018   0.009675
    25  H    0.000000   0.482898   0.482898  -0.013020  -0.065392  -0.134110
    26  H    0.000001   0.482671   0.482671  -0.144661   0.018849   0.024687
    27  H    0.000000   0.483626   0.483626   0.054884   0.137461  -0.010951
    28  C    0.000000   3.049762   3.049762  -0.014144  -0.005153   0.000402
    29  H    0.000001   0.480396   0.480396  -0.012094   0.141897   0.051130
    30  H    0.000000   0.477237   0.477237  -0.144716  -0.051675  -0.026527
    31  H    0.000001   0.480051   0.480051   0.058829  -0.086637   0.110179
       Tot   0.000026  57.999953  57.999953  -0.282365  -0.083240   0.056779

 Dip from Atomic Chgs             -0.294912   0.225683   0.385258
         Total Dipole             -0.577277   0.142442   0.442037

 Hirshfeld charges, spin densities, dipoles, and CM5 charges using IRadAn=      4:
              Q-H        S-H        Dx         Dy         Dz        Q-CM5   
     1  C   -0.021112   0.000000   0.016852   0.009873   0.002378  -0.021194
     2  C    0.043627   0.000000  -0.086433   0.030465  -0.014166   0.095849
     3  C   -0.059910   0.000000  -0.040189  -0.035382  -0.013369  -0.106806
     4  C   -0.054044   0.000000   0.005897  -0.053298  -0.005231  -0.107252
     5  C   -0.057207   0.000000   0.048388  -0.021381   0.005468  -0.110532
     6  C   -0.050610   0.000000   0.046053   0.047282   0.009954  -0.101044
     7  C   -0.085759   0.000000   0.082043   0.039829   0.015125  -0.130258
     8  C   -0.000949   0.000000  -0.118612  -0.005817  -0.020925   0.012038
     9  H    0.048830   0.000000  -0.111283  -0.107373  -0.026081   0.105171
    10  H    0.048279   0.000000   0.024583  -0.158468  -0.007435   0.101975
    11  H    0.045854   0.000000   0.145337  -0.060986   0.019585   0.099539
    12  H    0.050818   0.000000   0.126711   0.093551   0.027090   0.105016
    13  H    0.052211   0.000000   0.100030   0.135187   0.026202   0.106872
    14  H    0.065981   0.000000  -0.096734   0.145551  -0.006884   0.127357
    15  N   -0.061622   0.000000  -0.042342  -0.030218  -0.011327  -0.269753
    16  C    0.285932   0.000000   0.015051   0.018854   0.058484   0.396146
    17  O   -0.218925   0.000000  -0.086329  -0.006686   0.085798  -0.280487
    18  O   -0.124974   0.000000  -0.077498  -0.053343  -0.108354  -0.192607
    19  C    0.096282   0.000000   0.066441   0.029042   0.032574   0.088084
    20  C   -0.115508   0.000000  -0.030625  -0.011290   0.013069  -0.266618
    21  H    0.035065   0.000000  -0.116574  -0.079397   0.046001   0.091495
    22  H    0.032951   0.000000  -0.022102  -0.021946  -0.145370   0.099048
    23  H    0.033181   0.000000   0.116979  -0.073621   0.049703   0.095529
    24  C   -0.115014   0.000000  -0.033087  -0.003018   0.009675  -0.266071
    25  H    0.034205   0.000000  -0.013020  -0.065392  -0.134110   0.099488
    26  H    0.034659   0.000000  -0.144661   0.018849   0.024687   0.091117
    27  H    0.032748   0.000000   0.054884   0.137461  -0.010951   0.095483
    28  C   -0.099524   0.000000  -0.014144  -0.005153   0.000402  -0.252328
    29  H    0.039209   0.000000  -0.012094   0.141897   0.051130   0.096413
    30  H    0.045525   0.000000  -0.144716  -0.051675  -0.026527   0.101348
    31  H    0.039898   0.000000   0.058829  -0.086637   0.110179   0.097071
       Tot   0.000094   0.000000  -0.282365  -0.083240   0.056779   0.000094
 Hirshfeld charges with hydrogens summed into heavy atoms:
              Q-H       Q-CM5   
     1  C   -0.021112  -0.021194
     2  C    0.043627   0.095849
     3  C   -0.011080  -0.001635
     4  C   -0.005766  -0.005276
     5  C   -0.011354  -0.010993
     6  C    0.000208   0.003972
     7  C   -0.033548  -0.023385
     8  C    0.065032   0.139395
    15  N   -0.061622  -0.269753
    16  C    0.285932   0.396146
    17  O   -0.218925  -0.280487
    18  O   -0.124974  -0.192607
    19  C    0.096282   0.088084
    20  C   -0.014311   0.019455
    24  C   -0.013402   0.020018
    28  C    0.025107   0.042505
 
 EQQ= 0.000000000000E+00 EQD= 0.000000000000E+00 EDD= 0.668360854669E-02
 EQQ+QD+DD= 0.668360854669E-02
 
          MBS Condensed to atoms (all electrons):
               1          2          3          4          5          6
     1  C    4.782853   0.469732  -0.027534  -0.012016  -0.032630   0.505082
     2  C    0.469732   4.763372   0.509554  -0.030964  -0.012153  -0.026607
     3  C   -0.027534   0.509554   4.826811   0.503342  -0.030574  -0.009222
     4  C   -0.012016  -0.030964   0.503342   4.828957   0.507021  -0.030481
     5  C   -0.032630  -0.012153  -0.030574   0.507021   4.831322   0.505194
     6  C    0.505082  -0.026607  -0.009222  -0.030481   0.505194   4.822190
     7  C    0.448979  -0.047642   0.001035   0.000060   0.000795  -0.020105
     8  C   -0.044997  -0.054443   0.000951  -0.000007  -0.000013   0.000849
     9  H    0.001351  -0.025316   0.384270  -0.022992   0.001364   0.000023
    10  H    0.000059   0.001408  -0.025528   0.387921  -0.025220   0.001461
    11  H    0.001509   0.000074   0.001476  -0.025498   0.387144  -0.025693
    12  H   -0.025160   0.001410   0.000012   0.001379  -0.024058   0.386292
    13  H   -0.019772   0.001492  -0.000018  -0.000001  -0.000005  -0.001091
    14  H    0.001412   0.001503  -0.000016   0.000000   0.000000  -0.000015
    15  N   -0.041468   0.371889  -0.017094   0.000440   0.000019   0.000640
    16  C    0.000911  -0.020403  -0.000871   0.000000   0.000000  -0.000006
    17  O   -0.000001  -0.000045  -0.000011   0.000000   0.000000   0.000000
    18  O   -0.000003   0.000198   0.000009   0.000000   0.000000   0.000000
    19  C    0.000000  -0.000014   0.000000   0.000000   0.000000   0.000000
    20  C    0.000000   0.000004  -0.000008   0.000000   0.000000   0.000000
    21  H    0.000000   0.000000   0.000000   0.000000   0.000000   0.000000
    22  H    0.000000   0.000000   0.000000   0.000000   0.000000   0.000000
    23  H    0.000000   0.000002  -0.000004   0.000000   0.000000   0.000000
    24  C    0.000000  -0.000001   0.000000   0.000000   0.000000   0.000000
    25  H    0.000000   0.000000   0.000000   0.000000   0.000000   0.000000
    26  H    0.000000   0.000000   0.000000   0.000000   0.000000   0.000000
    27  H    0.000000   0.000001   0.000000   0.000000   0.000000   0.000000
    28  C    0.000000   0.000000   0.000000   0.000000   0.000000   0.000000
    29  H    0.000000   0.000000   0.000000   0.000000   0.000000   0.000000
    30  H    0.000000   0.000000   0.000000   0.000000   0.000000   0.000000
    31  H    0.000000   0.000000   0.000000   0.000000   0.000000   0.000000
               7          8          9         10         11         12
     1  C    0.448979  -0.044997   0.001351   0.000059   0.001509  -0.025160
     2  C   -0.047642  -0.054443  -0.025316   0.001408   0.000074   0.001410
     3  C    0.001035   0.000951   0.384270  -0.025528   0.001476   0.000012
     4  C    0.000060  -0.000007  -0.022992   0.387921  -0.025498   0.001379
     5  C    0.000795  -0.000013   0.001364  -0.025220   0.387144  -0.024058
     6  C   -0.020105   0.000849   0.000023   0.001461  -0.025693   0.386292
     7  C    4.914449   0.541814  -0.000029   0.000000  -0.000016  -0.002435
     8  C    0.541814   4.825940   0.000000   0.000000   0.000000   0.000004
     9  H   -0.000029   0.000000   0.557861  -0.003795  -0.000035   0.000002
    10  H    0.000000   0.000000  -0.003795   0.562632  -0.003879  -0.000037
    11  H   -0.000016   0.000000  -0.000035  -0.003879   0.567491  -0.003630
    12  H   -0.002435   0.000004   0.000002  -0.000037  -0.003630   0.560085
    13  H    0.388158  -0.018855   0.000001   0.000000   0.000000   0.000624
    14  H   -0.020859   0.386839   0.000000   0.000000   0.000000   0.000000
    15  N   -0.044540   0.390295  -0.001570  -0.000007   0.000000  -0.000012
    16  C    0.000964  -0.021391   0.000688   0.000000   0.000000   0.000000
    17  O   -0.000001   0.000117   0.000063   0.000000   0.000000   0.000000
    18  O   -0.000002   0.000102  -0.000014   0.000000   0.000000   0.000000
    19  C    0.000000  -0.000009   0.000000   0.000000   0.000000   0.000000
    20  C    0.000000  -0.000001  -0.000017   0.000000   0.000000   0.000000
    21  H    0.000000   0.000000   0.000000   0.000000   0.000000   0.000000
    22  H    0.000000   0.000000   0.000001   0.000000   0.000000   0.000000
    23  H    0.000000   0.000001   0.000262   0.000000   0.000000   0.000000
    24  C    0.000000   0.000002   0.000000   0.000000   0.000000   0.000000
    25  H    0.000000   0.000000   0.000000   0.000000   0.000000   0.000000
    26  H    0.000000   0.000000   0.000000   0.000000   0.000000   0.000000
    27  H    0.000000   0.000006   0.000000   0.000000   0.000000   0.000000
    28  C    0.000000   0.000000   0.000000   0.000000   0.000000   0.000000
    29  H    0.000000   0.000000   0.000000   0.000000   0.000000   0.000000
    30  H    0.000000   0.000000   0.000000   0.000000   0.000000   0.000000
    31  H    0.000000   0.000000   0.000000   0.000000   0.000000   0.000000
              13         14         15         16         17         18
     1  C   -0.019772   0.001412  -0.041468   0.000911  -0.000001  -0.000003
     2  C    0.001492   0.001503   0.371889  -0.020403  -0.000045   0.000198
     3  C   -0.000018  -0.000016  -0.017094  -0.000871  -0.000011   0.000009
     4  C   -0.000001   0.000000   0.000440   0.000000   0.000000   0.000000
     5  C   -0.000005   0.000000   0.000019   0.000000   0.000000   0.000000
     6  C   -0.001091  -0.000015   0.000640  -0.000006   0.000000   0.000000
     7  C    0.388158  -0.020859  -0.044540   0.000964  -0.000001  -0.000002
     8  C   -0.018855   0.386839   0.390295  -0.021391   0.000117   0.000102
     9  H    0.000001   0.000000  -0.001570   0.000688   0.000063  -0.000014
    10  H    0.000000   0.000000  -0.000007   0.000000   0.000000   0.000000
    11  H    0.000000   0.000000   0.000000   0.000000   0.000000   0.000000
    12  H    0.000624   0.000000  -0.000012   0.000000   0.000000   0.000000
    13  H    0.531352  -0.001341   0.000963  -0.000013   0.000000   0.000000
    14  H   -0.001341   0.511105  -0.016961  -0.001055   0.000013   0.000089
    15  N    0.000963  -0.016961   6.328724   0.330596  -0.017310  -0.027704
    16  C   -0.000013  -0.001055   0.330596   4.440008   0.449496   0.302439
    17  O    0.000000   0.000013  -0.017310   0.449496   8.031497  -0.029978
    18  O    0.000000   0.000089  -0.027704   0.302439  -0.029978   7.916470
    19  C    0.000000  -0.000005   0.001114  -0.038411  -0.003746   0.252815
    20  C    0.000000   0.000000  -0.000013  -0.006015  -0.005396  -0.021575
    21  H    0.000000   0.000000   0.000001   0.000160   0.000325   0.000663
    22  H    0.000000   0.000000   0.000000  -0.000685   0.000184   0.000519
    23  H    0.000000   0.000000  -0.000066   0.000122  -0.001109  -0.001860
    24  C    0.000000  -0.000002  -0.000012  -0.006146  -0.004514  -0.021565
    25  H    0.000000   0.000000   0.000000  -0.000540  -0.000252   0.000570
    26  H    0.000000   0.000000   0.000001   0.000165   0.000316   0.000651
    27  H    0.000000   0.000033  -0.000073   0.000185  -0.001313  -0.002002
    28  C    0.000000   0.000000  -0.000006   0.001628   0.000045  -0.019398
    29  H    0.000000   0.000000   0.000000  -0.000006   0.000000  -0.000329
    30  H    0.000000   0.000000   0.000000  -0.000043   0.000002   0.000689
    31  H    0.000000   0.000000   0.000000  -0.000008   0.000000  -0.000305
              19         20         21         22         23         24
     1  C    0.000000   0.000000   0.000000   0.000000   0.000000   0.000000
     2  C   -0.000014   0.000004   0.000000   0.000000   0.000002  -0.000001
     3  C    0.000000  -0.000008   0.000000   0.000000  -0.000004   0.000000
     4  C    0.000000   0.000000   0.000000   0.000000   0.000000   0.000000
     5  C    0.000000   0.000000   0.000000   0.000000   0.000000   0.000000
     6  C    0.000000   0.000000   0.000000   0.000000   0.000000   0.000000
     7  C    0.000000   0.000000   0.000000   0.000000   0.000000   0.000000
     8  C   -0.000009  -0.000001   0.000000   0.000000   0.000001   0.000002
     9  H    0.000000  -0.000017   0.000000   0.000001   0.000262   0.000000
    10  H    0.000000   0.000000   0.000000   0.000000   0.000000   0.000000
    11  H    0.000000   0.000000   0.000000   0.000000   0.000000   0.000000
    12  H    0.000000   0.000000   0.000000   0.000000   0.000000   0.000000
    13  H    0.000000   0.000000   0.000000   0.000000   0.000000   0.000000
    14  H   -0.000005   0.000000   0.000000   0.000000   0.000000  -0.000002
    15  N    0.001114  -0.000013   0.000001   0.000000  -0.000066  -0.000012
    16  C   -0.038411  -0.006015   0.000160  -0.000685   0.000122  -0.006146
    17  O   -0.003746  -0.005396   0.000325   0.000184  -0.001109  -0.004514
    18  O    0.252815  -0.021575   0.000663   0.000519  -0.001860  -0.021565
    19  C    4.675593   0.364059  -0.021970  -0.022705  -0.021829   0.363529
    20  C    0.364059   4.874766   0.376152   0.384639   0.377404  -0.030127
    21  H   -0.021970   0.376152   0.603615  -0.022357  -0.020651   0.000781
    22  H   -0.022705   0.384639  -0.022357   0.567124  -0.021511  -0.007930
    23  H   -0.021829   0.377404  -0.020651  -0.021511   0.592776   0.001630
    24  C    0.363529  -0.030127   0.000781  -0.007930   0.001630   4.872229
    25  H   -0.022680  -0.007984   0.000081   0.001167   0.000236   0.384948
    26  H   -0.022165   0.000875  -0.000047   0.000087  -0.000034   0.376526
    27  H   -0.021739   0.001609  -0.000031   0.000241  -0.000100   0.377717
    28  C    0.367492  -0.028781  -0.005619   0.001503   0.000131  -0.028758
    29  H   -0.022549   0.001697   0.000156  -0.000068  -0.000065  -0.002496
    30  H   -0.019315  -0.002607   0.000275   0.000021   0.000093  -0.002744
    31  H   -0.022570  -0.002566   0.000233   0.000021   0.000269   0.001701
              25         26         27         28         29         30
     1  C    0.000000   0.000000   0.000000   0.000000   0.000000   0.000000
     2  C    0.000000   0.000000   0.000001   0.000000   0.000000   0.000000
     3  C    0.000000   0.000000   0.000000   0.000000   0.000000   0.000000
     4  C    0.000000   0.000000   0.000000   0.000000   0.000000   0.000000
     5  C    0.000000   0.000000   0.000000   0.000000   0.000000   0.000000
     6  C    0.000000   0.000000   0.000000   0.000000   0.000000   0.000000
     7  C    0.000000   0.000000   0.000000   0.000000   0.000000   0.000000
     8  C    0.000000   0.000000   0.000006   0.000000   0.000000   0.000000
     9  H    0.000000   0.000000   0.000000   0.000000   0.000000   0.000000
    10  H    0.000000   0.000000   0.000000   0.000000   0.000000   0.000000
    11  H    0.000000   0.000000   0.000000   0.000000   0.000000   0.000000
    12  H    0.000000   0.000000   0.000000   0.000000   0.000000   0.000000
    13  H    0.000000   0.000000   0.000000   0.000000   0.000000   0.000000
    14  H    0.000000   0.000000   0.000033   0.000000   0.000000   0.000000
    15  N    0.000000   0.000001  -0.000073  -0.000006   0.000000   0.000000
    16  C   -0.000540   0.000165   0.000185   0.001628  -0.000006  -0.000043
    17  O   -0.000252   0.000316  -0.001313   0.000045   0.000000   0.000002
    18  O    0.000570   0.000651  -0.002002  -0.019398  -0.000329   0.000689
    19  C   -0.022680  -0.022165  -0.021739   0.367492  -0.022549  -0.019315
    20  C   -0.007984   0.000875   0.001609  -0.028781   0.001697  -0.002607
    21  H    0.000081  -0.000047  -0.000031  -0.005619   0.000156   0.000275
    22  H    0.001167   0.000087   0.000241   0.001503  -0.000068   0.000021
    23  H    0.000236  -0.000034  -0.000100   0.000131  -0.000065   0.000093
    24  C    0.384948   0.376526   0.377717  -0.028758  -0.002496  -0.002744
    25  H    0.568257  -0.022530  -0.021398   0.001495   0.000020   0.000024
    26  H   -0.022530   0.604076  -0.020795  -0.005869   0.000266   0.000290
    27  H   -0.021398  -0.020795   0.593118   0.000259   0.000235   0.000094
    28  C    0.001495  -0.005869   0.000259   4.843742   0.378861   0.382810
    29  H    0.000020   0.000266   0.000235   0.378861   0.589345  -0.021748
    30  H    0.000024   0.000290   0.000094   0.382810  -0.021748   0.581389
    31  H   -0.000068   0.000161  -0.000066   0.379074  -0.022614  -0.021770
              31
     1  C    0.000000
     2  C    0.000000
     3  C    0.000000
     4  C    0.000000
     5  C    0.000000
     6  C    0.000000
     7  C    0.000000
     8  C    0.000000
     9  H    0.000000
    10  H    0.000000
    11  H    0.000000
    12  H    0.000000
    13  H    0.000000
    14  H    0.000000
    15  N    0.000000
    16  C   -0.000008
    17  O    0.000000
    18  O   -0.000305
    19  C   -0.022570
    20  C   -0.002566
    21  H    0.000233
    22  H    0.000021
    23  H    0.000269
    24  C    0.001701
    25  H   -0.000068
    26  H    0.000161
    27  H   -0.000066
    28  C    0.379074
    29  H   -0.022614
    30  H   -0.021770
    31  H    0.588033
 MBS Mulliken charges:
               1
     1  C   -0.008305
     2  C    0.096949
     3  C   -0.116580
     4  C   -0.107159
     5  C   -0.108207
     6  C   -0.108513
     7  C   -0.160624
     8  C   -0.007205
     9  H    0.107881
    10  H    0.104984
    11  H    0.101055
[...]
 ,0.00003439,-0.00000882,0.00000013,-0.00000151,-0.00000391,-0.00000664
 ,-0.00000139,-0.00000182,-0.00000631,0.00000150,-0.00001208,-0.0000147
 7,0.00000463,-0.00000622,-0.00002098,-0.00000935,0.00037063,-0.0007725
 2,0.00018393,-0.00185322,0.00254930,-0.00185104,-0.00000517,-0.0020070
 0,0.00151222,0.00100236,-0.00033482,0.00231495,-0.02664543,-0.00031728
 ,-0.01842474,-0.00133670,0.00025607,0.00141177,0.00003234,0.00003955,-
 0.00007023,0.00082904,-0.00036847,-0.00027132,0.00015759,0.00011499,0.
 00037560,-0.12542061,0.00847118,-0.13978546,0.13897022,-0.00965554,0.1
 5237397,0.00006087,-0.00006888,0.00004122,0.00023292,0.00013530,0.0001
 1138,-0.00007964,-0.00000836,-0.00004132,0.00001737,0.00003109,0.00000
 964,-0.00000032,-0.00004231,0.00000938,-0.00003242,-0.00000254,-0.0000
 1175,-0.00006385,-0.00013207,-0.00001734,-0.00010932,0.00017183,-0.000
 14482,0.00003460,-0.00000108,0.00000938,-0.00000837,-0.00000077,-0.000
 00614,-0.00000446,-0.00000815,-0.00000367,-0.00000254,-0.00000873,0.00
 000106,-0.00000819,-0.00001052,0.00000584,-0.00001536,0.00001379,0.000
 00511,0.00001633,-0.00078944,-0.00004466,-0.00009736,0.00148842,-0.000
 58460,-0.00078450,-0.00094730,0.00092768,0.00022457,-0.00048708,0.0013
 8534,-0.00502370,-0.00680774,-0.00167543,0.00008283,-0.00007540,-0.000
 35550,-0.00002861,0.00036692,0.00055977,-0.00011311,-0.00019584,0.0000
 0683,0.00009286,0.00025042,-0.00009560,-0.09564843,-0.10310965,-0.0030
 5123,-0.00978169,-0.02390135,0.00065231,0.10049119,0.00004333,-0.00007
 833,0.00004737,0.00027169,0.00012822,0.00011630,-0.00007062,-0.0000258
 0,-0.00003496,0.00001212,0.00003717,0.00000713,-0.00000295,-0.00004256
 ,0.00000824,-0.00002752,0.00000282,-0.00001533,-0.00007092,-0.00011155
 ,-0.00002324,-0.00014370,0.00022377,-0.00014770,0.00002986,0.00000346,
 0.00000769,-0.00000961,-0.00000011,-0.00000738,-0.00000696,-0.00000908
 ,-0.00000497,-0.00000245,-0.00001181,0.00000129,-0.00000544,-0.0000124
 3,0.00000018,-0.00002121,0.00002482,-0.00003268,-0.00019570,-0.0006362
 7,-0.00006818,0.00196562,0.00098880,0.00086541,-0.00035052,0.00019689,
 -0.00017731,-0.00199135,-0.00025362,0.00212404,-0.00316028,-0.00948162
 ,-0.00251209,0.00029732,-0.00016174,-0.00055731,0.00011986,0.00065469,
 -0.00003203,0.00005553,-0.00004646,-0.00000286,0.00007498,0.00022889,0
 .00014785,-0.10288052,-0.25715502,-0.00657827,0.00112147,0.00278962,-0
 .00055012,0.11398324,0.27972518,0.00000849,0.00007364,-0.00000716,-0.0
 0018765,-0.00000724,-0.00004403,0.00002860,0.00002978,0.00002148,0.000
 00446,-0.00002151,0.00000493,0.00000421,0.00002133,-0.00000091,0.00001
 448,-0.00000322,-0.00000325,0.00004461,0.00004694,0.00005040,0.0000648
 6,-0.00013629,0.00004175,0.00001071,-0.00000550,-0.00000177,0.00000427
 ,0.00000163,0.00000250,0.00000195,0.00000052,0.00000216,0.00000396,0.0
 0000513,-0.00000061,0.00000250,0.00000584,-0.00000103,0.00005124,-0.00
 004083,0.00001392,0.00041637,0.00042585,0.00032110,-0.00336870,0.00009
 793,-0.00301815,0.00032823,-0.00119322,0.00132091,0.00468807,0.0061629
 7,-0.00474516,0.01202541,0.02561663,0.00361986,-0.00027596,-0.00028791
 ,0.00085037,0.00040477,-0.00033471,-0.00043211,0.00002772,-0.00004097,
 0.00000025,-0.00034186,-0.00004754,0.00018238,-0.00416539,-0.00967118,
 -0.04795566,-0.00613327,-0.01772224,-0.00029258,0.00351028,0.00803675,
 0.05066159,-0.00000491,0.00000774,-0.00000150,-0.00003588,-0.00002932,
 -0.00000168,0.00000505,0.00001366,-0.00001839,0.00000426,-0.00000846,-
 0.00000822,0.00000541,-0.00000041,-0.00000251,-0.00000182,-0.00000927,
 0.00000131,0.00001729,-0.00001432,-0.00001374,0.00002782,-0.00006518,0
 .00002010,-0.00001606,0.00001173,0.00001802,0.00000053,0.00000227,0.00
 000647,0.00000117,0.00000238,0.00000384,-0.00000193,0.00000329,0.00000
 203,-0.00000323,0.00000060,0.00000518,-0.00001173,0.00000356,0.0000430
 3,0.00003568,-0.00012024,0.00004858,-0.00108783,0.00028632,-0.00004587
 ,0.00014937,-0.00074979,0.00003494,0.00075479,-0.00011645,-0.00083905,
 -0.00709989,0.00550684,0.00372085,0.00033912,-0.00143498,0.00163466,0.
 00006978,0.00018782,-0.00007079,0.00037021,-0.00010116,-0.00019102,-0.
 00006790,0.00049867,0.00046826,-0.15745016,0.11168474,0.06529447,-0.01
 519272,0.01734546,0.01135916,0.01033836,-0.00940360,-0.00669355,0.1679
 2638,-0.00001797,0.00003349,-0.00003048,-0.00010938,-0.00006235,-0.000
 05151,0.00002601,0.00000974,0.00001895,-0.00000727,-0.00001336,0.00000
 104,0.00000151,0.00001739,-0.00000321,0.00000775,-0.00000034,0.0000118
 5,0.00002912,0.00005021,0.00000866,0.00005735,-0.00008724,0.00007668,-
 0.00001034,-0.00000594,-0.00000782,0.00000550,-0.00000080,0.00000118,0
 .00000441,0.00000390,0.00000095,0.00000141,0.00000524,-0.00000163,0.00
 000430,0.00000506,-0.00000238,0.00001104,-0.00001269,0.00000754,0.0000
 4651,0.00029404,0.00000354,-0.00048664,-0.00039217,-0.00025517,0.00014
 565,0.00009365,0.00001242,0.00036611,0.00193024,-0.00012473,-0.0071500
 3,0.00436750,0.00503427,-0.00064651,-0.00001365,0.00149414,-0.00001256
 ,0.00028371,0.00024964,0.00000257,-0.00012290,0.00005880,-0.00019500,0
 .00057539,0.00027617,0.11221081,-0.15868711,-0.06766795,-0.00027099,-0
 .00085786,0.00029732,0.01941640,-0.01781070,-0.01090052,-0.12280837,0.
 16994756,0.00001349,-0.00001910,0.00001279,0.00002892,0.00003673,-0.00
 000390,-0.00000861,-0.00000578,0.00000307,-0.00000641,-0.00000122,-0.0
 0000783,-0.00000666,-0.00000356,-0.00000123,-0.00000258,0.00000709,-0.
 00000511,-0.00001884,-0.00000077,-0.00000094,-0.00000114,0.00001110,0.
 00000808,0.00000447,0.00000504,-0.00000071,-0.00000296,-0.00000033,-0.
 00000173,-0.00000213,-0.00000126,-0.00000123,0.00000075,-0.00000134,0.
 00000049,0.00000086,0.00000075,-0.00000121,0.00002027,0.00001790,-0.00
 003415,0.00005343,-0.00009906,0.00001090,0.00069349,0.00029104,0.00039
 380,-0.00014871,-0.00006220,-0.00013074,-0.00188831,-0.00096021,0.0022
 5638,0.02042263,-0.02256678,-0.01363257,0.00046603,0.00329983,-0.00533
 450,-0.00031115,0.00007120,0.00015051,0.00003718,0.00008474,0.00004677
 ,0.00150761,-0.00108585,-0.00076516,0.06377571,-0.06423484,-0.08635306
 ,-0.01099142,0.01366527,0.00847823,-0.00027877,-0.00029614,-0.00100481
 ,-0.07359377,0.07189504,0.09470357,-0.00001963,-0.00004040,-0.00001617
 ,0.00005299,-0.00004467,0.00003566,0.00001359,-0.00000779,0.00000287,-
 0.00001248,-0.00000397,-0.00001264,-0.00000740,0.00000606,-0.00000575,
 0.00000761,0.00000560,0.00000429,-0.00002669,0.00001962,0.00001602,-0.
 00003872,0.00005265,0.00004199,-0.00000680,0.00000126,0.00000388,-0.00
 000522,-0.00000099,-0.00000139,-0.00000417,-0.00000187,-0.00000225,-0.
 00000028,-0.00000569,-0.00000172,0.00000471,-0.00000133,-0.00000654,0.
 00012632,0.00003419,-0.00009908,-0.00038363,-0.00016543,-0.00018542,0.
 00000099,-0.00143527,0.00059136,0.00014274,0.00029488,-0.00037035,-0.0
 2059102,-0.01270380,-0.01237658,-0.14443153,0.00914552,-0.04741664,-0.
 02786073,0.00847703,-0.01271276,0.00033025,-0.00121068,-0.00059455,-0.
 00193112,0.00222269,0.00183441,0.00090082,-0.00084069,-0.00114844,0.00
 698107,0.00265856,-0.00086243,0.00007495,-0.00081573,0.00324659,-0.000
 11882,-0.00013934,-0.00009688,0.00024153,-0.00033924,0.00125043,0.5069
 0132,-0.00005207,-0.00020480,0.00001740,0.00073175,-0.00009366,0.00053
 307,-0.00014907,-0.00005279,-0.00008766,0.00002035,0.00008794,-0.00000
 528,0.00000026,-0.00008793,0.00002102,-0.00003030,-0.00005268,-0.00000
 844,-0.00010836,-0.00030107,-0.00001634,-0.00034803,0.00063863,-0.0004
 2292,0.00002600,0.00000066,0.00001477,-0.00002186,-0.00000654,-0.00001
 428,-0.00001142,-0.00001248,-0.00000499,-0.00001886,-0.00003094,-0.000
 00463,-0.00001424,-0.00003517,0.00000208,-0.00000059,0.00001674,0.0000
 5742,-0.00225739,-0.00180167,-0.00114660,0.00242399,-0.00522000,0.0028
 5320,-0.00156708,0.00178527,-0.00137721,-0.04275389,-0.01814029,-0.024
 85422,0.01931837,-0.06920826,0.01099374,0.01996291,-0.00031000,0.01174
 904,-0.00001854,0.00028829,0.00029741,0.00321954,-0.00237359,-0.001734
 16,-0.00090748,0.00032996,0.00035034,0.00863250,0.00144733,0.00655010,
 -0.00040393,-0.00030396,0.00200250,0.00013095,-0.00008058,0.00013333,-
 0.00034269,0.00003923,-0.00096737,0.00383233,0.58261458,-0.00001332,0.
 00002546,0.00000232,-0.00015078,-0.00000444,-0.00008648,0.00003675,0.0
 0001024,0.00003524,-0.00001847,-0.00002215,-0.00000037,-0.00000435,0.0
 0002502,-0.00001021,0.00001289,0.00001640,0.00000449,0.00004673,0.0000
 7227,-0.00004158,0.00013831,-0.00014516,0.00001308,-0.00000205,-0.0000
 0236,-0.00001369,0.00000363,0.00000019,-0.00000041,0.00000005,0.000001
 63,-0.00000064,0.00000144,0.00000449,0.00000410,-0.00000344,0.00001104
 ,0.00000959,-0.00009070,0.00008155,0.00017506,0.00031735,0.00030398,0.
 00008812,-0.00033727,0.00017591,-0.00062960,0.00007690,-0.00008682,0.0
 0064939,-0.00515565,-0.00403811,-0.00091998,-0.04986279,0.00394781,-0.
 11464164,0.00951176,0.00124379,0.00882694,-0.00031288,0.00029729,0.000
 13814,0.00311356,-0.00230274,-0.00107367,0.00111067,-0.00045196,0.0003
 3689,-0.02728079,0.00495916,-0.02776884,0.00162870,0.00159468,-0.00514
 929,-0.00072964,-0.00087978,0.00095645,-0.00099320,-0.00011606,0.00128
 747,-0.05290416,0.00249142,0.54469510,0.00000033,0.00004071,0.00000505
 ,0.00001675,-0.00003775,0.00001418,-0.00001209,0.00002013,-0.00001305,
 0.00002966,0.00001190,0.00000583,0.00001381,-0.00001028,0.00001610,-0.
 00000582,-0.00002399,-0.00000488,0.00004688,-0.00005004,0.00000849,-0.
 00007647,-0.00001775,-0.00007106,-0.00000628,0.00000258,0.00001035,0.0
 0000441,0.00000222,0.00000537,0.00000403,0.00000218,0.00000420,-0.0000
 0232,0.00000289,0.00000008,-0.00000421,-0.00000523,0.00000125,-0.00009
 949,-0.00009356,0.00007438,0.00000959,0.00001756,0.00005954,-0.0005914
 1,0.00009001,-0.00058062,0.00049708,-0.00045963,0.00033314,0.00246722,
 0.00057875,0.00045580,-0.01940891,0.01814666,0.01197288,-0.00402324,-0
 .00097422,-0.00452846,0.00031705,0.00007532,-0.00002227,-0.00104047,0.
 00130201,0.00072677,0.00029408,-0.00019924,-0.00010050,0.00077727,-0.0
 0039767,0.00174209,0.00009837,-0.00040314,0.00002122,0.00003771,-0.000
 10411,-0.00008701,0.00065436,-0.00020401,-0.00082693,-0.16190328,0.109
 51881,0.06892509,0.17656046,-0.00000288,0.00003484,-0.00000642,-0.0000
 4660,-0.00003668,-0.00004384,0.00000298,0.00001281,0.00001255,0.000005
 50,-0.00000186,0.00000554,0.00000452,0.00000535,0.00000663,0.00000207,
 -0.00000655,0.00000072,0.00003017,0.00001544,0.00001351,-0.00000271,-0
 .00005862,0.00000975,-0.00000263,-0.00000518,-0.00000818,0.00000461,-0
 .00000015,0.00000133,0.00000473,0.00000269,0.00000079,0.00000060,0.000
 00450,-0.00000119,0.00000008,0.00000152,-0.00000078,-0.00002543,-0.000
 02569,0.00001199,0.00011706,0.00017249,0.00001994,-0.00033120,0.000029
 79,-0.00011531,0.00002162,0.00001631,0.00013456,-0.00055525,0.00099199
 ,0.00038805,-0.00025583,-0.00312961,-0.00136839,0.00045331,0.00043548,
 0.00101482,-0.00020005,0.00046681,0.00004791,0.00023407,0.00021180,-0.
 00036434,0.00004150,-0.00002039,-0.00018774,-0.00013897,-0.00014822,-0
 .00035161,-0.00020665,0.00016009,0.00014027,0.00016809,-0.00007149,-0.
 00001627,-0.00007118,0.00032050,0.00059117,0.11164337,-0.15272654,-0.0
 6619926,-0.12252172,0.16295913,-0.00000502,-0.00000460,-0.00001039,-0.
 00007375,-0.00000084,-0.00005324,0.00002459,-0.00000233,0.00000942,-0.
 00001759,-0.00001646,-0.00000601,-0.00000804,0.00001491,-0.00000993,0.
 00000716,0.00001216,0.00000547,-0.00001039,0.00004091,-0.00001906,0.00
 008772,-0.00005224,0.00010518,-0.00000585,0.00000034,-0.00000092,-0.00
 000119,-0.00000045,-0.00000031,-0.00000107,0.00000043,-0.00000084,0.00
 000213,0.00000169,0.00000045,0.00000734,0.00000918,-0.00000042,0.00007
 244,0.00003852,0.00000366,0.00003891,0.00013568,0.00002442,-0.00017626
 ,0.00000547,-0.00013807,0.00002479,-0.00000464,-0.00003082,0.00127030,
 0.00101978,0.00052708,-0.01298651,0.01293772,0.00708450,-0.00267279,-0
 .00015042,-0.00195106,0.00004958,-0.00001435,-0.00019293,-0.00090498,0
 .00044165,0.00076622,-0.00035899,-0.00007787,0.00020319,-0.00040834,0.
 00058310,0.00133840,0.00012716,-0.00015815,0.00015546,0.00005256,0.000
 06553,-0.00004728,-0.00011583,-0.00017610,-0.00041083,0.07103413,-0.06
 791066,-0.09106399,-0.07446136,0.07349684,0.09608496,-0.00000642,-0.00
 006708,0.00001671,0.00026295,0.00000687,0.00019338,-0.00006260,-0.0000
 1783,-0.00003339,0.00001421,0.00003222,-0.00000132,-0.00000031,-0.0000
 3529,0.00000983,-0.00001327,-0.00001680,-0.00000624,-0.00004079,-0.000
 11359,-0.00000708,-0.00013484,0.00021195,-0.00016013,0.00001384,0.0000
 0183,0.00000913,-0.00000773,-0.00000173,-0.00000550,-0.00000428,-0.000
 00526,-0.00000185,-0.00000552,-0.00001078,-0.00000207,-0.00000483,-0.0
 0001384,-0.00000066,-0.00004772,-0.00000080,0.00001893,-0.00064853,-0.
 00059197,-0.00029601,0.00183932,-0.00086638,0.00106417,-0.00059674,0.0
 0056259,-0.00040900,-0.00650435,-0.00232438,-0.00447364,-0.00796077,-0
 .02325554,0.00149023,0.00071292,-0.00060030,0.00045642,-0.00067903,0.0
 0093079,-0.00008911,0.00031546,0.00025547,-0.00005047,-0.00008511,-0.0
 0002191,-0.00005847,0.00056240,-0.00038206,0.00094242,-0.00003576,0.00
 026421,0.00019984,0.00037547,0.00042437,-0.00041889,0.00004758,0.00013
 702,-0.00001825,-0.09371401,-0.09763714,-0.00946730,0.01055051,0.01971
 381,0.00076465,0.09982965,0.00001476,-0.00006038,0.00002300,0.00009967
 ,0.00009307,0.00004221,-0.00002395,-0.00001765,-0.00001433,-0.00000991
 ,0.00000183,-0.00000611,-0.00001277,-0.00000925,-0.00000717,-0.0000030
 1,0.00001687,-0.00000576,-0.00005428,-0.00002074,-0.00003051,0.0000049
 7,0.00009194,-0.00001321,0.00001279,0.00000139,0.00000854,-0.00000792,
 -0.00000033,-0.00000522,-0.00000739,-0.00000593,-0.00000365,0.,-0.0000
 0705,0.00000199,0.00000045,-0.00000091,0.00000074,0.00004494,0.0001055
 5,-0.00001218,-0.00007249,-0.00028782,0.00001499,0.00134647,0.00084780
 ,0.00087514,-0.00053807,0.00026449,-0.00048486,-0.00075526,0.00064437,
 -0.00049653,0.00187181,-0.00036788,0.00089289,0.00036766,-0.00030521,0
 .00002798,0.00048976,0.00051263,0.00020462,-0.00007787,0.00030683,-0.0
 0001795,0.00003681,0.00001487,-0.00009797,0.00009224,-0.00026743,0.000
 33115,0.00007776,0.00029190,-0.00015398,0.00030248,0.00062612,0.000061
 09,-0.00011873,-0.00000224,0.00004626,-0.10098430,-0.26262044,-0.01798
 468,-0.00876214,-0.01696828,-0.00059646,0.10969874,0.28532123,-0.00000
 294,-0.00003370,-0.00000118,0.00017116,-0.00002205,0.00010509,-0.00003
 190,-0.00001009,-0.00002793,0.00000878,0.00002308,0.00000553,0.0000044
 3,-0.00002277,0.00000627,-0.00000956,-0.00001531,-0.00000138,-0.000021
 32,-0.00007158,0.00001122,-0.00011034,0.00013018,-0.00008503,0.0000064
 9,0.00000094,0.00000430,-0.00000401,-0.00000092,-0.00000175,-0.0000013
 4,-0.00000217,-0.00000020,-0.00000466,-0.00000548,-0.00000070,-0.00000
 408,-0.00000915,0.00000027,0.00000792,-0.00004388,-0.00005871,-0.00042
 029,-0.00034481,-0.00022503,0.00053113,-0.00065812,0.00113295,-0.00014
 430,0.00027771,-0.00036858,-0.00484892,-0.00158228,-0.00222101,-0.0045
 4433,-0.01651343,-0.00123178,0.00069987,-0.00026072,0.00018390,0.00000
 485,0.00015972,0.00035567,0.00013577,0.00001301,-0.00016874,0.00006114
 ,0.00016403,0.00005408,0.00035276,-0.00037896,0.00029614,0.00013860,0.
 00017538,0.00019716,-0.00037734,0.00049574,-0.00081200,-0.00009079,-0.
 00007922,-0.00006150,-0.00866392,-0.01566737,-0.04844102,-0.00630003,-
 0.01125337,-0.00169073,0.01117402,0.01844350,0.04898193,-0.00000580,0.
 00001897,-0.00000773,-0.00007835,-0.00002006,-0.00004048,0.00001433,0.
 00000961,0.00001196,-0.00000548,-0.00001008,0.00000081,0.00000061,0.00
 001014,-0.00000389,0.00000481,0.00000049,0.00000311,0.00000023,0.00002
 644,0.00000995,0.00006748,-0.00007255,0.00004452,-0.00000188,-0.000002
 03,-0.00000783,0.00000251,0.00000008,0.00000070,0.00000187,0.00000169,
 0.00000056,0.00000138,0.00000352,-0.00000011,0.00000326,0.00000726,0.0
 0000251,0.00003765,-0.00001130,0.00001185,0.00010396,0.00015246,-0.000
 00879,-0.00049144,0.00005873,-0.00031214,0.00015687,-0.00015372,0.0002
 0895,0.00168422,0.00144400,0.00111648,0.00623428,0.00903517,-0.0259124
 8,0.00164244,-0.00026279,-0.00073891,-0.00003320,0.00004986,0.00011053
 ,0.00014460,-0.00027260,0.00012368,-0.00048727,0.00004608,0.00033173,-
 0.00444422,-0.00019190,-0.00234188,0.00056476,0.00033615,-0.00159912,-
 0.00008441,0.00018743,0.00012395,-0.00001463,-0.00021514,-0.00016864,-
 0.06472339,-0.02117482,0.06240296,-0.00520559,-0.00808698,0.01864452,-
 0.00397168,-0.00303322,0.01228316,0.06888206,0.00000735,0.00003957,-0.
 00001372,-0.00003405,-0.00003576,0.00000453,0.00000611,0.00001221,-0.0
 0001383,0.00001513,0.00000664,0.00001096,0.00001467,-0.00000365,0.0000
 0551,-0.00000573,-0.00001361,0.00000391,0.00003180,-0.00000602,0.00003
 404,-0.00006185,-0.00003642,-0.00001705,-0.00000622,-0.00000287,0.0000
 0109,0.00000444,0.00000088,0.00000415,0.00000442,0.00000323,0.00000357
 ,-0.00000041,0.00000419,-0.00000151,-0.00000203,-0.00000298,-0.0000019
 1,-0.00001414,-0.00007466,-0.00005129,0.00008445,0.00012579,0.00004358
 ,-0.00030300,0.00001873,-0.00029938,0.00021279,-0.00011512,0.00007194,
 0.00027884,0.00049691,-0.00065405,-0.00159600,-0.00258815,0.00086465,-
 0.00035475,-0.00022461,0.00038774,0.00001441,-0.00006291,0.00017239,0.
 00002247,0.00002987,-0.00024907,0.00055597,0.00015362,-0.00014439,0.00
 070715,0.00012636,0.00009952,-0.00020127,0.00050454,0.00026655,0.00013
 831,0.00035874,-0.00029022,-0.00016093,0.00009249,0.00028264,-0.019652
 57,-0.07358524,0.07697119,0.00445270,0.00735774,-0.01963836,-0.0062772
 0,-0.00819932,0.02709208,0.02211912,0.07561979,0.00001561,0.00002273,-
 0.00000892,0.00005295,-0.00002267,0.00004083,-0.00002069,0.00001536,-0
 .00001638,0.00001969,0.00001993,0.00002063,0.00001561,-0.00001616,0.00
 001231,-0.00001368,-0.00002126,0.00000188,0.00000831,-0.00005263,0.000
 04905,-0.00012051,0.00002710,-0.00006110,0.00001064,-0.00000090,-0.000
 00762,0.00000563,0.00000124,0.00000057,0.00000456,0.00000027,0.0000007
 8,-0.00000067,-0.00000009,-0.00000293,-0.00000263,-0.00000913,-0.00000
 340,-0.00000193,-0.00012313,-0.00008446,0.00000435,-0.00009387,-0.0000
 2317,-0.00052798,0.00012237,-0.00022719,0.00031372,-0.00037623,0.00044
 125,0.00085526,0.00030800,0.00180600,0.00602095,0.00666828,-0.01909817
 ,0.00136993,-0.00066200,0.00054863,-0.00008581,-0.00007338,0.00001541,
 -0.00010046,-0.00029094,0.00023920,-0.00053351,0.00017850,0.00089703,-
 0.00475690,-0.00034651,-0.00122135,0.00041839,0.00057293,-0.00113169,0
 .00013003,-0.00000318,0.00031645,0.00001902,-0.00003142,0.00039916,0.0
 5941604,0.07615529,-0.26738095,0.00261434,0.00402031,-0.01068159,-0.00
 084033,-0.00104352,0.00406276,-0.06428993,-0.08494526,0.29109697\\-0.0
 0000175,-0.00002463,-0.00000548,-0.00002187,0.00002358,0.00000825,0.00
 002680,0.00000480,0.00001359,-0.00001070,-0.00002770,0.00000631,-0.000
 00685,0.00001130,-0.00001136,0.00002045,0.00000359,0.00000564,-0.00000
 157,-0.00000050,0.00000720,-0.00001298,0.00002008,0.00000110,-0.000004
 57,-0.00000661,-0.00000211,0.00000451,-0.00000094,0.00000148,0.0000052
 6,-0.00000622,0.00000503,-0.00000082,-0.00000167,0.00000258,0.00000175
 ,0.00000128,-0.00000069,0.00000282,0.00000080,-0.00000190,0.00003073,-
 0.00001235,-0.00001177,0.00001671,0.00001553,0.00000645,-0.00000501,-0
 .00001558,0.00000379,-0.00001509,0.00004205,-0.00000681,-0.00001441,-0
 .00006994,-0.00000627,0.00000868,0.00000198,0.00000472,-0.00000381,0.0
 0000727,-0.00000274,-0.00000236,0.00000152,-0.00000556,-0.00000045,-0.
 00000026,-0.00000422,0.00000717,-0.00000635,0.00000731,-0.00000597,0.0
 0000435,-0.00000305,-0.00000488,0.00000856,-0.00000448,-0.00000482,0.0
 0000396,0.00000115,-0.00000548,0.00000711,-0.00000349,-0.00000130,0.00
 000552,-0.00000351,0.00000032,0.00000516,-0.00000030,-0.00000051,0.000
 00432,-0.00000086\\\@


 TO ERR IS HUMAN - AND TO BLAME IT ON A COMPUTER IS EVEN MORE SO.
 Job cpu time:       0 days  4 hours 33 minutes 12.6 seconds.
 File lengths (MBytes):  RWF=    625 Int=      0 D2E=      0 Chk=     17 Scr=      1
 Normal termination of Gaussian 09 at Tue Jan 10 17:51:29 2023.
