 Entering Gaussian System, Link 0=g09
 Initial command:
 /cm/shared/apps/gaussian/g09revD.01/g09/l1.exe "//home/sweav003/CHB/validation/G09-BocProc_Smith3.com.o9822941.tmp/Gau-79055.inp" -scrdir="//home/sweav003/CHB/validation/G09-BocProc_Smith3.com.o9822941.tmp/"
 Entering Link 1 = /cm/shared/apps/gaussian/g09revD.01/g09/l1.exe PID=     79056.
  
 Copyright (c) 1988,1990,1992,1993,1995,1998,2003,2009,2013,
            Gaussian, Inc.  All Rights Reserved.
  
 This is part of the Gaussian(R) 09 program.  It is based on
 the Gaussian(R) 03 system (copyright 2003, Gaussian, Inc.),
 the Gaussian(R) 98 system (copyright 1998, Gaussian, Inc.),
 the Gaussian(R) 94 system (copyright 1995, Gaussian, Inc.),
 the Gaussian 92(TM) system (copyright 1992, Gaussian, Inc.),
 the Gaussian 90(TM) system (copyright 1990, Gaussian, Inc.),
 the Gaussian 88(TM) system (copyright 1988, Gaussian, Inc.),
 the Gaussian 86(TM) system (copyright 1986, Carnegie Mellon
 University), and the Gaussian 82(TM) system (copyright 1983,
 Carnegie Mellon University). Gaussian is a federally registered
 trademark of Gaussian, Inc.
  
 This software contains proprietary and confidential information,
 including trade secrets, belonging to Gaussian, Inc.
  
 This software is provided under written license and may be
 used, copied, transmitted, or stored only in accord with that
 written license.
  
 The following legend is applicable only to US Government
 contracts under FAR:
  
                    RESTRICTED RIGHTS LEGEND
  
 Use, reproduction and disclosure by the US Government is
 subject to restrictions as set forth in subparagraphs (a)
 and (c) of the Commercial Computer Software - Restricted
 Rights clause in FAR 52.227-19.
  
 Gaussian, Inc.
 340 Quinnipiac St., Bldg. 40, Wallingford CT 06492
  
  
 ---------------------------------------------------------------
 Warning -- This program may not be used in any manner that
 competes with the business of Gaussian, Inc. or will provide
 assistance to any competitor of Gaussian, Inc.  The licensee
 of this program is prohibited from giving any competitor of
 Gaussian, Inc. access to this program.  By using this program,
 the user acknowledges that Gaussian, Inc. is engaged in the
 business of creating and licensing software in the field of
 computational chemistry and represents and warrants to the
 licensee that it is not a competitor of Gaussian, Inc. and that
 it will not use this program in any manner prohibited above.
 ---------------------------------------------------------------
  

 Cite this work as:
 Gaussian 09, Revision D.01,
 M. J. Frisch, G. W. Trucks, H. B. Schlegel, G. E. Scuseria, 
 M. A. Robb, J. R. Cheeseman, G. Scalmani, V. Barone, B. Mennucci, 
 G. A. Petersson, H. Nakatsuji, M. Caricato, X. Li, H. P. Hratchian, 
 A. F. Izmaylov, J. Bloino, G. Zheng, J. L. Sonnenberg, M. Hada, 
 M. Ehara, K. Toyota, R. Fukuda, J. Hasegawa, M. Ishida, T. Nakajima, 
 Y. Honda, O. Kitao, H. Nakai, T. Vreven, J. A. Montgomery, Jr., 
 J. E. Peralta, F. Ogliaro, M. Bearpark, J. J. Heyd, E. Brothers, 
 K. N. Kudin, V. N. Staroverov, T. Keith, R. Kobayashi, J. Normand, 
 K. Raghavachari, A. Rendell, J. C. Burant, S. S. Iyengar, J. Tomasi, 
 M. Cossi, N. Rega, J. M. Millam, M. Klene, J. E. Knox, J. B. Cross, 
 V. Bakken, C. Adamo, J. Jaramillo, R. Gomperts, R. E. Stratmann, 
 O. Yazyev, A. J. Austin, R. Cammi, C. Pomelli, J. W. Ochterski, 
 R. L. Martin, K. Morokuma, V. G. Zakrzewski, G. A. Voth, 
 P. Salvador, J. J. Dannenberg, S. Dapprich, A. D. Daniels, 
 O. Farkas, J. B. Foresman, J. V. Ortiz, J. Cioslowski, 
 and D. J. Fox, Gaussian, Inc., Wallingford CT, 2013.
 
 ******************************************
 Gaussian 09:  ES64L-G09RevD.01 24-Apr-2013
                10-Jan-2023 
 ******************************************
 %nprocshared=20
 Will use up to   20 processors via shared memory.
 %mem=4GB
 %chk=BocProc_Smith3.chk
 ----------------------------------------------------------------------
 # opt=rcfc geom=allcheck guess=read freq=noraman b3lyp/6-311+g(d,p) po
 p=(npa,hirshfeld,chelpg,mbs)
 ----------------------------------------------------------------------
 1/10=5,14=-1,18=20,19=15,26=3,29=7,38=1/1,3;
 2/9=110,12=2,40=1/2;
 3/5=4,6=6,7=111,11=2,14=-4,16=1,25=1,30=1,71=1,74=-5,116=-2/1,2,3;
 4/5=1/1;
 5/5=2,38=6/2;
 6/7=2,8=2,9=2,10=2,15=8,20=3,27=100,28=1,40=-1,79=1/1,2,7;
 7//1,2,3,16;
 1/14=-1,18=20,19=15,26=3/3(2);
 2/9=110/2;
 99//99;
 2/9=110/2;
 3/5=4,6=6,7=111,11=2,14=-2,16=1,25=1,30=1,71=1,74=-5/1,2,3;
 4/5=5,16=3,69=1/1;
 5/5=2,38=5/2;
 7//1,2,3,16;
 1/14=-1,18=20,19=15,26=3/3(-5);
 2/9=110/2;
 6/7=2,8=2,9=2,10=2,15=8,19=2,20=3,27=100,28=1,40=-1,79=1/1,2,7;
 99/9=1/99;
 Structure from the checkpoint file:  "BocProc_Smith3.chk"
 -------------------
 Title Card Required
 -------------------
 Charge =  0 Multiplicity = 1
 Redundant internal coordinates found in file.
 C,0,-0.970903213,-1.0137787002,-0.8563299723
 C,0,-0.4713998706,-2.2815955811,-0.7006331018
 C,0,0.83384521,-2.1559842664,-0.1570677567
 C,0,1.1031653097,-0.812852728,0.0119147056
 N,0,-0.0233522157,-0.1066040046,-0.4248521751
 H,0,-1.9269453451,-0.6586150096,-1.2022197243
 H,0,-0.9844349003,-3.1965329825,-0.9513915241
 H,0,1.5359113308,-2.948639592,0.045933058
 C,0,-0.360627253,1.2730064031,-0.2811813393
 O,0,-1.1666811945,1.7945109348,-1.0095225019
 O,0,0.2710784263,1.7980972383,0.7525977727
 C,0,0.2706298847,3.2695516141,1.0033008685
 C,0,0.81272193,3.9961007573,-0.2274540082
 H,0,0.1253454035,3.9270537911,-1.0699867084
 H,0,0.9529790949,5.052281458,0.0175504464
 H,0,1.7779288937,3.576036963,-0.5170717632
 C,0,-1.139789458,3.7166218756,1.3870325721
 H,0,-1.1129747851,4.7677608394,1.686870505
 H,0,-1.8317532452,3.6102831597,0.5527178449
 H,0,-1.509787443,3.1326267962,2.2335747933
 C,0,1.2334047514,3.393485862,2.1822871986
 H,0,1.3193205397,4.4415529151,2.4788294732
 H,0,0.8708409758,2.8200958712,3.0384543027
 H,0,2.2221336191,3.0238988113,1.9054936485
 C,0,2.4116044306,-0.2007547461,0.2750442928
 O,0,2.7849187258,0.8891556828,-0.097907771
 O,0,3.2047446122,-1.0610176032,0.9586427873
 C,0,4.5605047085,-0.6296553452,1.1632160925
 H,0,4.5865506554,0.2872684329,1.7537374158
 H,0,5.0440274887,-1.442512308,1.7008740672
 H,0,5.0561892128,-0.4533837688,0.2071320013
 Recover connectivity data from disk.

 GradGradGradGradGradGradGradGradGradGradGradGradGradGradGradGradGradGrad
 Berny optimization.
 Initialization pass.
 Cartesian force constants read from checkpoint file:
 "BocProc_Smith3.chk"
 FormGI is forming the generalized inverse of G from B-inverse, IUseBI=4.
 GSVD:  received Info=                   1 from GESDD.
                           ----------------------------
                           !    Initial Parameters    !
                           ! (Angstroms and Degrees)  !
 --------------------------                            --------------------------
 ! Name  Definition              Value          Derivative Info.                !
 --------------------------------------------------------------------------------
 ! R1    R(1,2)                  1.3715         D2E/DX2 =    0.4088             !
 ! R2    R(1,5)                  1.3809         D2E/DX2 =    0.3418             !
 ! R3    R(1,6)                  1.0769         D2E/DX2 =    0.3765             !
 ! R4    R(2,3)                  1.4195         D2E/DX2 =    0.3232             !
 ! R5    R(2,7)                  1.0785         D2E/DX2 =    0.3703             !
 ! R6    R(3,4)                  1.3803         D2E/DX2 =    0.3938             !
 ! R7    R(3,8)                  1.0782         D2E/DX2 =    0.3721             !
 ! R8    R(4,5)                  1.3995         D2E/DX2 =    0.3219             !
 ! R9    R(4,25)                 1.4683         D2E/DX2 =    0.3293             !
 ! R10   R(5,9)                  1.4275         D2E/DX2 =    0.3342             !
 ! R11   R(9,10)                 1.2051         D2E/DX2 =    0.8289             !
 ! R12   R(9,11)                 1.3204         D2E/DX2 =    0.453              !
 ! R13   R(11,12)                1.4927         D2E/DX2 =    0.2321             !
 ! R14   R(12,13)                1.5286         D2E/DX2 =    0.2743             !
 ! R15   R(12,17)                1.5285         D2E/DX2 =    0.2736             !
 ! R16   R(12,21)                1.5272         D2E/DX2 =    0.2803             !
 ! R17   R(13,14)                1.0895         D2E/DX2 =    0.3442             !
 ! R18   R(13,15)                1.0933         D2E/DX2 =    0.3355             !
 ! R19   R(13,16)                1.0918         D2E/DX2 =    0.3392             !
 ! R20   R(17,18)                1.0934         D2E/DX2 =    0.3354             !
 ! R21   R(17,19)                1.0891         D2E/DX2 =    0.3455             !
 ! R22   R(17,20)                1.093          D2E/DX2 =    0.3358             !
 ! R23   R(21,22)                1.0926         D2E/DX2 =    0.3374             !
 ! R24   R(21,23)                1.0924         D2E/DX2 =    0.3372             !
 ! R25   R(21,24)                1.0912         D2E/DX2 =    0.3403             !
 ! R26   R(25,26)                1.2109         D2E/DX2 =    0.8073             !
 ! R27   R(25,27)                1.3551         D2E/DX2 =    0.3762             !
 ! R28   R(27,28)                1.4374         D2E/DX2 =    0.3145             !
 ! R29   R(28,29)                1.0909         D2E/DX2 =    0.3393             !
 ! R30   R(28,30)                1.0879         D2E/DX2 =    0.3478             !
 ! R31   R(28,31)                1.0913         D2E/DX2 =    0.3386             !
 ! A1    A(2,1,5)              108.7768         D2E/DX2 =    0.0946             !
 ! A2    A(2,1,6)              131.6532         D2E/DX2 =    0.0735             !
 ! A3    A(5,1,6)              119.5275         D2E/DX2 =    0.083              !
 ! A4    A(1,2,3)              107.2509         D2E/DX2 =    0.0892             !
 ! A5    A(1,2,7)              125.7707         D2E/DX2 =    0.0738             !
 ! A6    A(3,2,7)              126.9781         D2E/DX2 =    0.0729             !
 ! A7    A(2,3,4)              108.2049         D2E/DX2 =    0.0907             !
 ! A8    A(2,3,8)              127.2876         D2E/DX2 =    0.0726             !
 ! A9    A(4,3,8)              124.4242         D2E/DX2 =    0.074              !
 ! A10   A(3,4,5)              107.2055         D2E/DX2 =    0.0951             !
 ! A11   A(3,4,25)             126.9762         D2E/DX2 =    0.1224             !
 ! A12   A(5,4,25)             124.2538         D2E/DX2 =    0.1325             !
 ! A13   A(1,5,4)              108.5615         D2E/DX2 =    0.0989             !
 ! A14   A(1,5,9)              120.2795         D2E/DX2 =    0.1442             !
 ! A15   A(4,5,9)              130.2778         D2E/DX2 =    0.1441             !
 ! A16   A(5,9,10)             121.028          D2E/DX2 =    0.1966             !
 ! A17   A(5,9,11)             110.4933         D2E/DX2 =    0.2121             !
 ! A18   A(10,9,11)            128.3974         D2E/DX2 =    0.2074             !
 ! A19   A(9,11,12)            121.5592         D2E/DX2 =    0.3281             !
 ! A20   A(11,12,13)           109.4645         D2E/DX2 =    0.0352             !
 ! A21   A(11,12,17)           109.3156         D2E/DX2 =    0.0343             !
 ! A22   A(11,12,21)           102.0914         D2E/DX2 =    0.0333             !
 ! A23   A(13,12,17)           112.9764         D2E/DX2 =    0.0461             !
 ! A24   A(13,12,21)           111.0661         D2E/DX2 =    0.0511             !
 ! A25   A(17,12,21)           111.3563         D2E/DX2 =    0.0514             !
 ! A26   A(12,13,14)           111.6398         D2E/DX2 =    0.1064             !
 ! A27   A(12,13,15)           108.9202         D2E/DX2 =    0.1034             !
 ! A28   A(12,13,16)           110.1355         D2E/DX2 =    0.1059             !
 ! A29   A(14,13,15)           108.3884         D2E/DX2 =    0.0503             !
 ! A30   A(14,13,16)           109.1616         D2E/DX2 =    0.0525             !
 ! A31   A(15,13,16)           108.526          D2E/DX2 =    0.0485             !
 ! A32   A(12,17,18)           109.1107         D2E/DX2 =    0.102              !
 ! A33   A(12,17,19)           111.4307         D2E/DX2 =    0.1048             !
 ! A34   A(12,17,20)           110.5198         D2E/DX2 =    0.1043             !
 ! A35   A(18,17,19)           108.6334         D2E/DX2 =    0.0498             !
 ! A36   A(18,17,20)           108.0336         D2E/DX2 =    0.0486             !
 ! A37   A(19,17,20)           109.0308         D2E/DX2 =    0.0522             !
 ! A38   A(12,21,22)           109.6909         D2E/DX2 =    0.1024             !
 ! A39   A(12,21,23)           110.6853         D2E/DX2 =    0.1051             !
 ! A40   A(12,21,24)           110.3589         D2E/DX2 =    0.1051             !
 ! A41   A(22,21,23)           108.475          D2E/DX2 =    0.0495             !
 ! A42   A(22,21,24)           108.813          D2E/DX2 =    0.0493             !
 ! A43   A(23,21,24)           108.7692         D2E/DX2 =    0.0515             !
 ! A44   A(4,25,26)            126.494          D2E/DX2 =    0.1587             !
 ! A45   A(4,25,27)            110.3234         D2E/DX2 =    0.183              !
 ! A46   A(26,25,27)           123.1132         D2E/DX2 =    0.2123             !
 ! A47   A(25,27,28)           115.6794         D2E/DX2 =    0.2959             !
 ! A48   A(27,28,29)           110.5973         D2E/DX2 =    0.1408             !
 ! A49   A(27,28,30)           105.3859         D2E/DX2 =    0.1418             !
 ! A50   A(27,28,31)           110.6232         D2E/DX2 =    0.1411             !
 ! A51   A(29,28,30)           110.4786         D2E/DX2 =    0.0687             !
 ! A52   A(29,28,31)           109.1252         D2E/DX2 =    0.0706             !
 ! A53   A(30,28,31)           110.5967         D2E/DX2 =    0.0685             !
 ! D1    D(5,1,2,3)             -0.1793         D2E/DX2 =    0.013              !
 ! D2    D(5,1,2,7)            179.9835         D2E/DX2 =    0.0084             !
 ! D3    D(6,1,2,3)           -177.732          D2E/DX2 =    0.0073             !
 ! D4    D(6,1,2,7)              2.4308         D2E/DX2 =    0.0067             !
 ! D5    D(2,1,5,4)              0.1138         D2E/DX2 =    0.0112             !
 ! D6    D(2,1,5,9)           -170.206          D2E/DX2 =    0.008              !
 ! D7    D(6,1,5,4)            178.0124         D2E/DX2 =    0.0059             !
 ! D8    D(6,1,5,9)              7.6926         D2E/DX2 =    0.0052             !
 ! D9    D(1,2,3,4)              0.1797         D2E/DX2 =    0.0136             !
 ! D10   D(1,2,3,8)           -176.5938         D2E/DX2 =    0.0077             !
 ! D11   D(7,2,3,4)           -179.9856         D2E/DX2 =    0.0081             !
 ! D12   D(7,2,3,8)              3.2409         D2E/DX2 =    0.0066             !
 ! D13   D(2,3,4,5)             -0.1099         D2E/DX2 =    0.0114             !
 ! D14   D(2,3,4,25)          -166.207          D2E/DX2 =    0.009              !
 ! D15   D(8,3,4,5)            176.7782         D2E/DX2 =    0.0072             !
 ! D16   D(8,3,4,25)            10.6811         D2E/DX2 =    0.0068             !
 ! D17   D(3,4,5,1)              0.0002         D2E/DX2 =    0.01               !
 ! D18   D(3,4,5,9)            169.0279         D2E/DX2 =    0.0082             !
 ! D19   D(25,4,5,1)           166.5715         D2E/DX2 =    0.0112             !
 ! D20   D(25,4,5,9)           -24.4008         D2E/DX2 =    0.012              !
 ! D21   D(3,4,25,26)          147.3204         D2E/DX2 =    0.0182             !
 ! D22   D(3,4,25,27)          -29.7082         D2E/DX2 =    0.0167             !
 ! D23   D(5,4,25,26)          -16.5572         D2E/DX2 =    0.017              !
 ! D24   D(5,4,25,27)          166.4142         D2E/DX2 =    0.0175             !
 ! D25   D(1,5,9,10)           -32.5997         D2E/DX2 =    0.0165             !
 ! D26   D(1,5,9,11)           144.3855         D2E/DX2 =    0.0217             !
 ! D27   D(4,5,9,10)           159.4604         D2E/DX2 =    0.0172             !
 ! D28   D(4,5,9,11)           -23.5544         D2E/DX2 =    0.0193             !
 ! D29   D(5,9,11,12)          170.1774         D2E/DX2 =    0.029              !
 ! D30   D(10,9,11,12)         -13.1192         D2E/DX2 =    0.0247             !
 ! D31   D(9,11,12,13)         -56.2707         D2E/DX2 =    0.0212             !
 ! D32   D(9,11,12,17)          67.9638         D2E/DX2 =    0.0223             !
 ! D33   D(9,11,12,21)        -174.0194         D2E/DX2 =    0.0196             !
 ! D34   D(11,12,13,14)         68.932          D2E/DX2 =    0.0164             !
 ! D35   D(11,12,13,15)       -171.415          D2E/DX2 =    0.0159             !
 ! D36   D(11,12,13,16)        -52.5057         D2E/DX2 =    0.0161             !
 ! D37   D(17,12,13,14)        -53.1342         D2E/DX2 =    0.0152             !
 ! D38   D(17,12,13,15)         66.5189         D2E/DX2 =    0.0148             !
 ! D39   D(17,12,13,16)       -174.5718         D2E/DX2 =    0.0155             !
 ! D40   D(21,12,13,14)       -179.0922         D2E/DX2 =    0.016              !
 ! D41   D(21,12,13,15)        -59.4391         D2E/DX2 =    0.0153             !
 ! D42   D(21,12,13,16)         59.4702         D2E/DX2 =    0.0157             !
 ! D43   D(11,12,17,18)        173.214          D2E/DX2 =    0.016              !
 ! D44   D(11,12,17,19)        -66.8346         D2E/DX2 =    0.0166             !
 ! D45   D(11,12,17,20)         54.5605         D2E/DX2 =    0.016              !
 ! D46   D(13,12,17,18)        -64.6363         D2E/DX2 =    0.015              !
 ! D47   D(13,12,17,19)         55.3151         D2E/DX2 =    0.0154             !
 ! D48   D(13,12,17,20)        176.7102         D2E/DX2 =    0.0155             !
 ! D49   D(21,12,17,18)         61.1659         D2E/DX2 =    0.0153             !
 ! D50   D(21,12,17,19)       -178.8826         D2E/DX2 =    0.0161             !
 ! D51   D(21,12,17,20)        -57.4875         D2E/DX2 =    0.0155             !
 ! D52   D(11,12,21,22)       -179.4949         D2E/DX2 =    0.0162             !
 ! D53   D(11,12,21,23)        -59.8325         D2E/DX2 =    0.0163             !
 ! D54   D(11,12,21,24)         60.6288         D2E/DX2 =    0.0166             !
 ! D55   D(13,12,21,22)         63.9085         D2E/DX2 =    0.0147             !
 ! D56   D(13,12,21,23)       -176.4291         D2E/DX2 =    0.0151             !
 ! D57   D(13,12,21,24)        -55.9679         D2E/DX2 =    0.0149             !
 ! D58   D(17,12,21,22)        -62.9446         D2E/DX2 =    0.0146             !
 ! D59   D(17,12,21,23)         56.7178         D2E/DX2 =    0.0147             !
 ! D60   D(17,12,21,24)        177.179          D2E/DX2 =    0.0151             !
 ! D61   D(4,25,27,28)         174.0921         D2E/DX2 =    0.0215             !
 ! D62   D(26,25,27,28)         -3.056          D2E/DX2 =    0.0206             !
 ! D63   D(25,27,28,29)         61.7756         D2E/DX2 =    0.0238             !
 ! D64   D(25,27,28,30)       -178.8141         D2E/DX2 =    0.0242             !
 ! D65   D(25,27,28,31)        -59.2492         D2E/DX2 =    0.0238             !
 --------------------------------------------------------------------------------
 Trust Radius=3.00D-01 FncErr=1.00D-07 GrdErr=1.00D-06
 Number of steps in this run=    159 maximum allowed number of steps=    186.
 GradGradGradGradGradGradGradGradGradGradGradGradGradGradGradGradGradGrad

                          Input orientation:                          
 ---------------------------------------------------------------------
 Center     Atomic      Atomic             Coordinates (Angstroms)
 Number     Number       Type             X           Y           Z
 ---------------------------------------------------------------------
      1          6           0       -0.970903   -1.013779   -0.856330
      2          6           0       -0.471400   -2.281596   -0.700633
      3          6           0        0.833845   -2.155984   -0.157068
      4          6           0        1.103165   -0.812853    0.011915
      5          7           0       -0.023352   -0.106604   -0.424852
      6          1           0       -1.926945   -0.658615   -1.202220
      7          1           0       -0.984435   -3.196533   -0.951392
      8          1           0        1.535911   -2.948640    0.045933
      9          6           0       -0.360627    1.273006   -0.281181
     10          8           0       -1.166681    1.794511   -1.009523
     11          8           0        0.271078    1.798097    0.752598
     12          6           0        0.270630    3.269552    1.003301
     13          6           0        0.812722    3.996101   -0.227454
     14          1           0        0.125345    3.927054   -1.069987
     15          1           0        0.952979    5.052281    0.017550
     16          1           0        1.777929    3.576037   -0.517072
     17          6           0       -1.139789    3.716622    1.387033
     18          1           0       -1.112975    4.767761    1.686871
     19          1           0       -1.831753    3.610283    0.552718
     20          1           0       -1.509787    3.132627    2.233575
     21          6           0        1.233405    3.393486    2.182287
     22          1           0        1.319321    4.441553    2.478829
     23          1           0        0.870841    2.820096    3.038454
     24          1           0        2.222134    3.023899    1.905494
     25          6           0        2.411604   -0.200755    0.275044
     26          8           0        2.784919    0.889156   -0.097908
     27          8           0        3.204745   -1.061018    0.958643
     28          6           0        4.560505   -0.629655    1.163216
     29          1           0        4.586551    0.287268    1.753737
     30          1           0        5.044027   -1.442512    1.700874
     31          1           0        5.056189   -0.453384    0.207132
 ---------------------------------------------------------------------
                    Distance matrix (angstroms):
                    1          2          3          4          5
     1  C    0.000000
     2  C    1.371534   0.000000
     3  C    2.247380   1.419474   0.000000
     4  C    2.257428   2.268080   1.380250   0.000000
     5  N    1.380939   2.237720   2.237511   1.399498   0.000000
     6  H    1.076939   2.237022   3.310049   3.267948   2.129010
     7  H    2.184865   1.078515   2.240499   3.311792   3.278503
     8  H    3.292702   2.243124   1.078151   2.179452   3.275684
     9  C    2.435697   3.580978   3.633200   2.565035   1.427488
    10  O    2.819271   4.146501   4.509456   3.604703   2.294184
    11  O    3.469555   4.393979   4.096213   2.838669   2.258532
    12  C    4.831827   5.853993   5.576747   4.282755   3.677564
    13  C    5.354969   6.425133   6.152524   4.823659   4.191679
    14  H    5.065495   6.248188   6.191829   4.959169   4.087628
    15  H    6.423556   7.505358   7.211365   5.867059   5.269065
    16  H    5.360745   6.277343   5.820392   4.471855   4.100605
    17  C    5.238119   6.386212   6.384903   5.238123   4.375662
    18  H    6.317773   7.470289   7.424854   6.233779   5.422738
    19  H    4.910033   6.175410   6.392108   5.335761   4.247494
    20  H    5.199095   6.245128   6.259169   5.227820   4.446273
    21  C    5.789313   6.589699   6.035632   4.735057   4.541722
    22  H    6.791837   7.649600   7.121175   5.808715   5.560564
    23  H    5.767145   6.466037   5.913891   4.734156   4.621650
    24  H    5.841746   6.495790   5.745667   4.422487   4.502529
    25  C    3.658193   3.686944   2.549307   1.468303   2.535297
    26  O    4.278149   4.584818   3.617052   2.395243   2.997468
    27  O    4.553284   4.213911   2.839881   2.318300   3.639447
    28  C    5.901067   5.614526   4.238021   3.648596   4.879271
    29  H    6.276183   6.181089   4.868620   4.046997   5.113961
    30  H    6.550000   6.073816   4.656890   4.333526   5.655237
    31  H    6.145798   5.892422   4.567240   3.974132   5.130439
                    6          7          8          9         10
     6  H    0.000000
     7  H    2.718873   0.000000
     8  H    4.335144   2.721811   0.000000
     9  C    2.651947   4.562357   4.639629   0.000000
    10  O    2.575453   4.994708   5.560168   1.205060   0.000000
    11  O    3.832500   5.424594   4.962931   1.320406   2.274254
    12  C    5.012400   6.870681   6.417429   2.456537   2.879768
    13  C    5.488381   7.449016   6.987644   2.965616   3.062134
    14  H    5.025708   7.210490   7.107048   2.811112   2.494139
    15  H    6.511232   8.528503   8.022179   4.012197   4.020063
    16  H    5.668139   7.327141   6.553392   3.151669   3.476647
    17  C    5.144564   7.299594   7.306410   3.059622   3.072248
    18  H    6.201205   8.390883   8.321785   4.080755   4.014179
    19  H    4.616531   7.022324   7.390363   2.884868   2.485949
    20  H    5.133441   7.104806   7.144498   3.332080   3.525047
    21  C    6.153229   7.626736   6.699110   3.620228   4.301719
    22  H    7.078141   8.684127   7.783370   4.525436   5.035438
    23  H    6.157301   7.453908   6.532673   3.863933   4.646444
    24  H    6.358746   7.558945   6.292860   3.810226   4.636031
    25  C    4.605970   4.691686   2.893130   3.188515   4.293638
    26  O    5.081020   5.623994   4.038488   3.174175   4.155220
    27  O    5.582607   5.075222   2.679769   4.438097   5.580061
    28  C    6.905297   6.465816   3.971671   5.470278   6.587718
    29  H    7.215124   7.105665   4.763832   5.439406   6.557977
    30  H    7.591898   6.815678   4.161025   6.364973   7.509825
    31  H    7.126890   6.734700   4.317944   5.706205   6.727362
                   11         12         13         14         15
    11  O    0.000000
    12  C    1.492659   0.000000
    13  C    2.466799   1.528560   0.000000
    14  H    2.806334   2.179894   1.089548   0.000000
    15  H    3.405143   2.148355   1.093260   1.770269   0.000000
    16  H    2.654002   2.162734   1.091768   1.777628   1.773601
    17  C    2.464507   1.528530   2.548917   2.771605   2.835339
    18  H    3.406959   2.150874   2.822836   3.136955   2.671282
    19  H    2.783140   2.176956   2.784021   2.561981   3.181273
    20  H    2.673153   2.168458   3.492320   3.770715   3.828976
    21  C    2.348478   1.527188   2.519320   3.477035   2.741592
    22  H    3.326642   2.156507   2.789093   3.779469   2.562243
    23  H    2.574750   2.168897   3.471674   4.319769   3.757028
    24  H    2.576504   2.163946   2.735157   3.750426   3.047855
    25  C    2.967376   4.142120   4.519129   4.906617   5.457864
    26  O    2.805161   3.633262   3.682316   4.152962   4.549830
    27  O    4.101633   5.231143   5.718658   6.203136   6.582441
    28  C    4.945884   5.799346   6.113711   6.739542   6.827239
    29  H    4.680618   5.299466   5.649986   6.412785   6.238793
    30  H    5.846522   6.743551   7.155481   7.791235   7.858282
    31  H    5.316388   6.115203   6.163910   6.718072   6.869106
                   16         17         18         19         20
    16  H    0.000000
    17  C    3.486898   0.000000
    18  H    3.825558   1.093396   0.000000
    19  H    3.765027   1.089129   1.772766   0.000000
    20  H    4.309495   1.092970   1.769183   1.776822   0.000000
    21  C    2.759777   2.523667   2.763977   3.478173   2.756044
    22  H    3.151962   2.786533   2.578696   3.785523   3.126866
    23  H    3.746468   2.752015   3.091230   3.755968   2.532370
    24  H    2.524084   3.471483   3.769854   4.313681   3.747892
    25  C    3.910645   5.403217   6.253164   5.710271   5.506777
    26  O    2.899838   5.059935   5.781227   5.398288   5.377125
    27  O    5.071076   6.471811   7.290245   6.881289   6.437307
    28  C    5.315444   7.171720   7.848228   7.694852   7.221418
    29  H    4.884765   6.684752   7.250095   7.326630   6.744750
    30  H    6.385336   8.059451   8.745077   8.609609   8.010503
    31  H    5.244778   7.561168   8.216359   8.004784   7.750999
                   21         22         23         24         25
    21  C    0.000000
    22  H    1.092595   0.000000
    23  H    1.092360   1.772974   0.000000
    24  H    1.091235   1.775818   1.775141   0.000000
    25  C    4.236071   5.253644   4.374463   3.618377   0.000000
    26  O    3.725339   4.626778   4.150782   2.981186   1.210934
    27  O    5.022558   6.011994   4.983549   4.306808   1.355150
    28  C    5.319188   6.160622   5.388035   4.400842   2.364440
    29  H    4.590842   5.334663   4.676774   3.619757   2.674900
    30  H    6.175717   7.007202   6.113463   5.287134   3.241081
    31  H    5.771770   6.563932   6.020730   4.796644   2.657492
                   26         27         28         29         30
    26  O    0.000000
    27  O    2.257372   0.000000
    28  C    2.655170   1.437362   0.000000
    29  H    2.652685   2.087927   1.090937   0.000000
    30  H    3.711585   2.019754   1.087937   1.790034   0.000000
    31  H    2.655961   2.088501   1.091271   1.777952   1.791588
                   31
    31  H    0.000000
 Stoichiometry    C11H15NO4
 Framework group  C1[X(C11H15NO4)]
 Deg. of freedom    87
 Full point group                 C1      NOp   1
 Largest Abelian subgroup         C1      NOp   1
 Largest concise Abelian subgroup C1      NOp   1
                         Standard orientation:                         
 ---------------------------------------------------------------------
 Center     Atomic      Atomic             Coordinates (Angstroms)
 Number     Number       Type             X           Y           Z
 ---------------------------------------------------------------------
      1          6           0       -1.084255    2.674801    0.026907
      2          6           0       -2.418971    2.607025    0.335201
      3          6           0       -2.772060    1.232808    0.377177
      4          6           0       -1.643607    0.488905    0.097369
      5          7           0       -0.596206    1.391338   -0.119799
      6          1           0       -0.414056    3.511997   -0.071751
      7          1           0       -3.069562    3.449583    0.508474
      8          1           0       -3.752457    0.815028    0.540546
      9          6           0        0.808266    1.164322   -0.236603
     10          8           0        1.525022    1.969740   -0.774871
     11          8           0        1.146302    0.038962    0.365699
     12          6           0        2.509780   -0.549237    0.214107
     13          6           0        2.809011   -0.765903   -1.269137
     14          1           0        2.928987    0.179592   -1.797115
     15          1           0        3.738129   -1.334196   -1.364002
     16          1           0        2.003863   -1.337083   -1.735448
     17          6           0        3.530556    0.356500    0.902628
     18          1           0        4.507315   -0.134832    0.895561
     19          1           0        3.619499    1.315051    0.393244
     20          1           0        3.247147    0.531080    1.943677
     21          6           0        2.366304   -1.882154    0.945579
     22          1           0        3.315952   -2.421719    0.917259
     23          1           0        2.090598   -1.721279    1.990259
     24          1           0        1.598871   -2.495325    0.470329
     25          6           0       -1.588634   -0.938406   -0.242742
     26          8           0       -0.793728   -1.471979   -0.984217
     27          8           0       -2.612538   -1.602422    0.346437
     28          6           0       -2.747353   -2.986903   -0.015570
     29          1           0       -1.858929   -3.548365    0.277014
     30          1           0       -3.619408   -3.343851    0.528228
     31          1           0       -2.897194   -3.090013   -1.091575
 ---------------------------------------------------------------------
 Rotational constants (GHZ):      0.7063569      0.4436401      0.3033728
 Standard basis: 6-311+G(d,p) (5D, 7F)
 There are   458 symmetry adapted cartesian basis functions of A   symmetry.
 There are   442 symmetry adapted basis functions of A   symmetry.
   442 basis functions,   696 primitive gaussians,   458 cartesian basis functions
    60 alpha electrons       60 beta electrons
       nuclear repulsion energy      1172.0086131364 Hartrees.
 NAtoms=   31 NActive=   31 NUniq=   31 SFac= 1.00D+00 NAtFMM=   60 NAOKFM=F Big=F
 Integral buffers will be    131072 words long.
 Raffenetti 2 integral format.
 Two-electron integral symmetry is turned on.
 One-electron integrals computed using PRISM.
 NBasis=   442 RedAO= T EigKep=  2.59D-06  NBF=   442
 NBsUse=   442 1.00D-06 EigRej= -1.00D+00 NBFU=   442
 Initial guess from the checkpoint file:  "BocProc_Smith3.chk"
 B after Tr=     0.000000    0.000000    0.000000
         Rot=    1.000000    0.000000    0.000000    0.000000 Ang=   0.00 deg.
 Requested convergence on RMS density matrix=1.00D-08 within 128 cycles.
 Requested convergence on MAX density matrix=1.00D-06.
 Requested convergence on             energy=1.00D-06.
 No special actions if energy rises.
 SCF Done:  E(RB3LYP) =  -784.096824251     A.U. after    1 cycles
            NFock=  1  Conv=0.26D-08     -V/T= 2.0040

 **********************************************************************

            Population analysis using the SCF density.

 **********************************************************************

 Orbital symmetries:
       Occupied  (A) (A) (A) (A) (A) (A) (A) (A) (A) (A) (A) (A)
                 (A) (A) (A) (A) (A) (A) (A) (A) (A) (A) (A) (A)
                 (A) (A) (A) (A) (A) (A) (A) (A) (A) (A) (A) (A)
                 (A) (A) (A) (A) (A) (A) (A) (A) (A) (A) (A) (A)
                 (A) (A) (A) (A) (A) (A) (A) (A) (A) (A) (A) (A)
       Virtual   (A) (A) (A) (A) (A) (A) (A) (A) (A) (A) (A) (A)
                 (A) (A) (A) (A) (A) (A) (A) (A) (A) (A) (A) (A)
                 (A) (A) (A) (A) (A) (A) (A) (A) (A) (A) (A) (A)
                 (A) (A) (A) (A) (A) (A) (A) (A) (A) (A) (A) (A)
                 (A) (A) (A) (A) (A) (A) (A) (A) (A) (A) (A) (A)
                 (A) (A) (A) (A) (A) (A) (A) (A) (A) (A) (A) (A)
                 (A) (A) (A) (A) (A) (A) (A) (A) (A) (A) (A) (A)
                 (A) (A) (A) (A) (A) (A) (A) (A) (A) (A) (A) (A)
                 (A) (A) (A) (A) (A) (A) (A) (A) (A) (A) (A) (A)
                 (A) (A) (A) (A) (A) (A) (A) (A) (A) (A) (A) (A)
                 (A) (A) (A) (A) (A) (A) (A) (A) (A) (A) (A) (A)
                 (A) (A) (A) (A) (A) (A) (A) (A) (A) (A) (A) (A)
                 (A) (A) (A) (A) (A) (A) (A) (A) (A) (A) (A) (A)
                 (A) (A) (A) (A) (A) (A) (A) (A) (A) (A) (A) (A)
                 (A) (A) (A) (A) (A) (A) (A) (A) (A) (A) (A) (A)
                 (A) (A) (A) (A) (A) (A) (A) (A) (A) (A) (A) (A)
                 (A) (A) (A) (A) (A) (A) (A) (A) (A) (A) (A) (A)
                 (A) (A) (A) (A) (A) (A) (A) (A) (A) (A) (A) (A)
                 (A) (A) (A) (A) (A) (A) (A) (A) (A) (A) (A) (A)
                 (A) (A) (A) (A) (A) (A) (A) (A) (A) (A) (A) (A)
                 (A) (A) (A) (A) (A) (A) (A) (A) (A) (A) (A) (A)
                 (A) (A) (A) (A) (A) (A) (A) (A) (A) (A) (A) (A)
                 (A) (A) (A) (A) (A) (A) (A) (A) (A) (A) (A) (A)
                 (A) (A) (A) (A) (A) (A) (A) (A) (A) (A) (A) (A)
                 (A) (A) (A) (A) (A) (A) (A) (A) (A) (A) (A) (A)
                 (A) (A) (A) (A) (A) (A) (A) (A) (A) (A) (A) (A)
                 (A) (A) (A) (A) (A) (A) (A) (A) (A) (A) (A) (A)
                 (A) (A) (A) (A) (A) (A) (A) (A) (A) (A) (A) (A)
                 (A) (A) (A) (A) (A) (A) (A) (A) (A) (A) (A) (A)
                 (A) (A) (A) (A) (A) (A) (A) (A) (A) (A) (A) (A)
                 (A) (A) (A) (A) (A) (A) (A) (A) (A) (A) (A) (A)
                 (A) (A) (A) (A) (A) (A) (A) (A) (A) (A)
 The electronic state is 1-A.
 Alpha  occ. eigenvalues --  -19.17488 -19.17168 -19.12125 -19.11324 -14.38943
 Alpha  occ. eigenvalues --  -10.34701 -10.31063 -10.25538 -10.22931 -10.22154
 Alpha  occ. eigenvalues --  -10.21691 -10.18616 -10.17873 -10.16812 -10.16719
 Alpha  occ. eigenvalues --  -10.16314  -1.13027  -1.11232  -1.04293  -1.02551
 Alpha  occ. eigenvalues --   -1.00035  -0.83615  -0.80637  -0.77711  -0.72395
 Alpha  occ. eigenvalues --   -0.70416  -0.70223  -0.67184  -0.62322  -0.60922
 Alpha  occ. eigenvalues --   -0.58971  -0.55359  -0.52430  -0.49857  -0.49172
 Alpha  occ. eigenvalues --   -0.48936  -0.48460  -0.47858  -0.47533  -0.45415
 Alpha  occ. eigenvalues --   -0.45139  -0.43487  -0.42596  -0.42290  -0.41703
 Alpha  occ. eigenvalues --   -0.40875  -0.39973  -0.39786  -0.38581  -0.37654
 Alpha  occ. eigenvalues --   -0.36977  -0.36842  -0.35981  -0.34942  -0.32070
 Alpha  occ. eigenvalues --   -0.31120  -0.30012  -0.28868  -0.27369  -0.24279
 Alpha virt. eigenvalues --   -0.05503  -0.00141   0.00261   0.00954   0.01375
 Alpha virt. eigenvalues --    0.02603   0.02898   0.03059   0.03386   0.03788
 Alpha virt. eigenvalues --    0.04480   0.04850   0.05146   0.05676   0.05804
 Alpha virt. eigenvalues --    0.05957   0.06565   0.07062   0.07373   0.07776
 Alpha virt. eigenvalues --    0.08142   0.08816   0.10090   0.10336   0.10447
 Alpha virt. eigenvalues --    0.11114   0.11381   0.11474   0.12049   0.12695
 Alpha virt. eigenvalues --    0.13115   0.13538   0.14414   0.14456   0.14864
 Alpha virt. eigenvalues --    0.14938   0.15362   0.16147   0.16332   0.17194
 Alpha virt. eigenvalues --    0.17388   0.17438   0.18354   0.18651   0.19040
 Alpha virt. eigenvalues --    0.19234   0.19830   0.20438   0.20564   0.20728
 Alpha virt. eigenvalues --    0.21264   0.21578   0.21759   0.22512   0.22639
 Alpha virt. eigenvalues --    0.22968   0.23421   0.23761   0.23884   0.24503
 Alpha virt. eigenvalues --    0.24688   0.25407   0.26091   0.26143   0.26273
 Alpha virt. eigenvalues --    0.27185   0.27463   0.27544   0.28060   0.29141
 Alpha virt. eigenvalues --    0.29452   0.29653   0.30041   0.30901   0.31530
 Alpha virt. eigenvalues --    0.32177   0.32652   0.33091   0.33442   0.34360
 Alpha virt. eigenvalues --    0.35083   0.35542   0.35848   0.36769   0.36983
 Alpha virt. eigenvalues --    0.37480   0.38575   0.38881   0.40157   0.40581
 Alpha virt. eigenvalues --    0.41147   0.42009   0.43444   0.43781   0.44489
 Alpha virt. eigenvalues --    0.45301   0.46233   0.47396   0.48295   0.49478
 Alpha virt. eigenvalues --    0.49923   0.50291   0.51216   0.51775   0.53366
 Alpha virt. eigenvalues --    0.53933   0.54621   0.55131   0.55599   0.56488
 Alpha virt. eigenvalues --    0.57560   0.58338   0.59196   0.59721   0.61629
 Alpha virt. eigenvalues --    0.62046   0.62246   0.63103   0.63786   0.64441
 Alpha virt. eigenvalues --    0.64686   0.65870   0.66323   0.66857   0.67917
 Alpha virt. eigenvalues --    0.68866   0.69493   0.69646   0.70840   0.71438
 Alpha virt. eigenvalues --    0.72011   0.72452   0.73690   0.74160   0.74472
 Alpha virt. eigenvalues --    0.74896   0.76591   0.77441   0.78020   0.78670
 Alpha virt. eigenvalues --    0.79735   0.80167   0.82688   0.83155   0.84320
 Alpha virt. eigenvalues --    0.86344   0.87931   0.89153   0.90206   0.91506
 Alpha virt. eigenvalues --    0.94122   0.94934   0.95963   0.97621   0.99032
 Alpha virt. eigenvalues --    1.00167   1.00660   1.02699   1.03549   1.05212
 Alpha virt. eigenvalues --    1.05789   1.07676   1.08690   1.11834   1.12431
 Alpha virt. eigenvalues --    1.14076   1.15312   1.16607   1.17360   1.17740
 Alpha virt. eigenvalues --    1.19727   1.20186   1.22214   1.22744   1.24329
 Alpha virt. eigenvalues --    1.26588   1.26799   1.28056   1.28775   1.30196
 Alpha virt. eigenvalues --    1.31920   1.34451   1.36333   1.37009   1.40084
 Alpha virt. eigenvalues --    1.42135   1.43842   1.44297   1.45347   1.45921
 Alpha virt. eigenvalues --    1.46224   1.47404   1.48760   1.49663   1.50861
 Alpha virt. eigenvalues --    1.51613   1.53024   1.53841   1.54698   1.54969
 Alpha virt. eigenvalues --    1.55401   1.56335   1.56851   1.57978   1.59587
 Alpha virt. eigenvalues --    1.59995   1.61879   1.63461   1.64397   1.65907
 Alpha virt. eigenvalues --    1.66072   1.67103   1.67602   1.68218   1.68901
 Alpha virt. eigenvalues --    1.69373   1.70424   1.73174   1.73770   1.73912
 Alpha virt. eigenvalues --    1.75793   1.76533   1.77297   1.78139   1.80385
 Alpha virt. eigenvalues --    1.81451   1.82185   1.82919   1.83993   1.85269
 Alpha virt. eigenvalues --    1.85810   1.88453   1.90107   1.91715   1.93149
 Alpha virt. eigenvalues --    1.94982   1.95857   1.98048   1.98339   1.98857
 Alpha virt. eigenvalues --    1.99977   2.00860   2.02532   2.05728   2.08434
 Alpha virt. eigenvalues --    2.09695   2.10886   2.11474   2.14020   2.16613
 Alpha virt. eigenvalues --    2.18975   2.20185   2.20961   2.24652   2.27512
 Alpha virt. eigenvalues --    2.29345   2.31320   2.36765   2.39381   2.41242
 Alpha virt. eigenvalues --    2.41998   2.44106   2.44982   2.46401   2.47392
 Alpha virt. eigenvalues --    2.47621   2.48845   2.49687   2.50682   2.51678
 Alpha virt. eigenvalues --    2.52151   2.53324   2.53563   2.54881   2.55261
 Alpha virt. eigenvalues --    2.56107   2.57211   2.59765   2.60528   2.61510
 Alpha virt. eigenvalues --    2.62887   2.64174   2.65588   2.67744   2.69608
 Alpha virt. eigenvalues --    2.71949   2.72749   2.73485   2.73545   2.74721
 Alpha virt. eigenvalues --    2.75906   2.76430   2.78515   2.78870   2.81669
 Alpha virt. eigenvalues --    2.82525   2.83779   2.87741   2.89393   2.91510
 Alpha virt. eigenvalues --    2.91720   2.94995   2.95914   2.98678   2.99656
 Alpha virt. eigenvalues --    3.02750   3.03089   3.05021   3.05949   3.06530
 Alpha virt. eigenvalues --    3.09124   3.11456   3.14967   3.18382   3.18574
 Alpha virt. eigenvalues --    3.21860   3.22349   3.23096   3.25581   3.25869
 Alpha virt. eigenvalues --    3.31411   3.34048   3.38246   3.39503   3.47550
 Alpha virt. eigenvalues --    3.51182   3.54062   3.57318   3.59822   3.62489
 Alpha virt. eigenvalues --    3.67765   3.71536   3.77204   3.77264   3.78208
 Alpha virt. eigenvalues --    3.79368   3.82979   3.83840   3.85015   3.87006
 Alpha virt. eigenvalues --    3.87933   3.91651   3.94915   4.05846   4.06799
 Alpha virt. eigenvalues --    4.09537   4.10850   4.15566   4.21588   4.27475
 Alpha virt. eigenvalues --    4.31567   4.36617   4.94644   5.01780   5.08666
 Alpha virt. eigenvalues --    5.09279   5.09364   5.14856   5.23424   5.27318
 Alpha virt. eigenvalues --    5.37400   5.39084   5.65350   5.74958   5.87911
 Alpha virt. eigenvalues --    5.90007  23.70541  23.74109  23.86444  23.88512
 Alpha virt. eigenvalues --   23.89048  23.91808  23.96723  23.97790  23.98961
 Alpha virt. eigenvalues --   24.10047  24.18245  35.56129  49.89613  49.93735
 Alpha virt. eigenvalues --   50.01955  50.03168
          Condensed to atoms (all electrons):
               1          2          3          4          5          6
     1  C    6.354919  -0.501952   2.382325  -1.763832   0.454468   0.386492
     2  C   -0.501952   6.662258  -2.933088   2.675301  -0.288670  -0.000542
     3  C    2.382325  -2.933088  19.324894  -7.648506  -0.232581  -0.053589
     4  C   -1.763832   2.675301  -7.648506  21.364409  -0.403831   0.041054
     5  N    0.454468  -0.288670  -0.232581  -0.403831   7.122862  -0.065877
     6  H    0.386492  -0.000542  -0.053589   0.041054  -0.065877   0.492574
     7  H   -0.020699   0.355105   0.035791  -0.031392   0.015245  -0.003878
     8  H   -0.016219   0.002494   0.319214  -0.014069   0.018247  -0.000113
     9  C   -0.725402   0.521563  -1.357039   0.268626   0.135977   0.040618
    10  O    0.000801  -0.000022   0.080539   0.037906  -0.118339   0.001717
    11  O   -0.100106   0.068011  -0.063745   0.283654  -0.304223   0.002012
    12  C    0.020837  -0.033848   0.021646   0.141119   0.074349   0.000303
    13  C   -0.044109   0.022630  -0.069459  -0.114335   0.003707   0.000201
    14  H   -0.002874  -0.000068  -0.001091  -0.002268  -0.001593   0.000011
    15  H    0.000652   0.000084  -0.000353  -0.001196   0.000262   0.000000
    16  H   -0.000971  -0.000569   0.001497  -0.013821  -0.000165   0.000002
    17  C   -0.022079   0.012005  -0.000843   0.100912  -0.092263  -0.000560
    18  H    0.000279  -0.000089   0.000031  -0.001209   0.000773   0.000000
    19  H    0.002308   0.000260  -0.000347  -0.000350   0.000677  -0.000006
    20  H   -0.000188   0.000126   0.000016  -0.001147   0.000047   0.000005
    21  C    0.013702  -0.007622   0.021132  -0.160409   0.023983   0.000448
    22  H   -0.000208   0.000008  -0.000344  -0.004254   0.000508   0.000000
    23  H   -0.000259   0.000146  -0.000510   0.006304  -0.000822   0.000000
    24  H    0.000096   0.000399  -0.003118   0.006777   0.000046   0.000000
    25  C   -0.558866  -0.131571  -3.885563  -7.132084   0.423829   0.009200
    26  O    0.012333   0.023231  -0.060675   0.098610   0.014945  -0.000052
    27  O    0.048037  -0.015055   0.153578  -0.737133   0.052067   0.000111
    28  C    0.012474  -0.034511  -0.041555  -0.791123   0.032260   0.000055
    29  H    0.000035  -0.000484   0.003673  -0.000178  -0.000274   0.000000
    30  H   -0.000204   0.000676   0.001659   0.016871  -0.000129   0.000000
    31  H    0.000038   0.000471  -0.007870   0.030916   0.000119   0.000000
               7          8          9         10         11         12
     1  C   -0.020699  -0.016219  -0.725402   0.000801  -0.100106   0.020837
     2  C    0.355105   0.002494   0.521563  -0.000022   0.068011  -0.033848
     3  C    0.035791   0.319214  -1.357039   0.080539  -0.063745   0.021646
     4  C   -0.031392  -0.014069   0.268626   0.037906   0.283654   0.141119
     5  N    0.015245   0.018247   0.135977  -0.118339  -0.304223   0.074349
     6  H   -0.003878  -0.000113   0.040618   0.001717   0.002012   0.000303
     7  H    0.522095  -0.004786  -0.006066   0.000066   0.000043  -0.000061
     8  H   -0.004786   0.509040   0.002655   0.000014   0.000200  -0.000211
     9  C   -0.006066   0.002655   5.977394   0.422504   0.293333  -0.236374
    10  O    0.000066   0.000014   0.422504   8.019695  -0.154580   0.138578
    11  O    0.000043   0.000200   0.293333  -0.154580   8.301696  -0.016079
    12  C   -0.000061  -0.000211  -0.236374   0.138578  -0.016079   6.435758
    13  C    0.000029   0.000068  -0.077793  -0.047321   0.016667   0.024641
    14  H    0.000000   0.000000   0.000818  -0.006568  -0.010642   0.013454
    15  H    0.000000   0.000000   0.020811  -0.000520   0.009057  -0.047489
    16  H    0.000000   0.000000  -0.021448   0.000551  -0.007489   0.007732
    17  C    0.000007   0.000010  -0.029511  -0.068675   0.039596  -0.127008
    18  H    0.000000   0.000000   0.008129   0.000134   0.010899  -0.043793
    19  H    0.000000   0.000000   0.011724  -0.006336  -0.006739  -0.039212
    20  H    0.000000   0.000000  -0.010383   0.000041  -0.010404   0.016788
    21  C   -0.000019   0.000011   0.150828  -0.003217  -0.245541   0.008433
    22  H    0.000000   0.000000   0.000077   0.000144   0.020384  -0.092272
    23  H    0.000000   0.000000  -0.005388  -0.000012  -0.013163   0.029317
    24  H    0.000000   0.000000   0.005387  -0.000152  -0.013846  -0.015070
    25  C    0.009338   0.045835   0.404972  -0.040363  -0.184427  -0.099223
    26  O   -0.000008  -0.001145   0.035274  -0.001868  -0.004025   0.017998
    27  O    0.000053  -0.001526  -0.011262   0.000044  -0.011895  -0.009338
    28  C    0.000093   0.000177   0.001392  -0.000276  -0.008933  -0.010607
    29  H    0.000000  -0.000059  -0.000888  -0.000001   0.000379  -0.001407
    30  H    0.000000   0.000046   0.000344  -0.000001   0.000018  -0.000053
    31  H    0.000000   0.000099  -0.000204   0.000005  -0.000113   0.000338
              13         14         15         16         17         18
     1  C   -0.044109  -0.002874   0.000652  -0.000971  -0.022079   0.000279
     2  C    0.022630  -0.000068   0.000084  -0.000569   0.012005  -0.000089
     3  C   -0.069459  -0.001091  -0.000353   0.001497  -0.000843   0.000031
     4  C   -0.114335  -0.002268  -0.001196  -0.013821   0.100912  -0.001209
     5  N    0.003707  -0.001593   0.000262  -0.000165  -0.092263   0.000773
     6  H    0.000201   0.000011   0.000000   0.000002  -0.000560   0.000000
     7  H    0.000029   0.000000   0.000000   0.000000   0.000007   0.000000
     8  H    0.000068   0.000000   0.000000   0.000000   0.000010   0.000000
     9  C   -0.077793   0.000818   0.020811  -0.021448  -0.029511   0.008129
    10  O   -0.047321  -0.006568  -0.000520   0.000551  -0.068675   0.000134
    11  O    0.016667  -0.010642   0.009057  -0.007489   0.039596   0.010899
    12  C    0.024641   0.013454  -0.047489   0.007732  -0.127008  -0.043793
    13  C    5.932410   0.365596   0.396958   0.400118  -0.238665   0.003712
    14  H    0.365596   0.492517  -0.022823  -0.024291   0.009797  -0.000266
    15  H    0.396958  -0.022823   0.539146  -0.023360  -0.005500  -0.000396
    16  H    0.400118  -0.024291  -0.023360   0.483950   0.002364   0.000031
    17  C   -0.238665   0.009797  -0.005500   0.002364   6.022044   0.397261
    18  H    0.003712  -0.000266  -0.000396   0.000031   0.397261   0.538552
    19  H   -0.025857   0.002542   0.000109   0.000107   0.427925  -0.023538
    20  H    0.020502  -0.000039  -0.000025  -0.000454   0.358263  -0.026354
    21  C   -0.327692   0.011445  -0.008514  -0.000751  -0.260081  -0.011371
    22  H    0.005690  -0.000046  -0.000022  -0.000218  -0.015829   0.000736
    23  H    0.022359  -0.000487   0.000133  -0.000170  -0.007442  -0.000236
    24  H   -0.022664   0.000107   0.000005   0.003314   0.014316   0.000147
    25  C    0.137923   0.000828   0.000746   0.016386  -0.087828   0.001231
    26  O   -0.003393   0.000182   0.000215  -0.001414   0.008581  -0.000002
    27  O   -0.001775   0.000013   0.000007   0.000119  -0.002320   0.000001
    28  C   -0.000624   0.000045   0.000024   0.000478  -0.002842   0.000014
    29  H    0.000214   0.000000   0.000000  -0.000011  -0.000006   0.000000
    30  H   -0.000016   0.000000   0.000000   0.000001   0.000013   0.000000
    31  H    0.000024   0.000000   0.000000  -0.000003  -0.000045   0.000000
              19         20         21         22         23         24
     1  C    0.002308  -0.000188   0.013702  -0.000208  -0.000259   0.000096
     2  C    0.000260   0.000126  -0.007622   0.000008   0.000146   0.000399
     3  C   -0.000347   0.000016   0.021132  -0.000344  -0.000510  -0.003118
     4  C   -0.000350  -0.001147  -0.160409  -0.004254   0.006304   0.006777
     5  N    0.000677   0.000047   0.023983   0.000508  -0.000822   0.000046
     6  H   -0.000006   0.000005   0.000448   0.000000   0.000000   0.000000
     7  H    0.000000   0.000000  -0.000019   0.000000   0.000000   0.000000
     8  H    0.000000   0.000000   0.000011   0.000000   0.000000   0.000000
     9  C    0.011724  -0.010383   0.150828   0.000077  -0.005388   0.005387
    10  O   -0.006336   0.000041  -0.003217   0.000144  -0.000012  -0.000152
    11  O   -0.006739  -0.010404  -0.245541   0.020384  -0.013163  -0.013846
    12  C   -0.039212   0.016788   0.008433  -0.092272   0.029317  -0.015070
    13  C   -0.025857   0.020502  -0.327692   0.005690   0.022359  -0.022664
    14  H    0.002542  -0.000039   0.011445  -0.000046  -0.000487   0.000107
    15  H    0.000109  -0.000025  -0.008514  -0.000022   0.000133   0.000005
    16  H    0.000107  -0.000454  -0.000751  -0.000218  -0.000170   0.003314
    17  C    0.427925   0.358263  -0.260081  -0.015829  -0.007442   0.014316
    18  H   -0.023538  -0.026354  -0.011371   0.000736  -0.000236   0.000147
    19  H    0.483081  -0.025286   0.014343  -0.000001   0.000150  -0.000405
    20  H   -0.025286   0.527210  -0.004489  -0.000116   0.002989   0.000039
    21  C    0.014343  -0.004489   5.931103   0.454908   0.343483   0.406283
    22  H   -0.000001  -0.000116   0.454908   0.530672  -0.027202  -0.026022
    23  H    0.000150   0.002989   0.343483  -0.027202   0.526533  -0.022888
    24  H   -0.000405   0.000039   0.406283  -0.026022  -0.022888   0.502278
    25  C    0.000134   0.001112   0.076460   0.004850  -0.006388  -0.005418
    26  O    0.000030   0.000046  -0.025293   0.000152   0.000290   0.001966
    27  O    0.000002   0.000004   0.009461  -0.000030  -0.000126  -0.000248
    28  C    0.000005  -0.000002   0.014452   0.000005  -0.000314  -0.001766
    29  H    0.000000   0.000000   0.000598   0.000001   0.000002   0.000560
    30  H    0.000000   0.000000  -0.000012   0.000000   0.000001  -0.000008
    31  H    0.000000   0.000000  -0.000097   0.000000  -0.000001  -0.000043
              25         26         27         28         29         30
     1  C   -0.558866   0.012333   0.048037   0.012474   0.000035  -0.000204
     2  C   -0.131571   0.023231  -0.015055  -0.034511  -0.000484   0.000676
     3  C   -3.885563  -0.060675   0.153578  -0.041555   0.003673   0.001659
     4  C   -7.132084   0.098610  -0.737133  -0.791123  -0.000178   0.016871
     5  N    0.423829   0.014945   0.052067   0.032260  -0.000274  -0.000129
     6  H    0.009200  -0.000052   0.000111   0.000055   0.000000   0.000000
     7  H    0.009338  -0.000008   0.000053   0.000093   0.000000   0.000000
     8  H    0.045835  -0.001145  -0.001526   0.000177  -0.000059   0.000046
     9  C    0.404972   0.035274  -0.011262   0.001392  -0.000888   0.000344
    10  O   -0.040363  -0.001868   0.000044  -0.000276  -0.000001  -0.000001
    11  O   -0.184427  -0.004025  -0.011895  -0.008933   0.000379   0.000018
    12  C   -0.099223   0.017998  -0.009338  -0.010607  -0.001407  -0.000053
    13  C    0.137923  -0.003393  -0.001775  -0.000624   0.000214  -0.000016
    14  H    0.000828   0.000182   0.000013   0.000045   0.000000   0.000000
    15  H    0.000746   0.000215   0.000007   0.000024   0.000000   0.000000
    16  H    0.016386  -0.001414   0.000119   0.000478  -0.000011   0.000001
    17  C   -0.087828   0.008581  -0.002320  -0.002842  -0.000006   0.000013
    18  H    0.001231  -0.000002   0.000001   0.000014   0.000000   0.000000
    19  H    0.000134   0.000030   0.000002   0.000005   0.000000   0.000000
    20  H    0.001112   0.000046   0.000004  -0.000002   0.000000   0.000000
    21  C    0.076460  -0.025293   0.009461   0.014452   0.000598  -0.000012
    22  H    0.004850   0.000152  -0.000030   0.000005   0.000001   0.000000
    23  H   -0.006388   0.000290  -0.000126  -0.000314   0.000002   0.000001
    24  H   -0.005418   0.001966  -0.000248  -0.001766   0.000560  -0.000008
    25  C   15.904508   0.368725   0.318880   0.430848  -0.013342   0.019393
    26  O    0.368725   8.066900  -0.204152  -0.081359  -0.004122   0.003675
    27  O    0.318880  -0.204152   8.360742   0.278106  -0.030458  -0.068440
    28  C    0.430848  -0.081359   0.278106   5.141121   0.418373   0.392819
    29  H   -0.013342  -0.004122  -0.030458   0.418373   0.534940  -0.028102
    30  H    0.019393   0.003675  -0.068440   0.392819  -0.028102   0.537449
    31  H   -0.031760  -0.001160  -0.024543   0.411902  -0.036846  -0.028708
              31
     1  C    0.000038
     2  C    0.000471
     3  C   -0.007870
     4  C    0.030916
     5  N    0.000119
     6  H    0.000000
     7  H    0.000000
     8  H    0.000099
     9  C   -0.000204
    10  O    0.000005
    11  O   -0.000113
    12  C    0.000338
    13  C    0.000024
    14  H    0.000000
    15  H    0.000000
    16  H   -0.000003
    17  C   -0.000045
    18  H    0.000000
    19  H    0.000000
    20  H    0.000000
    21  C   -0.000097
    22  H    0.000000
    23  H   -0.000001
    24  H   -0.000043
    25  C   -0.031760
    26  O   -0.001160
    27  O   -0.024543
    28  C    0.411902
    29  H   -0.036846
    30  H   -0.028708
    31  H    0.527050
 Mulliken charges:
               1
     1  C    0.068173
     2  C   -0.396676
     3  C    0.014280
     4  C   -0.251323
     5  N    0.134397
     6  H    0.149817
     7  H    0.129044
     8  H    0.140017
     9  C    0.179334
    10  O   -0.254489
    11  O    0.110005
    12  C   -0.179244
    13  C   -0.379746
    14  H    0.175701
    15  H    0.141987
    16  H    0.178486
    17  C   -0.431597
    18  H    0.145324
    19  H    0.184681
    20  H    0.151700
    21  C   -0.425966
    22  H    0.148427
    23  H    0.153700
    24  H    0.169928
    25  C    0.001638
    26  O   -0.264484
    27  O   -0.102923
    28  C   -0.160732
    29  H    0.157402
    30  H    0.152708
    31  H    0.160431
 Sum of Mulliken charges =   0.00000
 Mulliken charges with hydrogens summed into heavy atoms:
               1
     1  C    0.217990
     2  C   -0.267633
     3  C    0.154297
     4  C   -0.251323
     5  N    0.134397
     9  C    0.179334
    10  O   -0.254489
    11  O    0.110005
    12  C   -0.179244
    13  C    0.116428
    17  C    0.050108
    21  C    0.046089
    25  C    0.001638
    26  O   -0.264484
    27  O   -0.102923
    28  C    0.309810
 Electronic spatial extent (au):  <R**2>=           3765.0769
 Charge=              0.0000 electrons
 Dipole moment (field-independent basis, Debye):
    X=             -0.3895    Y=             -1.5630    Z=              1.5639  Tot=              2.2451
 Quadrupole moment (field-independent basis, Debye-Ang):
   XX=            -83.7052   YY=            -88.4020   ZZ=            -99.7664
   XY=             -2.3690   XZ=              2.0242   YZ=              1.2939
 Traceless Quadrupole moment (field-independent basis, Debye-Ang):
   XX=              6.9194   YY=              2.2226   ZZ=             -9.1419
   XY=             -2.3690   XZ=              2.0242   YZ=              1.2939
 Octapole moment (field-independent basis, Debye-Ang**2):
  XXX=             -5.9916  YYY=            -18.5514  ZZZ=             -2.7220  XYY=            -33.2085
  XXY=            -25.4272  XXZ=              2.2590  XZZ=              5.0911  YZZ=             -7.0893
  YYZ=              9.5390  XYZ=              0.7071
 Hexadecapole moment (field-independent basis, Debye-Ang**3):
 XXXX=          -2772.4086 YYYY=          -1618.0373 ZZZZ=           -374.7430 XXXY=             22.3007
 XXXZ=             -9.1013 YYYX=             58.0694 YYYZ=              8.4534 ZZZX=              6.3491
 ZZZY=             -5.3756 XXYY=           -704.5758 XXZZ=           -566.2458 YYZZ=           -379.0860
 XXYZ=             20.0903 YYXZ=             -0.5884 ZZXY=             19.7503
 N-N= 1.172008613136D+03 E-N=-4.176086944694D+03  KE= 7.809911380681D+02
 There are a total of      256512 grid points.
 ElSum from          density=      119.9999713793
 ElSum from atomic densities=      119.9999549955

 Hirshfeld populations at iteration   1 (CX, CA, CB, DipXYZ):
               1          2          3          4          5          6
     1  C    0.000000   2.996841   2.996841   0.093220   0.024429  -0.025458
     2  C    0.000001   3.038310   3.038310  -0.080990   0.058335   0.017024
     3  C    0.000001   3.027636   3.027636  -0.099551  -0.000634   0.019832
     4  C    0.000000   2.993892   2.993892   0.089109  -0.041841  -0.029632
     5  N    0.000000   3.518581   3.518581   0.044626  -0.030149  -0.008417
     6  H    0.000002   0.467427   0.467427   0.084667   0.145324  -0.009197
     7  H    0.000003   0.472542   0.472542  -0.104809   0.131505   0.027426
     8  H    0.000002   0.471461   0.471461  -0.159987  -0.046455   0.027335
     9  C    0.000000   2.861143   2.861143  -0.014195  -0.060547   0.019563
    10  O    0.000001   4.137450   4.137450  -0.027623  -0.074503   0.047385
    11  O    0.000000   4.058773   4.058773   0.107620   0.027014  -0.067928
    12  C    0.000000   2.947068   2.947068  -0.063871   0.038991   0.001207
    13  C    0.000000   3.052813   3.052813   0.012441  -0.006622   0.001198
    14  H    0.000001   0.480562   0.480562   0.031517   0.109628  -0.086589
    15  H    0.000001   0.479100   0.479100   0.126930  -0.076839  -0.018503
    16  H    0.000001   0.478068   0.478068  -0.092560  -0.080591  -0.075484
    17  C    0.000000   3.053082   3.053082   0.011622  -0.008826  -0.003408
    18  H    0.000000   0.478891   0.478891   0.136084  -0.062825  -0.000575
    19  H    0.000000   0.480612   0.480612   0.038253   0.124837  -0.055637
    20  H    0.000001   0.480402   0.480402  -0.031466   0.027800   0.143565
    21  C    0.000000   3.050994   3.050994   0.013040  -0.004124  -0.003239
    22  H    0.000000   0.479214   0.479214   0.128354  -0.077771  -0.002364
    23  H    0.000001   0.480051   0.480051  -0.036145   0.014102   0.144642
    24  H    0.000000   0.478840   0.478840  -0.092446  -0.093526  -0.056983
    25  C    0.000000   2.895190   2.895190  -0.055572  -0.053510   0.034396
    26  O    0.000001   4.142939   4.142939  -0.048790   0.028888   0.069772
    27  O    0.000000   4.066914   4.066914   0.069306  -0.079732  -0.093637
    28  C    0.000000   3.004960   3.004960  -0.006831   0.050349   0.022163
    29  H    0.000000   0.476242   0.476242   0.111528  -0.095954   0.046539
    30  H    0.000000   0.474043   0.474043  -0.126713  -0.061298   0.075919
    31  H    0.000000   0.475945   0.475945  -0.035178  -0.031031  -0.147254
       Tot   0.000018  59.999986  59.999986   0.021592  -0.205577   0.013663

 Dip from Atomic Chgs             -0.174916  -0.409670   0.601277
         Total Dipole             -0.153324  -0.615247   0.614941

 Hirshfeld charges, spin densities, dipoles, and CM5 charges using IRadAn=      4:
              Q-H        S-H        Dx         Dy         Dz        Q-CM5   
     1  C    0.006318   0.000000   0.093220   0.024429  -0.025458   0.022031
     2  C   -0.076620   0.000000  -0.080990   0.058335   0.017024  -0.123140
     3  C   -0.055272   0.000000  -0.099551  -0.000634   0.019832  -0.098558
     4  C    0.012216   0.000000   0.089109  -0.041841  -0.029632   0.078078
     5  N   -0.037162   0.000000   0.044626  -0.030149  -0.008417  -0.271046
     6  H    0.065145   0.000000   0.084667   0.145324  -0.009197   0.133456
     7  H    0.054915   0.000000  -0.104809   0.131505   0.027426   0.110926
     8  H    0.057077   0.000000  -0.159987  -0.046455   0.027335   0.116200
     9  C    0.277714   0.000000  -0.014195  -0.060547   0.019563   0.400122
    10  O   -0.274900   0.000000  -0.027623  -0.074503   0.047385  -0.322215
    11  O   -0.117547   0.000000   0.107620   0.027014  -0.067928  -0.182684
    12  C    0.105864   0.000000  -0.063871   0.038991   0.001207   0.094752
    13  C   -0.105626   0.000000   0.012441  -0.006622   0.001198  -0.249435
    14  H    0.038875   0.000000   0.031517   0.109628  -0.086589   0.097132
    15  H    0.041801   0.000000   0.126930  -0.076839  -0.018503   0.094662
    16  H    0.043864   0.000000  -0.092560  -0.080591  -0.075484   0.100369
    17  C   -0.106163   0.000000   0.011622  -0.008826  -0.003408  -0.249943
    18  H    0.042219   0.000000   0.136084  -0.062825  -0.000575   0.094988
    19  H    0.038776   0.000000   0.038253   0.124837  -0.055637   0.097056
    20  H    0.039196   0.000000  -0.031466   0.027800   0.143565   0.093774
    21  C   -0.101989   0.000000   0.013040  -0.004124  -0.003239  -0.245658
    22  H    0.041572   0.000000   0.128354  -0.077771  -0.002364   0.094409
    23  H    0.039898   0.000000  -0.036145   0.014102   0.144642   0.094883
    24  H    0.042321   0.000000  -0.092446  -0.093526  -0.056983   0.098709
    25  C    0.209620   0.000000  -0.055572  -0.053510   0.034396   0.273055
    26  O   -0.285879   0.000000  -0.048790   0.028888   0.069772  -0.333358
    27  O   -0.133828   0.000000   0.069306  -0.079732  -0.093637  -0.218162
    28  C   -0.009921   0.000000  -0.006831   0.050349   0.022163  -0.131438
    29  H    0.047517   0.000000   0.111528  -0.095954   0.046539   0.108996
    30  H    0.051914   0.000000  -0.126713  -0.061298   0.075919   0.112523
    31  H    0.048111   0.000000  -0.035178  -0.031031  -0.147254   0.109545
       Tot   0.000029   0.000000   0.021592  -0.205577   0.013663   0.000029
 Hirshfeld charges with hydrogens summed into heavy atoms:
              Q-H       Q-CM5   
     1  C    0.071464   0.155487
     2  C   -0.021705  -0.012215
     3  C    0.001805   0.017642
     4  C    0.012216   0.078078
     5  N   -0.037162  -0.271046
     9  C    0.277714   0.400122
    10  O   -0.274900  -0.322215
    11  O   -0.117547  -0.182684
    12  C    0.105864   0.094752
    13  C    0.018915   0.042728
    17  C    0.014028   0.035876
    21  C    0.021802   0.042343
    25  C    0.209620   0.273055
    26  O   -0.285879  -0.333358
    27  O   -0.133828  -0.218162
    28  C    0.137621   0.199627
 
 EQQ= 0.000000000000E+00 EQD= 0.000000000000E+00 EDD= 0.202794959423E-02
 EQQ+QD+DD= 0.202794959423E-02
 
          MBS Condensed to atoms (all electrons):
               1          2          3          4          5          6
     1  C    4.825357   0.543641  -0.052601  -0.065923   0.406972   0.389631
     2  C    0.543641   4.871592   0.478510  -0.051694  -0.051832  -0.017729
     3  C   -0.052601   0.478510   4.854711   0.530022  -0.053295   0.001657
     4  C   -0.065923  -0.051694   0.530022   4.835506   0.390758   0.001904
     5  N    0.406972  -0.051832  -0.053295   0.390758   6.292935  -0.021475
     6  H    0.389631  -0.017729   0.001657   0.001904  -0.021475   0.494792
     7  H   -0.021175   0.392571  -0.019123   0.001652   0.001266  -0.001425
     8  H    0.001727  -0.018433   0.390171  -0.021655   0.001238  -0.000032
     9  C   -0.028786   0.001402   0.001174  -0.020936   0.338995  -0.002321
    10  O   -0.001826   0.000013  -0.000005   0.000404  -0.029938   0.001792
    11  O    0.000458  -0.000004   0.000001   0.000055  -0.035217   0.000024
    12  C   -0.000015   0.000000   0.000000   0.000008   0.000964   0.000000
    13  C    0.000000   0.000000   0.000000   0.000001  -0.000020   0.000000
    14  H    0.000000   0.000000   0.000000  -0.000001   0.000009   0.000000
    15  H    0.000000   0.000000   0.000000   0.000000   0.000001   0.000000
    16  H    0.000000   0.000000   0.000000  -0.000001  -0.000008   0.000000
    17  C    0.000001   0.000000   0.000000   0.000000  -0.000016   0.000000
    18  H    0.000000   0.000000   0.000000   0.000000   0.000000   0.000000
    19  H    0.000000   0.000000   0.000000   0.000000   0.000008   0.000000
    20  H    0.000000   0.000000   0.000000   0.000000  -0.000003   0.000000
    21  C    0.000000   0.000000   0.000000  -0.000002  -0.000011   0.000000
    22  H    0.000000   0.000000   0.000000   0.000000   0.000000   0.000000
    23  H    0.000000   0.000000   0.000000   0.000000  -0.000002   0.000000
    24  H    0.000000   0.000000   0.000000   0.000000  -0.000002   0.000000
    25  C    0.001047   0.000934  -0.019620   0.406495  -0.018725  -0.000018
    26  O    0.000002  -0.000003   0.000191  -0.026399  -0.000407   0.000000
    27  O   -0.000003   0.000010  -0.001337  -0.036534   0.000137   0.000000
    28  C    0.000000   0.000000   0.000019   0.001731  -0.000005   0.000000
    29  H    0.000000   0.000000  -0.000002   0.000008   0.000000   0.000000
    30  H    0.000000   0.000000  -0.000002  -0.000027   0.000000   0.000000
    31  H    0.000000   0.000000   0.000003   0.000019   0.000000   0.000000
               7          8          9         10         11         12
     1  C   -0.021175   0.001727  -0.028786  -0.001826   0.000458  -0.000015
     2  C    0.392571  -0.018433   0.001402   0.000013  -0.000004   0.000000
     3  C   -0.019123   0.390171   0.001174  -0.000005   0.000001   0.000000
     4  C    0.001652  -0.021655  -0.020936   0.000404   0.000055   0.000008
     5  N    0.001266   0.001238   0.338995  -0.029938  -0.035217   0.000964
     6  H   -0.001425  -0.000032  -0.002321   0.001792   0.000024   0.000000
     7  H    0.525815  -0.001575  -0.000021   0.000000   0.000000   0.000000
     8  H   -0.001575   0.515286  -0.000019   0.000000   0.000000   0.000000
     9  C   -0.000021  -0.000019   4.347346   0.462661   0.318184  -0.025014
    10  O    0.000000   0.000000   0.462661   8.055034  -0.020515  -0.000613
    11  O    0.000000   0.000000   0.318184  -0.020515   7.934695   0.231773
    12  C    0.000000   0.000000  -0.025014  -0.000613   0.231773   4.645289
    13  C    0.000000   0.000000  -0.002760  -0.001153  -0.017112   0.368285
    14  H    0.000000   0.000000   0.000007   0.001983  -0.000922  -0.020683
    15  H    0.000000   0.000000   0.000051   0.000020   0.000674  -0.019450
    16  H    0.000000   0.000000   0.000138   0.000015  -0.000863  -0.021407
    17  C    0.000000   0.000000  -0.001575  -0.001304  -0.017649   0.368297
    18  H    0.000000   0.000000   0.000021   0.000025   0.000687  -0.019333
    19  H    0.000000   0.000000  -0.000097   0.002506  -0.000930  -0.020561
    20  H    0.000000   0.000000   0.000049   0.000027  -0.000603  -0.021685
    21  C    0.000000   0.000000   0.001449  -0.000001  -0.023982   0.372328
    22  H    0.000000   0.000000  -0.000042   0.000000   0.000840  -0.019883
    23  H    0.000000   0.000000   0.000028   0.000000  -0.000585  -0.021543
    24  H    0.000000   0.000000   0.000033   0.000000  -0.000665  -0.021381
    25  C   -0.000014  -0.001708  -0.001030   0.000001   0.000278  -0.000015
    26  O    0.000000   0.000006   0.000430   0.000000  -0.000570   0.000033
    27  O    0.000000   0.000935   0.000002   0.000000   0.000000   0.000000
    28  C    0.000000  -0.000032   0.000000   0.000000   0.000000   0.000000
    29  H    0.000000   0.000001   0.000000   0.000000   0.000000   0.000000
    30  H    0.000000   0.000000   0.000000   0.000000   0.000000   0.000000
    31  H    0.000000   0.000001   0.000000   0.000000   0.000000   0.000000
              13         14         15         16         17         18
     1  C    0.000000   0.000000   0.000000   0.000000   0.000001   0.000000
     2  C    0.000000   0.000000   0.000000   0.000000   0.000000   0.000000
     3  C    0.000000   0.000000   0.000000   0.000000   0.000000   0.000000
     4  C    0.000001  -0.000001   0.000000  -0.000001   0.000000   0.000000
     5  N   -0.000020   0.000009   0.000001  -0.000008  -0.000016   0.000000
     6  H    0.000000   0.000000   0.000000   0.000000   0.000000   0.000000
     7  H    0.000000   0.000000   0.000000   0.000000   0.000000   0.000000
     8  H    0.000000   0.000000   0.000000   0.000000   0.000000   0.000000
     9  C   -0.002760   0.000007   0.000051   0.000138  -0.001575   0.000021
    10  O   -0.001153   0.001983   0.000020   0.000015  -0.001304   0.000025
    11  O   -0.017112  -0.000922   0.000674  -0.000863  -0.017649   0.000687
    12  C    0.368285  -0.020683  -0.019450  -0.021407   0.368297  -0.019333
    13  C    4.864880   0.375385   0.370715   0.375200  -0.026548  -0.001241
    14  H    0.375385   0.573426  -0.020552  -0.021329  -0.002738   0.000089
    15  H    0.370715  -0.020552   0.601215  -0.019812  -0.001155   0.000119
    16  H    0.375200  -0.021329  -0.019812   0.574286   0.001388   0.000018
    17  C   -0.026548  -0.002738  -0.001155   0.001388   4.859079   0.370363
    18  H   -0.001241   0.000089   0.000119   0.000018   0.370363   0.600542
    19  H   -0.002556   0.000757   0.000078   0.000014   0.375047  -0.020083
    20  H    0.001427   0.000018   0.000012  -0.000058   0.374505  -0.020690
    21  C   -0.027473   0.001424  -0.002299  -0.002552  -0.027932  -0.002021
    22  H   -0.001640   0.000022   0.000215   0.000101  -0.001553   0.000199
    23  H    0.001502  -0.000058   0.000034   0.000008  -0.002679   0.000087
    24  H   -0.002726   0.000017   0.000090   0.000779   0.001475   0.000028
    25  C    0.000009   0.000000   0.000000  -0.000036   0.000000   0.000000
    26  O   -0.000147   0.000003   0.000002   0.000842   0.000000   0.000000
    27  O    0.000000   0.000000   0.000000   0.000000   0.000000   0.000000
    28  C    0.000000   0.000000   0.000000   0.000000   0.000000   0.000000
    29  H    0.000000   0.000000   0.000000   0.000000   0.000000   0.000000
    30  H    0.000000   0.000000   0.000000   0.000000   0.000000   0.000000
    31  H    0.000000   0.000000   0.000000   0.000000   0.000000   0.000000
              19         20         21         22         23         24
     1  C    0.000000   0.000000   0.000000   0.000000   0.000000   0.000000
     2  C    0.000000   0.000000   0.000000   0.000000   0.000000   0.000000
     3  C    0.000000   0.000000   0.000000   0.000000   0.000000   0.000000
     4  C    0.000000   0.000000  -0.000002   0.000000   0.000000   0.000000
     5  N    0.000008  -0.000003  -0.000011   0.000000  -0.000002  -0.000002
     6  H    0.000000   0.000000   0.000000   0.000000   0.000000   0.000000
     7  H    0.000000   0.000000   0.000000   0.000000   0.000000   0.000000
     8  H    0.000000   0.000000   0.000000   0.000000   0.000000   0.000000
     9  C   -0.000097   0.000049   0.001449  -0.000042   0.000028   0.000033
    10  O    0.002506   0.000027  -0.000001   0.000000   0.000000   0.000000
    11  O   -0.000930  -0.000603  -0.023982   0.000840  -0.000585  -0.000665
    12  C   -0.020561  -0.021685   0.372328  -0.019883  -0.021543  -0.021381
    13  C   -0.002556   0.001427  -0.027473  -0.001640   0.001502  -0.002726
    14  H    0.000757   0.000018   0.001424   0.000022  -0.000058   0.000017
    15  H    0.000078   0.000012  -0.002299   0.000215   0.000034   0.000090
    16  H    0.000014  -0.000058  -0.002552   0.000101   0.000008   0.000779
    17  C    0.375047   0.374505  -0.027932  -0.001553  -0.002679   0.001475
    18  H   -0.020083  -0.020690  -0.002021   0.000199   0.000087   0.000028
    19  H    0.569187  -0.021677   0.001411   0.000025   0.000012  -0.000058
    20  H   -0.021677   0.597656  -0.002638   0.000094   0.000921   0.000009
    21  C    0.001411  -0.002638   4.842619   0.372817   0.375093   0.375443
    22  H    0.000025   0.000094   0.372817   0.600028  -0.020805  -0.020255
    23  H    0.000012   0.000921   0.375093  -0.020805   0.595001  -0.021815
    24  H   -0.000058   0.000009   0.375443  -0.020255  -0.021815   0.580425
    25  C    0.000000   0.000000  -0.000010   0.000000   0.000003   0.000011
    26  O    0.000000   0.000000  -0.000100   0.000001   0.000002   0.000599
    27  O    0.000000   0.000000   0.000000   0.000000   0.000000  -0.000003
    28  C    0.000000   0.000000   0.000000   0.000000   0.000000  -0.000001
    29  H    0.000000   0.000000  -0.000002   0.000000   0.000000   0.000045
    30  H    0.000000   0.000000   0.000000   0.000000   0.000000   0.000000
    31  H    0.000000   0.000000   0.000000   0.000000   0.000000  -0.000001
              25         26         27         28         29         30
     1  C    0.001047   0.000002  -0.000003   0.000000   0.000000   0.000000
     2  C    0.000934  -0.000003   0.000010   0.000000   0.000000   0.000000
     3  C   -0.019620   0.000191  -0.001337   0.000019  -0.000002  -0.000002
     4  C    0.406495  -0.026399  -0.036534   0.001731   0.000008  -0.000027
     5  N   -0.018725  -0.000407   0.000137  -0.000005   0.000000   0.000000
     6  H   -0.000018   0.000000   0.000000   0.000000   0.000000   0.000000
     7  H   -0.000014   0.000000   0.000000   0.000000   0.000000   0.000000
     8  H   -0.001708   0.000006   0.000935  -0.000032   0.000001   0.000000
     9  C   -0.001030   0.000430   0.000002   0.000000   0.000000   0.000000
    10  O    0.000001   0.000000   0.000000   0.000000   0.000000   0.000000
    11  O    0.000278  -0.000570   0.000000   0.000000   0.000000   0.000000
    12  C   -0.000015   0.000033   0.000000   0.000000   0.000000   0.000000
    13  C    0.000009  -0.000147   0.000000   0.000000   0.000000   0.000000
    14  H    0.000000   0.000003   0.000000   0.000000   0.000000   0.000000
    15  H    0.000000   0.000002   0.000000   0.000000   0.000000   0.000000
    16  H   -0.000036   0.000842   0.000000   0.000000   0.000000   0.000000
    17  C    0.000000   0.000000   0.000000   0.000000   0.000000   0.000000
    18  H    0.000000   0.000000   0.000000   0.000000   0.000000   0.000000
    19  H    0.000000   0.000000   0.000000   0.000000   0.000000   0.000000
    20  H    0.000000   0.000000   0.000000   0.000000   0.000000   0.000000
    21  C   -0.000010  -0.000100   0.000000   0.000000  -0.000002   0.000000
    22  H    0.000000   0.000001   0.000000   0.000000   0.000000   0.000000
    23  H    0.000003   0.000002   0.000000   0.000000   0.000000   0.000000
    24  H    0.000011   0.000599  -0.000003  -0.000001   0.000045   0.000000
    25  C    4.439658   0.455081   0.289764  -0.033253  -0.003501   0.002448
    26  O    0.455081   8.075080  -0.023748  -0.001667   0.001241   0.000079
    27  O    0.289764  -0.023748   7.937766   0.259324  -0.016323  -0.019865
    28  C   -0.033253  -0.001667   0.259324   4.728870   0.372872   0.378907
    29  H   -0.003501   0.001241  -0.016323   0.372872   0.576226  -0.022219
    30  H    0.002448   0.000079  -0.019865   0.378907  -0.022219   0.564327
    31  H   -0.003743   0.001244  -0.016174   0.372513  -0.025040  -0.021895
              31
     1  C    0.000000
     2  C    0.000000
     3  C    0.000003
     4  C    0.000019
     5  N    0.000000
     6  H    0.000000
     7  H    0.000000
     8  H    0.000001
     9  C    0.000000
    10  O    0.000000
    11  O    0.000000
    12  C    0.000000
    13  C    0.000000
    14  H    0.000000
    15  H    0.000000
    16  H    0.000000
    17  C    0.000000
    18  H    0.000000
    19  H    0.000000
    20  H    0.000000
    21  C    0.000000
    22  H    0.000000
    23  H    0.000000
    24  H   -0.000001
    25  C   -0.003743
    26  O    0.001244
    27  O   -0.016174
    28  C    0.372513
    29  H   -0.025040
    30  H   -0.021895
    31  H    0.575840
 MBS Mulliken charges:
               1
     1  C    0.001490
     2  C   -0.148979
     3  C   -0.110473
     4  C    0.054611
     5  N   -0.222324
     6  H    0.153200
     7  H    0.122029
     8  H    0.134088
     9  C    0.610632
    10  O   -0.469126
    11  O   -0.368050
    12  C    0.224607
    13  C   -0.274025
    14  H    0.113145
    15  H    0.090045
    16  H    0.113278
    17  C   -0.267005
    18  H    0.091191
    19  H    0.116917
    20  H    0.092635
    21  C   -0.253561
    22  H    0.089834
    23  H    0.094798
    24  H    0.107952
    25  C    0.485943
    26  O   -0.481792
    27  O   -0.373952
    28  C   -0.079277
    29  H    0.116694
    30  H    0.118244
    31  H    0.117233
 Sum of MBS Mulliken charges =   0.00000
 MBS Mulliken charges with hydrogens summed into heavy atoms:
               1
     1  C    0.154690
     2  C   -0.026951
     3  C    0.023614
     4  C    0.054611
     5  N   -0.222324
     9  C    0.610632
    10  O   -0.469126
    11  O   -0.368050
    12  C    0.224607
    13  C    0.042443
    17  C    0.033738
    21  C    0.039023
    25  C    0.485943
    26  O   -0.481792
    27  O   -0.373952
    28  C    0.272894
 Breneman (CHELPG) radii used.
 Generate Potential Derived Charges using the Breneman model, NDens= 1.
 Grid spacing= 0.300 Box extension= 2.800
 NStep X,Y,Z=   47     44     33   Total possible points=       68244
 Number of Points to Fit=   18192

 **********************************************************************

            Electrostatic Properties Using The SCF Density

 **********************************************************************

       Atomic Center    1 is at  -1.084255  2.674801  0.026907
       Atomic Center    2 is at  -2.418971  2.607025  0.335201
[...]
 1115,0.00001696,0.00011899,-0.00010567,0.00012992,-0.00023901,-0.00008
 269,0.00021848,0.00044921,-0.00008861,-0.00007235,-0.00021777,-0.00013
 653,0.00004445,-0.00012973,-0.00004074,-0.00009532,0.00010689,0.000017
 90,0.00008333,0.00006040,-0.00003085,-0.00032554,-0.00022847,-0.000021
 82,0.00002403,-0.00001061,-0.00016228,0.00032654,-0.00004275,-0.000265
 86,0.00011711,-0.00012567,0.00051434,0.05303312,-0.19756059,0.31592269
 ,-0.00216122,-0.00407041,-0.00107892,-0.00364494,-0.00071267,-0.001850
 42,-0.00336057,0.00508514,-0.00067707,-0.00928572,-0.04813437,0.007865
 43,0.00511561,0.00319353,0.00282585,0.00002243,-0.00006512,0.00006829,
 -0.00070232,0.00007155,-0.00042157,0.00005840,-0.00027471,0.00021943,0
 .00153254,-0.00499179,0.00007550,-0.00089822,0.00211223,-0.00083428,-0
 .00557672,0.00497770,0.00369510,-0.00095578,-0.00310969,-0.00077967,-0
 .00008839,0.00048672,0.00018741,0.00008810,-0.00020614,0.00004715,0.00
 010280,0.00013544,-0.00009284,-0.00021355,0.00035446,-0.00011972,0.000
 18644,0.00068656,0.00015044,-0.00015606,0.00021714,0.00009312,0.000136
 48,-0.00016875,-0.00000955,0.00006980,-0.00006680,-0.00010259,-0.00039
 647,0.00034872,0.00008171,0.00016847,0.00002642,0.00009474,0.00005001,
 -0.00004722,-0.00008164,0.00007589,0.00022039,0.00020754,-0.17078758,-
 0.17735053,0.04777994,0.16213247,-0.00580941,-0.00809753,-0.00360163,-
 0.00631168,0.00440741,-0.00317828,0.00383208,0.01024941,0.00185952,-0.
 03446978,-0.04135746,0.01023093,0.00510298,0.00653875,0.00337042,0.000
 15828,-0.00019327,-0.00010027,-0.00056367,0.00006872,-0.00019930,0.000
 07185,0.00048988,0.00074545,-0.00493739,-0.01380424,-0.00739291,0.0003
 3730,0.00344272,0.00160450,0.01057953,0.00379196,0.00285216,-0.0013474
 2,-0.00017032,0.00047676,-0.00145403,-0.00000142,0.00050309,0.00024656
 ,-0.00019555,0.00002663,0.00055954,-0.00027992,-0.00029733,0.00080524,
 0.00088155,-0.00061491,0.00011203,0.00031920,0.00004673,-0.00002991,0.
 00001475,0.00003634,0.00015338,-0.00012928,0.00005973,0.00012752,0.000
 00656,-0.00019754,-0.00140870,0.00007585,0.00004059,0.00051965,-0.0002
 8370,-0.00007214,0.00034060,0.00000038,-0.00026853,0.00085112,0.000570
 70,0.00071054,-0.17238402,-0.56089772,0.16373545,0.19235170,0.66894044
 ,0.00035297,0.00006263,0.00019913,0.00025532,0.00020949,-0.00111717,-0
 .00023940,-0.00087817,0.00337690,-0.00142594,0.00637241,0.01577703,0.0
 0020535,-0.00101544,0.00091098,0.00013472,-0.00002043,-0.00019698,0.00
 033050,-0.00002686,-0.00044568,-0.00024927,-0.00032687,0.00009532,0.00
 080258,-0.00057784,-0.00210381,0.00033989,-0.00036475,0.00102620,0.002
 17579,-0.00002741,0.00119771,-0.00012701,0.00020370,-0.00069157,0.0003
 8133,0.00007792,0.00013160,0.00012270,-0.00011219,0.00005590,-0.000128
 57,0.00011162,0.00012404,-0.00021136,-0.00030813,-0.00025372,0.0000508
 9,-0.00004677,0.00022175,-0.00000319,0.00001207,-0.00002229,0.00009454
 ,-0.00001776,-0.00000908,-0.00008375,-0.00002092,0.00004362,-0.0005142
 3,-0.00010906,0.00011200,0.00021539,-0.00013108,-0.00001980,-0.0000410
 5,0.00001507,0.00011201,0.00029999,0.00028449,-0.00016045,0.05004520,0
 .16017421,-0.13460387,-0.04729862,-0.22138103,0.12124715,-0.00433510,-
 0.00090495,-0.00171845,-0.00302269,0.00162157,-0.00063370,0.00037651,0
 .00412586,-0.00113486,-0.04368471,0.01907578,-0.02894010,-0.00266615,-
 0.00347812,-0.00092208,-0.00038237,-0.00057598,0.00008822,-0.00043019,
 -0.00009936,0.00002000,-0.00092803,-0.00017789,-0.00075760,0.00171489,
 -0.00722563,-0.00181109,-0.00122097,0.00256908,-0.00040576,0.00032027,
 0.00331929,0.00249380,-0.00015823,-0.00266323,-0.00115536,0.00022028,0
 .00045018,0.00011834,-0.00000333,-0.00018623,0.00009427,-0.00003167,0.
 00027862,0.00001670,-0.00013880,-0.00033559,0.00000812,0.00008287,0.00
 041602,0.00015328,-0.00008051,0.00020051,0.00008115,0.00012881,-0.0001
 7873,-0.00002585,-0.00001426,-0.00008982,-0.00003799,0.00003284,0.0003
 2416,0.00015840,0.00000266,0.00015269,0.00012309,-0.00011594,-0.000060
 28,0.00001078,-0.00010462,-0.00016380,-0.00033042,-0.15721890,0.046375
 12,-0.05337341,0.02500280,0.02078057,-0.01188496,0.43853080,-0.0002545
 0,0.00198188,0.00010299,0.00221075,0.00001547,0.00088648,-0.00294729,-
 0.00466016,-0.00083979,0.00421773,0.01357985,0.00117023,-0.00429383,0.
 00105026,-0.00174680,-0.00014668,0.00000124,-0.00007394,0.00017277,-0.
 00000785,-0.00005131,-0.00052174,0.00112740,-0.00028410,-0.00189979,-0
 .00198551,-0.00095199,0.00026585,0.00040545,0.00020660,0.00182052,0.00
 028867,-0.00008502,-0.00037674,0.00059122,0.00054916,-0.00052752,-0.00
 007984,0.00007183,0.00004664,0.00001713,-0.00002802,0.00018434,-0.0001
 7605,-0.00011432,0.00023260,0.00048891,-0.00011077,0.00001306,-0.00001
 121,-0.00005617,0.00000736,-0.00005206,-0.00000828,-0.00000547,0.00001
 920,0.00002380,0.00006147,0.00002982,-0.00005702,-0.00032401,-0.000017
 11,0.00001739,0.00009612,-0.00009079,-0.00005542,0.00014173,0.00000590
 ,-0.00010705,0.00016420,0.00017180,0.00032145,0.02016590,-0.14756701,0
 .04530480,0.02488600,-0.07258899,0.05779713,0.00179956,0.30254405,-0.0
 0183298,-0.00095744,-0.00096139,-0.00161718,0.00125924,-0.00046937,0.0
 0080323,0.00285851,0.00037844,-0.02288691,0.00448366,-0.00259921,0.000
 22257,-0.00128847,0.00279886,0.00012611,-0.00013889,-0.00028251,-0.000
 11260,-0.00005746,-0.00006233,-0.00047978,-0.00026354,-0.00039359,0.00
 143200,-0.00221379,-0.00026654,-0.00059927,0.00093938,-0.00027975,-0.0
 0115577,0.00129464,0.00136521,0.00013181,-0.00155434,-0.00089396,0.000
 41903,0.00025076,0.00000442,-0.00004344,-0.00007551,0.00007686,-0.0001
 2143,0.00021413,0.00004934,-0.00021361,-0.00037940,0.00011340,0.000052
 94,0.00020050,0.00010479,-0.00004342,0.00011215,0.00003627,0.00006929,
 -0.00008772,-0.00001581,-0.00005557,-0.00005225,0.00001883,0.00022749,
 0.00017708,0.00003240,-0.00003922,0.00006946,0.00011184,-0.00020510,0.
 00000281,0.00013389,-0.00014475,-0.00005460,-0.00038215,-0.04208676,0.
 05483243,-0.10433091,-0.01080217,0.05441572,-0.00251488,0.12029188,-0.
 10982955,0.16897294,0.00110166,0.00075480,0.00048311,0.00087026,-0.000
 67653,0.00013277,-0.00039307,-0.00114474,0.00028586,0.00288911,0.00330
 724,0.00010043,0.00054010,-0.00124736,-0.00100483,-0.00004874,0.000000
 68,0.00012313,0.00016787,0.00002507,0.00003527,-0.00016315,-0.00069221
 ,-0.00005837,-0.00094181,0.00244873,0.00018214,0.00063365,-0.00098749,
 0.00035894,0.00027387,-0.00133151,-0.00078724,-0.00000945,0.00135111,0
 .00056459,-0.00013995,-0.00022818,-0.00003147,0.00000716,0.00007948,-0
 .00003297,0.00004538,-0.00015147,-0.00002055,0.00009991,0.00022380,-0.
 00003042,-0.00003533,-0.00018621,-0.00008419,0.00003742,-0.00010006,-0
 .00003711,-0.00005316,0.00007966,0.00001714,-0.00000184,0.00004514,0.0
 0002201,-0.00003059,-0.00016269,-0.00013915,0.00003049,-0.00011541,-0.
 00004185,0.00001346,0.00005948,0.00003931,0.00012123,0.00015128,0.0001
 8128,-0.04933275,0.01700425,-0.02446877,-0.00041209,-0.01498776,0.0089
 2467,-0.17022180,-0.03060570,-0.01874494,0.44693401,0.00043592,0.00000
 522,0.00012177,0.00028629,-0.00006748,0.00017384,-0.00023131,-0.000498
 09,-0.00036331,0.00224570,-0.00206718,0.00367546,0.00075505,0.00036123
 ,0.00058573,0.00009698,0.00010232,-0.00010742,0.00003006,0.00001321,-0
 .00000196,-0.00009348,0.00022816,0.00003908,-0.00016655,0.00123869,0.0
 0045762,0.00010961,-0.00038971,-0.00001783,-0.00014679,-0.00065716,-0.
 00055460,0.00011229,0.00052608,0.00033956,-0.00004629,-0.00009860,-0.0
 0005100,-0.00001518,0.00003617,-0.00003081,0.00001200,-0.00004922,0.00
 001078,0.00002768,0.00005913,0.00002826,-0.00005032,-0.00008981,-0.000
 08923,0.00002626,-0.00003472,-0.00000897,-0.00004920,0.00003210,0.0000
 0002,0.00000814,0.00001331,0.00001522,0.00011602,-0.00007058,-0.000133
 81,-0.00003922,0.00000964,-0.00002316,0.00004197,-0.00000017,-0.000013
 46,-0.00000780,-0.00004704,0.00014846,0.02323876,0.01592621,0.00000383
 ,0.00240666,-0.00458622,0.00010383,-0.05314739,-0.09845508,0.00063688,
 -0.05393412,0.59150333,0.00051500,0.00069454,0.00024254,0.00016797,-0.
 00039343,0.00026523,0.00021740,-0.00049520,-0.00034159,-0.00101346,0.0
 0512901,0.00277410,-0.00137463,-0.00095340,0.00032282,0.00002676,-0.00
 003677,-0.00025747,0.00004720,0.00000301,0.00000255,0.00003382,-0.0001
 3241,-0.00009845,-0.00008037,0.00069353,0.00043526,0.00005173,-0.00021
 040,-0.00009885,-0.00004785,-0.00045817,-0.00045790,0.00003797,0.00037
 909,0.00030504,-0.00006522,-0.00006375,-0.00004052,-0.00001343,0.00002
 820,-0.00002637,0.00001724,-0.00004637,0.00000078,0.00003104,0.0000563
 2,0.00003007,-0.00003525,-0.00005508,-0.00007572,0.00001622,-0.0000285
 1,-0.00000347,-0.00003972,0.00002537,0.00000126,0.00001771,0.00001330,
 0.00000379,0.00008432,-0.00006343,-0.00010525,-0.00002686,0.00000256,-
 0.00001492,0.00003652,0.00000564,-0.00001817,0.00001192,-0.00003721,0.
 00012342,-0.02825415,-0.00258898,-0.00733789,0.00070817,-0.00467916,-0
 .00312987,-0.00651288,0.00720038,-0.06950397,-0.01372267,-0.02171542,0
 .58775727,-0.00025137,-0.00010224,-0.00012250,-0.00015369,0.00014329,0
 .00005982,0.00014404,0.00014055,-0.00007908,-0.00063889,0.00018945,0.0
 0054845,-0.00016520,0.00017307,0.00023689,0.00001562,-0.00000684,-0.00
 006871,-0.00002604,-0.00000222,-0.00000739,0.00003131,0.00016433,-0.00
 003253,0.00000944,-0.00055891,-0.00021130,-0.00004818,0.00017796,0.000
 01543,0.00007295,0.00025400,0.00024757,-0.00004025,-0.00018115,-0.0001
 4258,0.00002299,0.00003279,0.00001896,0.00000115,-0.00001455,0.0000152
 8,0.00000082,0.00001391,-0.00000381,-0.00000544,-0.00001230,-0.0000074
 6,0.00001903,0.00003333,0.00003758,-0.00000836,0.00001186,0.00000322,0
 .00002087,-0.00001329,-0.00000075,-0.00000642,-0.00000508,-0.00000291,
 -0.00006848,0.00001827,0.00004677,0.00004267,-0.00002579,0.00001170,-0
 .00003579,0.00000796,0.00001736,0.00002114,0.00007986,-0.00006503,0.00
 285054,-0.00654666,0.00235801,0.00042554,0.00257501,-0.00112760,-0.016
 67989,-0.03209559,-0.02416022,-0.04816874,0.00984319,0.00657303,0.0589
 1129,-0.00007513,0.00002942,-0.00002957,-0.00003134,0.00002072,0.00001
 174,-0.00003280,0.00004139,-0.00002521,-0.00000606,-0.00024939,-0.0003
 8197,-0.00010780,0.00010906,0.00002615,-0.00000529,-0.00000097,0.00000
 008,-0.00002047,-0.00000306,-0.00000667,0.00004184,0.00009068,0.000007
 93,0.00006884,-0.00029521,-0.00010315,-0.00005508,0.00010716,-0.000007
 18,-0.00000847,0.00014491,0.00013434,-0.00001060,-0.00012214,-0.000067
 69,0.00002788,0.00001911,0.00000645,-0.00000398,-0.00000819,0.00000829
 ,-0.00000417,0.00001561,0.00000195,-0.00000715,-0.00002130,0.00000554,
 0.00000385,0.00001565,0.00000652,-0.00000348,0.00000961,0.00000260,0.0
 0000571,-0.00000816,-0.00000069,-0.00000572,-0.00000590,0.00000124,0.0
 0004350,0.00000179,-0.00000844,-0.00000170,0.00000517,0.00000974,-0.00
 004040,0.00000068,0.00001763,0.00002896,-0.00000828,-0.00004044,0.0025
 5815,-0.00172458,0.00257138,0.00056956,0.00133105,-0.00026025,-0.01145
 435,-0.00518133,-0.00430899,0.00311807,-0.23545963,-0.12184813,0.00343
 336,0.25277502,-0.00007404,-0.00001940,-0.00003480,0.00000283,0.000063
 65,0.00004880,0.00006123,0.00002545,-0.00001821,-0.00000921,0.00019876
 ,-0.00012387,-0.00006667,0.00011860,0.00001124,0.00000126,-0.00000317,
 -0.00000817,-0.00000046,0.00000022,0.00000422,0.00001732,0.00004778,-0
 .00002622,-0.00006979,-0.00024550,-0.00011763,0.00000191,0.00007178,0.
 00002187,0.00009938,0.00011696,0.00008310,-0.00002081,-0.00008038,-0.0
 0003996,-0.00002308,0.00002372,0.00001614,0.00001441,-0.00000830,-0.00
 000068,-0.00000046,0.00000501,-0.00000438,-0.00000726,-0.00000302,-0.0
 0002383,0.00001138,0.00001752,0.00001769,-0.00000519,0.00000438,0.0000
 0198,0.00001034,-0.00000537,0.00000032,0.00000433,0.00000017,-0.000006
 95,-0.00008982,0.00002156,0.00003167,0.00001694,-0.00000535,-0.0000008
 8,0.00004158,-0.00000420,-0.00001801,-0.00000455,0.00000768,0.00002883
 ,0.00025548,-0.00466131,0.00219656,0.00172992,0.00191687,0.00000799,-0
 .00687147,-0.00132244,-0.00133249,0.00220833,-0.11979124,-0.12922314,0
 .00064306,0.13377151,0.13238896,-0.00023002,-0.00000057,-0.00008245,-0
 .00015674,0.00001670,-0.00004146,0.00006870,0.00020189,0.00007736,-0.0
 0074749,0.00123635,-0.00075639,-0.00028324,-0.00027468,-0.00008221,-0.
 00002541,-0.00004366,0.00000272,-0.00002491,-0.00000337,-0.00000803,-0
 .00001554,-0.00001469,-0.00006831,0.00009741,-0.00039049,-0.00009266,-
 0.00006933,0.00013741,-0.00002699,0.00001733,0.00017471,0.00011915,-0.
 00000890,-0.00013859,-0.00005528,0.00000659,0.00002570,0.00000714,-0.0
 0000032,-0.00000907,0.00000450,0.00000011,0.00001270,-0.00000067,-0.00
 000698,-0.00001427,0.00000211,0.00000421,0.00002395,0.00000396,-0.0000
 0449,0.00000958,0.00000418,0.00000584,-0.00000880,-0.00000113,-0.00000
 081,-0.00000469,-0.00000111,0.00000715,0.00002229,0.00000135,-0.000000
 88,0.00000761,0.00000684,-0.00000707,-0.00000375,0.00000029,-0.0000064
 1,-0.00001080,-0.00001213,-0.00390715,-0.00632228,0.00200887,0.0020975
 8,0.00107608,-0.00008990,-0.03126319,0.02481215,-0.02172366,-0.0907762
 2,0.08298985,-0.05122751,0.00153566,0.00083265,0.00101814,0.11506459,0
 .00001717,0.00008736,0.00001934,0.00005913,-0.00004184,0.00001374,-0.0
 0001657,-0.00000945,0.00000447,-0.00014666,0.00066101,-0.00019293,-0.0
 0019175,-0.00011363,-0.00007408,-0.00000971,-0.00001158,-0.00000575,0.
 00000628,0.00000182,0.00000561,-0.00001113,-0.00003768,-0.00000819,-0.
 00009464,0.00000032,-0.00005879,0.00004641,-0.00001907,0.00003422,0.00
 007959,-0.00001516,0.00000549,-0.00001652,0.00002930,-0.00000545,-0.00
 001681,0.00000195,0.00000710,0.00000702,0.00000048,0.00000032,0.000002
 15,-0.00000716,-0.00000494,0.00000277,0.00001079,-0.00001307,0.0000082
 3,0.00000066,0.00001290,-0.00000175,-0.00000424,-0.00000175,0.00000560
 ,0.00000191,0.00000152,0.00000161,0.00000319,-0.00000317,-0.00006211,0
 .00000236,0.00002664,0.00001738,-0.00001656,-0.00000159,0.00001250,0.0
 0000436,-0.00000325,0.00000609,0.00003221,0.00000040,-0.00328878,-0.00
 267242,0.00025503,0.00207331,0.00138514,0.00033351,-0.01001352,0.01100
 601,-0.00823427,0.09405251,-0.21132466,0.10458868,0.01013452,-0.016932
 81,0.01406098,-0.09364082,0.21992414,-0.00007148,-0.00000871,-0.000030
 56,-0.00004401,-0.00000159,-0.00003165,0.00001059,0.00011689,-0.000022
 17,-0.00021742,0.00015414,0.00000942,-0.00002232,-0.00008639,0.0000508
 6,-0.00000070,-0.00001103,-0.00000784,-0.00001546,-0.00000114,-0.00000
 035,-0.00004461,0.00000589,0.00002023,0.00007104,-0.00010454,0.0000077
 5,-0.00003319,0.00004488,-0.00002031,-0.00003847,0.00007758,0.00004064
 ,-0.00000324,-0.00007102,-0.00004519,0.00001147,0.00000994,0.00000332,
 0.00000027,-0.00000434,0.00000239,-0.00000244,0.00000865,0.00000148,-0
 .00000470,-0.00001156,-0.00000342,0.00000354,0.00001033,0.00001232,-0.
 00000243,0.00000587,0.00000189,0.00000488,-0.00000428,-0.00000170,-0.0
 0000045,-0.00000232,-0.00000076,-0.00002124,0.00000494,0.00001887,0.00
 000603,0.00000166,0.00000112,0.00000358,-0.00000220,-0.00000106,-0.000
 00787,0.00001023,-0.00001345,0.00030754,-0.00052523,0.00073372,-0.0005
 4576,-0.00009314,0.00045068,-0.00482504,0.00241108,-0.00269332,-0.0565
 3350,0.10124163,-0.11776767,0.00880949,-0.01321367,0.01063463,0.065579
 18,-0.11104759,0.11981155,-0.00034813,-0.00021356,-0.00013752,-0.00014
 242,0.00018177,-0.00009121,0.00009734,0.00029559,0.00005940,-0.0004548
 8,-0.00058671,-0.00104334,0.00021168,0.00015196,-0.00007766,-0.0000182
 1,-0.00001059,0.00005984,-0.00003165,-0.00000447,0.00000476,-0.0000039
 8,0.00006549,0.00006782,0.00004537,-0.00045375,-0.00011582,-0.00006398
 ,0.00016009,-0.00002285,0.00009647,0.00019131,0.00012834,-0.00001010,-
 0.00015699,-0.00004923,-0.00000269,0.00003139,0.00000697,-0.00000128,-
 0.00001009,0.00000424,0.00000171,0.00001217,-0.00000249,-0.00000508,-0
 .00001189,0.00000333,0.00000529,0.00002471,0.00000570,-0.00000396,0.00
 001071,0.00000452,0.00000673,-0.00001069,-0.00000077,0.00000277,-0.000
 00481,-0.00000572,-0.00000250,0.00002485,0.00001358,0.00000063,0.00000
 956,0.00000486,-0.00000104,-0.00000583,-0.00000800,-0.00000790,-0.0000
 1129,-0.00000849,0.00267377,-0.00714453,0.00607701,0.00137425,0.003122
 74,-0.00130697,-0.03371137,-0.00729986,0.02329245,-0.09303687,-0.01485
 475,0.09381996,0.00217166,0.00114162,0.00110497,0.00862991,0.00097854,
 -0.01237325,0.11252843,-0.00009173,-0.00006761,-0.00002837,-0.00007498
 ,0.00003450,-0.00011185,0.00004540,0.00013696,0.00001578,-0.00034309,-
 0.00023951,-0.00002437,0.00006348,-0.00003792,0.00000123,-0.00000602,-
 0.00000594,0.00001401,-0.00001675,-0.00000245,-0.00000416,-0.00002983,
 0.00001662,0.00008156,0.00010077,-0.00010298,0.00000126,-0.00004309,0.
 00004519,-0.00001923,-0.00006994,0.00007493,0.00006903,-0.00000142,-0.
 00008078,-0.00007740,0.00003754,0.00000615,0.00000146,-0.00000662,-0.0
 0000344,0.00000829,-0.00000465,0.00001195,0.00000280,-0.00000328,-0.00
 001756,0.00000677,0.00000463,0.00000797,0.00001831,-0.00000232,0.00000
 759,0.00000104,0.00000696,-0.00000538,-0.00000193,-0.00000647,-0.00000
 439,0.00000245,0.00000919,-0.00000179,0.00002063,0.00000697,-0.0000005
 3,0.00000379,-0.00002724,-0.00000066,0.00001201,0.00000413,0.00001622,
 -0.00005292,0.00252130,0.00078761,0.00010614,-0.00100504,0.00007113,-0
 .00013310,-0.01073415,-0.00245129,0.00774888,-0.01614985,-0.05615946,0
 .03498621,0.01213790,0.00530392,-0.02432292,-0.01069910,-0.00194676,0.
 02108502,0.02437731,0.05460773,-0.00001970,-0.00004143,-0.00000669,0.0
 0000143,-0.00001882,0.00000486,-0.00008860,-0.00008206,-0.00000489,0.0
 0039139,-0.00042419,-0.00053588,0.00012142,0.00004656,0.00000788,-0.00
 000552,0.00000089,0.00001905,-0.00000436,0.00000163,0.00000040,-0.0000
 0294,-0.00002059,-0.00001178,-0.00003840,0.00000992,-0.00009437,0.0000
 3406,-0.00002229,0.00004729,0.00003789,0.00000068,0.00005464,-0.000016
 81,0.00001892,-0.00003201,0.00000927,-0.00000630,0.00000820,0.,0.00000
 001,0.00000633,0.00000207,-0.00000366,-0.00000297,0.00000549,0.0000088
 4,-0.00000465,0.00000707,0.00000023,0.00001205,-0.00000140,-0.00000196
 ,-0.00000252,0.00000568,0.00000045,0.00000126,-0.00000587,-0.00000006,
 0.00000228,-0.00001092,-0.00000198,0.00001239,0.00001319,-0.00001403,0
 .00000090,-0.00002402,0.00000488,0.00001307,0.00002075,0.00002854,-0.0
 0003049,-0.00146720,0.00149876,0.00057697,-0.00113493,-0.00055525,0.00
 017914,-0.00231702,-0.00034133,0.01278469,0.10207904,0.03532025,-0.263
 76291,0.00638925,0.00371895,-0.01451478,0.00543410,0.00028487,-0.01116
 141,-0.10941441,-0.03941043,0.27643397\\0.00000036,-0.00000227,0.00000
 320,0.00000184,-0.00000170,0.00000280,0.00000246,-0.00000026,0.0000009
 2,0.00000132,0.00000002,0.00000029,0.00000007,-0.00000118,0.00000165,-
 0.00000048,-0.00000328,0.00000442,0.00000241,-0.00000229,0.00000372,0.
 00000354,0.00000048,0.00000017,-0.00000111,-0.00000145,0.00000192,-0.0
 0000264,-0.00000258,0.00000275,-0.00000027,-0.00000060,0.00000073,-0.0
 0000156,-0.00000072,0.00000046,-0.00000383,-0.00000023,-0.00000051,-0.
 00000486,-0.00000115,0.00000047,-0.00000452,-0.00000016,-0.00000087,-0
 .00000376,0.00000058,-0.00000170,-0.00000122,-0.00000189,0.00000233,-0
 .00000194,-0.00000180,0.00000203,-0.00000237,-0.00000278,0.00000327,0.
 00000044,-0.00000206,0.00000298,0.00000022,0.00000065,-0.00000082,-0.0
 0000054,0.00000085,-0.00000133,0.00000187,0.00000052,-0.00000028,0.000
 00013,0.00000167,-0.00000219,0.00000113,0.00000147,-0.00000172,-0.0000
 0054,0.00000166,-0.00000244,0.00000289,0.00000231,-0.00000255,0.000002
 74,0.00000382,-0.00000458,0.00000266,0.00000393,-0.00000481,0.00000429
 ,0.00000438,-0.00000505,0.00000128,0.00000406,-0.00000527\\\@


 IT IS A CAPITAL MISTAKE TO THEORIZE BEFORE ONE HAS
 DATA.  INSENSIBLY ONE BEGINS TO TWIST FACTS TO SUIT
 THEORIES RATHER THAN THEORIES TO SUIT FACTS.

                                         -- SHERLOCK HOLMES
 Job cpu time:       0 days  5 hours  2 minutes 47.3 seconds.
 File lengths (MBytes):  RWF=    636 Int=      0 D2E=      0 Chk=     16 Scr=      1
 Normal termination of Gaussian 09 at Tue Jan 10 09:40:43 2023.
