 Entering Gaussian System, Link 0=g09
 Initial command:
 /cm/shared/apps/gaussian/g09revD.01/g09/l1.exe "//home/sweav003/HartwigDocs/DiverseFunctionalization_Hartwig/G09-Figure2_10.com.o9625853.tmp/Gau-15686.inp" -scrdir="//home/sweav003/HartwigDocs/DiverseFunctionalization_Hartwig/G09-Figure2_10.com.o9625853.tmp/"
 Entering Link 1 = /cm/shared/apps/gaussian/g09revD.01/g09/l1.exe PID=     15688.
  
 Copyright (c) 1988,1990,1992,1993,1995,1998,2003,2009,2013,
            Gaussian, Inc.  All Rights Reserved.
  
 This is part of the Gaussian(R) 09 program.  It is based on
 the Gaussian(R) 03 system (copyright 2003, Gaussian, Inc.),
 the Gaussian(R) 98 system (copyright 1998, Gaussian, Inc.),
 the Gaussian(R) 94 system (copyright 1995, Gaussian, Inc.),
 the Gaussian 92(TM) system (copyright 1992, Gaussian, Inc.),
 the Gaussian 90(TM) system (copyright 1990, Gaussian, Inc.),
 the Gaussian 88(TM) system (copyright 1988, Gaussian, Inc.),
 the Gaussian 86(TM) system (copyright 1986, Carnegie Mellon
 University), and the Gaussian 82(TM) system (copyright 1983,
 Carnegie Mellon University). Gaussian is a federally registered
 trademark of Gaussian, Inc.
  
 This software contains proprietary and confidential information,
 including trade secrets, belonging to Gaussian, Inc.
  
 This software is provided under written license and may be
 used, copied, transmitted, or stored only in accord with that
 written license.
  
 The following legend is applicable only to US Government
 contracts under FAR:
  
                    RESTRICTED RIGHTS LEGEND
  
 Use, reproduction and disclosure by the US Government is
 subject to restrictions as set forth in subparagraphs (a)
 and (c) of the Commercial Computer Software - Restricted
 Rights clause in FAR 52.227-19.
  
 Gaussian, Inc.
 340 Quinnipiac St., Bldg. 40, Wallingford CT 06492
  
  
 ---------------------------------------------------------------
 Warning -- This program may not be used in any manner that
 competes with the business of Gaussian, Inc. or will provide
 assistance to any competitor of Gaussian, Inc.  The licensee
 of this program is prohibited from giving any competitor of
 Gaussian, Inc. access to this program.  By using this program,
 the user acknowledges that Gaussian, Inc. is engaged in the
 business of creating and licensing software in the field of
 computational chemistry and represents and warrants to the
 licensee that it is not a competitor of Gaussian, Inc. and that
 it will not use this program in any manner prohibited above.
 ---------------------------------------------------------------
  

 Cite this work as:
 Gaussian 09, Revision D.01,
 M. J. Frisch, G. W. Trucks, H. B. Schlegel, G. E. Scuseria, 
 M. A. Robb, J. R. Cheeseman, G. Scalmani, V. Barone, B. Mennucci, 
 G. A. Petersson, H. Nakatsuji, M. Caricato, X. Li, H. P. Hratchian, 
 A. F. Izmaylov, J. Bloino, G. Zheng, J. L. Sonnenberg, M. Hada, 
 M. Ehara, K. Toyota, R. Fukuda, J. Hasegawa, M. Ishida, T. Nakajima, 
 Y. Honda, O. Kitao, H. Nakai, T. Vreven, J. A. Montgomery, Jr., 
 J. E. Peralta, F. Ogliaro, M. Bearpark, J. J. Heyd, E. Brothers, 
 K. N. Kudin, V. N. Staroverov, T. Keith, R. Kobayashi, J. Normand, 
 K. Raghavachari, A. Rendell, J. C. Burant, S. S. Iyengar, J. Tomasi, 
 M. Cossi, N. Rega, J. M. Millam, M. Klene, J. E. Knox, J. B. Cross, 
 V. Bakken, C. Adamo, J. Jaramillo, R. Gomperts, R. E. Stratmann, 
 O. Yazyev, A. J. Austin, R. Cammi, C. Pomelli, J. W. Ochterski, 
 R. L. Martin, K. Morokuma, V. G. Zakrzewski, G. A. Voth, 
 P. Salvador, J. J. Dannenberg, S. Dapprich, A. D. Daniels, 
 O. Farkas, J. B. Foresman, J. V. Ortiz, J. Cioslowski, 
 and D. J. Fox, Gaussian, Inc., Wallingford CT, 2013.
 
 ******************************************
 Gaussian 09:  ES64L-G09RevD.01 24-Apr-2013
                 6-Nov-2021 
 ******************************************
 %mem=100MW
 %nprocshared=20
 Will use up to   20 processors via shared memory.
 %chk=Figure2_10.chk
 ----------------------------------------------------------------------
 # opt freq b3lyp/6-311+g(d,p) geom=connectivity pop=(hirshfeld,chelpg,
 mbs,npa)
 ----------------------------------------------------------------------
 1/14=-1,18=20,19=15,26=3,38=1,57=2/1,3;
 2/9=110,12=2,17=6,18=5,40=1/2;
 3/5=4,6=6,7=111,11=2,16=1,25=1,30=1,71=1,74=-5/1,2,3;
 4//1;
 5/5=2,38=5/2;
 6/7=2,8=2,9=2,10=2,15=8,20=3,27=100,28=1,40=-1,79=1/1,2,7;
 7//1,2,3,16;
 1/14=-1,18=20,19=15,26=3/3(2);
 2/9=110/2;
 99//99;
 2/9=110/2;
 3/5=4,6=6,7=111,11=2,16=1,25=1,30=1,71=1,74=-5/1,2,3;
 4/5=5,16=3,69=1/1;
 5/5=2,38=5/2;
 7//1,2,3,16;
 1/14=-1,18=20,19=15,26=3/3(-5);
 2/9=110/2;
 6/7=2,8=2,9=2,10=2,15=8,19=2,20=3,27=100,28=1,40=-1,79=1/1,2,7;
 99/9=1/99;
 -------------------
 Title Card Required
 -------------------
 Symbolic Z-matrix:
 Charge =  0 Multiplicity = 2
 C                    -0.07882   0.22276  -0.27701 
 C                     1.35367   0.58351  -0.52923 
 C                     1.40564   1.74586   0.49166 
 C                    -0.77777   1.60308  -0.3412 
 H                    -0.51959  -0.51215  -0.91774 
 H                    -0.11067  -0.14116   0.72869 
 H                     1.53071   0.9208   -1.52913 
 H                     2.03917  -0.21489  -0.33544 
 H                     1.18457   1.39913   1.47949 
 H                     2.34653   2.25432   0.52478 
 H                    -1.57457   1.58662   0.37277 
 N                     0.32988   2.57385  -0.05743 
 C                     0.85497   3.10519  -1.32347 
 O                     1.40817   4.23515  -1.35037 
 H                     1.75109   4.58215  -2.17717 
 O                     0.73713   2.33802  -2.5245 
 C                     0.63903   3.22004  -3.64581 
 C                     0.51213   2.39386  -4.93922 
 H                     0.43873   3.05383  -5.77825 
 H                     1.37459   1.77037  -5.05025 
 H                    -0.3651    1.78335  -4.88785 
 C                     1.90159   4.09872  -3.71975 
 H                     1.82819   4.75869  -4.55877 
 H                     1.98976   4.67275  -2.82108 
 H                     2.76405   3.47523  -3.83078 
 C                    -0.60226   4.11739  -3.48601 
 H                    -0.51409   4.69143  -2.58734 
 H                    -0.67567   4.77736  -4.32503 
 H                    -1.4795    3.50688  -3.43464 
 C                    -1.35217   1.98674  -1.7176 
 F                    -0.3634    1.97604  -2.6367 
 F                    -1.89173   3.22246  -1.65147 
 F                    -2.30489   1.09805  -2.07122 
 

 GradGradGradGradGradGradGradGradGradGradGradGradGradGradGradGradGradGrad
 Berny optimization.
 Initialization pass.
                           ----------------------------
                           !    Initial Parameters    !
                           ! (Angstroms and Degrees)  !
 --------------------------                            --------------------------
 ! Name  Definition              Value          Derivative Info.                !
 --------------------------------------------------------------------------------
 ! R1    R(1,2)                  1.4986         estimate D2E/DX2                !
 ! R2    R(1,4)                  1.5485         estimate D2E/DX2                !
 ! R3    R(1,5)                  1.07           estimate D2E/DX2                !
 ! R4    R(1,6)                  1.07           estimate D2E/DX2                !
 ! R5    R(2,3)                  1.5479         estimate D2E/DX2                !
 ! R6    R(2,7)                  1.07           estimate D2E/DX2                !
 ! R7    R(2,8)                  1.07           estimate D2E/DX2                !
 ! R8    R(3,9)                  1.07           estimate D2E/DX2                !
 ! R9    R(3,10)                 1.07           estimate D2E/DX2                !
 ! R10   R(3,12)                 1.4644         estimate D2E/DX2                !
 ! R11   R(4,11)                 1.07           estimate D2E/DX2                !
 ! R12   R(4,12)                 1.4999         estimate D2E/DX2                !
 ! R13   R(4,30)                 1.54           estimate D2E/DX2                !
 ! R14   R(12,13)                1.47           estimate D2E/DX2                !
 ! R15   R(13,14)                1.2584         estimate D2E/DX2                !
 ! R16   R(13,16)                1.43           estimate D2E/DX2                !
 ! R17   R(14,15)                0.96           estimate D2E/DX2                !
 ! R18   R(16,17)                1.43           estimate D2E/DX2                !
 ! R19   R(17,18)                1.54           estimate D2E/DX2                !
 ! R20   R(17,22)                1.54           estimate D2E/DX2                !
 ! R21   R(17,26)                1.54           estimate D2E/DX2                !
 ! R22   R(18,19)                1.07           estimate D2E/DX2                !
 ! R23   R(18,20)                1.07           estimate D2E/DX2                !
 ! R24   R(18,21)                1.07           estimate D2E/DX2                !
 ! R25   R(22,23)                1.07           estimate D2E/DX2                !
 ! R26   R(22,24)                1.07           estimate D2E/DX2                !
 ! R27   R(22,25)                1.07           estimate D2E/DX2                !
 ! R28   R(26,27)                1.07           estimate D2E/DX2                !
 ! R29   R(26,28)                1.07           estimate D2E/DX2                !
 ! R30   R(26,29)                1.07           estimate D2E/DX2                !
 ! R31   R(30,31)                1.35           estimate D2E/DX2                !
 ! R32   R(30,32)                1.35           estimate D2E/DX2                !
 ! R33   R(30,33)                1.35           estimate D2E/DX2                !
 ! A1    A(2,1,4)              102.1169         estimate D2E/DX2                !
 ! A2    A(2,1,5)              117.2788         estimate D2E/DX2                !
 ! A3    A(2,1,6)              105.5764         estimate D2E/DX2                !
 ! A4    A(4,1,5)              113.6699         estimate D2E/DX2                !
 ! A5    A(4,1,6)              109.1895         estimate D2E/DX2                !
 ! A6    A(5,1,6)              108.4794         estimate D2E/DX2                !
 ! A7    A(1,2,3)               95.8462         estimate D2E/DX2                !
 ! A8    A(1,2,7)              113.0363         estimate D2E/DX2                !
 ! A9    A(1,2,8)              113.7216         estimate D2E/DX2                !
 ! A10   A(3,2,7)              111.9661         estimate D2E/DX2                !
 ! A11   A(3,2,8)              114.7939         estimate D2E/DX2                !
 ! A12   A(7,2,8)              107.3649         estimate D2E/DX2                !
 ! A13   A(2,3,9)              111.0153         estimate D2E/DX2                !
 ! A14   A(2,3,10)             114.0031         estimate D2E/DX2                !
 ! A15   A(2,3,12)              98.7791         estimate D2E/DX2                !
 ! A16   A(9,3,10)             107.8834         estimate D2E/DX2                !
 ! A17   A(9,3,12)             112.186          estimate D2E/DX2                !
 ! A18   A(10,3,12)            112.8862         estimate D2E/DX2                !
 ! A19   A(1,4,11)             107.1423         estimate D2E/DX2                !
 ! A20   A(1,4,12)             103.6353         estimate D2E/DX2                !
 ! A21   A(1,4,30)             115.3072         estimate D2E/DX2                !
 ! A22   A(11,4,12)            115.698          estimate D2E/DX2                !
 ! A23   A(11,4,30)            108.8118         estimate D2E/DX2                !
 ! A24   A(12,4,30)            106.4563         estimate D2E/DX2                !
 ! A25   A(3,12,4)             104.329          estimate D2E/DX2                !
 ! A26   A(3,12,13)            105.3614         estimate D2E/DX2                !
 ! A27   A(4,12,13)            109.5592         estimate D2E/DX2                !
 ! A28   A(12,13,14)           120.0            estimate D2E/DX2                !
 ! A29   A(12,13,16)           120.0            estimate D2E/DX2                !
 ! A30   A(14,13,16)           120.0            estimate D2E/DX2                !
 ! A31   A(13,14,15)           120.0            estimate D2E/DX2                !
 ! A32   A(13,16,17)           109.4712         estimate D2E/DX2                !
 ! A33   A(16,17,18)           109.4712         estimate D2E/DX2                !
 ! A34   A(16,17,22)           109.4712         estimate D2E/DX2                !
 ! A35   A(16,17,26)           109.4712         estimate D2E/DX2                !
 ! A36   A(18,17,22)           109.4712         estimate D2E/DX2                !
 ! A37   A(18,17,26)           109.4712         estimate D2E/DX2                !
 ! A38   A(22,17,26)           109.4712         estimate D2E/DX2                !
 ! A39   A(17,18,19)           109.4712         estimate D2E/DX2                !
 ! A40   A(17,18,20)           109.4712         estimate D2E/DX2                !
 ! A41   A(17,18,21)           109.4712         estimate D2E/DX2                !
 ! A42   A(19,18,20)           109.4712         estimate D2E/DX2                !
 ! A43   A(19,18,21)           109.4712         estimate D2E/DX2                !
 ! A44   A(20,18,21)           109.4712         estimate D2E/DX2                !
 ! A45   A(17,22,23)           109.4712         estimate D2E/DX2                !
 ! A46   A(17,22,24)           109.4712         estimate D2E/DX2                !
 ! A47   A(17,22,25)           109.4712         estimate D2E/DX2                !
 ! A48   A(23,22,24)           109.4712         estimate D2E/DX2                !
 ! A49   A(23,22,25)           109.4712         estimate D2E/DX2                !
 ! A50   A(24,22,25)           109.4712         estimate D2E/DX2                !
 ! A51   A(17,26,27)           109.4712         estimate D2E/DX2                !
 ! A52   A(17,26,28)           109.4712         estimate D2E/DX2                !
 ! A53   A(17,26,29)           109.4712         estimate D2E/DX2                !
 ! A54   A(27,26,28)           109.4712         estimate D2E/DX2                !
 ! A55   A(27,26,29)           109.4712         estimate D2E/DX2                !
 ! A56   A(28,26,29)           109.4712         estimate D2E/DX2                !
 ! A57   A(4,30,31)            109.4712         estimate D2E/DX2                !
 ! A58   A(4,30,32)            109.4712         estimate D2E/DX2                !
 ! A59   A(4,30,33)            109.4712         estimate D2E/DX2                !
 ! A60   A(31,30,32)           109.4712         estimate D2E/DX2                !
 ! A61   A(31,30,33)           109.4712         estimate D2E/DX2                !
 ! A62   A(32,30,33)           109.4712         estimate D2E/DX2                !
 ! D1    D(4,1,2,3)             48.2041         estimate D2E/DX2                !
 ! D2    D(4,1,2,7)            -68.6767         estimate D2E/DX2                !
 ! D3    D(4,1,2,8)            168.5649         estimate D2E/DX2                !
 ! D4    D(5,1,2,3)            173.143          estimate D2E/DX2                !
 ! D5    D(5,1,2,7)             56.2623         estimate D2E/DX2                !
 ! D6    D(5,1,2,8)            -66.4962         estimate D2E/DX2                !
 ! D7    D(6,1,2,3)            -65.9284         estimate D2E/DX2                !
 ! D8    D(6,1,2,7)            177.1909         estimate D2E/DX2                !
 ! D9    D(6,1,2,8)             54.4324         estimate D2E/DX2                !
 ! D10   D(2,1,4,11)          -145.0676         estimate D2E/DX2                !
 ! D11   D(2,1,4,12)           -22.2633         estimate D2E/DX2                !
 ! D12   D(2,1,4,30)            93.6588         estimate D2E/DX2                !
 ! D13   D(5,1,4,11)            87.6367         estimate D2E/DX2                !
 ! D14   D(5,1,4,12)          -149.559          estimate D2E/DX2                !
 ! D15   D(5,1,4,30)           -33.6369         estimate D2E/DX2                !
 ! D16   D(6,1,4,11)           -33.6281         estimate D2E/DX2                !
 ! D17   D(6,1,4,12)            89.1761         estimate D2E/DX2                !
 ! D18   D(6,1,4,30)          -154.9017         estimate D2E/DX2                !
 ! D19   D(1,2,3,9)             59.7794         estimate D2E/DX2                !
 ! D20   D(1,2,3,10)          -178.1361         estimate D2E/DX2                !
 ! D21   D(1,2,3,12)           -58.1671         estimate D2E/DX2                !
 ! D22   D(7,2,3,9)            177.5187         estimate D2E/DX2                !
 ! D23   D(7,2,3,10)           -60.3967         estimate D2E/DX2                !
 ! D24   D(7,2,3,12)            59.5723         estimate D2E/DX2                !
 ! D25   D(8,2,3,9)            -59.7424         estimate D2E/DX2                !
 ! D26   D(8,2,3,10)            62.3421         estimate D2E/DX2                !
 ! D27   D(8,2,3,12)          -177.6889         estimate D2E/DX2                !
 ! D28   D(2,3,12,4)            45.3152         estimate D2E/DX2                !
 ! D29   D(2,3,12,13)          -70.0575         estimate D2E/DX2                !
 ! D30   D(9,3,12,4)           -71.7409         estimate D2E/DX2                !
 ! D31   D(9,3,12,13)          172.8864         estimate D2E/DX2                !
 ! D32   D(10,3,12,4)          166.1103         estimate D2E/DX2                !
 ! D33   D(10,3,12,13)          50.7376         estimate D2E/DX2                !
 ! D34   D(1,4,12,3)           -15.0027         estimate D2E/DX2                !
 ! D35   D(1,4,12,13)           97.3872         estimate D2E/DX2                !
 ! D36   D(11,4,12,3)          101.9542         estimate D2E/DX2                !
 ! D37   D(11,4,12,13)        -145.6559         estimate D2E/DX2                !
 ! D38   D(30,4,12,3)         -137.0291         estimate D2E/DX2                !
 ! D39   D(30,4,12,13)         -24.6392         estimate D2E/DX2                !
 ! D40   D(1,4,30,31)          -57.9795         estimate D2E/DX2                !
 ! D41   D(1,4,30,32)         -177.9795         estimate D2E/DX2                !
 ! D42   D(1,4,30,33)           62.0205         estimate D2E/DX2                !
 ! D43   D(11,4,30,31)        -178.3451         estimate D2E/DX2                !
 ! D44   D(11,4,30,32)          61.6549         estimate D2E/DX2                !
 ! D45   D(11,4,30,33)         -58.3451         estimate D2E/DX2                !
 ! D46   D(12,4,30,31)          56.3246         estimate D2E/DX2                !
 ! D47   D(12,4,30,32)         -63.6754         estimate D2E/DX2                !
 ! D48   D(12,4,30,33)         176.3246         estimate D2E/DX2                !
 ! D49   D(3,12,13,14)         -94.1428         estimate D2E/DX2                !
 ! D50   D(3,12,13,16)          85.8572         estimate D2E/DX2                !
 ! D51   D(4,12,13,14)         154.1428         estimate D2E/DX2                !
 ! D52   D(4,12,13,16)         -25.8572         estimate D2E/DX2                !
 ! D53   D(12,13,14,15)        179.9999         estimate D2E/DX2                !
 ! D54   D(16,13,14,15)         -0.0001         estimate D2E/DX2                !
 ! D55   D(12,13,16,17)        150.0            estimate D2E/DX2                !
 ! D56   D(14,13,16,17)        -30.0            estimate D2E/DX2                !
 ! D57   D(13,16,17,18)        180.0            estimate D2E/DX2                !
 ! D58   D(13,16,17,22)         60.0            estimate D2E/DX2                !
 ! D59   D(13,16,17,26)        -60.0            estimate D2E/DX2                !
 ! D60   D(16,17,18,19)       -180.0            estimate D2E/DX2                !
 ! D61   D(16,17,18,20)        -60.0            estimate D2E/DX2                !
 ! D62   D(16,17,18,21)         60.0            estimate D2E/DX2                !
 ! D63   D(22,17,18,19)        -60.0            estimate D2E/DX2                !
 ! D64   D(22,17,18,20)         60.0            estimate D2E/DX2                !
 ! D65   D(22,17,18,21)        180.0            estimate D2E/DX2                !
 ! D66   D(26,17,18,19)         60.0            estimate D2E/DX2                !
 ! D67   D(26,17,18,20)        180.0            estimate D2E/DX2                !
 ! D68   D(26,17,18,21)        -60.0            estimate D2E/DX2                !
 ! D69   D(16,17,22,23)        180.0            estimate D2E/DX2                !
 ! D70   D(16,17,22,24)        -60.0            estimate D2E/DX2                !
 ! D71   D(16,17,22,25)         60.0            estimate D2E/DX2                !
 ! D72   D(18,17,22,23)         60.0            estimate D2E/DX2                !
 ! D73   D(18,17,22,24)        180.0            estimate D2E/DX2                !
 ! D74   D(18,17,22,25)        -60.0            estimate D2E/DX2                !
 ! D75   D(26,17,22,23)        -60.0            estimate D2E/DX2                !
 ! D76   D(26,17,22,24)         60.0            estimate D2E/DX2                !
 ! D77   D(26,17,22,25)        180.0            estimate D2E/DX2                !
 ! D78   D(16,17,26,27)         60.0            estimate D2E/DX2                !
 ! D79   D(16,17,26,28)        180.0            estimate D2E/DX2                !
 ! D80   D(16,17,26,29)        -60.0            estimate D2E/DX2                !
 ! D81   D(18,17,26,27)        180.0            estimate D2E/DX2                !
 ! D82   D(18,17,26,28)        -60.0            estimate D2E/DX2                !
 ! D83   D(18,17,26,29)         60.0            estimate D2E/DX2                !
 ! D84   D(22,17,26,27)        -60.0            estimate D2E/DX2                !
 ! D85   D(22,17,26,28)         60.0            estimate D2E/DX2                !
 ! D86   D(22,17,26,29)        180.0            estimate D2E/DX2                !
 --------------------------------------------------------------------------------
 Trust Radius=3.00D-01 FncErr=1.00D-07 GrdErr=1.00D-06
 Number of steps in this run=    191 maximum allowed number of steps=    198.
 GradGradGradGradGradGradGradGradGradGradGradGradGradGradGradGradGradGrad

                          Input orientation:                          
 ---------------------------------------------------------------------
 Center     Atomic      Atomic             Coordinates (Angstroms)
 Number     Number       Type             X           Y           Z
 ---------------------------------------------------------------------
      1          6           0       -0.078818    0.222762   -0.277014
      2          6           0        1.353671    0.583509   -0.529231
      3          6           0        1.405642    1.745858    0.491655
      4          6           0       -0.777773    1.603079   -0.341203
      5          1           0       -0.519589   -0.512146   -0.917740
      6          1           0       -0.110673   -0.141161    0.728692
      7          1           0        1.530707    0.920800   -1.529128
      8          1           0        2.039169   -0.214887   -0.335443
      9          1           0        1.184570    1.399132    1.479485
     10          1           0        2.346527    2.254324    0.524784
     11          1           0       -1.574565    1.586618    0.372766
     12          7           0        0.329880    2.573850   -0.057432
     13          6           0        0.854970    3.105189   -1.323472
     14          8           0        1.408174    4.235150   -1.350366
     15          1           0        1.751091    4.582147   -2.177168
     16          8           0        0.737130    2.338024   -2.524501
     17          6           0        0.639032    3.220036   -3.645809
     18          6           0        0.512127    2.393858   -4.939225
     19          1           0        0.438726    3.053826   -5.778245
     20          1           0        1.374587    1.770370   -5.050252
     21          1           0       -0.365104    1.783346   -4.887849
     22          6           0        1.901590    4.098718   -3.719751
     23          1           0        1.828188    4.758685   -4.558772
     24          1           0        1.989764    4.672750   -2.821079
     25          1           0        2.764049    3.475230   -3.830779
     26          6           0       -0.602264    4.117393   -3.486012
     27          1           0       -0.514090    4.691426   -2.587340
     28          1           0       -0.675666    4.777360   -4.325033
     29          1           0       -1.479496    3.506881   -3.434637
     30          6           0       -1.352166    1.986743   -1.717603
     31          9           0       -0.363404    1.976044   -2.636698
     32          9           0       -1.891729    3.222460   -1.651472
     33          9           0       -2.304890    1.098052   -2.071221
 ---------------------------------------------------------------------
                    Distance matrix (angstroms):
                    1          2          3          4          5
     1  C    0.000000
     2  C    1.498591   0.000000
     3  C    2.261481   1.547890   0.000000
     4  C    1.548526   2.370217   2.341227   0.000000
     5  H    1.070000   2.204654   3.285041   2.207540   0.000000
     6  H    1.070000   2.061995   2.432333   2.152225   1.736543
     7  H    2.155369   1.070000   2.186304   2.684353   2.575042
     8  H    2.163520   1.070000   2.220354   3.352641   2.640961
     9  H    2.462779   2.174575   1.070000   2.684640   3.507682
    10  H    3.263805   2.210958   1.070000   3.306858   4.236609
    11  H    2.125930   3.224033   2.986826   1.070000   2.680148
    12  N    2.396427   2.287400   1.464353   1.499939   3.314378
    13  C    3.205530   2.690426   2.333604   2.426322   3.890905
    14  O    4.411631   3.743222   3.096712   3.567153   5.142009
    15  H    5.095428   4.343126   3.909793   4.317496   5.717864
    16  O    3.192382   2.727553   3.145595   2.757148   3.504924
    17  C    4.565933   4.144278   4.458643   3.942374   4.765915
    18  C    5.176784   4.840827   5.541907   4.840556   5.067706
    19  H    6.208568   5.872966   6.477450   5.757253   6.104018
    20  H    5.224106   4.674260   5.542049   5.180327   5.086791
    21  H    4.876186   4.836460   5.663569   4.568893   4.588564
    22  C    5.549549   4.778737   4.849521   4.982147   5.913835
    23  H    6.522632   5.821895   5.895972   5.876799   6.822817
    24  H    5.527540   4.730653   4.458935   4.819951   6.066523
    25  H    5.593718   4.609927   4.849683   5.312870   5.930197
    26  C    5.073443   5.005654   5.047544   4.030187   5.294855
    27  H    5.049359   4.959770   4.673538   3.827865   5.464866
    28  H    6.122667   6.009551   6.059895   5.094839   6.293877
    29  H    4.766332   5.001431   5.180829   3.699487   4.838261
    30  C    2.609280   3.271520   3.541801   1.540000   2.752710
    31  F    2.953489   3.054327   3.601264   2.362224   3.028250
    32  F    3.764834   4.330832   4.200715   2.362224   4.045790
    33  F    2.990102   4.003443   4.555880   2.362224   2.666563
                    6          7          8          9         10
     6  H    0.000000
     7  H    2.986577   0.000000
     8  H    2.399926   1.724298   0.000000
     9  H    2.147987   3.066001   2.574755   0.000000
    10  H    3.437698   2.581163   2.632768   1.730016   0.000000
    11  H    2.292354   3.701787   4.099519   2.978725   3.980441
    12  N    2.860658   2.518024   3.282684   2.114845   2.123190
    13  C    3.960131   2.295750   3.660798   3.297853   2.522848
    14  O    5.077547   3.321428   4.607717   4.012612   2.884504
    15  H    5.849772   3.724780   5.146501   4.880947   3.615777
    16  O    4.177128   1.905008   3.606195   4.136862   3.448957
    17  C    5.567403   3.249909   4.971681   5.466438   4.608902
    18  C    6.240152   3.851774   5.507469   6.530046   5.765404
    19  H    7.269802   4.878239   6.547519   7.481239   6.633783
    20  H    6.265473   3.625529   5.158716   6.543042   5.679780
    21  H    5.942559   3.952100   5.522488   6.564454   6.072179
    22  C    6.466408   3.877569   5.484493   5.902028   4.649283
    23  H    7.464915   4.898632   6.528204   6.939840   5.690609
    24  H    6.339279   3.994622   5.483597   5.464409   4.143774
    25  H    6.490847   3.652922   5.134178   5.916404   4.542671
    26  C    6.011712   4.312443   5.972597   5.936150   5.315344
    27  H    5.874752   4.417989   5.971774   5.501246   4.879335
    28  H    7.074688   5.249592   6.943320   6.968883   6.246605
    29  H    5.702210   4.402283   5.986448   5.973980   5.646624
    30  C    3.471835   3.079401   4.273019   4.123310   4.333616
    31  F    3.984003   2.434729   3.983505   4.435314   4.173264
    32  F    4.489019   4.126218   5.385096   4.753003   4.861707
    33  F    3.766929   3.877768   4.858764   4.987434   5.450861
                   11         12         13         14         15
    11  H    0.000000
    12  N    2.187832   0.000000
    13  C    3.329553   1.470000   0.000000
    14  O    4.345186   2.365231   1.258400   0.000000
    15  H    5.151247   3.247519   1.926975   0.960000   0.000000
    16  O    3.781891   2.511553   1.430000   2.329803   2.486935
    17  C    4.870011   3.659178   2.335180   2.625089   2.291053
    18  C    5.763954   4.888509   3.700973   4.131968   3.735317
    19  H    6.636338   5.741945   4.474472   4.684172   4.126236
    20  H    6.175790   5.163841   3.992572   4.445832   4.037630
    21  H    5.401441   4.943767   3.992572   4.655067   4.433888
    22  C    5.928153   4.267093   2.797261   2.424058   1.623551
    23  H    6.779440   5.223074   3.761431   3.277860   2.389382
    24  H    5.694673   3.846862   2.447005   1.640956   0.692672
    25  H    6.329314   4.579936   3.173027   2.927169   2.232885
    26  C    4.715969   3.873833   2.797261   2.935424   2.732645
    27  H    4.418899   3.405415   2.447005   2.330964   2.304610
    28  H    5.749623   4.907036   3.761431   3.672196   3.246626
    29  H    4.265297   3.943336   3.173027   3.634996   3.629617
    30  C    2.139907   2.435188   2.505536   3.579061   4.071551
    31  F    3.267328   2.736901   2.117538   3.145902   3.387334
    32  F    2.621853   2.810197   2.768699   3.464905   3.923677
    33  F    2.597141   3.629785   3.817387   4.914047   5.348002
                   16         17         18         19         20
    16  O    0.000000
    17  C    1.430000   0.000000
    18  C    2.425826   1.540000   0.000000
    19  H    3.344887   2.148263   1.070000   0.000000
    20  H    2.666083   2.148263   1.070000   1.747303   0.000000
    21  H    2.666083   2.148263   1.070000   1.747303   1.747303
    22  C    2.425826   1.540000   2.514809   2.732978   2.732978
    23  H    3.344887   2.148263   2.732978   2.514809   3.062243
    24  H    2.666083   2.148263   3.444314   3.710993   3.710993
    25  H    2.666083   2.148263   2.732978   3.062243   2.514809
    26  C    2.425826   1.540000   2.514809   2.732978   3.444314
    27  H    2.666083   2.148263   3.444314   3.710993   4.262112
    28  H    3.344887   2.148263   2.732978   2.514809   3.710993
    29  H    2.666083   2.148263   2.732978   3.062243   3.710993
    30  C    2.267077   3.033787   3.744354   4.564513   4.311444
    31  F    1.163955   1.889630   2.498551   3.416774   2.981302
    32  F    2.907801   3.222132   4.156251   4.742332   4.932453
    33  F    3.316154   3.955859   4.223760   5.009442   4.781756
                   21         22         23         24         25
    21  H    0.000000
    22  C    3.444314   0.000000
    23  H    3.710993   1.070000   0.000000
    24  H    4.262112   1.070000   1.747303   0.000000
    25  H    3.710993   1.070000   1.747303   1.747303   0.000000
    26  C    2.732978   2.514809   2.732978   2.732978   3.444314
    27  H    3.710993   2.732978   3.062243   2.514809   3.710993
    28  H    3.062243   2.732978   2.514809   3.062243   3.710993
    29  H    2.514809   3.444314   3.710993   3.710993   4.262112
    30  C    3.326579   4.365314   5.086311   4.427278   4.860487
    31  F    2.259385   3.287696   4.029955   3.583800   3.668017
    32  F    3.856912   4.408500   4.964893   4.305498   5.146799
    33  F    3.487949   5.423663   6.055615   5.637802   5.868659
                   26         27         28         29         30
    26  C    0.000000
    27  H    1.070000   0.000000
    28  H    1.070000   1.747303   0.000000
    29  H    1.070000   1.747303   1.747303   0.000000
    30  C    2.868675   2.962115   3.878646   2.296789   0.000000
    31  F    2.315980   2.720008   3.285629   2.055682   1.350000
    32  F    2.414366   2.220720   3.323319   1.852163   1.350000
    33  F    3.743927   4.047923   4.612087   2.888361   1.350000
                   31         32         33
    31  F    0.000000
    32  F    2.204541   0.000000
    33  F    2.204541   2.204541   0.000000
 Stoichiometry    C10H17F3NO2(2)
 Framework group  C1[X(C10H17F3NO2)]
 Deg. of freedom    93
 Full point group                 C1      NOp   1
 Largest Abelian subgroup         C1      NOp   1
 Largest concise Abelian subgroup C1      NOp   1
                         Standard orientation:                         
 ---------------------------------------------------------------------
 Center     Atomic      Atomic             Coordinates (Angstroms)
 Number     Number       Type             X           Y           Z
 ---------------------------------------------------------------------
      1          6           0        2.598172    0.146575    0.915465
      2          6           0        1.970515   -1.160863    1.292858
      3          6           0        2.154661   -1.829436   -0.091001
      4          6           0        1.889827    0.473053   -0.422291
      5          1           0        2.548722    0.939352    1.632375
      6          1           0        3.627575   -0.073613    0.723772
      7          1           0        0.938148   -1.068493    1.558540
      8          1           0        2.464942   -1.658366    2.100901
      9          1           0        3.189186   -1.875376   -0.360347
     10          1           0        1.754820   -2.820014   -0.152489
     11          1           0        2.606499    0.963944   -1.047037
     12          7           0        1.413451   -0.864524   -0.905792
     13          6           0        0.002038   -1.046816   -0.537575
     14          8           0       -0.730921   -1.813492   -1.214737
     15          1           0       -1.652659   -1.932541   -0.974268
     16          8           0       -0.538060   -0.352925    0.590126
     17          6           0       -1.928704   -0.100185    0.373024
     18          6           0       -2.510349    0.647082    1.587471
     19          1           0       -3.550900    0.836195    1.425025
     20          1           0       -2.389557    0.048350    2.466009
     21          1           0       -1.994719    1.575907    1.715184
     22          6           0       -2.670826   -1.436998    0.189214
     23          1           0       -3.711377   -1.247885    0.026767
     24          1           0       -2.266696   -1.956203   -0.654590
     25          1           0       -2.550034   -2.035731    1.067752
     26          6           0       -2.102554    0.761542   -0.891413
     27          1           0       -1.698424    0.242337   -1.735217
     28          1           0       -3.143105    0.950655   -1.053860
     29          1           0       -1.586923    1.690366   -0.763701
     30          6           0        0.639906    1.364958   -0.304811
     31          9           0       -0.259304    0.774366    0.510739
     32          9           0        0.093585    1.537344   -1.527234
     33          9           0        0.989727    2.565029    0.205047
 ---------------------------------------------------------------------
 Rotational constants (GHZ):      0.8231053      0.5852054      0.4682345
 Standard basis: 6-311+G(d,p) (5D, 7F)
 There are   470 symmetry adapted cartesian basis functions of A   symmetry.
 There are   454 symmetry adapted basis functions of A   symmetry.
   454 basis functions,   712 primitive gaussians,   470 cartesian basis functions
    64 alpha electrons       63 beta electrons
       nuclear repulsion energy      1470.2525679126 Hartrees.
 NAtoms=   33 NActive=   33 NUniq=   33 SFac= 1.00D+00 NAtFMM=   60 NAOKFM=F Big=F
 Integral buffers will be    131072 words long.
 Raffenetti 2 integral format.
 Two-electron integral symmetry is turned on.
 One-electron integrals computed using PRISM.
 NBasis=   454 RedAO= T EigKep=  8.23D-06  NBF=   454
 NBsUse=   454 1.00D-06 EigRej= -1.00D+00 NBFU=   454
 Restarting incremental Fock formation.
C= 1.72D+03 IAcc=2 IRadAn=         4 AccDes= 0.00D+00
 Harris functional with IExCor=  402 and IRadAn=       4 diagonalized for initial guess.
 HarFok:  IExCor=  402 AccDes= 0.00D+00 IRadAn=         4 IDoV= 1 UseB2=F ITyADJ=14
 ICtDFT=  3500011 ScaDFX=  1.000000  1.000000  1.000000  1.000000
 FoFCou: FMM=F IPFlag=           0 FMFlag=      100000 FMFlg1=           0
         NFxFlg=           0 DoJE=T BraDBF=F KetDBF=T FulRan=T
         wScrn=  0.000000 ICntrl=     500 IOpCl=  0 I1Cent=   200000004 NGrid=           0
         NMat0=    1 NMatS0=      1 NMatT0=    0 NMatD0=    1 NMtDS0=    0 NMtDT0=    0
 Petite list used in FoFCou.
 Initial guess <Sx>= 0.0000 <Sy>= 0.0000 <Sz>= 0.5000 <S**2>= 0.7500 S= 0.5000
 Requested convergence on RMS density matrix=1.00D-08 within 128 cycles.
 Requested convergence on MAX density matrix=1.00D-06.
 Requested convergence on             energy=1.00D-06.
 No special actions if energy rises.
 EnCoef did     2 forward-backward iterations
 SCF Done:  E(UB3LYP) =  -895.308566818     A.U. after   30 cycles
            NFock= 30  Conv=0.89D-08     -V/T= 1.9985
 <Sx>= 0.0000 <Sy>= 0.0000 <Sz>= 0.5000 <S**2>= 0.7635 S= 0.5067
 <L.S>= 0.000000000000E+00
 Annihilation of the first spin contaminant:
 S**2 before annihilation     0.7635,   after     0.7501

 **********************************************************************

            Population analysis using the SCF density.

 **********************************************************************

 Orbital symmetries:
 Alpha Orbitals:
       Occupied  (A) (A) (A) (A) (A) (A) (A) (A) (A) (A) (A) (A)
                 (A) (A) (A) (A) (A) (A) (A) (A) (A) (A) (A) (A)
                 (A) (A) (A) (A) (A) (A) (A) (A) (A) (A) (A) (A)
                 (A) (A) (A) (A) (A) (A) (A) (A) (A) (A) (A) (A)
                 (A) (A) (A) (A) (A) (A) (A) (A) (A) (A) (A) (A)
                 (A) (A) (A) (A)
       Virtual   (A) (A) (A) (A) (A) (A) (A) (A) (A) (A) (A) (A)
                 (A) (A) (A) (A) (A) (A) (A) (A) (A) (A) (A) (A)
                 (A) (A) (A) (A) (A) (A) (A) (A) (A) (A) (A) (A)
                 (A) (A) (A) (A) (A) (A) (A) (A) (A) (A) (A) (A)
                 (A) (A) (A) (A) (A) (A) (A) (A) (A) (A) (A) (A)
                 (A) (A) (A) (A) (A) (A) (A) (A) (A) (A) (A) (A)
                 (A) (A) (A) (A) (A) (A) (A) (A) (A) (A) (A) (A)
                 (A) (A) (A) (A) (A) (A) (A) (A) (A) (A) (A) (A)
                 (A) (A) (A) (A) (A) (A) (A) (A) (A) (A) (A) (A)
                 (A) (A) (A) (A) (A) (A) (A) (A) (A) (A) (A) (A)
                 (A) (A) (A) (A) (A) (A) (A) (A) (A) (A) (A) (A)
                 (A) (A) (A) (A) (A) (A) (A) (A) (A) (A) (A) (A)
                 (A) (A) (A) (A) (A) (A) (A) (A) (A) (A) (A) (A)
                 (A) (A) (A) (A) (A) (A) (A) (A) (A) (A) (A) (A)
                 (A) (A) (A) (A) (A) (A) (A) (A) (A) (A) (A) (A)
                 (A) (A) (A) (A) (A) (A) (A) (A) (A) (A) (A) (A)
                 (A) (A) (A) (A) (A) (A) (A) (A) (A) (A) (A) (A)
                 (A) (A) (A) (A) (A) (A) (A) (A) (A) (A) (A) (A)
                 (A) (A) (A) (A) (A) (A) (A) (A) (A) (A) (A) (A)
                 (A) (A) (A) (A) (A) (A) (A) (A) (A) (A) (A) (A)
                 (A) (A) (A) (A) (A) (A) (A) (A) (A) (A) (A) (A)
                 (A) (A) (A) (A) (A) (A) (A) (A) (A) (A) (A) (A)
                 (A) (A) (A) (A) (A) (A) (A) (A) (A) (A) (A) (A)
                 (A) (A) (A) (A) (A) (A) (A) (A) (A) (A) (A) (A)
                 (A) (A) (A) (A) (A) (A) (A) (A) (A) (A) (A) (A)
                 (A) (A) (A) (A) (A) (A) (A) (A) (A) (A) (A) (A)
                 (A) (A) (A) (A) (A) (A) (A) (A) (A) (A) (A) (A)
                 (A) (A) (A) (A) (A) (A) (A) (A) (A) (A) (A) (A)
                 (A) (A) (A) (A) (A) (A) (A) (A) (A) (A) (A) (A)
                 (A) (A) (A) (A) (A) (A) (A) (A) (A) (A) (A) (A)
                 (A) (A) (A) (A) (A) (A) (A) (A) (A) (A) (A) (A)
                 (A) (A) (A) (A) (A) (A) (A) (A) (A) (A) (A) (A)
                 (A) (A) (A) (A) (A) (A)
 Beta  Orbitals:
       Occupied  (A) (A) (A) (A) (A) (A) (A) (A) (A) (A) (A) (A)
                 (A) (A) (A) (A) (A) (A) (A) (A) (A) (A) (A) (A)
                 (A) (A) (A) (A) (A) (A) (A) (A) (A) (A) (A) (A)
                 (A) (A) (A) (A) (A) (A) (A) (A) (A) (A) (A) (A)
                 (A) (A) (A) (A) (A) (A) (A) (A) (A) (A) (A) (A)
                 (A) (A) (A)
       Virtual   (A) (A) (A) (A) (A) (A) (A) (A) (A) (A) (A) (A)
                 (A) (A) (A) (A) (A) (A) (A) (A) (A) (A) (A) (A)
                 (A) (A) (A) (A) (A) (A) (A) (A) (A) (A) (A) (A)
                 (A) (A) (A) (A) (A) (A) (A) (A) (A) (A) (A) (A)
                 (A) (A) (A) (A) (A) (A) (A) (A) (A) (A) (A) (A)
                 (A) (A) (A) (A) (A) (A) (A) (A) (A) (A) (A) (A)
                 (A) (A) (A) (A) (A) (A) (A) (A) (A) (A) (A) (A)
                 (A) (A) (A) (A) (A) (A) (A) (A) (A) (A) (A) (A)
                 (A) (A) (A) (A) (A) (A) (A) (A) (A) (A) (A) (A)
                 (A) (A) (A) (A) (A) (A) (A) (A) (A) (A) (A) (A)
                 (A) (A) (A) (A) (A) (A) (A) (A) (A) (A) (A) (A)
                 (A) (A) (A) (A) (A) (A) (A) (A) (A) (A) (A) (A)
                 (A) (A) (A) (A) (A) (A) (A) (A) (A) (A) (A) (A)
                 (A) (A) (A) (A) (A) (A) (A) (A) (A) (A) (A) (A)
                 (A) (A) (A) (A) (A) (A) (A) (A) (A) (A) (A) (A)
                 (A) (A) (A) (A) (A) (A) (A) (A) (A) (A) (A) (A)
                 (A) (A) (A) (A) (A) (A) (A) (A) (A) (A) (A) (A)
                 (A) (A) (A) (A) (A) (A) (A) (A) (A) (A) (A) (A)
                 (A) (A) (A) (A) (A) (A) (A) (A) (A) (A) (A) (A)
                 (A) (A) (A) (A) (A) (A) (A) (A) (A) (A) (A) (A)
                 (A) (A) (A) (A) (A) (A) (A) (A) (A) (A) (A) (A)
                 (A) (A) (A) (A) (A) (A) (A) (A) (A) (A) (A) (A)
                 (A) (A) (A) (A) (A) (A) (A) (A) (A) (A) (A) (A)
                 (A) (A) (A) (A) (A) (A) (A) (A) (A) (A) (A) (A)
                 (A) (A) (A) (A) (A) (A) (A) (A) (A) (A) (A) (A)
                 (A) (A) (A) (A) (A) (A) (A) (A) (A) (A) (A) (A)
                 (A) (A) (A) (A) (A) (A) (A) (A) (A) (A) (A) (A)
                 (A) (A) (A) (A) (A) (A) (A) (A) (A) (A) (A) (A)
                 (A) (A) (A) (A) (A) (A) (A) (A) (A) (A) (A) (A)
                 (A) (A) (A) (A) (A) (A) (A) (A) (A) (A) (A) (A)
                 (A) (A) (A) (A) (A) (A) (A) (A) (A) (A) (A) (A)
                 (A) (A) (A) (A) (A) (A) (A) (A) (A) (A) (A) (A)
                 (A) (A) (A) (A) (A) (A) (A)
 The electronic state is 2-A.
 Alpha  occ. eigenvalues --  -24.84944 -24.70868 -24.70761 -19.29957 -19.09773
 Alpha  occ. eigenvalues --  -14.31701 -10.40541 -10.28634 -10.21965 -10.20761
 Alpha  occ. eigenvalues --  -10.19725 -10.19562 -10.17069 -10.16971 -10.16669
 Alpha  occ. eigenvalues --  -10.15100  -1.59648  -1.29663  -1.23379  -1.15050
 Alpha  occ. eigenvalues --   -1.07420  -0.95255  -0.89129  -0.86365  -0.80061
 Alpha  occ. eigenvalues --   -0.77327  -0.76063  -0.75284  -0.73906  -0.69869
 Alpha  occ. eigenvalues --   -0.66796  -0.65655  -0.62047  -0.60253  -0.58555
 Alpha  occ. eigenvalues --   -0.57634  -0.54883  -0.54144  -0.50919  -0.48803
 Alpha  occ. eigenvalues --   -0.48317  -0.48159  -0.47226  -0.46908  -0.45603
 Alpha  occ. eigenvalues --   -0.44902  -0.44528  -0.43971  -0.43403  -0.42573
 Alpha  occ. eigenvalues --   -0.41095  -0.40480  -0.38962  -0.37794  -0.37511
 Alpha  occ. eigenvalues --   -0.36994  -0.34967  -0.34772  -0.34166  -0.33713
 Alpha  occ. eigenvalues --   -0.31997  -0.23925  -0.10362  -0.05550
 Alpha virt. eigenvalues --   -0.01468   0.00472   0.01186   0.01424   0.02147
 Alpha virt. eigenvalues --    0.02716   0.03149   0.03657   0.04152   0.04804
 Alpha virt. eigenvalues --    0.05442   0.05734   0.05932   0.06238   0.06494
 Alpha virt. eigenvalues --    0.08165   0.08668   0.08804   0.09384   0.09680
 Alpha virt. eigenvalues --    0.09753   0.10158   0.10332   0.10992   0.11177
 Alpha virt. eigenvalues --    0.11590   0.12024   0.13017   0.13347   0.13679
 Alpha virt. eigenvalues --    0.14181   0.14278   0.14879   0.15129   0.15967
 Alpha virt. eigenvalues --    0.16130   0.16834   0.16902   0.16920   0.17691
 Alpha virt. eigenvalues --    0.17989   0.18493   0.18785   0.19022   0.19551
 Alpha virt. eigenvalues --    0.19756   0.20537   0.20926   0.21328   0.21548
 Alpha virt. eigenvalues --    0.22057   0.22368   0.22993   0.23147   0.23729
 Alpha virt. eigenvalues --    0.23900   0.24369   0.25043   0.25278   0.25792
 Alpha virt. eigenvalues --    0.26886   0.27476   0.27963   0.28587   0.28862
 Alpha virt. eigenvalues --    0.28952   0.29518   0.30382   0.31122   0.31528
 Alpha virt. eigenvalues --    0.32329   0.32972   0.33694   0.34363   0.34619
 Alpha virt. eigenvalues --    0.34849   0.35708   0.36008   0.37007   0.37691
 Alpha virt. eigenvalues --    0.37820   0.39007   0.39294   0.39917   0.40459
 Alpha virt. eigenvalues --    0.41192   0.41310   0.42025   0.42344   0.43702
 Alpha virt. eigenvalues --    0.44356   0.44675   0.45383   0.46033   0.47046
 Alpha virt. eigenvalues --    0.48081   0.48536   0.50736   0.51014   0.51582
 Alpha virt. eigenvalues --    0.52011   0.52997   0.54557   0.55249   0.56578
 Alpha virt. eigenvalues --    0.57987   0.58498   0.60341   0.60906   0.61274
 Alpha virt. eigenvalues --    0.61830   0.62154   0.62679   0.63235   0.63953
 Alpha virt. eigenvalues --    0.65236   0.66044   0.66924   0.67308   0.68045
 Alpha virt. eigenvalues --    0.68718   0.69231   0.69909   0.70626   0.71403
 Alpha virt. eigenvalues --    0.71724   0.72743   0.72889   0.73591   0.74459
 Alpha virt. eigenvalues --    0.75385   0.76399   0.76475   0.77614   0.78406
 Alpha virt. eigenvalues --    0.78669   0.80040   0.81779   0.82910   0.84823
 Alpha virt. eigenvalues --    0.85700   0.89001   0.89862   0.91014   0.93253
 Alpha virt. eigenvalues --    0.95316   0.97144   0.98123   1.00276   1.02755
 Alpha virt. eigenvalues --    1.04255   1.04955   1.07272   1.07794   1.09996
 Alpha virt. eigenvalues --    1.10478   1.11978   1.14477   1.15103   1.17247
 Alpha virt. eigenvalues --    1.17786   1.19094   1.20585   1.20994   1.23783
 Alpha virt. eigenvalues --    1.25749   1.28566   1.30060   1.30403   1.31570
 Alpha virt. eigenvalues --    1.34456   1.35278   1.37036   1.38646   1.39623
 Alpha virt. eigenvalues --    1.41462   1.41764   1.44368   1.44889   1.45538
 Alpha virt. eigenvalues --    1.45725   1.46721   1.47315   1.48591   1.49744
 Alpha virt. eigenvalues --    1.50521   1.51324   1.51691   1.54005   1.54165
 Alpha virt. eigenvalues --    1.55193   1.56277   1.56852   1.57792   1.57923
 Alpha virt. eigenvalues --    1.59038   1.60003   1.61556   1.62387   1.63070
 Alpha virt. eigenvalues --    1.63753   1.65511   1.65902   1.66267   1.67790
 Alpha virt. eigenvalues --    1.68604   1.69873   1.70944   1.72040   1.72670
 Alpha virt. eigenvalues --    1.73772   1.75606   1.75909   1.78266   1.79103
 Alpha virt. eigenvalues --    1.80814   1.81125   1.81932   1.83597   1.84037
 Alpha virt. eigenvalues --    1.84062   1.86235   1.87207   1.87689   1.90062
 Alpha virt. eigenvalues --    1.90423   1.90776   1.92438   1.93217   1.94490
 Alpha virt. eigenvalues --    1.95340   1.95685   1.97882   1.97955   2.00749
 Alpha virt. eigenvalues --    2.03365   2.03837   2.05375   2.08971   2.10183
 Alpha virt. eigenvalues --    2.11411   2.13571   2.14984   2.17641   2.17850
 Alpha virt. eigenvalues --    2.19408   2.21453   2.22779   2.26568   2.27393
 Alpha virt. eigenvalues --    2.28306   2.29785   2.32486   2.33336   2.35569
 Alpha virt. eigenvalues --    2.36977   2.39761   2.40274   2.40622   2.42662
 Alpha virt. eigenvalues --    2.44919   2.46217   2.49816   2.50328   2.51541
 Alpha virt. eigenvalues --    2.51808   2.53802   2.55153   2.55783   2.56293
 Alpha virt. eigenvalues --    2.58559   2.59407   2.61181   2.62049   2.62213
 Alpha virt. eigenvalues --    2.64099   2.65720   2.67201   2.69569   2.70895
 Alpha virt. eigenvalues --    2.71619   2.72121   2.72794   2.75032   2.75963
 Alpha virt. eigenvalues --    2.77190   2.79347   2.82773   2.82797   2.84029
 Alpha virt. eigenvalues --    2.85107   2.86141   2.86542   2.90066   2.91169
 Alpha virt. eigenvalues --    2.93805   2.94975   2.96433   3.01211   3.02032
 Alpha virt. eigenvalues --    3.04684   3.05985   3.08220   3.09827   3.10857
 Alpha virt. eigenvalues --    3.13165   3.14648   3.14874   3.17103   3.19397
 Alpha virt. eigenvalues --    3.21513   3.23274   3.27110   3.29758   3.42138
 Alpha virt. eigenvalues --    3.45402   3.46191   3.53154   3.56360   3.62849
 Alpha virt. eigenvalues --    3.68154   3.72537   3.74862   3.76770   3.78400
 Alpha virt. eigenvalues --    3.79664   3.80827   3.82802   3.83458   3.84180
 Alpha virt. eigenvalues --    3.85068   3.85196   3.89090   3.89162   3.90416
 Alpha virt. eigenvalues --    3.92176   3.94200   3.96709   4.00792   4.01619
 Alpha virt. eigenvalues --    4.05560   4.07157   4.13555   4.15220   4.16446
 Alpha virt. eigenvalues --    4.19853   4.21459   4.23919   4.27230   4.33114
 Alpha virt. eigenvalues --    4.38333   4.40810   4.56060   4.63655   4.83103
 Alpha virt. eigenvalues --    4.84028   4.92624   4.93810   4.98696   5.18557
 Alpha virt. eigenvalues --    5.37009   5.56926   5.65099   5.78625   6.38772
 Alpha virt. eigenvalues --    6.41014   6.45443   6.47687   6.49421   6.52696
 Alpha virt. eigenvalues --    6.59587   6.67280   6.81270   7.29152  23.64628
 Alpha virt. eigenvalues --   23.76644  23.87135  23.95257  23.96231  24.00472
 Alpha virt. eigenvalues --   24.02975  24.07655  24.09834  24.13356  35.64316
 Alpha virt. eigenvalues --   49.94500  50.19708  66.78247  66.82487  66.87154
  Beta  occ. eigenvalues --  -24.84108 -24.70820 -24.70440 -19.28688 -19.09748
  Beta  occ. eigenvalues --  -14.31704 -10.39907 -10.28641 -10.21978 -10.20732
  Beta  occ. eigenvalues --  -10.19555 -10.19546 -10.17054 -10.16942 -10.16659
  Beta  occ. eigenvalues --  -10.15104  -1.57163  -1.29066  -1.22914  -1.13603
  Beta  occ. eigenvalues --   -1.07049  -0.95111  -0.88391  -0.85331  -0.79771
  Beta  occ. eigenvalues --   -0.77072  -0.75905  -0.74736  -0.73196  -0.69079
  Beta  occ. eigenvalues --   -0.66494  -0.65438  -0.61650  -0.59994  -0.58127
  Beta  occ. eigenvalues --   -0.57077  -0.54564  -0.53939  -0.50643  -0.48574
  Beta  occ. eigenvalues --   -0.48008  -0.47957  -0.47051  -0.46660  -0.45133
  Beta  occ. eigenvalues --   -0.44768  -0.44332  -0.43856  -0.43196  -0.42405
  Beta  occ. eigenvalues --   -0.40904  -0.40135  -0.38769  -0.37705  -0.37436
  Beta  occ. eigenvalues --   -0.36834  -0.34821  -0.34710  -0.34023  -0.33627
  Beta  occ. eigenvalues --   -0.31818  -0.23828  -0.07990
  Beta virt. eigenvalues --   -0.01481   0.00297   0.00670   0.01206   0.02098
  Beta virt. eigenvalues --    0.02506   0.03128   0.03598   0.03922   0.04429
  Beta virt. eigenvalues --    0.05008   0.05486   0.05886   0.05933   0.06317
  Beta virt. eigenvalues --    0.06485   0.08317   0.08681   0.08810   0.09395
  Beta virt. eigenvalues --    0.09682   0.09971   0.10306   0.10539   0.11024
  Beta virt. eigenvalues --    0.11467   0.11936   0.12112   0.13188   0.13371
  Beta virt. eigenvalues --    0.13741   0.14212   0.14335   0.14931   0.15282
  Beta virt. eigenvalues --    0.16009   0.16235   0.16832   0.16942   0.16960
  Beta virt. eigenvalues --    0.17840   0.18114   0.18500   0.19020   0.19192
  Beta virt. eigenvalues --    0.19697   0.20225   0.20761   0.20970   0.21356
  Beta virt. eigenvalues --    0.21902   0.22086   0.22985   0.23092   0.23362
  Beta virt. eigenvalues --    0.23759   0.24066   0.24419   0.25102   0.25590
  Beta virt. eigenvalues --    0.25852   0.27021   0.27669   0.28136   0.28756
  Beta virt. eigenvalues --    0.28936   0.29174   0.29598   0.30417   0.31152
  Beta virt. eigenvalues --    0.31615   0.32346   0.33115   0.33845   0.34389
  Beta virt. eigenvalues --    0.34752   0.34980   0.35782   0.36045   0.37136
  Beta virt. eigenvalues --    0.37732   0.37936   0.39123   0.39449   0.40078
  Beta virt. eigenvalues --    0.40483   0.41269   0.41394   0.42104   0.42362
  Beta virt. eigenvalues --    0.43805   0.44488   0.44829   0.45431   0.46113
  Beta virt. eigenvalues --    0.47086   0.48150   0.48650   0.50802   0.51118
  Beta virt. eigenvalues --    0.51635   0.52118   0.53042   0.54585   0.55352
  Beta virt. eigenvalues --    0.56637   0.58074   0.58579   0.60390   0.61000
  Beta virt. eigenvalues --    0.61374   0.61891   0.62253   0.62744   0.63275
  Beta virt. eigenvalues --    0.63992   0.65325   0.66099   0.66980   0.67478
  Beta virt. eigenvalues --    0.68069   0.68873   0.69309   0.70000   0.70730
  Beta virt. eigenvalues --    0.71534   0.71791   0.72884   0.72993   0.73683
  Beta virt. eigenvalues --    0.74493   0.75522   0.76530   0.76561   0.77647
  Beta virt. eigenvalues --    0.78523   0.78843   0.80147   0.81868   0.82971
  Beta virt. eigenvalues --    0.84891   0.85763   0.89123   0.90005   0.91085
  Beta virt. eigenvalues --    0.93397   0.95397   0.97301   0.98249   1.00411
  Beta virt. eigenvalues --    1.02919   1.04356   1.05122   1.07367   1.07999
  Beta virt. eigenvalues --    1.10121   1.10676   1.12212   1.14689   1.15486
  Beta virt. eigenvalues --    1.17377   1.18059   1.19239   1.20823   1.21457
  Beta virt. eigenvalues --    1.23976   1.26025   1.28702   1.30232   1.30520
  Beta virt. eigenvalues --    1.31780   1.34571   1.35394   1.37138   1.38746
  Beta virt. eigenvalues --    1.39789   1.41612   1.41980   1.44625   1.45157
  Beta virt. eigenvalues --    1.45608   1.45867   1.46798   1.47425   1.48668
  Beta virt. eigenvalues --    1.49902   1.50695   1.51423   1.51853   1.54100
  Beta virt. eigenvalues --    1.54318   1.55421   1.56466   1.56971   1.57873
  Beta virt. eigenvalues --    1.58090   1.59177   1.60244   1.61716   1.62542
  Beta virt. eigenvalues --    1.63183   1.63879   1.65633   1.66076   1.66399
  Beta virt. eigenvalues --    1.67872   1.68723   1.70118   1.71038   1.72154
  Beta virt. eigenvalues --    1.72914   1.73899   1.75672   1.76094   1.78462
  Beta virt. eigenvalues --    1.79287   1.81002   1.81307   1.82134   1.83741
  Beta virt. eigenvalues --    1.84137   1.84406   1.86419   1.87300   1.87956
  Beta virt. eigenvalues --    1.90155   1.90588   1.90913   1.92615   1.93359
  Beta virt. eigenvalues --    1.94609   1.95437   1.95784   1.98058   1.98085
  Beta virt. eigenvalues --    2.00860   2.03557   2.03948   2.05652   2.09122
  Beta virt. eigenvalues --    2.10507   2.11498   2.13788   2.15101   2.17799
  Beta virt. eigenvalues --    2.18017   2.19520   2.21627   2.22959   2.26712
  Beta virt. eigenvalues --    2.27467   2.28454   2.29921   2.32623   2.33480
  Beta virt. eigenvalues --    2.35674   2.37127   2.39869   2.40403   2.40685
  Beta virt. eigenvalues --    2.42798   2.45125   2.46369   2.49898   2.50445
  Beta virt. eigenvalues --    2.51639   2.51951   2.53863   2.55304   2.55828
  Beta virt. eigenvalues --    2.56380   2.58659   2.59477   2.61220   2.62192
  Beta virt. eigenvalues --    2.62334   2.64185   2.65828   2.67309   2.69823
  Beta virt. eigenvalues --    2.71019   2.71749   2.72229   2.72915   2.75223
  Beta virt. eigenvalues --    2.76040   2.77260   2.79519   2.82871   2.82945
  Beta virt. eigenvalues --    2.84143   2.85182   2.86496   2.86813   2.90384
  Beta virt. eigenvalues --    2.91380   2.94089   2.95192   2.96632   3.01407
  Beta virt. eigenvalues --    3.02457   3.05134   3.06259   3.08450   3.10074
  Beta virt. eigenvalues --    3.11462   3.13378   3.14866   3.15042   3.17367
  Beta virt. eigenvalues --    3.19896   3.21634   3.23491   3.27486   3.30354
  Beta virt. eigenvalues --    3.42233   3.45509   3.46374   3.53513   3.56560
  Beta virt. eigenvalues --    3.63017   3.68365   3.72798   3.75117   3.76943
  Beta virt. eigenvalues --    3.78572   3.79942   3.81087   3.82945   3.83582
  Beta virt. eigenvalues --    3.84288   3.85162   3.85342   3.89243   3.89505
  Beta virt. eigenvalues --    3.90566   3.92377   3.94398   3.96908   4.01503
  Beta virt. eigenvalues --    4.02353   4.06139   4.07281   4.14253   4.15651
  Beta virt. eigenvalues --    4.16734   4.20228   4.21673   4.24267   4.27468
  Beta virt. eigenvalues --    4.33307   4.38433   4.40983   4.58401   4.64193
  Beta virt. eigenvalues --    4.83229   4.84071   4.92835   4.94368   4.99074
  Beta virt. eigenvalues --    5.18630   5.37870   5.57406   5.66516   5.79931
  Beta virt. eigenvalues --    6.39219   6.41322   6.45800   6.48161   6.49488
  Beta virt. eigenvalues --    6.53105   6.59704   6.68055   6.81649   7.30226
  Beta virt. eigenvalues --   23.65300  23.76667  23.87146  23.95281  23.96390
  Beta virt. eigenvalues --   24.00481  24.02995  24.07676  24.09863  24.13396
  Beta virt. eigenvalues --   35.64313  49.95808  50.19734  66.78995  66.82805
  Beta virt. eigenvalues --   66.87410
          Condensed to atoms (all electrons):
               1          2          3          4          5          6
     1  C    8.101928  -1.315059   0.259311  -1.254633   0.421693   0.340868
     2  C   -1.315059   7.264976  -0.167070  -0.300141  -0.021605   0.030403
     3  C    0.259311  -0.167070   8.095033  -1.655127   0.017647  -0.010573
     4  C   -1.254633  -0.300141  -1.655127  11.067663  -0.130134  -0.025236
     5  H    0.421693  -0.021605   0.017647  -0.130134   0.515521  -0.020054
     6  H    0.340868   0.030403  -0.010573  -0.025236  -0.020054   0.540600
     7  H    0.017775   0.409444   0.071437  -0.050306  -0.004833   0.003953
     8  H    0.013307   0.333048  -0.044470   0.007945   0.000281  -0.009543
     9  H    0.002661  -0.083505   0.304689   0.090541   0.000903  -0.002164
    10  H    0.021980  -0.046300   0.532416  -0.032025  -0.000487   0.001020
    11  H   -0.046635   0.035628   0.032733   0.228972   0.006487  -0.008664
    12  N    0.067975  -0.186886   0.263594  -0.387713   0.026045  -0.018039
    13  C    0.435863  -0.574785  -1.542502   0.065079  -0.005800  -0.006388
    14  O   -0.074598   0.169965   0.107696  -0.143001   0.000117   0.000708
    15  H    0.015182  -0.028317   0.005546   0.043990  -0.000033  -0.000023
    16  O   -0.655966   0.892549   0.333500  -1.012257   0.010238   0.018052
    17  C    0.124900  -0.579778  -0.608374   1.716877  -0.007014  -0.004578
    18  C    0.011869  -0.094500  -0.174190   0.368813  -0.002215  -0.000619
    19  H   -0.000381   0.000658   0.000811  -0.003187   0.000004   0.000000
    20  H    0.000744  -0.002137  -0.002652   0.002098  -0.000003   0.000000
    21  H   -0.004337   0.005009  -0.000471  -0.003406   0.000023   0.000008
    22  C   -0.106798   0.024245  -0.171643   0.225130   0.000394   0.000216
    23  H    0.001219   0.000211   0.002330  -0.001366  -0.000001   0.000000
    24  H   -0.007963   0.013980   0.021374  -0.027108   0.000009   0.000009
    25  H    0.001251  -0.004681  -0.006699   0.002877   0.000000  -0.000001
    26  C    0.130105   0.038081   0.029519  -0.462137   0.001760  -0.000393
    27  H    0.000592  -0.001234   0.007183  -0.003902   0.000012   0.000001
    28  H   -0.000857   0.001375   0.002678  -0.010523   0.000004   0.000000
    29  H   -0.010645   0.009157  -0.005067   0.001904   0.000061   0.000023
    30  C   -0.807651   0.997400   0.634891  -2.596607   0.045334   0.029350
    31  F    0.516294  -0.576968  -0.109222   0.524970  -0.008105  -0.010611
    32  F    0.042866  -0.021378  -0.055738   0.069464  -0.000376  -0.000720
    33  F    0.014104  -0.024549   0.035098  -0.138702   0.001706  -0.001453
               7          8          9         10         11         12
     1  C    0.017775   0.013307   0.002661   0.021980  -0.046635   0.067975
     2  C    0.409444   0.333048  -0.083505  -0.046300   0.035628  -0.186886
     3  C    0.071437  -0.044470   0.304689   0.532416   0.032733   0.263594
     4  C   -0.050306   0.007945   0.090541  -0.032025   0.228972  -0.387713
     5  H   -0.004833   0.000281   0.000903  -0.000487   0.006487   0.026045
     6  H    0.003953  -0.009543  -0.002164   0.001020  -0.008664  -0.018039
     7  H    0.550782  -0.030737   0.002805  -0.002999  -0.000031  -0.008998
     8  H   -0.030737   0.541753   0.000184  -0.001306   0.000071   0.034896
     9  H    0.002805   0.000184   0.567528  -0.033968   0.000253  -0.039480
    10  H   -0.002999  -0.001306  -0.033968   0.522145   0.000109  -0.062939
    11  H   -0.000031   0.000071   0.000253   0.000109   0.526684   0.012887
    12  N   -0.008998   0.034896  -0.039480  -0.062939   0.012887   7.325281
    13  C   -0.080030   0.018846   0.086421  -0.082772  -0.023205   0.169888
    14  O    0.000881  -0.001595  -0.003671   0.024646   0.001191   0.136607
    15  H    0.002458   0.000001  -0.000096  -0.000555  -0.000212  -0.065333
    16  O   -0.133091  -0.011894  -0.009955   0.016496   0.027008  -0.867803
    17  C    0.026922   0.011188   0.005914  -0.023799  -0.039101  -0.062767
    18  C   -0.015785   0.001391  -0.000156  -0.002090  -0.001741  -0.091071
    19  H   -0.000040   0.000000   0.000000   0.000001   0.000002   0.000614
    20  H   -0.001151   0.000013   0.000000  -0.000009  -0.000005  -0.000212
    21  H   -0.000462  -0.000017  -0.000001   0.000002   0.000011  -0.001295
    22  C   -0.062630   0.001446   0.000212  -0.008470  -0.001460   0.074838
    23  H    0.000245  -0.000002   0.000001   0.000019   0.000000   0.001047
    24  H   -0.001002  -0.000046  -0.000030   0.000693   0.000056   0.009033
    25  H   -0.000699   0.000027   0.000006  -0.000145  -0.000002  -0.000791
    26  C    0.021607  -0.001888   0.002484   0.004600   0.002826   0.039361
    27  H    0.000160   0.000001  -0.000010   0.000041   0.000194   0.003114
    28  H    0.000018   0.000000  -0.000001   0.000004   0.000034   0.002257
    29  H   -0.000840  -0.000002  -0.000009   0.000002   0.000384   0.000630
    30  C    0.015366  -0.000974  -0.022290   0.021912   0.094858   0.312590
    31  F    0.126169   0.003459   0.005129  -0.000897  -0.013803   0.324372
    32  F   -0.001111   0.000028   0.000262  -0.000199  -0.019907  -0.042081
    33  F    0.006992  -0.000228  -0.000015   0.000232  -0.002751  -0.009086
              13         14         15         16         17         18
     1  C    0.435863  -0.074598   0.015182  -0.655966   0.124900   0.011869
     2  C   -0.574785   0.169965  -0.028317   0.892549  -0.579778  -0.094500
     3  C   -1.542502   0.107696   0.005546   0.333500  -0.608374  -0.174190
     4  C    0.065079  -0.143001   0.043990  -1.012257   1.716877   0.368813
     5  H   -0.005800   0.000117  -0.000033   0.010238  -0.007014  -0.002215
     6  H   -0.006388   0.000708  -0.000023   0.018052  -0.004578  -0.000619
     7  H   -0.080030   0.000881   0.002458  -0.133091   0.026922  -0.015785
     8  H    0.018846  -0.001595   0.000001  -0.011894   0.011188   0.001391
     9  H    0.086421  -0.003671  -0.000096  -0.009955   0.005914  -0.000156
    10  H   -0.082772   0.024646  -0.000555   0.016496  -0.023799  -0.002090
    11  H   -0.023205   0.001191  -0.000212   0.027008  -0.039101  -0.001741
    12  N    0.169888   0.136607  -0.065333  -0.867803  -0.062767  -0.091071
    13  C   10.573182  -0.408871  -0.006591   1.032668  -1.595575  -0.580910
    14  O   -0.408871   8.651657   0.017229  -0.150193  -0.417653  -0.151861
    15  H   -0.006591   0.017229   0.613204   0.006388   0.446701   0.157661
    16  O    1.032668  -0.150193   0.006388  20.295342  -2.786180  -0.303994
    17  C   -1.595575  -0.417653   0.446701  -2.786180  15.760137   0.122493
    18  C   -0.580910  -0.151861   0.157661  -0.303994   0.122493   8.684623
    19  H    0.013066  -0.000077  -0.000635   0.027765  -0.009646   0.376087
    20  H   -0.019661   0.000441  -0.000416  -0.026736  -0.034701   0.403214
    21  H   -0.004838   0.001302  -0.000658   0.033399  -0.023362   0.388656
    22  C   -0.794280   0.183557  -0.216280  -0.542123   0.185685   0.229125
    23  H    0.076735   0.009661  -0.006725   0.005366  -0.076625  -0.135936
    24  H    0.089882   0.045288  -0.021856   0.072508  -0.349665  -0.148703
    25  H   -0.043812  -0.009933   0.005454  -0.004491   0.006030   0.050741
    26  C    0.687111   0.098036  -0.204163   0.059423  -3.231480  -1.853379
    27  H    0.038780  -0.015877   0.006375   0.013835  -0.027203   0.000600
    28  H    0.057165  -0.002207  -0.002618   0.042131  -0.113653  -0.101356
    29  H   -0.025311   0.002227  -0.000062   0.024297   0.141771   0.089322
    30  C   -0.324163   0.183304  -0.077450   1.857944  -2.124186  -0.588434
    31  F   -0.500417   0.043266  -0.019507  -9.703683   0.288744  -0.327339
    32  F   -0.126050  -0.000952  -0.000983  -0.202871  -0.005804   0.030881
    33  F   -0.000594  -0.001856   0.000053  -0.261623  -0.226668  -0.062732
              19         20         21         22         23         24
     1  C   -0.000381   0.000744  -0.004337  -0.106798   0.001219  -0.007963
     2  C    0.000658  -0.002137   0.005009   0.024245   0.000211   0.013980
     3  C    0.000811  -0.002652  -0.000471  -0.171643   0.002330   0.021374
     4  C   -0.003187   0.002098  -0.003406   0.225130  -0.001366  -0.027108
     5  H    0.000004  -0.000003   0.000023   0.000394  -0.000001   0.000009
     6  H    0.000000   0.000000   0.000008   0.000216   0.000000   0.000009
     7  H   -0.000040  -0.001151  -0.000462  -0.062630   0.000245  -0.001002
     8  H    0.000000   0.000013  -0.000017   0.001446  -0.000002  -0.000046
     9  H    0.000000   0.000000  -0.000001   0.000212   0.000001  -0.000030
    10  H    0.000001  -0.000009   0.000002  -0.008470   0.000019   0.000693
    11  H    0.000002  -0.000005   0.000011  -0.001460   0.000000   0.000056
    12  N    0.000614  -0.000212  -0.001295   0.074838   0.001047   0.009033
    13  C    0.013066  -0.019661  -0.004838  -0.794280   0.076735   0.089882
    14  O   -0.000077   0.000441   0.001302   0.183557   0.009661   0.045288
    15  H   -0.000635  -0.000416  -0.000658  -0.216280  -0.006725  -0.021856
    16  O    0.027765  -0.026736   0.033399  -0.542123   0.005366   0.072508
    17  C   -0.009646  -0.034701  -0.023362   0.185685  -0.076625  -0.349665
    18  C    0.376087   0.403214   0.388656   0.229125  -0.135936  -0.148703
    19  H    0.502711  -0.025838  -0.021320  -0.036504   0.002523   0.001174
    20  H   -0.025838   0.513645  -0.020592   0.037357  -0.001885   0.000078
    21  H   -0.021320  -0.020592   0.495796   0.024466  -0.000285   0.000150
    22  C   -0.036504   0.037357   0.024466   8.458985   0.280132   0.452267
    23  H    0.002523  -0.001885  -0.000285   0.280132   0.555391  -0.016175
    24  H    0.001174   0.000078   0.000150   0.452267  -0.016175   0.659960
    25  H   -0.001299   0.004245  -0.000002   0.410801  -0.028276  -0.029542
    26  C    0.003923   0.012090  -0.035282  -1.550347   0.147043   0.130525
    27  H    0.000418  -0.000484  -0.000003   0.002711  -0.001238   0.000331
    28  H    0.002280  -0.000193  -0.000168  -0.039106   0.000887   0.002974
    29  H   -0.000246  -0.000036   0.005221   0.054880  -0.001690   0.000318
    30  C    0.008823  -0.005730   0.021297  -0.403017   0.010778   0.044838
    31  F   -0.007133   0.002135  -0.020941  -0.404584   0.019819  -0.018788
    32  F   -0.000445   0.000349  -0.000401   0.003536   0.000399  -0.000100
    33  F    0.000057  -0.000507  -0.001842  -0.046597   0.000136   0.000052
              25         26         27         28         29         30
     1  C    0.001251   0.130105   0.000592  -0.000857  -0.010645  -0.807651
     2  C   -0.004681   0.038081  -0.001234   0.001375   0.009157   0.997400
     3  C   -0.006699   0.029519   0.007183   0.002678  -0.005067   0.634891
     4  C    0.002877  -0.462137  -0.003902  -0.010523   0.001904  -2.596607
     5  H    0.000000   0.001760   0.000012   0.000004   0.000061   0.045334
     6  H   -0.000001  -0.000393   0.000001   0.000000   0.000023   0.029350
     7  H   -0.000699   0.021607   0.000160   0.000018  -0.000840   0.015366
     8  H    0.000027  -0.001888   0.000001   0.000000  -0.000002  -0.000974
     9  H    0.000006   0.002484  -0.000010  -0.000001  -0.000009  -0.022290
    10  H   -0.000145   0.004600   0.000041   0.000004   0.000002   0.021912
    11  H   -0.000002   0.002826   0.000194   0.000034   0.000384   0.094858
    12  N   -0.000791   0.039361   0.003114   0.002257   0.000630   0.312590
    13  C   -0.043812   0.687111   0.038780   0.057165  -0.025311  -0.324163
    14  O   -0.009933   0.098036  -0.015877  -0.002207   0.002227   0.183304
    15  H    0.005454  -0.204163   0.006375  -0.002618  -0.000062  -0.077450
    16  O   -0.004491   0.059423   0.013835   0.042131   0.024297   1.857944
    17  C    0.006030  -3.231480  -0.027203  -0.113653   0.141771  -2.124186
    18  C    0.050741  -1.853379   0.000600  -0.101356   0.089322  -0.588434
    19  H   -0.001299   0.003923   0.000418   0.002280  -0.000246   0.008823
    20  H    0.004245   0.012090  -0.000484  -0.000193  -0.000036  -0.005730
    21  H   -0.000002  -0.035282  -0.000003  -0.000168   0.005221   0.021297
    22  C    0.410801  -1.550347   0.002711  -0.039106   0.054880  -0.403017
    23  H   -0.028276   0.147043  -0.001238   0.000887  -0.001690   0.010778
    24  H   -0.029542   0.130525   0.000331   0.002974   0.000318   0.044838
    25  H    0.481527   0.000373  -0.000675  -0.000283  -0.000333  -0.010797
    26  C    0.000373   9.437502   0.371627   0.498366   0.137049   0.348888
    27  H   -0.000675   0.371627   0.429490  -0.017440  -0.006193  -0.000839
    28  H   -0.000283   0.498366  -0.017440   0.518327  -0.021889   0.032661
    29  H   -0.000333   0.137049  -0.006193  -0.021889   0.540595   0.057510
    30  C   -0.010797   0.348888  -0.000839   0.032661   0.057510  10.878810
    31  F   -0.013521   1.168436  -0.002099  -0.011965  -0.063899  -1.997896
    32  F    0.000141   0.133656  -0.024482   0.001177  -0.043520  -0.163592
    33  F   -0.000083   0.141609   0.001179   0.000518  -0.021948  -0.147893
              31         32         33
     1  C    0.516294   0.042866   0.014104
     2  C   -0.576968  -0.021378  -0.024549
     3  C   -0.109222  -0.055738   0.035098
     4  C    0.524970   0.069464  -0.138702
     5  H   -0.008105  -0.000376   0.001706
     6  H   -0.010611  -0.000720  -0.001453
     7  H    0.126169  -0.001111   0.006992
     8  H    0.003459   0.000028  -0.000228
     9  H    0.005129   0.000262  -0.000015
    10  H   -0.000897  -0.000199   0.000232
    11  H   -0.013803  -0.019907  -0.002751
    12  N    0.324372  -0.042081  -0.009086
    13  C   -0.500417  -0.126050  -0.000594
    14  O    0.043266  -0.000952  -0.001856
    15  H   -0.019507  -0.000983   0.000053
    16  O   -9.703683  -0.202871  -0.261623
    17  C    0.288744  -0.005804  -0.226668
    18  C   -0.327339   0.030881  -0.062732
    19  H   -0.007133  -0.000445   0.000057
    20  H    0.002135   0.000349  -0.000507
    21  H   -0.020941  -0.000401  -0.001842
    22  C   -0.404584   0.003536  -0.046597
    23  H    0.019819   0.000399   0.000136
    24  H   -0.018788  -0.000100   0.000052
    25  H   -0.013521   0.000141  -0.000083
    26  C    1.168436   0.133656   0.141609
    27  H   -0.002099  -0.024482   0.001179
    28  H   -0.011965   0.001177   0.000518
    29  H   -0.063899  -0.043520  -0.021948
    30  C   -1.997896  -0.163592  -0.147893
    31  F   18.558855   0.220324   0.441660
    32  F    0.220324   9.217263  -0.060900
    33  F    0.441660  -0.060900   9.350719
          Atomic-Atomic Spin Densities.
               1          2          3          4          5          6
     1  C    0.257468  -0.074767   0.234623  -0.316117  -0.003578  -0.020697
     2  C   -0.074767  -0.134300  -0.266764   0.523547  -0.001154   0.003061
     3  C    0.234623  -0.266764   0.181834   0.218945  -0.001480  -0.012151
     4  C   -0.316117   0.523547   0.218945  -0.942096   0.009092   0.022661
     5  H   -0.003578  -0.001154  -0.001480   0.009092  -0.000172   0.000086
     6  H   -0.020697   0.003061  -0.012151   0.022661   0.000086   0.006503
     7  H    0.061749  -0.045082   0.045682  -0.015940  -0.000524  -0.001716
     8  H   -0.005699   0.006774   0.000735  -0.004870   0.000038   0.000377
     9  H   -0.001054   0.008735   0.019278  -0.026405   0.000013   0.000416
    10  H    0.007393  -0.007854   0.017342   0.004688  -0.000017  -0.000275
    11  H   -0.004582  -0.013515  -0.009156   0.066224  -0.000217  -0.000973
    12  N    0.033070  -0.058183  -0.027100   0.102170  -0.000891  -0.000252
    13  C   -0.276533   0.230000  -0.266570   0.087999   0.001257   0.019354
    14  O    0.009571  -0.020236  -0.032535   0.077798  -0.000048  -0.000197
    15  H   -0.002140   0.004048   0.004418  -0.013169   0.000004   0.000007
    16  O   -0.457453   0.166297  -0.339839   0.866926   0.002990   0.005525
    17  C   -0.136852   0.179877  -0.199775   0.018546   0.000748   0.002994
    18  C   -0.053068   0.032187  -0.071554   0.054779   0.000158   0.000403
    19  H    0.000136  -0.000157   0.000139   0.000214   0.000000   0.000000
    20  H   -0.001721   0.001608  -0.000727  -0.000532   0.000007   0.000002
    21  H   -0.001811   0.000602  -0.000694   0.003148   0.000009   0.000002
    22  C   -0.099506   0.061081  -0.196063   0.177088   0.000212   0.000688
    23  H    0.001381  -0.000929   0.003797  -0.003422   0.000000   0.000000
    24  H    0.000991  -0.002359  -0.002447   0.009348  -0.000001  -0.000002
    25  H   -0.001812   0.002000  -0.001726  -0.001088   0.000002   0.000001
    26  C    0.109320  -0.040800   0.240149  -0.414898  -0.000121  -0.000644
    27  H    0.000375  -0.001131  -0.002032   0.008062  -0.000002  -0.000003
    28  H    0.000226  -0.000562  -0.000071   0.002846  -0.000001   0.000000
    29  H   -0.008115   0.002715  -0.005896   0.030405   0.000018   0.000011
    30  C    0.091792  -0.251857   0.137396   0.511042  -0.000988  -0.013476
    31  F    0.523401  -0.250133   0.343495  -0.824543  -0.003759  -0.004736
    32  F    0.000526   0.013093  -0.001814  -0.050613   0.000035   0.000250
    33  F    0.095897  -0.049809   0.024455  -0.114186  -0.001314  -0.001552
               7          8          9         10         11         12
     1  C    0.061749  -0.005699  -0.001054   0.007393  -0.004582   0.033070
     2  C   -0.045082   0.006774   0.008735  -0.007854  -0.013515  -0.058183
     3  C    0.045682   0.000735   0.019278   0.017342  -0.009156  -0.027100
     4  C   -0.015940  -0.004870  -0.026405   0.004688   0.066224   0.102170
     5  H   -0.000524   0.000038   0.000013  -0.000017  -0.000217  -0.000891
     6  H   -0.001716   0.000377   0.000416  -0.000275  -0.000973  -0.000252
     7  H    0.033772  -0.001129   0.000773   0.002117  -0.000102  -0.004133
     8  H   -0.001129  -0.000438  -0.000319  -0.000144   0.000043   0.000840
     9  H    0.000773  -0.000319  -0.003330   0.000592   0.000641   0.004875
    10  H    0.002117  -0.000144   0.000592   0.002582  -0.000034  -0.000210
    11  H   -0.000102   0.000043   0.000641  -0.000034  -0.008330  -0.009627
    12  N   -0.004133   0.000840   0.004875  -0.000210  -0.009627   0.008594
    13  C   -0.048719   0.002608  -0.011973  -0.025653  -0.002925   0.006831
    14  O    0.001877   0.000074   0.001166   0.001638  -0.000418  -0.024929
    15  H   -0.000152  -0.000008  -0.000052   0.000079   0.000055   0.002480
    16  O   -0.133642   0.002552  -0.001905  -0.004520  -0.002269  -0.140200
    17  C   -0.019886  -0.000417  -0.002368  -0.006996   0.003034  -0.039543
    18  C   -0.023376   0.000537  -0.000115  -0.001565  -0.000288   0.002742
    19  H    0.000032   0.000000   0.000000   0.000000   0.000000  -0.000048
    20  H   -0.000657   0.000004  -0.000001  -0.000006   0.000001   0.000148
    21  H   -0.000320   0.000002   0.000000  -0.000001  -0.000002  -0.000099
    22  C   -0.043863   0.000895  -0.000232  -0.005485  -0.000636  -0.048814
    23  H    0.000339  -0.000001   0.000000   0.000023   0.000000   0.001044
    24  H    0.000107   0.000003   0.000016   0.000027  -0.000015  -0.001775
    25  H   -0.000749   0.000002  -0.000004  -0.000046   0.000001  -0.000084
    26  C    0.035920  -0.000734  -0.000197   0.004395   0.003540   0.076880
    27  H    0.000000   0.000001   0.000007  -0.000006  -0.000077  -0.001190
    28  H    0.000017   0.000000   0.000000   0.000001  -0.000007  -0.000196
    29  H   -0.000621   0.000003  -0.000003  -0.000017  -0.000087  -0.004170
    30  C    0.023153  -0.000177   0.007271   0.007712  -0.023319  -0.018949
    31  F    0.138134  -0.001729   0.001445   0.003910   0.000276   0.134335
    32  F    0.000083  -0.000005  -0.000130  -0.000085   0.001753   0.004966
    33  F    0.006426  -0.000082   0.000185   0.000110  -0.001539  -0.001285
              13         14         15         16         17         18
     1  C   -0.276533   0.009571  -0.002140  -0.457453  -0.136852  -0.053068
     2  C    0.230000  -0.020236   0.004048   0.166297   0.179877   0.032187
     3  C   -0.266570  -0.032535   0.004418  -0.339839  -0.199775  -0.071554
     4  C    0.087999   0.077798  -0.013169   0.866926   0.018546   0.054779
     5  H    0.001257  -0.000048   0.000004   0.002990   0.000748   0.000158
     6  H    0.019354  -0.000197   0.000007   0.005525   0.002994   0.000403
     7  H   -0.048719   0.001877  -0.000152  -0.133642  -0.019886  -0.023376
     8  H    0.002608   0.000074  -0.000008   0.002552  -0.000417   0.000537
     9  H   -0.011973   0.001166  -0.000052  -0.001905  -0.002368  -0.000115
    10  H   -0.025653   0.001638   0.000079  -0.004520  -0.006996  -0.001565
    11  H   -0.002925  -0.000418   0.000055  -0.002269   0.003034  -0.000288
    12  N    0.006831  -0.024929   0.002480  -0.140200  -0.039543   0.002742
    13  C    1.184253  -0.054399  -0.013541  -0.093329  -0.564819  -0.366324
    14  O   -0.054399  -0.007256   0.017102  -0.007660   0.162741   0.015139
    15  H   -0.013541   0.017102  -0.009316   0.012804  -0.002980   0.002732
    16  O   -0.093329  -0.007660   0.012804   3.850868   1.196698   0.236561
    17  C   -0.564819   0.162741  -0.002980   1.196698   2.047783   0.181225
    18  C   -0.366324   0.015139   0.002732   0.236561   0.181225   0.933341
    19  H    0.004236  -0.000105   0.000012  -0.000790   0.005278  -0.020186
    20  H   -0.007243   0.000174  -0.000033   0.011282  -0.018200   0.026162
    21  H   -0.004543   0.000022   0.000026   0.016155  -0.001408   0.015505
    22  C   -0.706344   0.034343   0.024584   0.469956   0.511919   0.961000
    23  H    0.069244  -0.002550  -0.002440   0.004134   0.002391  -0.082384
    24  H    0.013961  -0.012944   0.009075  -0.006811  -0.004928  -0.007821
    25  H   -0.022852   0.002265  -0.000717   0.001140  -0.015601   0.022181
    26  C    0.945902  -0.069404  -0.033331  -0.707079  -1.489054  -1.209879
    27  H   -0.012133   0.001428   0.000888  -0.007421   0.011865   0.002708
    28  H    0.003392  -0.000638   0.000584  -0.005889  -0.021151  -0.011830
    29  H   -0.039727   0.002437   0.000501   0.072985   0.123954   0.048816
[...]
 .00010959,-0.00005856,0.00029113,-0.00026465,-0.00004443,-0.05905604,0
 .04907625,-0.02234762,-0.00349023,0.01230984,-0.00490353,0.06092375,0.
 00002715,-0.00003427,-0.00003414,-0.00000278,0.00001271,0.00003542,-0.
 00011740,-0.00000074,-0.00017252,-0.00002288,0.00014908,-0.00012065,-0
 .00001320,-0.00001639,0.00001995,0.00000453,0.00001168,-0.00000950,-0.
 00000093,-0.00001122,-0.00000168,0.00000070,-0.00000699,0.00002859,0.0
 0000782,0.00002807,0.00003837,0.00002202,-0.00000656,0.00002594,0.0001
 0649,0.00004128,0.00000069,0.00003451,-0.00032729,0.00038139,-0.001291
 81,0.00031306,-0.00251749,0.00057202,0.00018659,0.00031945,-0.00009398
 ,-0.00005230,-0.00003534,0.00390735,-0.00262667,-0.00052048,0.00093606
 ,-0.01399675,0.00950558,-0.00031750,0.00000326,0.00087152,-0.00014639,
 0.00047255,-0.00086834,-0.00006888,0.00035622,-0.00014816,0.00012497,-
 0.00005599,-0.00002804,-0.00077335,0.00012120,0.00067866,0.00008150,0.
 00077435,-0.00028721,-0.00000440,-0.00001896,-0.00007942,-0.00013679,0
 .00025327,-0.00023165,0.05038013,-0.24818482,0.09687164,-0.00131419,0.
 00619861,-0.00226176,-0.05562987,0.26995646,0.00001557,-0.00002467,0.0
 0000996,0.00000053,0.00000878,0.00000777,0.00003478,-0.00008627,0.0000
 4300,0.00008090,-0.00010128,0.00007866,0.00000056,0.00002134,-0.000002
 93,-0.00002343,-0.00000069,0.00003284,-0.00000134,0.00001039,-0.000002
 13,-0.00000139,-0.00000183,-0.00000995,0.00000829,-0.00000403,0.000013
 53,-0.00000478,0.00001485,-0.00000569,-0.00004128,0.00000200,-0.000085
 39,0.00008972,0.00011802,0.00014793,-0.00087097,0.00033960,-0.00129390
 ,0.00015973,0.00010540,0.00034628,-0.00018016,0.00005880,0.00002243,0.
 00335249,-0.00498918,-0.00022357,0.00251530,-0.01517989,0.00803720,-0.
 00031204,0.00001555,0.00031385,0.00010990,-0.00034522,-0.00064843,-0.0
 0003984,0.00021278,0.00023576,-0.00002441,-0.00007086,-0.00005980,-0.0
 0015322,0.00030887,0.00017683,0.00048308,-0.00012752,0.00009729,-0.000
 01818,0.00014925,-0.00004320,-0.00029790,-0.00008753,0.00004799,-0.023
 61769,0.09915785,-0.09352304,-0.00479210,0.02569351,-0.01093473,0.0243
 9742,-0.10780794,0.09973521,0.00008248,0.00003643,-0.00005875,-0.00004
 538,-0.00000529,0.00003859,0.00004054,-0.00002732,-0.00002684,-0.00071
 565,0.00007722,-0.00041245,0.00001391,-0.00002407,0.00000365,0.0000129
 6,0.00000572,-0.00006108,0.00002337,-0.00000790,-0.00000368,0.00002814
 ,0.00000140,0.00002042,-0.00001351,-0.00000534,0.00000892,0.00002896,-
 0.00001639,0.00001941,0.00036620,0.00025609,0.00006214,0.00017935,0.00
 058675,-0.00020167,-0.00079691,-0.00031915,0.00000990,0.00048997,0.000
 25650,-0.00016453,0.00006575,-0.00016176,0.00005111,0.00210374,-0.0003
 5799,-0.00080736,-0.01913942,-0.01228302,0.00306164,0.00050736,-0.0006
 2467,-0.00141544,0.00003496,0.00011365,-0.00003290,0.00022139,0.000226
 74,-0.00018259,0.00086864,0.00037834,0.00045728,-0.00152226,0.00387327
 ,0.00273783,0.00026585,-0.00013071,-0.00001256,0.00043255,0.00007995,-
 0.00005011,-0.00115181,-0.00072815,0.00052514,-0.23466996,-0.11210835,
 0.02880560,-0.01103592,-0.00646594,0.00232188,0.00734381,0.00371793,-0
 .00085688,0.25580056,-0.00002865,0.00004691,0.00000902,-0.00000476,-0.
 00001003,-0.00001775,0.00002622,0.00001966,0.00010917,0.00010608,-0.00
 037501,0.00018004,0.00000973,0.00000975,-0.00001516,-0.00000706,-0.000
 00276,-0.00002217,0.00000850,0.00000374,0.00000167,-0.00000205,0.00000
 658,-0.00001412,-0.00000672,-0.00002012,-0.00000895,-0.00000682,0.0000
 0098,-0.00002383,-0.00010010,-0.00036564,0.00022132,-0.00010940,0.0002
 0630,-0.00012599,0.00029090,-0.00012293,0.00038075,-0.00013006,-0.0000
 0077,-0.00008617,0.00002267,0.00002381,0.00000469,-0.00086266,0.002156
 46,-0.00027171,0.01561141,0.00737473,-0.00245692,0.00038753,0.00055315
 ,0.00060536,-0.00015563,-0.00002894,-0.00001694,0.00008770,0.00007003,
 0.00020777,-0.00012581,0.00014090,-0.00002580,0.00179452,-0.00137954,-
 0.00163973,0.00010242,0.00023620,-0.00030123,0.00000779,-0.00016171,0.
 00000533,0.00075610,0.00066802,-0.00034010,-0.11383331,-0.11399683,0.0
 1783089,-0.00316927,-0.00332278,0.00090717,-0.02440845,-0.01349518,0.0
 0256690,0.12373184,0.12173970,-0.00003890,0.00007982,0.00002822,-0.000
 01205,-0.00001596,-0.00000620,-0.00001406,-0.00000765,-0.00000905,-0.0
 0017773,0.00011491,-0.00010312,0.00000815,-0.00002269,0.00000169,0.000
 01711,-0.00001004,-0.00008233,0.00002061,-0.00000772,0.00000344,-0.000
 00086,0.00000136,0.00000331,-0.00000988,-0.00000712,0.00000054,0.00000
 747,-0.00000314,-0.00000015,0.00006871,0.00013891,0.00021185,0.0000512
 6,0.00015316,-0.00001220,0.00016555,-0.00018674,0.00016310,0.00004002,
 -0.00008564,-0.00006138,0.00006927,0.00003645,-0.00003548,-0.00166821,
 0.00055611,0.00057372,0.01663362,0.01181809,-0.00424508,0.00073120,0.0
 0120380,0.00086620,0.00006887,0.00001866,-0.00009464,-0.00033065,-0.00
 004067,0.00022510,-0.00023061,-0.00059184,-0.00039823,0.00192033,-0.00
 289761,-0.00219631,-0.00030154,-0.00021583,0.00009343,0.00021508,0.000
 02357,0.00016160,0.00136602,0.00044399,0.00016395,0.02753725,0.0159965
 8,-0.05175117,-0.02422722,-0.01508080,0.00551954,0.01206721,0.00630095
 ,-0.00246193,-0.03403227,-0.01765394,0.05338701,0.00025971,0.01199173,
 0.00426963,0.00011034,-0.00256493,0.00033582,-0.00261091,-0.00252020,-
 0.00224065,-0.05631006,-0.00152063,-0.00326119,-0.00081486,-0.00131254
 ,0.00310787,-0.00071585,-0.00090231,0.00336123,-0.00015396,0.00077997,
 -0.00144986,-0.00034282,0.00077762,0.00015982,-0.00016405,0.00029204,-
 0.00058909,-0.00043237,-0.00065968,-0.00021989,0.00051823,0.01785121,0
 .00829582,-0.02300546,-0.02560771,-0.01284595,-0.00228829,-0.00236017,
 -0.00364274,0.00052130,0.00038206,0.00036946,-0.00041247,-0.00061295,0
 .00020142,-0.00057503,0.00223952,-0.00036273,0.00076200,-0.00181229,0.
 00143975,0.00032612,0.00025932,-0.00022673,-0.00007529,0.00016731,-0.0
 0005366,-0.00018192,-0.00015751,0.00023469,0.00008744,-0.00014043,0.00
 000445,-0.00012029,0.00035172,-0.00023356,0.00005439,0.00018602,-0.000
 08921,-0.00003242,-0.00011713,0.00001967,-0.00007435,-0.00006195,0.000
 09779,0.00010136,0.00055157,-0.00023302,-0.00005574,-0.00016700,-0.000
 00562,-0.00008012,0.00017710,-0.00001732,0.00001462,-0.00011079,0.0001
 0830,0.46780131,0.00761798,0.00908314,-0.00738503,-0.00193157,0.002987
 52,0.00159049,0.00104485,0.00130444,-0.00236747,-0.00423583,-0.1438391
 9,-0.04046295,-0.00212430,-0.00003058,0.00116919,-0.00125340,-0.000256
 48,0.00422874,0.00134363,-0.00141074,0.00210516,0.00144066,-0.00162545
 ,0.00055437,0.00030216,-0.00020552,0.00095996,0.00100142,0.00038357,0.
 00095071,0.00268259,-0.02490860,-0.01237081,-0.01362218,-0.00394383,-0
 .00014935,-0.00249510,-0.00382024,0.00148044,0.00315145,0.00144282,-0.
 00032176,0.00003275,-0.00018795,-0.00035119,0.00166900,0.00244275,-0.0
 0165369,0.00060587,-0.00248372,0.00174352,-0.00035942,0.00016074,-0.00
 006064,0.00002971,0.00022511,-0.00015944,0.00007675,-0.00007966,0.0000
 4492,0.00027909,-0.00012826,0.00024490,-0.00015698,0.00048591,-0.00017
 591,0.00007060,0.00024510,-0.00013680,-0.00001555,-0.00013494,0.000052
 09,0.00003664,-0.00010328,0.00000986,-0.00043626,0.00028155,-0.0002030
 9,0.00005346,-0.00018866,-0.00000932,0.00000197,0.00028810,-0.00007931
 ,0.00034094,-0.00013116,0.00002725,0.00162459,0.53767183,0.00371109,-0
 .02443299,-0.02339064,-0.00088024,-0.00128613,0.00037006,0.00026345,-0
 .00154293,-0.00054586,-0.00671209,-0.04692149,-0.09990855,0.00120426,-
 0.00060385,-0.00020406,0.00068119,0.00194580,-0.00282257,-0.00109247,0
 .00086000,-0.00175930,0.00043762,0.00096031,0.00051952,-0.00013138,0.0
 0018259,-0.00031977,0.00023870,-0.00004094,-0.00000696,0.00031943,0.01
 623438,0.00872391,-0.00475733,0.00676509,-0.00468115,0.00169801,-0.003
 41110,0.01198668,0.00090075,0.00182265,-0.00249596,0.00063480,-0.00017
 971,0.00043507,-0.00060673,-0.00276344,-0.00680472,-0.00039882,0.00030
 936,0.00072583,0.00050932,0.00032831,0.00005265,-0.00020370,-0.0004783
 2,-0.00012261,0.00042803,0.00023904,-0.00046018,-0.00077658,0.00049450
 ,0.00008951,-0.00000701,-0.00017500,-0.00016964,-0.00006753,0.00000823
 ,0.00000068,-0.00016758,-0.00022058,-0.00007771,0.00019397,0.00001996,
 -0.00001511,-0.00046843,-0.00002261,-0.00006789,-0.00012867,-0.0003215
 4,-0.00021380,0.00020281,0.00012301,-0.00016772,0.00037380,0.00002234,
 0.00030820,-0.00822318,0.04156912,0.52338796,-0.00006049,-0.00027367,-
 0.00092219,-0.00037007,0.00116038,-0.00083577,0.00024436,0.00081490,0.
 00015251,-0.00066798,0.00590278,-0.00482939,0.00032740,0.00023379,-0.0
 0038482,0.00020666,-0.00002948,0.00001521,0.00031335,-0.00105384,0.000
 50080,0.00028915,-0.00061284,-0.00002168,0.00001323,-0.00011974,0.0001
 9517,0.00028758,0.00029791,0.00024827,0.00075993,0.00041997,0.00070086
 ,0.00315041,-0.00105784,0.00053251,-0.00000062,-0.00035878,-0.00061278
 ,0.00020231,0.00002153,0.00018439,-0.00000313,0.00015718,-0.00014575,0
 .00047690,0.00014321,0.00078152,-0.00008926,0.00014776,-0.00013576,-0.
 00011454,-0.00007417,0.00003220,0.00002887,0.00002590,0.00001024,0.000
 00719,-0.00000408,-0.00001076,0.00006986,-0.00000729,0.00001607,0.0000
 1608,-0.00001803,0.00001874,0.00000206,-0.00001274,0.00000870,0.000015
 00,0.00003513,0.00000759,0.00001492,-0.00000161,-0.00002349,-0.0001197
 8,-0.00007743,0.00000508,0.00000756,0.00002505,0.00002000,0.00003702,0
 .00000869,-0.00001362,0.00008647,0.00000284,-0.00000478,-0.09406813,0.
 05639393,-0.01695764,0.13155142,-0.00105168,0.00040651,0.00208280,0.00
 040045,-0.00133704,-0.00133905,0.00008440,-0.00072500,0.00137845,0.027
 96422,-0.03502414,0.02395908,0.00060578,0.00001279,-0.00062513,-0.0000
 6995,0.00059847,-0.00044494,-0.00078064,-0.00020176,-0.00136252,-0.000
 38941,0.00048631,-0.00015406,-0.00003007,0.00012085,-0.00044111,-0.000
 46135,-0.00014718,-0.00039518,-0.00169280,-0.00684262,-0.00623850,-0.0
 0107797,0.00135966,-0.00023513,0.00145609,0.00100693,-0.00033863,-0.00
 130545,-0.00037740,-0.00007186,-0.00000726,0.00002273,0.00021441,-0.00
 099474,-0.00086161,-0.00007386,-0.00005678,0.00079235,-0.00058466,0.00
 019011,-0.00000106,0.00002750,-0.00002923,-0.00012605,0.00004039,-0.00
 001191,0.00005580,-0.00002626,-0.00017509,0.00005718,-0.00009200,0.000
 01947,-0.00012146,0.00005252,-0.00001337,-0.00008208,0.00004296,-0.000
 00148,0.00002469,-0.00003051,-0.00003041,0.00004283,0.00001685,0.00037
 068,-0.00006632,0.00008999,-0.00000716,0.00008048,-0.00000785,-0.00007
 766,-0.00015337,0.00007563,-0.00030312,0.00006032,-0.00004961,0.049532
 11,-0.19884559,0.03131432,-0.09821713,0.24263826,0.00001544,0.00099988
 ,0.00048648,-0.00052779,0.00118157,-0.00226937,0.00012576,0.00062611,-
 0.00059280,0.00236004,-0.00638409,0.00754239,-0.00056038,-0.00011549,-
 0.00000009,-0.00018077,-0.00046599,0.00048704,0.00076511,-0.00230945,-
 0.00070517,0.00015946,-0.00117531,-0.00011535,-0.00002501,-0.00011685,
 0.00033579,0.00010631,0.00013785,0.00016320,-0.00010806,-0.00248299,-0
 .00051467,0.00001815,-0.00124576,0.00123272,-0.00012622,0.00049418,-0.
 00183597,0.00018434,-0.00023199,0.00043457,-0.00011071,0.00008506,-0.0
 0013065,0.00024444,0.00053876,0.00135753,0.00005546,-0.00011952,-0.000
 10658,-0.00012416,-0.00006972,-0.00001038,0.00004377,0.00010969,0.0000
 2417,-0.00008514,-0.00005539,0.00009466,0.00017562,-0.00009577,-0.0000
 1638,0.00000430,0.00003641,0.00003197,0.00001150,0.00000353,-0.0000037
 0,0.00003464,0.00004310,0.00001963,-0.00003339,-0.00000942,-0.00000104
 ,0.00002849,0.00000159,0.00000841,0.00002888,0.00005521,0.00004275,-0.
 00002451,-0.00000518,0.00002047,-0.00002641,-0.00000731,-0.00005608,-0
 .01826283,0.04058420,-0.08620971,0.05272533,-0.09527482,0.13171757,0.0
 0075553,0.00047048,-0.00030798,-0.00019066,0.00026624,0.00015683,0.000
 55283,-0.00042314,0.00072086,0.00103965,-0.00256967,0.00681303,0.00018
 754,0.00015010,-0.00053310,0.00005075,0.00010741,0.00024019,0.00000827
 ,-0.00002571,0.00001390,0.00017176,-0.00001584,0.00004978,-0.00002503,
 -0.00002494,-0.00017274,0.00005396,0.00010641,0.00003928,0.00044323,-0
 .00124628,-0.00049285,0.00291802,0.00082704,-0.00253474,0.00042546,0.0
 0024572,0.00173486,-0.00023100,0.00019542,-0.00019119,0.00019494,0.000
 07716,0.00000428,0.00032216,-0.00174413,-0.00058547,-0.00033593,0.0005
 4920,-0.00050279,-0.00012604,-0.00002515,0.00007295,0.00002934,-0.0000
 7756,0.00000342,0.00009215,0.00007512,-0.00012050,-0.00002976,0.000045
 47,0.00002390,0.00004856,-0.00013809,0.00007892,-0.00003209,-0.0000615
 8,0.00002660,-0.00000255,0.00001568,-0.00001738,0.00004198,0.00002366,
 -0.00003089,-0.00009354,-0.00019416,0.00008261,-0.00000674,0.00001644,
 -0.00001501,0.00006277,-0.00003999,-0.00002239,0.00006217,0.00003036,0
 .00000245,-0.09231998,0.00465706,0.06048825,0.01580240,-0.00004205,-0.
 01042578,0.12240318,-0.00129065,-0.00549937,-0.00023334,0.00051805,-0.
 00057737,-0.00038736,0.00024014,-0.00013065,0.00031108,0.00982332,0.00
 795449,-0.02761373,0.00026308,0.00018394,0.00016260,0.00026756,0.00031
 779,-0.00171076,-0.00027778,0.00028617,-0.00031678,-0.00034462,0.00032
 096,-0.00014126,-0.00001716,0.00002214,-0.00012723,-0.00018118,-0.0000
 5638,-0.00008241,-0.00017615,0.00196750,0.00073211,0.00029078,0.000711
 35,-0.00002147,0.00099582,0.00042461,0.00086306,-0.00072147,-0.0001663
 7,-0.00018176,0.00002215,0.00003053,0.00008947,-0.00106729,-0.00308298
 ,-0.00031899,-0.00048221,0.00070446,-0.00079108,0.00016959,-0.00002502
 ,0.00000210,-0.00002754,-0.00006685,0.00004858,-0.00001960,0.00002294,
 -0.00000964,-0.00011658,0.00004127,-0.00006219,0.00010407,-0.00022776,
 0.00008668,-0.00005617,-0.00008769,0.00004708,0.00000691,0.00002936,-0
 .00001571,-0.00000861,0.00003149,0.00000548,0.00005878,-0.00015011,0.0
 0011879,-0.00001003,0.00004938,0.00000026,0.00003080,-0.00008479,0.000
 00479,-0.00006113,0.00004682,-0.00001507,0.00005957,-0.07766081,-0.006
 23341,-0.00410926,-0.01178625,0.05395841,0.01146556,0.07749809,-0.0004
 3226,-0.00821608,0.00067454,0.00055662,0.00002289,-0.00032496,-0.00021
 879,0.00061417,-0.00057153,0.01944003,0.00622899,-0.03655272,-0.000430
 96,0.00024568,0.00097375,0.00025483,0.00023551,-0.00291554,0.00007666,
 -0.00016719,0.00043702,-0.00043645,-0.00015435,-0.00022529,0.00002573,
 -0.00003594,0.00019173,-0.00016757,-0.00001706,0.00006363,-0.00002661,
 -0.00042839,0.00025697,-0.00108296,-0.00175184,0.00435919,-0.00022008,
 0.00202936,-0.00585997,-0.00022661,-0.00093344,0.00112861,-0.00033695,
 0.00016157,-0.00024251,0.00026254,0.00132283,0.00399028,0.00016988,-0.
 00032283,-0.00034854,-0.00023900,-0.00015884,-0.00008610,0.00010700,0.
 00030494,0.00007987,-0.00029342,-0.00017403,0.00031061,0.00048556,-0.0
 0029511,-0.00006509,0.00001779,0.00008045,0.00007860,0.00002771,0.0000
 0857,-0.00000514,0.00009008,0.00011170,0.00004621,-0.00011333,-0.00001
 644,0.00001673,0.00017928,0.00005803,0.00002132,0.00006060,0.00015132,
 0.00011919,-0.00007732,-0.00002744,0.00006266,-0.00012947,-0.00003507,
 -0.00013595,0.05419583,-0.01740694,-0.23699860,-0.00302703,0.04191294,
 -0.05356252,-0.10700055,-0.03225389,0.32998243,-0.00107484,-0.00147396
 ,0.00153778,0.00005006,0.00098665,-0.00043851,0.00042634,-0.00120912,0
 .00151689,-0.02447451,-0.00266342,-0.00145288,0.00064673,0.00084835,-0
 .00142622,0.00045160,0.00015794,-0.00057283,0.00012238,-0.00026071,0.0
 0048995,0.00005479,-0.00021640,-0.00018127,-0.00022229,-0.00015615,-0.
 00059384,0.00010100,0.00017807,-0.00007437,0.00049753,-0.00110758,0.00
 073443,-0.00182962,-0.00647513,-0.00219858,0.00097391,0.00129728,-0.00
 340541,-0.00102334,-0.00050668,0.00044224,0.00006448,0.00034843,-0.000
 01426,0.00041804,-0.00120302,0.00186264,-0.00045223,0.00150664,-0.0011
 1353,-0.00016193,-0.00023153,0.00014424,0.00005721,-0.00010395,0.00007
 067,0.00006945,0.00008658,-0.00012777,-0.00003246,0.00008953,-0.000033
 34,0.00009535,-0.00026223,0.00013983,-0.00002754,-0.00014572,0.0000803
 0,0.00003632,0.00012315,-0.00001824,0.00003553,0.00005707,-0.00006570,
 -0.00009235,-0.00044324,0.00013460,0.00002542,0.00016463,0.00003792,0.
 00008047,-0.00013463,0.00004066,0.00001707,0.00008492,-0.00004972,-0.1
 9572244,-0.05782653,-0.03070609,-0.05841613,0.02620340,-0.02646585,-0.
 05227335,-0.01534878,0.03850920,0.33157935,-0.00117250,-0.00017150,0.0
 0037774,0.00015501,-0.00047619,-0.00001723,-0.00055295,-0.00133929,0.0
 0111297,-0.03229502,-0.00162097,-0.00353140,0.00016789,-0.00028906,-0.
 00080089,0.00027021,0.00012986,-0.00025485,-0.00009586,0.00019101,-0.0
 0017202,-0.00013262,0.00016283,-0.00014216,-0.00023343,-0.00001783,-0.
 00063691,-0.00020203,-0.00006118,-0.00028302,-0.00102510,0.00235703,0.
 00077725,-0.00309161,-0.00597189,-0.00383867,0.00070957,0.00132347,-0.
 00326304,-0.00097587,-0.00054628,0.00041008,-0.00003295,0.00016981,0.0
 0005262,-0.00000156,-0.00049128,0.00150086,-0.00016066,0.00086033,-0.0
 0063785,0.00003815,-0.00010067,0.00004491,0.00001704,-0.00005306,0.000
 05595,-0.00003012,0.00002452,-0.00001744,-0.00002323,0.00002577,-0.000
 06244,0.00004867,-0.00014507,0.00005873,-0.00000732,-0.00008425,0.0000
 4938,0.00002003,0.00007577,-0.00001233,-0.00000788,0.00003774,-0.00001
 901,0.00007186,-0.00017425,0.00006040,-0.00000573,0.00009678,0.0000295
 3,0.00001887,-0.00009420,0.00004190,-0.00005248,0.00004933,-0.00002153
 ,-0.04659523,-0.09701791,-0.01456500,0.04023699,0.00893278,0.01130951,
 -0.01269625,0.00895912,0.00890591,0.05763612,0.08525877,-0.00049820,0.
 00137526,-0.00036431,0.00006371,-0.00052898,0.00005037,-0.00025138,-0.
 00029377,0.00027807,-0.01863820,-0.00403074,0.00435298,-0.00112737,-0.
 00116393,-0.00024316,-0.00023064,-0.00032350,0.00008954,0.00010276,-0.
 00001963,0.00014211,-0.00015182,-0.00006128,-0.00010748,-0.00005387,-0
 .00006578,-0.00020813,-0.00009214,-0.00004104,0.00000207,0.00037990,-0
 .00066981,-0.00002269,-0.00230141,-0.00526699,0.00002737,-0.00000119,0
 .00105495,-0.00345005,-0.00045080,-0.00049063,0.00055458,-0.00009609,0
 .00012160,-0.00006922,0.00024262,0.00013435,0.00172244,-0.00007954,0.0
 0034366,-0.00040986,-0.00012449,-0.00012464,0.00002641,0.00004945,0.00
 005580,0.00004131,-0.00005724,-0.00001763,0.00004793,0.00012072,-0.000
 06425,-0.00002426,0.00003124,-0.00005086,0.00006421,0.00000078,-0.0000
 4018,0.00002242,0.00003929,0.00007223,0.00000815,-0.00002503,0.0000124
 1,-0.00001321,0.00001298,-0.00010869,0.00004397,0.00002980,0.00009558,
 0.00005096,0.00000418,-0.00004424,0.00003274,-0.00002229,0.00001047,-0
 .00006159,-0.02424433,-0.01402122,-0.07915753,-0.02822970,0.00657784,0
 .00213110,0.05240125,0.01408561,-0.00489887,0.02319707,0.00348804,0.07
 934161\\-0.00000208,-0.00000309,0.00001133,0.00000250,0.00000339,-0.00
 001185,-0.00000574,-0.00002802,-0.00001394,0.00000256,0.00001403,-0.00
 002079,-0.00000021,-0.00000415,-0.00000527,-0.00000172,-0.00000470,0.0
 0000146,-0.00000201,-0.00000856,-0.00000731,0.00000383,-0.00000582,0.0
 0000126,-0.00000026,0.00000319,0.00000426,0.00000232,-0.00000434,-0.00
 000444,-0.00000234,0.00000250,-0.00000005,-0.00001827,-0.00000324,0.00
 001752,0.00002502,0.00000064,-0.00001234,-0.00000639,0.00000666,0.0000
 0162,0.00000231,-0.00000293,-0.00001386,0.00000272,-0.00003138,0.00002
 564,-0.00000229,0.00003979,-0.00001274,0.00000219,0.00000779,0.0000123
 7,-0.00000108,0.00000878,0.00000326,-0.00000210,0.00000394,-0.00000094
 ,-0.00000391,0.00000335,0.00000215,-0.00000758,-0.00001298,0.00000544,
 0.00000124,0.00000909,0.00000448,0.00000387,-0.00000231,0.00001157,0.0
 0000111,0.00000281,0.00000153,0.00000394,-0.00000612,0.00000170,0.0000
 0218,0.00000272,0.00000543,0.00000216,0.00000698,0.00000573,0.00000312
 ,0.00000162,0.00000166,0.00000818,-0.00000920,0.00001879,-0.00000560,0
 .00000863,-0.00000960,-0.00000584,0.00000317,-0.00001873,-0.00000186,-
 0.00000223,-0.00000534\\\@


 ACHIEVEMENT--  THE MAN WHO ROWS THE BOAT GENERALLY 
                DOESN'T HAVE TIME TO ROCK IT.

                   -- FROM THE BACK OF A SUGAR PACKET
 Job cpu time:       0 days 16 hours  1 minutes 18.6 seconds.
 File lengths (MBytes):  RWF=   1182 Int=      0 D2E=      0 Chk=     22 Scr=      1
 Normal termination of Gaussian 09 at Sat Nov  6 15:38:47 2021.
