 Entering Gaussian System, Link 0=g09
 Initial command:
 /cm/shared/apps/gaussian/g09revD.01/g09/l1.exe "//home/sweav003/CHB/CHActivation_Mkhalid/OtherCharges/G09-Table5_8.com.o9447129.tmp/Gau-62622.inp" -scrdir="//home/sweav003/CHB/CHActivation_Mkhalid/OtherCharges/G09-Table5_8.com.o9447129.tmp/"
 Entering Link 1 = /cm/shared/apps/gaussian/g09revD.01/g09/l1.exe PID=     62623.
  
 Copyright (c) 1988,1990,1992,1993,1995,1998,2003,2009,2013,
            Gaussian, Inc.  All Rights Reserved.
  
 This is part of the Gaussian(R) 09 program.  It is based on
 the Gaussian(R) 03 system (copyright 2003, Gaussian, Inc.),
 the Gaussian(R) 98 system (copyright 1998, Gaussian, Inc.),
 the Gaussian(R) 94 system (copyright 1995, Gaussian, Inc.),
 the Gaussian 92(TM) system (copyright 1992, Gaussian, Inc.),
 the Gaussian 90(TM) system (copyright 1990, Gaussian, Inc.),
 the Gaussian 88(TM) system (copyright 1988, Gaussian, Inc.),
 the Gaussian 86(TM) system (copyright 1986, Carnegie Mellon
 University), and the Gaussian 82(TM) system (copyright 1983,
 Carnegie Mellon University). Gaussian is a federally registered
 trademark of Gaussian, Inc.
  
 This software contains proprietary and confidential information,
 including trade secrets, belonging to Gaussian, Inc.
  
 This software is provided under written license and may be
 used, copied, transmitted, or stored only in accord with that
 written license.
  
 The following legend is applicable only to US Government
 contracts under FAR:
  
                    RESTRICTED RIGHTS LEGEND
  
 Use, reproduction and disclosure by the US Government is
 subject to restrictions as set forth in subparagraphs (a)
 and (c) of the Commercial Computer Software - Restricted
 Rights clause in FAR 52.227-19.
  
 Gaussian, Inc.
 340 Quinnipiac St., Bldg. 40, Wallingford CT 06492
  
  
 ---------------------------------------------------------------
 Warning -- This program may not be used in any manner that
 competes with the business of Gaussian, Inc. or will provide
 assistance to any competitor of Gaussian, Inc.  The licensee
 of this program is prohibited from giving any competitor of
 Gaussian, Inc. access to this program.  By using this program,
 the user acknowledges that Gaussian, Inc. is engaged in the
 business of creating and licensing software in the field of
 computational chemistry and represents and warrants to the
 licensee that it is not a competitor of Gaussian, Inc. and that
 it will not use this program in any manner prohibited above.
 ---------------------------------------------------------------
  

 Cite this work as:
 Gaussian 09, Revision D.01,
 M. J. Frisch, G. W. Trucks, H. B. Schlegel, G. E. Scuseria, 
 M. A. Robb, J. R. Cheeseman, G. Scalmani, V. Barone, B. Mennucci, 
 G. A. Petersson, H. Nakatsuji, M. Caricato, X. Li, H. P. Hratchian, 
 A. F. Izmaylov, J. Bloino, G. Zheng, J. L. Sonnenberg, M. Hada, 
 M. Ehara, K. Toyota, R. Fukuda, J. Hasegawa, M. Ishida, T. Nakajima, 
 Y. Honda, O. Kitao, H. Nakai, T. Vreven, J. A. Montgomery, Jr., 
 J. E. Peralta, F. Ogliaro, M. Bearpark, J. J. Heyd, E. Brothers, 
 K. N. Kudin, V. N. Staroverov, T. Keith, R. Kobayashi, J. Normand, 
 K. Raghavachari, A. Rendell, J. C. Burant, S. S. Iyengar, J. Tomasi, 
 M. Cossi, N. Rega, J. M. Millam, M. Klene, J. E. Knox, J. B. Cross, 
 V. Bakken, C. Adamo, J. Jaramillo, R. Gomperts, R. E. Stratmann, 
 O. Yazyev, A. J. Austin, R. Cammi, C. Pomelli, J. W. Ochterski, 
 R. L. Martin, K. Morokuma, V. G. Zakrzewski, G. A. Voth, 
 P. Salvador, J. J. Dannenberg, S. Dapprich, A. D. Daniels, 
 O. Farkas, J. B. Foresman, J. V. Ortiz, J. Cioslowski, 
 and D. J. Fox, Gaussian, Inc., Wallingford CT, 2013.
 
 ******************************************
 Gaussian 09:  ES64L-G09RevD.01 24-Apr-2013
                23-Jul-2021 
 ******************************************
 %mem=100MW
 %nprocshared=20
 Will use up to   20 processors via shared memory.
 ---------------------------------------------------------------------
 # b3lyp/6-311+g(d,p) geom=connectivity pop=(hirshfeld,chelpg,mbs,npa)
 ---------------------------------------------------------------------
 1/38=1,57=2/1;
 2/12=2,17=6,18=5,40=1/2;
 3/5=4,6=6,7=111,11=2,16=1,25=1,30=1,74=-5/1,2,3;
 4//1;
 5/5=2,38=5/2;
 6/7=2,8=2,9=2,10=2,15=8,20=3,27=100,28=1,40=-1,79=1/1,2,7;
 99/5=1,9=1/99;
 --------
 Table5_8
 --------
 Symbolic Z-matrix:
 Charge =  0 Multiplicity = 2
 6                    -2.41537  -0.66443   0. 
 6                     0.0263   -0.67639   0. 
 6                     0.02246   0.74988   0. 
 6                    -1.23298   1.43836   0. 
 6                    -2.43078   0.70735   0. 
 1                     1.20404  -2.47361   0. 
 1                    -3.30204  -1.28107   0. 
 1                    -1.19821  -2.3418   0. 
 6                     1.22507  -1.38799   0. 
 6                     1.27201   1.40112   0. 
 1                    -1.24458   2.52085   0. 
 1                    -3.38712   1.21549   0. 
 6                     2.46556   0.68597   0. 
 6                     2.44557  -0.70859   0. 
 1                     1.28821   2.48581   0. 
 1                     3.41164   1.21502   0. 
 1                     3.3722   -1.27031   0. 
 7                    -1.20159  -1.33458   0. 
 
                          Input orientation:                          
 ---------------------------------------------------------------------
 Center     Atomic      Atomic             Coordinates (Angstroms)
 Number     Number       Type             X           Y           Z
 ---------------------------------------------------------------------
      1          6           0       -2.415366   -0.664433    0.000000
      2          6           0        0.026297   -0.676386    0.000000
      3          6           0        0.022459    0.749884    0.000000
      4          6           0       -1.232984    1.438362    0.000000
      5          6           0       -2.430782    0.707345    0.000000
      6          1           0        1.204044   -2.473613    0.000000
      7          1           0       -3.302040   -1.281070    0.000000
      8          1           0       -1.198206   -2.341802   -0.000001
      9          6           0        1.225068   -1.387993    0.000000
     10          6           0        1.272009    1.401121    0.000000
     11          1           0       -1.244582    2.520850    0.000000
     12          1           0       -3.387121    1.215485    0.000001
     13          6           0        2.465564    0.685967    0.000000
     14          6           0        2.445569   -0.708588    0.000000
     15          1           0        1.288212    2.485807    0.000000
     16          1           0        3.411638    1.215021    0.000000
     17          1           0        3.372202   -1.270313    0.000000
     18          7           0       -1.201592   -1.334577    0.000000
 ---------------------------------------------------------------------
                    Distance matrix (angstroms):
                    1          2          3          4          5
     1  C    0.000000
     2  C    2.441692   0.000000
     3  C    2.818383   1.426275   0.000000
     4  C    2.412421   2.461290   1.431831   0.000000
     5  C    1.371865   2.819920   2.453610   1.403248   0.000000
     6  H    4.046389   2.148747   3.433231   4.608975   4.830161
     7  H    1.080015   3.382820   3.895776   3.417061   2.170918
     8  H    2.072449   2.067128   3.323935   3.780324   3.288851
     9  C    3.711644   1.394072   2.452914   3.745705   4.213749
    10  C    4.226494   2.422361   1.409072   2.505270   3.767225
    11  H    3.393636   3.440560   2.177548   1.082550   2.166996
    12  H    2.116223   3.902640   3.441224   2.165636   1.082955
    13  C    5.064292   2.793927   2.443941   3.774302   4.896393
    14  C    4.861136   2.419486   2.828180   4.259242   5.077762
    15  H    4.862150   3.404687   2.148385   2.730123   4.122359
    16  H    6.122608   3.877880   3.420948   4.649989   5.864436
    17  H    5.819195   3.398210   3.911774   5.342720   6.130722
    18  N    1.386485   1.393171   2.417287   2.773117   2.383349
                    6          7          8          9         10
     6  H    0.000000
     7  H    4.661218   0.000000
     8  H    2.405864   2.356113   0.000000
     9  C    1.085824   4.528370   2.604229   0.000000
    10  C    3.875330   5.302459   4.484577   2.789509   0.000000
    11  H    5.562412   4.322931   4.862873   4.623659   2.754455
    12  H    5.889672   2.498004   4.176798   5.296261   4.662827
    13  C    3.402114   6.093808   4.752957   2.416638   1.391409
    14  C    2.157938   5.776049   3.993054   1.396859   2.414149
    15  H    4.960134   5.937994   5.430293   3.874315   1.084807
    16  H    4.298778   7.162677   5.822512   3.399525   2.147707
    17  H    2.479685   6.674251   4.694328   2.150356   3.398142
    18  N    2.661670   2.101129   1.007231   2.427248   3.688190
                   11         12         13         14         15
    11  H    0.000000
    12  H    2.508874   0.000000
    13  C    4.139079   5.876590   0.000000
    14  C    4.903721   6.141851   1.394698   0.000000
    15  H    2.533036   4.844838   2.150717   3.397592   0.000000
    16  H    4.835863   6.798759   1.083953   2.152571   2.474638
    17  H    5.973911   7.201919   2.156160   1.083598   4.295515
    18  N    3.855667   3.358475   4.186960   3.700493   4.560094
                   16         17         18
    16  H    0.000000
    17  H    2.485647   0.000000
    18  N    5.270896   4.574245   0.000000
 Stoichiometry    C9H8N(2)
 Framework group  C1[X(C9H8N)]
 Deg. of freedom    48
 Full point group                 C1      NOp   1
 Largest Abelian subgroup         C1      NOp   1
 Largest concise Abelian subgroup C1      NOp   1
                         Standard orientation:                         
 ---------------------------------------------------------------------
 Center     Atomic      Atomic             Coordinates (Angstroms)
 Number     Number       Type             X           Y           Z
 ---------------------------------------------------------------------
      1          6           0        2.415366   -0.664433    0.000000
      2          6           0       -0.026297   -0.676386    0.000000
      3          6           0       -0.022459    0.749884    0.000000
      4          6           0        1.232984    1.438362    0.000000
      5          6           0        2.430782    0.707345    0.000000
      6          1           0       -1.204043   -2.473613    0.000000
      7          1           0        3.302040   -1.281069    0.000000
      8          1           0        1.198207   -2.341802    0.000001
      9          6           0       -1.225068   -1.387993    0.000000
     10          6           0       -1.272009    1.401121    0.000000
     11          1           0        1.244582    2.520850    0.000000
     12          1           0        3.387121    1.215486   -0.000001
     13          6           0       -2.465564    0.685967    0.000000
     14          6           0       -2.445569   -0.708588    0.000000
     15          1           0       -1.288212    2.485807    0.000000
     16          1           0       -3.411638    1.215020    0.000000
     17          1           0       -3.372202   -1.270314    0.000000
     18          7           0        1.201592   -1.334577    0.000000
 ---------------------------------------------------------------------
 Rotational constants (GHZ):      3.1150597      1.2224505      0.8779244
 Standard basis: 6-311+G(d,p) (5D, 7F)
 There are   278 symmetry adapted cartesian basis functions of A   symmetry.
 There are   268 symmetry adapted basis functions of A   symmetry.
   268 basis functions,   424 primitive gaussians,   278 cartesian basis functions
    35 alpha electrons       34 beta electrons
       nuclear repulsion energy       473.1614845203 Hartrees.
 NAtoms=   18 NActive=   18 NUniq=   18 SFac= 1.00D+00 NAtFMM=   60 NAOKFM=F Big=F
 Integral buffers will be    131072 words long.
 Raffenetti 2 integral format.
 Two-electron integral symmetry is turned on.
 One-electron integrals computed using PRISM.
 NBasis=   268 RedAO= T EigKep=  2.98D-06  NBF=   268
 NBsUse=   267 1.00D-06 EigRej=  7.87D-07 NBFU=   267
 ExpMin= 4.38D-02 ExpMax= 6.29D+03 ExpMxC= 9.49D+02 IAcc=2 IRadAn=         4 AccDes= 0.00D+00
 Harris functional with IExCor=  402 and IRadAn=       4 diagonalized for initial guess.
 HarFok:  IExCor=  402 AccDes= 0.00D+00 IRadAn=         4 IDoV= 1 UseB2=F ITyADJ=14
 ICtDFT=  3500011 ScaDFX=  1.000000  1.000000  1.000000  1.000000
 FoFCou: FMM=F IPFlag=           0 FMFlag=      100000 FMFlg1=           0
         NFxFlg=           0 DoJE=T BraDBF=F KetDBF=T FulRan=T
         wScrn=  0.000000 ICntrl=     500 IOpCl=  0 I1Cent=   200000004 NGrid=           0
         NMat0=    1 NMatS0=      1 NMatT0=    0 NMatD0=    1 NMtDS0=    0 NMtDT0=    0
 Petite list used in FoFCou.
 Initial guess <Sx>= 0.0000 <Sy>= 0.0000 <Sz>= 0.5000 <S**2>= 0.7500 S= 0.5000
 Requested convergence on RMS density matrix=1.00D-08 within 128 cycles.
 Requested convergence on MAX density matrix=1.00D-06.
 Requested convergence on             energy=1.00D-06.
 No special actions if energy rises.
 SCF Done:  E(UB3LYP) =  -402.605638582     A.U. after   19 cycles
            NFock= 19  Conv=0.95D-08     -V/T= 2.0045
 <Sx>= 0.0000 <Sy>= 0.0000 <Sz>= 0.5000 <S**2>= 0.7677 S= 0.5088
 <L.S>= 0.000000000000E+00
 Annihilation of the first spin contaminant:
 S**2 before annihilation     0.7677,   after     0.7502

 **********************************************************************

            Population analysis using the SCF density.

 **********************************************************************

 Orbital symmetries:
 Alpha Orbitals:
       Occupied  (A) (A) (A) (A) (A) (A) (A) (A) (A) (A) (A) (A)
                 (A) (A) (A) (A) (A) (A) (A) (A) (A) (A) (A) (A)
                 (A) (A) (A) (A) (A) (A) (A) (A) (A) (A) (A)
       Virtual   (A) (A) (A) (A) (A) (A) (A) (A) (A) (A) (A) (A)
                 (A) (A) (A) (A) (A) (A) (A) (A) (A) (A) (A) (A)
                 (A) (A) (A) (A) (A) (A) (A) (A) (A) (A) (A) (A)
                 (A) (A) (A) (A) (A) (A) (A) (A) (A) (A) (A) (A)
                 (A) (A) (A) (A) (A) (A) (A) (A) (A) (A) (A) (A)
                 (A) (A) (A) (A) (A) (A) (A) (A) (A) (A) (A) (A)
                 (A) (A) (A) (A) (A) (A) (A) (A) (A) (A) (A) (A)
                 (A) (A) (A) (A) (A) (A) (A) (A) (A) (A) (A) (A)
                 (A) (A) (A) (A) (A) (A) (A) (A) (A) (A) (A) (A)
                 (A) (A) (A) (A) (A) (A) (A) (A) (A) (A) (A) (A)
                 (A) (A) (A) (A) (A) (A) (A) (A) (A) (A) (A) (A)
                 (A) (A) (A) (A) (A) (A) (A) (A) (A) (A) (A) (A)
                 (A) (A) (A) (A) (A) (A) (A) (A) (A) (A) (A) (A)
                 (A) (A) (A) (A) (A) (A) (A) (A) (A) (A) (A) (A)
                 (A) (A) (A) (A) (A) (A) (A) (A) (A) (A) (A) (A)
                 (A) (A) (A) (A) (A) (A) (A) (A) (A) (A) (A) (A)
                 (A) (A) (A) (A) (A) (A) (A) (A) (A) (A) (A) (A)
                 (A) (A) (A) (A) (A) (A) (A) (A) (A) (A) (A) (A)
                 (A) (A) (A) (A) (A) (A) (A) (A) (A) (A) (A) (A)
                 (A) (A) (A) (A)
 Beta  Orbitals:
       Occupied  (A) (A) (A) (A) (A) (A) (A) (A) (A) (A) (A) (A)
                 (A) (A) (A) (A) (A) (A) (A) (A) (A) (A) (A) (A)
                 (A) (A) (A) (A) (A) (A) (A) (A) (A) (A)
       Virtual   (A) (A) (A) (A) (A) (A) (A) (A) (A) (A) (A) (A)
                 (A) (A) (A) (A) (A) (A) (A) (A) (A) (A) (A) (A)
                 (A) (A) (A) (A) (A) (A) (A) (A) (A) (A) (A) (A)
                 (A) (A) (A) (A) (A) (A) (A) (A) (A) (A) (A) (A)
                 (A) (A) (A) (A) (A) (A) (A) (A) (A) (A) (A) (A)
                 (A) (A) (A) (A) (A) (A) (A) (A) (A) (A) (A) (A)
                 (A) (A) (A) (A) (A) (A) (A) (A) (A) (A) (A) (A)
                 (A) (A) (A) (A) (A) (A) (A) (A) (A) (A) (A) (A)
                 (A) (A) (A) (A) (A) (A) (A) (A) (A) (A) (A) (A)
                 (A) (A) (A) (A) (A) (A) (A) (A) (A) (A) (A) (A)
                 (A) (A) (A) (A) (A) (A) (A) (A) (A) (A) (A) (A)
                 (A) (A) (A) (A) (A) (A) (A) (A) (A) (A) (A) (A)
                 (A) (A) (A) (A) (A) (A) (A) (A) (A) (A) (A) (A)
                 (A) (A) (A) (A) (A) (A) (A) (A) (A) (A) (A) (A)
                 (A) (A) (A) (A) (A) (A) (A) (A) (A) (A) (A) (A)
                 (A) (A) (A) (A) (A) (A) (A) (A) (A) (A) (A) (A)
                 (A) (A) (A) (A) (A) (A) (A) (A) (A) (A) (A) (A)
                 (A) (A) (A) (A) (A) (A) (A) (A) (A) (A) (A) (A)
                 (A) (A) (A) (A) (A) (A) (A) (A) (A) (A) (A) (A)
                 (A) (A) (A) (A) (A)
 The electronic state is 2-A.
 Alpha  occ. eigenvalues --  -14.36428 -10.22451 -10.21228 -10.18647 -10.17479
 Alpha  occ. eigenvalues --  -10.17361 -10.17270 -10.16945 -10.16817 -10.16811
 Alpha  occ. eigenvalues --   -0.97675  -0.85352  -0.80950  -0.76086  -0.74111
 Alpha  occ. eigenvalues --   -0.66251  -0.63316  -0.62522  -0.55025  -0.53492
 Alpha  occ. eigenvalues --   -0.51486  -0.48046  -0.45685  -0.44068  -0.43362
 Alpha  occ. eigenvalues --   -0.43092  -0.40721  -0.38709  -0.35490  -0.35348
 Alpha  occ. eigenvalues --   -0.34603  -0.31630  -0.26551  -0.24133  -0.13392
 Alpha virt. eigenvalues --   -0.02046  -0.00958  -0.00847   0.01317   0.01475
 Alpha virt. eigenvalues --    0.03314   0.03563   0.04873   0.05002   0.05759
 Alpha virt. eigenvalues --    0.05815   0.06403   0.07696   0.07947   0.09300
 Alpha virt. eigenvalues --    0.09758   0.10192   0.11776   0.11976   0.12151
 Alpha virt. eigenvalues --    0.13703   0.13943   0.14322   0.14871   0.15141
 Alpha virt. eigenvalues --    0.16010   0.16855   0.16865   0.17441   0.17716
 Alpha virt. eigenvalues --    0.18361   0.19954   0.20112   0.20480   0.20774
 Alpha virt. eigenvalues --    0.20847   0.21259   0.22008   0.23437   0.23612
 Alpha virt. eigenvalues --    0.23731   0.23872   0.24459   0.25593   0.25957
 Alpha virt. eigenvalues --    0.26495   0.27232   0.27587   0.27925   0.28745
 Alpha virt. eigenvalues --    0.29693   0.30074   0.30710   0.31879   0.34494
 Alpha virt. eigenvalues --    0.35364   0.35854   0.38216   0.45609   0.46501
 Alpha virt. eigenvalues --    0.47750   0.48865   0.51712   0.53576   0.54241
 Alpha virt. eigenvalues --    0.54469   0.55056   0.55422   0.56703   0.56703
 Alpha virt. eigenvalues --    0.58840   0.59151   0.60654   0.62039   0.62648
 Alpha virt. eigenvalues --    0.63437   0.64439   0.66280   0.66327   0.67663
 Alpha virt. eigenvalues --    0.70197   0.71708   0.71775   0.72275   0.73870
 Alpha virt. eigenvalues --    0.74452   0.76390   0.78165   0.79546   0.81505
 Alpha virt. eigenvalues --    0.81950   0.83163   0.84258   0.85029   0.86855
 Alpha virt. eigenvalues --    0.87111   0.88423   0.89653   0.90402   0.91416
 Alpha virt. eigenvalues --    0.92891   0.95289   0.97401   0.98234   0.98384
 Alpha virt. eigenvalues --    1.03581   1.05632   1.05781   1.07874   1.08113
 Alpha virt. eigenvalues --    1.10097   1.12195   1.12916   1.14191   1.17374
 Alpha virt. eigenvalues --    1.17497   1.25885   1.32948   1.35208   1.46091
 Alpha virt. eigenvalues --    1.48873   1.49339   1.50756   1.51400   1.52905
 Alpha virt. eigenvalues --    1.55181   1.56955   1.56959   1.58198   1.59366
 Alpha virt. eigenvalues --    1.61106   1.62037   1.64230   1.65343   1.69166
 Alpha virt. eigenvalues --    1.71964   1.74232   1.74626   1.75861   1.76033
 Alpha virt. eigenvalues --    1.79881   1.81682   1.83267   1.85555   1.90184
 Alpha virt. eigenvalues --    1.91446   1.91480   1.92336   1.92674   1.95681
 Alpha virt. eigenvalues --    1.97121   1.97391   1.97683   1.99300   2.01202
 Alpha virt. eigenvalues --    2.04406   2.05987   2.09192   2.14951   2.18451
 Alpha virt. eigenvalues --    2.18659   2.24781   2.26560   2.30372   2.32593
 Alpha virt. eigenvalues --    2.38973   2.39778   2.43640   2.46852   2.48716
 Alpha virt. eigenvalues --    2.49015   2.52616   2.52861   2.59171   2.66612
 Alpha virt. eigenvalues --    2.67014   2.68147   2.70876   2.71527   2.71533
 Alpha virt. eigenvalues --    2.73212   2.75002   2.76059   2.76487   2.77892
 Alpha virt. eigenvalues --    2.79509   2.79956   2.81670   2.82524   2.85217
 Alpha virt. eigenvalues --    2.85360   2.90292   2.91499   2.91555   2.94079
 Alpha virt. eigenvalues --    3.01223   3.04281   3.08489   3.09785   3.19777
 Alpha virt. eigenvalues --    3.24797   3.35277   3.36964   3.40575   3.46765
 Alpha virt. eigenvalues --    3.48323   3.51198   3.53699   3.63998   3.67945
 Alpha virt. eigenvalues --    3.73094   3.87330   3.93136   4.02961   4.04037
 Alpha virt. eigenvalues --    4.08564   4.15320   4.18553   4.49846   4.84031
 Alpha virt. eigenvalues --    4.86046   5.19681  23.58199  23.80584  23.92185
 Alpha virt. eigenvalues --   23.96286  24.01801  24.04641  24.09308  24.15468
 Alpha virt. eigenvalues --   24.18841  35.65095
  Beta  occ. eigenvalues --  -14.35990 -10.22390 -10.20745 -10.18770 -10.17651
  Beta  occ. eigenvalues --  -10.17325 -10.17112 -10.16859 -10.16734 -10.16146
  Beta  occ. eigenvalues --   -0.96910  -0.85015  -0.80287  -0.75656  -0.73822
  Beta  occ. eigenvalues --   -0.65103  -0.63161  -0.62287  -0.54838  -0.53088
  Beta  occ. eigenvalues --   -0.51163  -0.47760  -0.45541  -0.43870  -0.43246
  Beta  occ. eigenvalues --   -0.41551  -0.40565  -0.38432  -0.35212  -0.34463
  Beta  occ. eigenvalues --   -0.34141  -0.29716  -0.25290  -0.22856
  Beta virt. eigenvalues --   -0.06056  -0.01638  -0.00917   0.00331   0.01326
  Beta virt. eigenvalues --    0.01486   0.03337   0.03566   0.05045   0.05099
  Beta virt. eigenvalues --    0.05774   0.05847   0.07625   0.07979   0.08176
  Beta virt. eigenvalues --    0.09378   0.09777   0.10169   0.12019   0.12126
  Beta virt. eigenvalues --    0.12308   0.13681   0.14151   0.14419   0.14935
  Beta virt. eigenvalues --    0.15185   0.16148   0.16938   0.17155   0.17449
  Beta virt. eigenvalues --    0.17765   0.18615   0.20172   0.20475   0.20875
  Beta virt. eigenvalues --    0.20915   0.20977   0.21387   0.22044   0.23461
  Beta virt. eigenvalues --    0.23738   0.23809   0.24101   0.24628   0.25684
  Beta virt. eigenvalues --    0.26064   0.26611   0.27350   0.27609   0.27982
  Beta virt. eigenvalues --    0.28836   0.29937   0.30283   0.30790   0.31932
  Beta virt. eigenvalues --    0.34555   0.35540   0.36083   0.38410   0.46027
  Beta virt. eigenvalues --    0.46558   0.47967   0.49032   0.52048   0.53983
  Beta virt. eigenvalues --    0.54521   0.54704   0.55309   0.56250   0.56820
  Beta virt. eigenvalues --    0.57779   0.59173   0.59408   0.61127   0.62170
  Beta virt. eigenvalues --    0.63269   0.63667   0.64574   0.66516   0.67353
  Beta virt. eigenvalues --    0.67791   0.70332   0.71838   0.71897   0.72462
  Beta virt. eigenvalues --    0.74012   0.74591   0.76531   0.78317   0.79796
  Beta virt. eigenvalues --    0.81524   0.82237   0.83339   0.84482   0.85195
  Beta virt. eigenvalues --    0.87194   0.88223   0.88725   0.89823   0.90567
  Beta virt. eigenvalues --    0.91622   0.93370   0.95871   0.97582   0.98637
  Beta virt. eigenvalues --    0.98691   1.04057   1.06042   1.06403   1.08150
  Beta virt. eigenvalues --    1.08736   1.10738   1.12477   1.13443   1.14491
  Beta virt. eigenvalues --    1.17910   1.18147   1.26102   1.33223   1.35647
  Beta virt. eigenvalues --    1.46232   1.48970   1.49487   1.51417   1.51588
  Beta virt. eigenvalues --    1.53133   1.55510   1.57162   1.57286   1.58882
  Beta virt. eigenvalues --    1.59828   1.61494   1.62517   1.64353   1.65572
  Beta virt. eigenvalues --    1.69235   1.72169   1.74522   1.74820   1.76209
  Beta virt. eigenvalues --    1.76515   1.80455   1.82331   1.83423   1.85768
  Beta virt. eigenvalues --    1.90856   1.91651   1.91883   1.92342   1.93122
  Beta virt. eigenvalues --    1.95761   1.97174   1.97985   1.98008   1.99502
  Beta virt. eigenvalues --    2.01792   2.04734   2.06368   2.10079   2.15156
  Beta virt. eigenvalues --    2.18658   2.19285   2.25360   2.26797   2.31039
  Beta virt. eigenvalues --    2.32839   2.39070   2.39812   2.43652   2.47213
  Beta virt. eigenvalues --    2.48820   2.50083   2.52775   2.53980   2.59542
  Beta virt. eigenvalues --    2.67072   2.67122   2.68247   2.70927   2.71608
  Beta virt. eigenvalues --    2.72497   2.73294   2.75098   2.76155   2.76544
  Beta virt. eigenvalues --    2.77988   2.80094   2.80362   2.81969   2.83308
  Beta virt. eigenvalues --    2.85522   2.86770   2.90747   2.91765   2.92150
  Beta virt. eigenvalues --    2.94254   3.02451   3.04494   3.08805   3.10007
  Beta virt. eigenvalues --    3.19857   3.25011   3.35390   3.37085   3.40806
  Beta virt. eigenvalues --    3.46909   3.48535   3.51427   3.53820   3.64375
  Beta virt. eigenvalues --    3.68087   3.73520   3.89170   3.93312   4.03285
  Beta virt. eigenvalues --    4.04274   4.08791   4.15713   4.18915   4.50391
  Beta virt. eigenvalues --    4.84238   4.86515   5.20195  23.58308  23.80842
  Beta virt. eigenvalues --   23.92263  23.96325  24.02357  24.04802  24.09397
  Beta virt. eigenvalues --   24.15596  24.18926  35.65547
          Condensed to atoms (all electrons):
               1          2          3          4          5          6
     1  C    5.551549  -0.222115  -0.716881   0.778448   0.176885   0.008391
     2  C   -0.222115  13.446620  -2.986080  -2.133702   0.896647  -0.097853
     3  C   -0.716881  -2.986080  14.181902  -4.215068   0.663284   0.016504
     4  C    0.778448  -2.133702  -4.215068  11.276621  -1.269074   0.021431
     5  C    0.176885   0.896647   0.663284  -1.269074   5.875033  -0.003863
     6  H    0.008391  -0.097853   0.016504   0.021431  -0.003863   0.565705
     7  H    0.392557   0.006680   0.028116  -0.026480   0.010651  -0.000002
     8  H   -0.034417  -0.099067   0.067399  -0.002236   0.001735   0.007445
     9  C   -0.073569   0.581887  -1.170428  -0.048371   0.118115   0.386331
    10  C    0.078118  -1.450931  -1.315311   1.357030  -0.371183  -0.002543
    11  H   -0.010851  -0.046470  -0.008695   0.346957  -0.014543   0.000008
    12  H   -0.013563  -0.042191  -0.000877   0.019212   0.362552   0.000000
    13  C   -0.035749  -0.576144   0.632861  -0.324043  -0.093597  -0.016308
    14  C   -0.003774   0.483276  -1.120941   0.159356   0.014518   0.042417
    15  H    0.006492  -0.033052  -0.131830   0.089927   0.011512   0.000071
    16  H    0.000575  -0.013299   0.008101   0.015056  -0.001054  -0.000327
    17  H    0.000989   0.027859   0.030482   0.003869  -0.001097  -0.007605
    18  N    0.175321  -0.208749   0.143369  -0.066541  -0.097037  -0.016665
               7          8          9         10         11         12
     1  C    0.392557  -0.034417  -0.073569   0.078118  -0.010851  -0.013563
     2  C    0.006680  -0.099067   0.581887  -1.450931  -0.046470  -0.042191
     3  C    0.028116   0.067399  -1.170428  -1.315311  -0.008695  -0.000877
     4  C   -0.026480  -0.002236  -0.048371   1.357030   0.346957   0.019212
     5  C    0.010651   0.001735   0.118115  -0.371183  -0.014543   0.362552
     6  H   -0.000002   0.007445   0.386331  -0.002543   0.000008   0.000000
     7  H    0.534920  -0.002767   0.000911   0.000064  -0.000248  -0.007360
     8  H   -0.002767   0.408627   0.003759   0.003755   0.000104  -0.000196
     9  C    0.000911   0.003759   6.149169   0.457980   0.000365  -0.000599
    10  C    0.000064   0.003755   0.457980   6.862655   0.049221   0.011869
    11  H   -0.000248   0.000104   0.000365   0.049221   0.550468  -0.008025
    12  H   -0.007360  -0.000196  -0.000599   0.011869  -0.008025   0.537710
    13  C    0.000172   0.003814  -0.290990   0.144979   0.022196   0.000959
    14  C    0.000055   0.002734   0.595857  -0.028058  -0.000499  -0.000380
    15  H   -0.000002   0.000011  -0.004674   0.435307   0.002334   0.000004
    16  H    0.000000  -0.000004   0.005893  -0.070341  -0.000017   0.000000
    17  H   -0.000001   0.000006  -0.063323  -0.027783  -0.000001   0.000000
    18  N   -0.062160   0.367040  -0.147480   0.016098   0.003556   0.015542
              13         14         15         16         17         18
     1  C   -0.035749  -0.003774   0.006492   0.000575   0.000989   0.175321
     2  C   -0.576144   0.483276  -0.033052  -0.013299   0.027859  -0.208749
     3  C    0.632861  -1.120941  -0.131830   0.008101   0.030482   0.143369
     4  C   -0.324043   0.159356   0.089927   0.015056   0.003869  -0.066541
     5  C   -0.093597   0.014518   0.011512  -0.001054  -0.001097  -0.097037
     6  H   -0.016308   0.042417   0.000071  -0.000327  -0.007605  -0.016665
     7  H    0.000172   0.000055  -0.000002   0.000000  -0.000001  -0.062160
     8  H    0.003814   0.002734   0.000011  -0.000004   0.000006   0.367040
     9  C   -0.290990   0.595857  -0.004674   0.005893  -0.063323  -0.147480
    10  C    0.144979  -0.028058   0.435307  -0.070341  -0.027783   0.016098
    11  H    0.022196  -0.000499   0.002334  -0.000017  -0.000001   0.003556
    12  H    0.000959  -0.000380   0.000004   0.000000   0.000000   0.015542
    13  C    5.897727   0.378951  -0.048044   0.406350  -0.008194   0.037263
    14  C    0.378951   5.322023   0.009908  -0.004583   0.386903   0.005799
    15  H   -0.048044   0.009908   0.555571  -0.007966  -0.000295  -0.001012
    16  H    0.406350  -0.004583  -0.007966   0.548306  -0.007943   0.000672
    17  H   -0.008194   0.386903  -0.000295  -0.007943   0.545964  -0.001565
    18  N    0.037263   0.005799  -0.001012   0.000672  -0.001565   6.941059
          Atomic-Atomic Spin Densities.
               1          2          3          4          5          6
     1  C    0.515930   0.068077  -0.007607  -0.115654   0.087523  -0.000153
     2  C    0.068077   0.012290   0.011331   0.045478  -0.063160   0.001066
     3  C   -0.007607   0.011331  -0.069367  -0.062694   0.034645  -0.000769
     4  C   -0.115654   0.045478  -0.062694   0.634135  -0.041871  -0.000107
     5  C    0.087523  -0.063160   0.034645  -0.041871  -0.152161   0.000135
     6  H   -0.000153   0.001066  -0.000769  -0.000107   0.000135  -0.002057
     7  H   -0.000504  -0.001809   0.000701  -0.002296   0.005493  -0.000002
     8  H    0.000147   0.002131  -0.004077  -0.000102  -0.000112  -0.000057
     9  C    0.017513   0.018010   0.006949   0.000745  -0.006556   0.000024
    10  C   -0.002331   0.020457  -0.004413  -0.033988   0.021251  -0.000171
    11  H    0.001963  -0.011154  -0.004232   0.010258   0.006217   0.000000
    12  H   -0.002510   0.003850  -0.000100  -0.003587   0.002594   0.000000
    13  C   -0.003898   0.006344   0.002177   0.005801   0.007816   0.000104
    14  C   -0.000116  -0.029865  -0.008143   0.015355  -0.007783   0.000291
    15  H    0.000050  -0.001243  -0.003159   0.001935  -0.000145  -0.000002
    16  H    0.000004   0.001028   0.000523  -0.000329   0.000024   0.000003
    17  H   -0.000017  -0.000148  -0.000093  -0.000015  -0.000009   0.000179
    18  N   -0.190234  -0.061683  -0.013722   0.055586  -0.019048  -0.000145
               7          8          9         10         11         12
     1  C   -0.000504   0.000147   0.017513  -0.002331   0.001963  -0.002510
     2  C   -0.001809   0.002131   0.018010   0.020457  -0.011154   0.003850
     3  C    0.000701  -0.004077   0.006949  -0.004413  -0.004232  -0.000100
     4  C   -0.002296  -0.000102   0.000745  -0.033988   0.010258  -0.003587
     5  C    0.005493  -0.000112  -0.006556   0.021251   0.006217   0.002594
     6  H   -0.000002  -0.000057   0.000024  -0.000171   0.000000   0.000000
     7  H   -0.026478   0.000406  -0.000502  -0.000448   0.000004   0.000400
     8  H    0.000406  -0.011421   0.001667  -0.000129  -0.000008   0.000007
     9  C   -0.000502   0.001667   0.021391   0.020549  -0.000042   0.000306
    10  C   -0.000448  -0.000129   0.020549   0.186660   0.003107  -0.000343
    11  H    0.000004  -0.000008  -0.000042   0.003107  -0.036155   0.000519
    12  H    0.000400   0.000007   0.000306  -0.000343   0.000519   0.004630
    13  C   -0.000047  -0.000150  -0.010948  -0.033319  -0.000617  -0.000059
    14  C   -0.000015  -0.000127  -0.038908  -0.011740  -0.000472   0.000081
    15  H    0.000000  -0.000001   0.000320   0.002916  -0.000126   0.000002
    16  H    0.000000   0.000000  -0.000401  -0.001549  -0.000001   0.000000
    17  H    0.000000   0.000001  -0.000582   0.000020   0.000000   0.000000
    18  N    0.001600   0.001859  -0.022066  -0.007197  -0.000097  -0.000093
              13         14         15         16         17         18
     1  C   -0.003898  -0.000116   0.000050   0.000004  -0.000017  -0.190234
     2  C    0.006344  -0.029865  -0.001243   0.001028  -0.000148  -0.061683
     3  C    0.002177  -0.008143  -0.003159   0.000523  -0.000093  -0.013722
     4  C    0.005801   0.015355   0.001935  -0.000329  -0.000015   0.055586
     5  C    0.007816  -0.007783  -0.000145   0.000024  -0.000009  -0.019048
     6  H    0.000104   0.000291  -0.000002   0.000003   0.000179  -0.000145
     7  H   -0.000047  -0.000015   0.000000   0.000000   0.000000   0.001600
     8  H   -0.000150  -0.000127  -0.000001   0.000000   0.000001   0.001859
     9  C   -0.010948  -0.038908   0.000320  -0.000401  -0.000582  -0.022066
    10  C   -0.033319  -0.011740   0.002916  -0.001549   0.000020  -0.007197
    11  H   -0.000617  -0.000472  -0.000126  -0.000001   0.000000  -0.000097
    12  H   -0.000059   0.000081   0.000002   0.000000   0.000000  -0.000093
    13  C   -0.051009   0.045404   0.000903   0.000808   0.000737   0.003910
    14  C    0.045404   0.154904   0.000107  -0.000011   0.001017   0.009996
    15  H    0.000903   0.000107  -0.010104   0.000130   0.000005  -0.000016
    16  H    0.000808  -0.000011   0.000130   0.000345   0.000128  -0.000009
    17  H    0.000737   0.001017   0.000005   0.000128  -0.009387   0.000027
    18  N    0.003910   0.009996  -0.000016  -0.000009   0.000027   0.396096
 Mulliken charges and spin densities:
               1          2
     1  C   -0.058408   0.368181
     2  C   -1.533318   0.021000
     3  C    1.894093  -0.122049
     4  C    0.017609   0.508650
     5  C   -0.279484  -0.125145
     6  H    0.096865  -0.001659
     7  H    0.124893  -0.023498
     8  H    0.272255  -0.009966
     9  C   -0.500834   0.007469
    10  C   -0.150928   0.159333
    11  H    0.114142  -0.030837
    12  H    0.125341   0.005697
    13  C   -0.132204  -0.026044
    14  C   -0.243564   0.129974
    15  H    0.115739  -0.008428
    16  H    0.120582   0.000694
    17  H    0.121733  -0.008136
    18  N   -0.104510   0.154766
 Sum of Mulliken charges =   0.00000   1.00000
 Mulliken charges and spin densities with hydrogens summed into heavy atoms:
               1          2
     1  C    0.066485   0.344683
     2  C   -1.533318   0.021000
     3  C    1.894093  -0.122049
     4  C    0.131750   0.477813
     5  C   -0.154143  -0.119448
     9  C   -0.403970   0.005809
    10  C   -0.035189   0.150905
    13  C   -0.011623  -0.025350
    14  C   -0.121830   0.121838
    18  N    0.167745   0.144799
 Electronic spatial extent (au):  <R**2>=           1298.1221
 Charge=              0.0000 electrons
 Dipole moment (field-independent basis, Debye):
    X=              0.9692    Y=             -1.7185    Z=              0.0000  Tot=              1.9730
 Quadrupole moment (field-independent basis, Debye-Ang):
   XX=            -53.4293   YY=            -49.6988   ZZ=            -65.4503
   XY=             -2.5400   XZ=              0.0000   YZ=              0.0000
 Traceless Quadrupole moment (field-independent basis, Debye-Ang):
   XX=              2.7635   YY=              6.4940   ZZ=             -9.2575
   XY=             -2.5400   XZ=              0.0000   YZ=              0.0000
 Octapole moment (field-independent basis, Debye-Ang**2):
  XXX=              7.5127  YYY=            -15.3092  ZZZ=              0.0000  XYY=              6.6199
  XXY=             -5.2017  XXZ=              0.0000  XZZ=              1.1499  YZZ=             -2.2219
  YYZ=              0.0000  XYZ=              0.0000
 Hexadecapole moment (field-independent basis, Debye-Ang**3):
 XXXX=          -1122.8748 YYYY=           -457.7893 ZZZZ=            -80.1021 XXXY=            -11.9561
 XXXZ=              0.0000 YYYX=            -20.9603 YYYZ=              0.0000 ZZZX=              0.0000
 ZZZY=              0.0000 XXYY=           -261.8545 XXZZ=           -250.2642 YYZZ=           -113.4883
 XXYZ=              0.0000 YYXZ=              0.0000 ZZXY=             -3.0815
 N-N= 4.731614845203D+02 E-N=-1.880941644738D+03  KE= 4.008047772276D+02
 There are a total of      147848 grid points.
 ElSum from          density=       69.0002024866
 ElSum from atomic densities=       68.9998063515

 Hirshfeld populations at iteration   1 (CX, CA, CB, DipXYZ):
               1          2          3          4          5          6
     1  C    0.000002   3.120655   2.890651  -0.029199  -0.092899   0.000000
     2  C    0.000001   2.994088   2.950912   0.084377  -0.021582   0.000000
     3  C    0.000001   3.007121   3.002692   0.012743  -0.009854   0.000000
     4  C    0.000001   3.188085   2.888627  -0.019401   0.034097   0.000000
     5  C    0.000001   3.036172   3.034666   0.044880   0.047380   0.000000
     6  H    0.000002   0.480065   0.479446  -0.002240  -0.156500   0.000000
     7  H    0.000007   0.483950   0.464830   0.133488  -0.096526   0.000000
     8  H    0.000003   0.433081   0.425338   0.008784  -0.210301   0.000000
     9  C    0.000001   3.051851   3.023669   0.009747  -0.051223   0.000000
    10  C    0.000000   3.072123   2.985106   0.013467   0.051593   0.000000
    11  H    0.000003   0.491662   0.469168   0.004384   0.159133   0.000000
    12  H    0.000004   0.475452   0.475676   0.142757   0.081288   0.000000
    13  C    0.000001   3.035701   3.024624  -0.054007   0.028355   0.000000
    14  C    0.000001   3.069391   2.988503  -0.050779  -0.030357   0.000000
    15  H    0.000002   0.480441   0.475704  -0.006487   0.157299   0.000000
    16  H    0.000003   0.478274   0.477489  -0.139015   0.078550   0.000000
    17  H    0.000003   0.481073   0.474602  -0.137266  -0.082563   0.000000
    18  N    0.000002   3.620929   3.468381  -0.013936  -0.020202   0.000000
       Tot   0.000036  35.000116  34.000086   0.002294  -0.134312   0.000000

 Dip from Atomic Chgs              0.378762  -0.541877   0.000000
         Total Dipole              0.381056  -0.676190   0.000000

 Hirshfeld charges, spin densities, dipoles, and CM5 charges using IRadAn=      4:
              Q-H        S-H        Dx         Dy         Dz        Q-CM5   
     1  C   -0.011306   0.230003  -0.029199  -0.092899   0.000000  -0.001760
     2  C    0.055000   0.043176   0.084377  -0.021582   0.000000   0.112142
     3  C   -0.009813   0.004429   0.012743  -0.009854   0.000000  -0.012049
     4  C   -0.076712   0.299458  -0.019401   0.034097   0.000000  -0.127612
     5  C   -0.070838   0.001506   0.044880   0.047380   0.000000  -0.120653
     6  H    0.040489   0.000619  -0.002240  -0.156500   0.000000   0.099124
     7  H    0.051220   0.019120   0.133488  -0.096526   0.000000   0.116203
     8  H    0.141581   0.007743   0.008784  -0.210301   0.000000   0.336507
     9  C   -0.075521   0.028182   0.009747  -0.051223   0.000000  -0.123534
    10  C   -0.057229   0.087017   0.013467   0.051593   0.000000  -0.109893
    11  H    0.039170   0.022493   0.004384   0.159133   0.000000   0.095681
    12  H    0.048872  -0.000224   0.142757   0.081288   0.000000   0.105345
    13  C   -0.060325   0.011077  -0.054007   0.028355   0.000000  -0.115826
    14  C   -0.057894   0.080887  -0.050779  -0.030357   0.000000  -0.113265
    15  H    0.043854   0.004737  -0.006487   0.157299   0.000000   0.100444
    16  H    0.044236   0.000785  -0.139015   0.078550   0.000000   0.100038
    17  H    0.044324   0.006471  -0.137266  -0.082563   0.000000   0.100138
    18  N   -0.089310   0.152548  -0.013936  -0.020202   0.000000  -0.441232
       Tot  -0.000202   1.000030   0.002294  -0.134312   0.000000  -0.000202
 Hirshfeld charges and spin densities with hydrogens summed into heavy atoms:
              Q-H        S-H       Q-CM5   
     1  C    0.039914   0.249124   0.114443
     2  C    0.055000   0.043176   0.112142
     3  C   -0.009813   0.004429  -0.012049
     4  C   -0.037542   0.321952  -0.031931
     5  C   -0.021967   0.001282  -0.015308
     9  C   -0.035032   0.028801  -0.024410
    10  C   -0.013375   0.091754  -0.009449
    13  C   -0.016089   0.011862  -0.015787
    14  C   -0.013570   0.087359  -0.013128
    18  N    0.052271   0.160291  -0.104726
 
 EQQ= 0.861893916101E-01 EQD=-0.662543606031E-01 EDD= 0.891884836687E-02
 EQQ+QD+DD= 0.288538793739E-01
 
          MBS Condensed to atoms (all electrons):
               1          2          3          4          5          6
     1  C    4.833121  -0.030160  -0.008654  -0.033511   0.531885   0.000031
     2  C   -0.030160   4.691301   0.471689  -0.028971  -0.008306  -0.026616
     3  C   -0.008654   0.471689   4.751347   0.459592  -0.027613   0.001312
     4  C   -0.033511  -0.028971   0.459592   4.942461   0.488073  -0.000024
     5  C    0.531885  -0.008306  -0.027613   0.488073   4.817481  -0.000001
     6  H    0.000031  -0.026616   0.001312  -0.000024  -0.000001   0.571727
     7  H    0.394287   0.001521   0.000016   0.001375  -0.023188  -0.000002
     8  H   -0.029136  -0.030727   0.001777   0.000044   0.001801   0.002068
     9  C    0.001023   0.509591  -0.027625   0.000745   0.000034   0.387704
    10  C    0.000044  -0.029825   0.491356  -0.028147   0.000791   0.000052
    11  H    0.001488   0.001348  -0.025159   0.389962  -0.024241   0.000001
    12  H   -0.025990   0.000024   0.001393  -0.023142   0.390830   0.000000
    13  C    0.000000  -0.011136  -0.028533   0.000831  -0.000011   0.001497
    14  C   -0.000013  -0.029338  -0.010104   0.000044   0.000001  -0.024027
    15  H    0.000000   0.001462  -0.027099  -0.003573   0.000023   0.000002
    16  H    0.000000   0.000048   0.001460  -0.000017   0.000000  -0.000040
    17  H    0.000000   0.001462   0.000037   0.000001   0.000000  -0.003890
    18  N    0.387283   0.391156  -0.027513  -0.005723  -0.030765  -0.003135
               7          8          9         10         11         12
     1  C    0.394287  -0.029136   0.001023   0.000044   0.001488  -0.025990
     2  C    0.001521  -0.030727   0.509591  -0.029825   0.001348   0.000024
     3  C    0.000016   0.001777  -0.027625   0.491356  -0.025159   0.001393
     4  C    0.001375   0.000044   0.000745  -0.028147   0.389962  -0.023142
     5  C   -0.023188   0.001801   0.000034   0.000791  -0.024241   0.390830
     6  H   -0.000002   0.002068   0.387704   0.000052   0.000001   0.000000
     7  H    0.536291  -0.003720  -0.000024   0.000001  -0.000036  -0.003402
     8  H   -0.003720   0.431029  -0.003027  -0.000033   0.000003  -0.000056
     9  C   -0.000024  -0.003027   4.869826  -0.010887  -0.000020   0.000001
    10  C    0.000001  -0.000033  -0.010887   4.859119  -0.003153  -0.000017
    11  H   -0.000036   0.000003  -0.000020  -0.003153   0.558342  -0.003601
    12  H   -0.003402  -0.000056   0.000001  -0.000017  -0.003601   0.550799
    13  C    0.000000   0.000001  -0.032149   0.509787   0.000016   0.000000
    14  C    0.000000  -0.000003   0.502110  -0.032374   0.000000   0.000000
    15  H    0.000000   0.000001   0.000044   0.388973   0.001415  -0.000001
    16  H    0.000000   0.000000   0.001525  -0.025715  -0.000001   0.000000
    17  H    0.000000  -0.000002  -0.025831   0.001526   0.000000   0.000000
    18  N   -0.023499   0.346902  -0.029646   0.000564   0.000019   0.001107
              13         14         15         16         17         18
     1  C    0.000000  -0.000013   0.000000   0.000000   0.000000   0.387283
     2  C   -0.011136  -0.029338   0.001462   0.000048   0.001462   0.391156
     3  C   -0.028533  -0.010104  -0.027099   0.001460   0.000037  -0.027513
     4  C    0.000831   0.000044  -0.003573  -0.000017   0.000001  -0.005723
     5  C   -0.000011   0.000001   0.000023   0.000000   0.000000  -0.030765
     6  H    0.001497  -0.024027   0.000002  -0.000040  -0.003890  -0.003135
     7  H    0.000000   0.000000   0.000000   0.000000   0.000000  -0.023499
     8  H    0.000001  -0.000003   0.000001   0.000000  -0.000002   0.346902
     9  C   -0.032149   0.502110   0.000044   0.001525  -0.025831  -0.029646
    10  C    0.509787  -0.032374   0.388973  -0.025715   0.001526   0.000564
    11  H    0.000016   0.000000   0.001415  -0.000001   0.000000   0.000019
    12  H    0.000000   0.000000  -0.000001   0.000000   0.000000   0.001107
    13  C    4.828647   0.504084  -0.025187   0.390792  -0.025126   0.000023
    14  C    0.504084   4.833504   0.001538  -0.025682   0.391076   0.000606
    15  H   -0.025187   0.001538   0.564686  -0.003914  -0.000042  -0.000012
    16  H    0.390792  -0.025682  -0.003914   0.561176  -0.003721   0.000000
    17  H   -0.025126   0.391076  -0.000042  -0.003721   0.559293  -0.000010
    18  N    0.000023   0.000606  -0.000012   0.000000  -0.000010   6.355009
          MBS Atomic-Atomic Spin Densities.
               1          2          3          4          5          6
     1  C    0.361029   0.001676   0.000494  -0.008016   0.017810   0.000000
     2  C    0.001676   0.045606   0.002052  -0.002828   0.000461  -0.000088
     3  C    0.000494   0.002052  -0.079199  -0.011585   0.000190  -0.000002
     4  C   -0.008016  -0.002828  -0.011585   0.509791  -0.019566   0.000000
     5  C    0.017810   0.000461   0.000190  -0.019566  -0.118632   0.000000
     6  H    0.000000  -0.000088  -0.000002   0.000000   0.000000  -0.001098
     7  H   -0.001180  -0.000006   0.000001   0.000013  -0.000481   0.000000
     8  H   -0.000093  -0.000068  -0.000005   0.000000  -0.000008   0.000024
     9  C    0.000090   0.011481   0.000685  -0.000077   0.000002   0.000027
    10  C    0.000018   0.001277   0.007509  -0.004157   0.000029   0.000000
    11  H    0.000005   0.000003  -0.000220  -0.001800  -0.000217   0.000000
    12  H   -0.000386  -0.000001  -0.000002  -0.000151   0.001015   0.000000
    13  C    0.000000  -0.000229  -0.000040   0.000061   0.000000  -0.000002
    14  C   -0.000002  -0.001696  -0.000170   0.000019   0.000000   0.000003
    15  H    0.000000  -0.000001   0.000027  -0.000006   0.000000   0.000000
    16  H    0.000000  -0.000001  -0.000003   0.000000   0.000000   0.000000
    17  H    0.000000  -0.000002   0.000000   0.000000   0.000000   0.000017
    18  N   -0.051641  -0.019564  -0.000308   0.001766  -0.001248   0.000003
               7          8          9         10         11         12
     1  C   -0.001180  -0.000093   0.000090   0.000018   0.000005  -0.000386
     2  C   -0.000006  -0.000068   0.011481   0.001277   0.000003  -0.000001
     3  C    0.000001  -0.000005   0.000685   0.007509  -0.000220  -0.000002
     4  C    0.000013   0.000000  -0.000077  -0.004157  -0.001800  -0.000151
     5  C   -0.000481  -0.000008   0.000002   0.000029  -0.000217   0.001015
     6  H    0.000000   0.000024   0.000027   0.000000   0.000000   0.000000
     7  H   -0.013148   0.000072   0.000000   0.000000  -0.000001   0.000091
     8  H    0.000072  -0.006386   0.000072   0.000000   0.000000   0.000000
     9  C    0.000000   0.000072   0.024711   0.000633   0.000000   0.000000
    10  C    0.000000   0.000000   0.000633   0.146540   0.000072   0.000000
    11  H   -0.000001   0.000000   0.000000   0.000072  -0.017159   0.000056
    12  H    0.000091   0.000000   0.000000   0.000000   0.000056   0.002993
    13  C    0.000000   0.000000  -0.000833  -0.012203  -0.000002   0.000000
    14  C    0.000000  -0.000002  -0.015473  -0.002529   0.000000   0.000000
    15  H    0.000000   0.000000   0.000000  -0.000598   0.000025   0.000000
    16  H    0.000000   0.000000   0.000004  -0.000032   0.000000   0.000000
    17  H    0.000000   0.000000  -0.000006   0.000006   0.000000   0.000000
    18  N   -0.000020  -0.001634  -0.001773  -0.000048   0.000000   0.000010
              13         14         15         16         17         18
     1  C    0.000000  -0.000002   0.000000   0.000000   0.000000  -0.051641
     2  C   -0.000229  -0.001696  -0.000001  -0.000001  -0.000002  -0.019564
     3  C   -0.000040  -0.000170   0.000027  -0.000003   0.000000  -0.000308
     4  C    0.000061   0.000019  -0.000006   0.000000   0.000000   0.001766
     5  C    0.000000   0.000000   0.000000   0.000000   0.000000  -0.001248
     6  H   -0.000002   0.000003   0.000000   0.000000   0.000017   0.000003
     7  H    0.000000   0.000000   0.000000   0.000000   0.000000  -0.000020
     8  H    0.000000  -0.000002   0.000000   0.000000   0.000000  -0.001634
     9  C   -0.000833  -0.015473   0.000000   0.000004  -0.000006  -0.001773
    10  C   -0.012203  -0.002529  -0.000598  -0.000032   0.000006  -0.000048
    11  H   -0.000002   0.000000   0.000025   0.000000   0.000000   0.000000
    12  H    0.000000   0.000000   0.000000   0.000000   0.000000   0.000010
    13  C   -0.020746   0.010937   0.000036   0.000277  -0.000166   0.000004
    14  C    0.010937   0.121458   0.000001  -0.000182  -0.000391   0.000050
    15  H    0.000036   0.000001  -0.005235   0.000013   0.000000   0.000000
    16  H    0.000277  -0.000182   0.000013   0.000333   0.000032   0.000000
    17  H   -0.000166  -0.000391   0.000000   0.000032  -0.004583   0.000000
    18  N    0.000004   0.000050   0.000000   0.000000   0.000000   0.258917
 MBS Mulliken charges and spin densities:
               1          2
     1  C   -0.021697   0.319804
     2  C    0.125479   0.038072
     3  C    0.002322  -0.080575
     4  C   -0.160017   0.463462
     5  C   -0.116792  -0.120645
     6  H    0.093343  -0.001116
     7  H    0.120381  -0.014661
     8  H    0.283080  -0.008027
     9  C   -0.143393   0.019543
    10  C   -0.122059   0.136515
    11  H    0.103619  -0.019237
    12  H    0.112056   0.003624
    13  C   -0.113536  -0.022906
    14  C   -0.111423   0.112024
    15  H    0.101685  -0.005739
    16  H    0.104090   0.000441
    17  H    0.105229  -0.005093
    18  N   -0.362366   0.184512
 Sum of MBS Mulliken charges =   0.00000   1.00000
 MBS Mulliken charges and spin densities with hydrogens summed into heavy atoms:
               1          2
     1  C    0.098683   0.305143
     2  C    0.125479   0.038072
     3  C    0.002322  -0.080575
     4  C   -0.056398   0.444225
     5  C   -0.004737  -0.117021
     9  C   -0.050050   0.018427
    10  C   -0.020375   0.130777
    13  C   -0.009446  -0.022465
    14  C   -0.006194   0.106931
    18  N   -0.079287   0.176485
                          Isotropic Fermi Contact Couplings
        Atom                 a.u.       MegaHertz       Gauss      10(-4) cm-1
     1  C(13)              0.01687      18.97065       6.76920       6.32793
     2  C(13)             -0.00195      -2.19284      -0.78246      -0.73145
     3  C(13)             -0.02008     -22.57677      -8.05595      -7.53080
     4  C(13)              0.03031      34.07645      12.15932      11.36668
     5  C(13)             -0.02537     -28.52545     -10.17859      -9.51506
     6  H(1)              -0.00042      -1.86172      -0.66431      -0.62100
     7  H(1)              -0.00536     -23.96948      -8.55291      -7.99536
     8  H(1)              -0.00340     -15.18528      -5.41848      -5.06526
     9  C(13)             -0.00312      -3.50824      -1.25183      -1.17022
    10  C(13)              0.00919      10.32740       3.68507       3.44485
    11  H(1)              -0.00681     -30.46046     -10.86905     -10.16052
    12  H(1)               0.00119       5.30697       1.89366       1.77021
    13  C(13)             -0.00722      -8.11641      -2.89614      -2.70734
    14  C(13)              0.00572       6.43231       2.29521       2.14559
    15  H(1)              -0.00200      -8.95436      -3.19514      -2.98685
    16  H(1)               0.00013       0.56568       0.20185       0.18869
    17  H(1)              -0.00182      -8.15306      -2.90921      -2.71957
    18  N(14)              0.01806       5.83412       2.08176       1.94605
 --------------------------------------------------------
       Center         ----  Spin Dipole Couplings  ----
                      3XX-RR        3YY-RR        3ZZ-RR
 --------------------------------------------------------
     1   Atom       -0.199669     -0.204976      0.404645
     2   Atom       -0.022138     -0.033114      0.055253
     3   Atom        0.042072      0.030229     -0.072301
     4   Atom       -0.275101     -0.264033      0.539134
     5   Atom        0.047001      0.059353     -0.106354
     6   Atom       -0.000002      0.003707     -0.003705
     7   Atom        0.009418     -0.008044     -0.001374
     8   Atom       -0.022979      0.030183     -0.007204
     9   Atom       -0.011932     -0.018583      0.030514
    10   Atom       -0.077215     -0.078785      0.155999
    11   Atom       -0.034903      0.035482     -0.000579
    12   Atom        0.000232      0.006235     -0.006467
    13   Atom        0.006980      0.007276     -0.014256
    14   Atom       -0.065394     -0.069246      0.134640
    15   Atom       -0.006501      0.009784     -0.003282
    16   Atom        0.001208      0.001357     -0.002564
    17   Atom        0.004385     -0.003355     -0.001030
    18   Atom       -0.258644     -0.258072      0.516716
 --------------------------------------------------------
                        XY            XZ            YZ
 --------------------------------------------------------
     1   Atom       -0.001599      0.000000      0.000000
     2   Atom       -0.002110      0.000000      0.000000
     3   Atom        0.004324      0.000000      0.000000
     4   Atom       -0.000640      0.000000      0.000000
     5   Atom       -0.011107      0.000000      0.000000
     6   Atom        0.002811      0.000000      0.000000
     7   Atom       -0.026366      0.000000      0.000000
     8   Atom        0.001957      0.000000      0.000000
     9   Atom        0.000802      0.000000      0.000000
    10   Atom       -0.000445      0.000000      0.000000
    11   Atom        0.001425      0.000000      0.000000
    12   Atom       -0.001247      0.000000      0.000000
    13   Atom        0.002595      0.000000      0.000000
    14   Atom        0.001565      0.000000      0.000000
    15   Atom       -0.003478      0.000000      0.000000
    16   Atom       -0.001465      0.000000      0.000000
    17   Atom        0.009555      0.000000      0.000000
    18   Atom        0.002464      0.000000      0.000000
 --------------------------------------------------------


 ---------------------------------------------------------------------------------
              Anisotropic Spin Dipole Couplings in Principal Axis System
 ---------------------------------------------------------------------------------

       Atom             a.u.   MegaHertz   Gauss  10(-4) cm-1        Axes

              Baa    -0.2054   -27.565    -9.836    -9.195  0.2679  0.9635  0.0000
     1 C(13)  Bbb    -0.1992   -26.734    -9.539    -8.918  0.9635 -0.2679  0.0000
              Bcc     0.4046    54.299    19.375    18.112  0.0000  0.0000  1.0000
 
              Baa    -0.0335    -4.496    -1.604    -1.500  0.1825  0.9832  0.0000
     2 C(13)  Bbb    -0.0217    -2.918    -1.041    -0.973  0.9832 -0.1825  0.0000
              Bcc     0.0553     7.414     2.646     2.473  0.0000  0.0000  1.0000
 
              Baa    -0.0723    -9.702    -3.462    -3.236  0.0000  0.0000  1.0000
     3 C(13)  Bbb     0.0288     3.867     1.380     1.290 -0.3102  0.9507  0.0000
              Bcc     0.0435     5.835     2.082     1.946  0.9507  0.3102  0.0000
 
              Baa    -0.2751   -36.921   -13.174   -12.315  0.9983  0.0576  0.0000
     4 C(13)  Bbb    -0.2640   -35.426   -12.641   -11.817 -0.0576  0.9983  0.0000
              Bcc     0.5391    72.347    25.815    24.132  0.0000  0.0000  1.0000
 
              Baa    -0.1064   -14.272    -5.093    -4.761  0.0000  0.0000  1.0000
     5 C(13)  Bbb     0.0405     5.431     1.938     1.811  0.8620  0.5070  0.0000
              Bcc     0.0659     8.841     3.155     2.949 -0.5070  0.8620  0.0000
 
              Baa    -0.0037    -1.977    -0.705    -0.659  0.0000  0.0000  1.0000
     6 H(1)   Bbb    -0.0015    -0.809    -0.289    -0.270  0.8805 -0.4740  0.0000
              Bcc     0.0052     2.785     0.994     0.929  0.4740  0.8805  0.0000
 
              Baa    -0.0271   -14.453    -5.157    -4.821  0.5855  0.8107  0.0000
     7 H(1)   Bbb    -0.0014    -0.733    -0.262    -0.244  0.0000  0.0000  1.0000
              Bcc     0.0285    15.186     5.419     5.065  0.8107 -0.5855  0.0000
 
              Baa    -0.0231   -12.299    -4.389    -4.102  0.9993 -0.0367  0.0000
     8 H(1)   Bbb    -0.0072    -3.844    -1.372    -1.282  0.0000  0.0000  1.0000
              Bcc     0.0303    16.143     5.760     5.385  0.0367  0.9993  0.0000
 
              Baa    -0.0187    -2.506    -0.894    -0.836 -0.1181  0.9930  0.0000
     9 C(13)  Bbb    -0.0118    -1.588    -0.567    -0.530  0.9930  0.1181  0.0000
              Bcc     0.0305     4.095     1.461     1.366  0.0000  0.0000  1.0000
 
              Baa    -0.0789   -10.588    -3.778    -3.532  0.2550  0.9669  0.0000
    10 C(13)  Bbb    -0.0771   -10.346    -3.692    -3.451  0.9669 -0.2550  0.0000
              Bcc     0.1560    20.934     7.470     6.983  0.0000  0.0000  1.0000
 
              Baa    -0.0349   -18.638    -6.650    -6.217  0.9998 -0.0202  0.0000
    11 H(1)   Bbb    -0.0006    -0.309    -0.110    -0.103  0.0000  0.0000  1.0000
              Bcc     0.0355    18.947     6.761     6.320  0.0202  0.9998  0.0000
 
              Baa    -0.0065    -3.451    -1.231    -1.151  0.0000  0.0000  1.0000
    12 H(1)   Bbb     0.0000    -0.009    -0.003    -0.003  0.9807  0.1956  0.0000
              Bcc     0.0065     3.460     1.234     1.154 -0.1956  0.9807  0.0000
 
              Baa    -0.0143    -1.913    -0.683    -0.638  0.0000  0.0000  1.0000
    13 C(13)  Bbb     0.0045     0.608     0.217     0.203  0.7270 -0.6867  0.0000
              Bcc     0.0097     1.305     0.466     0.435  0.6867  0.7270  0.0000
 
              Baa    -0.0698    -9.367    -3.342    -3.124 -0.3346  0.9424  0.0000
    14 C(13)  Bbb    -0.0648    -8.701    -3.105    -2.902  0.9424  0.3346  0.0000
              Bcc     0.1346    18.067     6.447     6.027  0.0000  0.0000  1.0000
 
              Baa    -0.0072    -3.848    -1.373    -1.284  0.9797  0.2005  0.0000
    15 H(1)   Bbb    -0.0033    -1.751    -0.625    -0.584  0.0000  0.0000  1.0000
              Bcc     0.0105     5.600     1.998     1.868 -0.2005  0.9797  0.0000
 
              Baa    -0.0026    -1.368    -0.488    -0.456  0.0000  0.0000  1.0000
    16 H(1)   Bbb    -0.0002    -0.098    -0.035    -0.033  0.7248  0.6889  0.0000
              Bcc     0.0027     1.467     0.523     0.489 -0.6889  0.7248  0.0000
 
              Baa    -0.0098    -5.226    -1.865    -1.743 -0.5588  0.8293  0.0000
    17 H(1)   Bbb    -0.0010    -0.550    -0.196    -0.183  0.0000  0.0000  1.0000
              Bcc     0.0108     5.775     2.061     1.926  0.8293  0.5588  0.0000
 
              Baa    -0.2608   -10.060    -3.590    -3.356  0.7467 -0.6651  0.0000
    18 N(14)  Bbb    -0.2559    -9.869    -3.521    -3.292  0.6651  0.7467  0.0000
              Bcc     0.5167    19.929     7.111     6.647  0.0000  0.0000  1.0000
 

 ---------------------------------------------------------------------------------

 Breneman (CHELPG) radii used.
 Generate Potential Derived Charges using the Breneman model, NDens= 1.
 Grid spacing= 0.300 Box extension= 2.800
 NStep X,Y,Z=   43     36     20   Total possible points=       30960
 Number of Points to Fit=   12230

 **********************************************************************

            Electrostatic Properties Using The SCF Density

 **********************************************************************

       Atomic Center    1 is at   2.415366 -0.664433  0.000000
       Atomic Center    2 is at  -0.026297 -0.676386  0.000000
       Atomic Center    3 is at  -0.022459  0.749884  0.000000
       Atomic Center    4 is at   1.232984  1.438362  0.000000
       Atomic Center    5 is at   2.430782  0.707345  0.000000
       Atomic Center    6 is at  -1.204043 -2.473613  0.000000
       Atomic Center    7 is at   3.302040 -1.281069  0.000000
       Atomic Center    8 is at   1.198207 -2.341802  0.000001
       Atomic Center    9 is at  -1.225068 -1.387993  0.000000
       Atomic Center   10 is at  -1.272009  1.401121  0.000000
       Atomic Center   11 is at   1.244582  2.520850  0.000000
       Atomic Center   12 is at   3.387121  1.215486 -0.000001
       Atomic Center   13 is at  -2.465564  0.685967  0.000000
       Atomic Center   14 is at  -2.445569 -0.708588  0.000000
       Atomic Center   15 is at  -1.288212  2.485807  0.000000
       Atomic Center   16 is at  -3.411638  1.215020  0.000000
       Atomic Center   17 is at  -3.372202 -1.270314  0.000000
       Atomic Center   18 is at   1.201592 -1.334577  0.000000
   12230 points will be used for fitting atomic charges
 Fitting point charges to electrostatic potential
 Charges from ESP fit, RMS=   0.00546 RRMS=   0.39656:
 ESP charges:
               1
     1  C   -0.059221
     2  C    0.279887
     3  C    0.218817
     4  C   -0.268945
     5  C   -0.077930
     6  H    0.136656
     7  H    0.101643
     8  H    0.316236
     9  C   -0.341363
    10  C   -0.276973
    11  H    0.112553
    12  H    0.085508
    13  C   -0.081045
    14  C   -0.040007
    15  H    0.128167
    16  H    0.080027
    17  H    0.078154
    18  N   -0.392166
 Sum of ESP charges =   0.00000
 ESP charges with hydrogens summed into heavy atoms:
               1
     1  C    0.042422
     2  C    0.279887
     3  C    0.218817
     4  C   -0.156392
     5  C    0.007578
     9  C   -0.204706
    10  C   -0.148805
    13  C   -0.001018
    14  C    0.038147
    18  N   -0.075930
 Charge=   0.00000 Dipole=     0.9540    -1.6838     0.0000 Tot=     1.9353
 -----------------------------------------------------------------

              Electrostatic Properties (Atomic Units)

 -----------------------------------------------------------------
    Center     Electric         -------- Electric Field --------
               Potential          X             Y             Z
 -----------------------------------------------------------------
    1 Atom    -14.738761
    2 Atom    -14.725273
    3 Atom    -14.763326
    4 Atom    -14.784215
    5 Atom    -14.774886
    6 Atom     -1.101245
    7 Atom     -1.086923
    8 Atom     -1.003994
    9 Atom    -14.776740
   10 Atom    -14.782346
   11 Atom     -1.115753
   12 Atom     -1.105757
   13 Atom    -14.782510
   14 Atom    -14.778840
   15 Atom     -1.115225
   16 Atom     -1.115830
   17 Atom     -1.112754
   18 Atom    -18.345681
 -----------------------------------------------------------------
 ******************************Gaussian NBO Version 3.1******************************
             N A T U R A L   A T O M I C   O R B I T A L   A N D
          N A T U R A L   B O N D   O R B I T A L   A N A L Y S I S
 ******************************Gaussian NBO Version 3.1******************************
       /RESON  / : Allow strongly delocalized NBO set

 Analyzing the SCF density

 Job title: Table5_8                                                        

 Storage needed:    216730 in NPA ( 104855836 available)


 NATURAL POPULATIONS:  Natural atomic orbital occupancies 
                                                          
   NAO  Atom  No  lang   Type(AO)    Occupancy
 --------------------------------------------
     1    C    1  S      Cor( 1S)     1.99920
     2    C    1  S      Val( 2S)     0.91516
     3    C    1  S      Ryd( 3S)     0.00178
     4    C    1  S      Ryd( 4S)     0.00024
     5    C    1  S      Ryd( 5S)     0.00001
     6    C    1  px     Val( 2p)     0.95233
     7    C    1  px     Ryd( 3p)     0.00553
     8    C    1  px     Ryd( 4p)     0.00035
     9    C    1  px     Ryd( 5p)     0.00008
    10    C    1  py     Val( 2p)     1.05988
    11    C    1  py     Ryd( 3p)     0.00569
    12    C    1  py     Ryd( 4p)     0.00063
    13    C    1  py     Ryd( 5p)     0.00017
    14    C    1  pz     Val( 2p)     1.06256
    15    C    1  pz     Ryd( 3p)     0.00554
    16    C    1  pz     Ryd( 4p)     0.00069
    17    C    1  pz     Ryd( 5p)     0.00004
    18    C    1  dxy    Ryd( 3d)     0.00110
    19    C    1  dxz    Ryd( 3d)     0.00077
    20    C    1  dyz    Ryd( 3d)     0.00082
    21    C    1  dx2y2  Ryd( 3d)     0.00074
    22    C    1  dz2    Ryd( 3d)     0.00051

    23    C    2  S      Cor( 1S)     1.99894
    24    C    2  S      Val( 2S)     0.82612
    25    C    2  S      Ryd( 3S)     0.00102
    26    C    2  S      Ryd( 4S)     0.00015
    27    C    2  S      Ryd( 5S)     0.00002
    28    C    2  px     Val( 2p)     0.93620
    29    C    2  px     Ryd( 3p)     0.00563
    30    C    2  px     Ryd( 4p)     0.00031
    31    C    2  px     Ryd( 5p)     0.00011
    32    C    2  py     Val( 2p)     1.04467
    33    C    2  py     Ryd( 3p)     0.00602
    34    C    2  py     Ryd( 4p)     0.00021
    35    C    2  py     Ryd( 5p)     0.00012
    36    C    2  pz     Val( 2p)     0.98969
    37    C    2  pz     Ryd( 3p)     0.00087
    38    C    2  pz     Ryd( 4p)     0.00045
    39    C    2  pz     Ryd( 5p)     0.00001
    40    C    2  dxy    Ryd( 3d)     0.00107
    41    C    2  dxz    Ryd( 3d)     0.00138
    42    C    2  dyz    Ryd( 3d)     0.00070
    43    C    2  dx2y2  Ryd( 3d)     0.00091
    44    C    2  dz2    Ryd( 3d)     0.00046

    45    C    3  S      Cor( 1S)     1.99899
    46    C    3  S      Val( 2S)     0.87476
    47    C    3  S      Ryd( 3S)     0.00083
    48    C    3  S      Ryd( 4S)     0.00010
    49    C    3  S      Ryd( 5S)     0.00001
    50    C    3  px     Val( 2p)     1.11121
    51    C    3  px     Ryd( 3p)     0.00552
    52    C    3  px     Ryd( 4p)     0.00020
    53    C    3  px     Ryd( 5p)     0.00009
    54    C    3  py     Val( 2p)     1.07339
    55    C    3  py     Ryd( 3p)     0.00524
    56    C    3  py     Ryd( 4p)     0.00043
    57    C    3  py     Ryd( 5p)     0.00009
    58    C    3  pz     Val( 2p)     1.00514
    59    C    3  pz     Ryd( 3p)     0.00048
    60    C    3  pz     Ryd( 4p)     0.00030
    61    C    3  pz     Ryd( 5p)     0.00002
    62    C    3  dxy    Ryd( 3d)     0.00063
    63    C    3  dxz    Ryd( 3d)     0.00100
    64    C    3  dyz    Ryd( 3d)     0.00049
    65    C    3  dx2y2  Ryd( 3d)     0.00088
    66    C    3  dz2    Ryd( 3d)     0.00041

    67    C    4  S      Cor( 1S)     1.99915
    68    C    4  S      Val( 2S)     0.94129
    69    C    4  S      Ryd( 3S)     0.00151
    70    C    4  S      Ryd( 4S)     0.00014
    71    C    4  S      Ryd( 5S)     0.00001
    72    C    4  px     Val( 2p)     1.02854
    73    C    4  px     Ryd( 3p)     0.00455
    74    C    4  px     Ryd( 4p)     0.00053
    75    C    4  px     Ryd( 5p)     0.00016
    76    C    4  py     Val( 2p)     1.16024
    77    C    4  py     Ryd( 3p)     0.00607
    78    C    4  py     Ryd( 4p)     0.00037
    79    C    4  py     Ryd( 5p)     0.00005
    80    C    4  pz     Val( 2p)     1.08408
    81    C    4  pz     Ryd( 3p)     0.00551
    82    C    4  pz     Ryd( 4p)     0.00033
    83    C    4  pz     Ryd( 5p)     0.00005
    84    C    4  dxy    Ryd( 3d)     0.00062
    85    C    4  dxz    Ryd( 3d)     0.00044
    86    C    4  dyz    Ryd( 3d)     0.00035
    87    C    4  dx2y2  Ryd( 3d)     0.00071
    88    C    4  dz2    Ryd( 3d)     0.00045

    89    C    5  S      Cor( 1S)     1.99917
    90    C    5  S      Val( 2S)     0.95156
    91    C    5  S      Ryd( 3S)     0.00177
    92    C    5  S      Ryd( 4S)     0.00011
    93    C    5  S      Ryd( 5S)     0.00000
    94    C    5  px     Val( 2p)     1.15971
    95    C    5  px     Ryd( 3p)     0.00515
    96    C    5  px     Ryd( 4p)     0.00035
    97    C    5  px     Ryd( 5p)     0.00008
    98    C    5  py     Val( 2p)     1.09014
    99    C    5  py     Ryd( 3p)     0.00500
   100    C    5  py     Ryd( 4p)     0.00036
   101    C    5  py     Ryd( 5p)     0.00014
   102    C    5  pz     Val( 2p)     1.03357
   103    C    5  pz     Ryd( 3p)     0.00190
   104    C    5  pz     Ryd( 4p)     0.00029
   105    C    5  pz     Ryd( 5p)     0.00004
   106    C    5  dxy    Ryd( 3d)     0.00058
   107    C    5  dxz    Ryd( 3d)     0.00052
   108    C    5  dyz    Ryd( 3d)     0.00077
   109    C    5  dx2y2  Ryd( 3d)     0.00074
   110    C    5  dz2    Ryd( 3d)     0.00044

   111    H    6  S      Val( 1S)     0.79794
   112    H    6  S      Ryd( 2S)     0.00086
   113    H    6  S      Ryd( 3S)     0.00019
   114    H    6  px     Ryd( 2p)     0.00010
   115    H    6  py     Ryd( 2p)     0.00042
   116    H    6  pz     Ryd( 2p)     0.00022

   117    H    7  S      Val( 1S)     0.79855
   118    H    7  S      Ryd( 2S)     0.00041
   119    H    7  S      Ryd( 3S)     0.00018
   120    H    7  px     Ryd( 2p)     0.00036
   121    H    7  py     Ryd( 2p)     0.00018
   122    H    7  pz     Ryd( 2p)     0.00034

   123    H    8  S      Val( 1S)     0.60520
   124    H    8  S      Ryd( 2S)     0.00200
   125    H    8  S      Ryd( 3S)     0.00038
   126    H    8  px     Ryd( 2p)     0.00016
   127    H    8  py     Ryd( 2p)     0.00047
   128    H    8  pz     Ryd( 2p)     0.00067

   129    C    9  S      Cor( 1S)     1.99908
   130    C    9  S      Val( 2S)     0.93559
   131    C    9  S      Ryd( 3S)     0.00166
   132    C    9  S      Ryd( 4S)     0.00012
   133    C    9  S      Ryd( 5S)     0.00001
   134    C    9  px     Val( 2p)     1.06238
   135    C    9  px     Ryd( 3p)     0.00411
   136    C    9  px     Ryd( 4p)     0.00049
   137    C    9  px     Ryd( 5p)     0.00015
   138    C    9  py     Val( 2p)     1.16702
   139    C    9  py     Ryd( 3p)     0.00571
   140    C    9  py     Ryd( 4p)     0.00022
   141    C    9  py     Ryd( 5p)     0.00007
   142    C    9  pz     Val( 2p)     1.07524
   143    C    9  pz     Ryd( 3p)     0.00151
   144    C    9  pz     Ryd( 4p)     0.00046
   145    C    9  pz     Ryd( 5p)     0.00002
   146    C    9  dxy    Ryd( 3d)     0.00063
   147    C    9  dxz    Ryd( 3d)     0.00056
   148    C    9  dyz    Ryd( 3d)     0.00038
   149    C    9  dx2y2  Ryd( 3d)     0.00068
   150    C    9  dz2    Ryd( 3d)     0.00043

   151    C   10  S      Cor( 1S)     1.99911
   152    C   10  S      Val( 2S)     0.93637
   153    C   10  S      Ryd( 3S)     0.00156
   154    C   10  S      Ryd( 4S)     0.00011
   155    C   10  S      Ryd( 5S)     0.00001
   156    C   10  px     Val( 2p)     1.05096
   157    C   10  px     Ryd( 3p)     0.00401
   158    C   10  px     Ryd( 4p)     0.00053
   159    C   10  px     Ryd( 5p)     0.00015
   160    C   10  py     Val( 2p)     1.16788
   161    C   10  py     Ryd( 3p)     0.00631
   162    C   10  py     Ryd( 4p)     0.00027
   163    C   10  py     Ryd( 5p)     0.00005
   164    C   10  pz     Val( 2p)     1.02640
   165    C   10  pz     Ryd( 3p)     0.00162
   166    C   10  pz     Ryd( 4p)     0.00039
   167    C   10  pz     Ryd( 5p)     0.00003
   168    C   10  dxy    Ryd( 3d)     0.00061
   169    C   10  dxz    Ryd( 3d)     0.00051
   170    C   10  dyz    Ryd( 3d)     0.00037
   171    C   10  dx2y2  Ryd( 3d)     0.00076
   172    C   10  dz2    Ryd( 3d)     0.00041

   173    H   11  S      Val( 1S)     0.79496
   174    H   11  S      Ryd( 2S)     0.00076
   175    H   11  S      Ryd( 3S)     0.00020
   176    H   11  px     Ryd( 2p)     0.00011
   177    H   11  py     Ryd( 2p)     0.00043
   178    H   11  pz     Ryd( 2p)     0.00024

   179    H   12  S      Val( 1S)     0.78420
   180    H   12  S      Ryd( 2S)     0.00059
   181    H   12  S      Ryd( 3S)     0.00018
   182    H   12  px     Ryd( 2p)     0.00036
   183    H   12  py     Ryd( 2p)     0.00018
   184    H   12  pz     Ryd( 2p)     0.00020

   185    C   13  S      Cor( 1S)     1.99916
   186    C   13  S      Val( 2S)     0.94753
   187    C   13  S      Ryd( 3S)     0.00150
   188    C   13  S      Ryd( 4S)     0.00013
   189    C   13  S      Ryd( 5S)     0.00000
   190    C   13  px     Val( 2p)     1.14601
   191    C   13  px     Ryd( 3p)     0.00613
   192    C   13  px     Ryd( 4p)     0.00036
   193    C   13  px     Ryd( 5p)     0.00008
   194    C   13  py     Val( 2p)     1.08769
   195    C   13  py     Ryd( 3p)     0.00516
   196    C   13  py     Ryd( 4p)     0.00043
   197    C   13  py     Ryd( 5p)     0.00014
   198    C   13  pz     Val( 2p)     1.01725
   199    C   13  pz     Ryd( 3p)     0.00154
   200    C   13  pz     Ryd( 4p)     0.00032
   201    C   13  pz     Ryd( 5p)     0.00002
   202    C   13  dxy    Ryd( 3d)     0.00075
   203    C   13  dxz    Ryd( 3d)     0.00047
   204    C   13  dyz    Ryd( 3d)     0.00052
   205    C   13  dx2y2  Ryd( 3d)     0.00068
   206    C   13  dz2    Ryd( 3d)     0.00040

   207    C   14  S      Cor( 1S)     1.99918
   208    C   14  S      Val( 2S)     0.94783
   209    C   14  S      Ryd( 3S)     0.00143
   210    C   14  S      Ryd( 4S)     0.00011
   211    C   14  S      Ryd( 5S)     0.00000
   212    C   14  px     Val( 2p)     1.13236
   213    C   14  px     Ryd( 3p)     0.00589
   214    C   14  px     Ryd( 4p)     0.00039
   215    C   14  px     Ryd( 5p)     0.00009
   216    C   14  py     Val( 2p)     1.09085
   217    C   14  py     Ryd( 3p)     0.00542
   218    C   14  py     Ryd( 4p)     0.00039
   219    C   14  py     Ryd( 5p)     0.00013
   220    C   14  pz     Val( 2p)     1.01427
   221    C   14  pz     Ryd( 3p)     0.00203
   222    C   14  pz     Ryd( 4p)     0.00035
   223    C   14  pz     Ryd( 5p)     0.00003
   224    C   14  dxy    Ryd( 3d)     0.00077
   225    C   14  dxz    Ryd( 3d)     0.00048
   226    C   14  dyz    Ryd( 3d)     0.00050
   227    C   14  dx2y2  Ryd( 3d)     0.00064
   228    C   14  dz2    Ryd( 3d)     0.00041

   229    H   15  S      Val( 1S)     0.79475
   230    H   15  S      Ryd( 2S)     0.00084
   231    H   15  S      Ryd( 3S)     0.00016
   232    H   15  px     Ryd( 2p)     0.00013
   233    H   15  py     Ryd( 2p)     0.00043
   234    H   15  pz     Ryd( 2p)     0.00021

   235    H   16  S      Val( 1S)     0.79306
   236    H   16  S      Ryd( 2S)     0.00056
   237    H   16  S      Ryd( 3S)     0.00017
   238    H   16  px     Ryd( 2p)     0.00034
   239    H   16  py     Ryd( 2p)     0.00018
   240    H   16  pz     Ryd( 2p)     0.00022

   241    H   17  S      Val( 1S)     0.79349
   242    H   17  S      Ryd( 2S)     0.00053
   243    H   17  S      Ryd( 3S)     0.00017
   244    H   17  px     Ryd( 2p)     0.00034
   245    H   17  py     Ryd( 2p)     0.00019
   246    H   17  pz     Ryd( 2p)     0.00024

   247    N   18  S      Cor( 1S)     1.99933
   248    N   18  S      Val( 2S)     1.22296
   249    N   18  S      Ryd( 3S)     0.00050
   250    N   18  S      Ryd( 4S)     0.00011
   251    N   18  S      Ryd( 5S)     0.00000
   252    N   18  px     Val( 2p)     1.29233
   253    N   18  px     Ryd( 3p)     0.00197
   254    N   18  px     Ryd( 4p)     0.00034
   255    N   18  px     Ryd( 5p)     0.00005
   256    N   18  py     Val( 2p)     1.37382
   257    N   18  py     Ryd( 3p)     0.00376
   258    N   18  py     Ryd( 4p)     0.00058
   259    N   18  py     Ryd( 5p)     0.00002
   260    N   18  pz     Val( 2p)     1.64657
   261    N   18  pz     Ryd( 3p)     0.00564
   262    N   18  pz     Ryd( 4p)     0.00069
   263    N   18  pz     Ryd( 5p)     0.00001
   264    N   18  dxy    Ryd( 3d)     0.00064
   265    N   18  dxz    Ryd( 3d)     0.00051
   266    N   18  dyz    Ryd( 3d)     0.00017
   267    N   18  dx2y2  Ryd( 3d)     0.00089
   268    N   18  dz2    Ryd( 3d)     0.00063

 WARNING:  1 low occupancy (<1.9990e) core orbital  found on  C    2
           1 low occupancy (<1.9990e) core orbital  found on  C    3


 Summary of Natural Population Analysis:                  
                                                          
                                       Natural Population 
                Natural  -----------------------------------------------
    Atom  No    Charge         Core      Valence    Rydberg      Total
 -----------------------------------------------------------------------
      C    1   -0.01384      1.99920     3.98994    0.02470     6.01384
      C    2    0.18495      1.99894     3.79667    0.01944     5.81505
      C    3   -0.08023      1.99899     4.06451    0.01673     6.08023
      C    4   -0.23516      1.99915     4.21415    0.02186     6.23516
      C    5   -0.25238      1.99917     4.23498    0.01823     6.25238
      H    6    0.20026      0.00000     0.79794    0.00180     0.79974
      H    7    0.19998      0.00000     0.79855    0.00147     0.80002
      H    8    0.39111      0.00000     0.60520    0.00369     0.60889
      C    9   -0.25651      1.99908     4.24022    0.01720     6.25651
      C   10   -0.19841      1.99911     4.18161    0.01769     6.19841
      H   11    0.20331      0.00000     0.79496    0.00174     0.79669
      H   12    0.21430      0.00000     0.78420    0.00150     0.78570
      C   13   -0.21629      1.99916     4.19848    0.01864     6.21629
      C   14   -0.20355      1.99918     4.18531    0.01906     6.20355
      H   15    0.20349      0.00000     0.79475    0.00177     0.79651
      H   16    0.20546      0.00000     0.79306    0.00148     0.79454
      H   17    0.20504      0.00000     0.79349    0.00148     0.79496
      N   18   -0.55152      1.99933     5.53568    0.01651     7.55152
 =======================================================================
   * Total *    0.00000     19.99131    48.80371    0.20498    69.00000

                                 Natural Population      
 --------------------------------------------------------
   Core                      19.99131 ( 99.9565% of  20)
   Valence                   48.80371 ( 99.5994% of  49)
   Natural Minimal Basis     68.79502 ( 99.7029% of  69)
   Natural Rydberg Basis      0.20498 (  0.2971% of  69)
 --------------------------------------------------------

    Atom  No          Natural Electron Configuration
 ----------------------------------------------------------------------------
      C    1      [core]2S( 0.92)2p( 3.07)3p( 0.02)
      C    2      [core]2S( 0.83)2p( 2.97)3p( 0.01)
      C    3      [core]2S( 0.87)2p( 3.19)3p( 0.01)
      C    4      [core]2S( 0.94)2p( 3.27)3p( 0.02)
      C    5      [core]2S( 0.95)2p( 3.28)3p( 0.01)
      H    6            1S( 0.80)
      H    7            1S( 0.80)
      H    8            1S( 0.61)
      C    9      [core]2S( 0.94)2p( 3.30)3p( 0.01)
      C   10      [core]2S( 0.94)2p( 3.25)3p( 0.01)
      H   11            1S( 0.79)
      H   12            1S( 0.78)
      C   13      [core]2S( 0.95)2p( 3.25)3p( 0.01)
      C   14      [core]2S( 0.95)2p( 3.24)3p( 0.01)
      H   15            1S( 0.79)
      H   16            1S( 0.79)
      H   17            1S( 0.79)
      N   18      [core]2S( 1.22)2p( 4.31)3p( 0.01)


 ***************************************************
 *******         Alpha spin orbitals         *******
 ***************************************************


[...]
    20    C    1  dyz    Ryd( 3d)     0.00035       1.65781
    21    C    1  dx2y2  Ryd( 3d)     0.00036       2.52796
    22    C    1  dz2    Ryd( 3d)     0.00033       2.03317

    23    C    2  S      Cor( 1S)     0.99947     -10.07984
    24    C    2  S      Val( 2S)     0.41260      -0.11460
    25    C    2  S      Ryd( 4S)     0.00050       0.86628
    26    C    2  S      Ryd( 3S)     0.00008       0.47809
    27    C    2  S      Ryd( 5S)     0.00001      23.00950
    28    C    2  px     Val( 2p)     0.46944      -0.03903
    29    C    2  px     Ryd( 4p)     0.00278       1.23268
    30    C    2  px     Ryd( 3p)     0.00015       0.53434
    31    C    2  px     Ryd( 5p)     0.00006       3.12056
    32    C    2  py     Val( 2p)     0.52219      -0.05225
    33    C    2  py     Ryd( 4p)     0.00301       1.29560
    34    C    2  py     Ryd( 3p)     0.00010       0.41954
    35    C    2  py     Ryd( 5p)     0.00006       2.96898
    36    C    2  pz     Val( 2p)     0.47465      -0.11023
    37    C    2  pz     Ryd( 4p)     0.00030       0.61716
    38    C    2  pz     Ryd( 3p)     0.00020       0.34692
    39    C    2  pz     Ryd( 5p)     0.00001       2.65150
    40    C    2  dxy    Ryd( 3d)     0.00054       2.55979
    41    C    2  dxz    Ryd( 3d)     0.00053       1.63116
    42    C    2  dyz    Ryd( 3d)     0.00035       1.63454
    43    C    2  dx2y2  Ryd( 3d)     0.00045       2.60058
    44    C    2  dz2    Ryd( 3d)     0.00024       2.08172

    45    C    3  S      Cor( 1S)     0.99950     -10.03667
    46    C    3  S      Val( 2S)     0.44023      -0.12160
    47    C    3  S      Ryd( 3S)     0.00041       0.64358
    48    C    3  S      Ryd( 4S)     0.00005       1.38462
    49    C    3  S      Ryd( 5S)     0.00001      22.56848
    50    C    3  px     Val( 2p)     0.55942      -0.06107
    51    C    3  px     Ryd( 4p)     0.00275       1.36663
    52    C    3  px     Ryd( 3p)     0.00010       0.79892
    53    C    3  px     Ryd( 5p)     0.00005       3.15626
    54    C    3  py     Val( 2p)     0.53890      -0.05284
    55    C    3  py     Ryd( 4p)     0.00259       1.22074
    56    C    3  py     Ryd( 3p)     0.00022       0.60787
    57    C    3  py     Ryd( 5p)     0.00005       3.15248
    58    C    3  pz     Val( 2p)     0.52746      -0.10471
    59    C    3  pz     Ryd( 3p)     0.00017       0.59106
    60    C    3  pz     Ryd( 4p)     0.00016       0.59559
    61    C    3  pz     Ryd( 5p)     0.00001       2.51221
    62    C    3  dxy    Ryd( 3d)     0.00033       2.56034
    63    C    3  dxz    Ryd( 3d)     0.00027       1.66863
    64    C    3  dyz    Ryd( 3d)     0.00019       1.65326
    65    C    3  dx2y2  Ryd( 3d)     0.00045       2.67457
    66    C    3  dz2    Ryd( 3d)     0.00020       2.14291

    67    C    4  S      Cor( 1S)     0.99957     -10.01946
    68    C    4  S      Val( 2S)     0.46170      -0.13584
    69    C    4  S      Ryd( 3S)     0.00075       0.81182
    70    C    4  S      Ryd( 4S)     0.00007       0.82854
    71    C    4  S      Ryd( 5S)     0.00001      22.97541
    72    C    4  px     Val( 2p)     0.50970      -0.02471
    73    C    4  px     Ryd( 4p)     0.00228       0.71702
    74    C    4  px     Ryd( 3p)     0.00026       0.47676
    75    C    4  px     Ryd( 5p)     0.00008       3.17862
    76    C    4  py     Val( 2p)     0.57555      -0.03845
    77    C    4  py     Ryd( 4p)     0.00302       1.07289
    78    C    4  py     Ryd( 3p)     0.00018       0.50761
    79    C    4  py     Ryd( 5p)     0.00002       3.08606
    80    C    4  pz     Val( 2p)     0.34235      -0.06293
    81    C    4  pz     Ryd( 4p)     0.00010       0.47791
    82    C    4  pz     Ryd( 3p)     0.00014       0.34363
    83    C    4  pz     Ryd( 5p)     0.00001       2.75127
    84    C    4  dxy    Ryd( 3d)     0.00030       2.56694
    85    C    4  dxz    Ryd( 3d)     0.00024       1.68728
    86    C    4  dyz    Ryd( 3d)     0.00020       1.63439
    87    C    4  dx2y2  Ryd( 3d)     0.00034       2.48982
    88    C    4  dz2    Ryd( 3d)     0.00032       2.07352

    89    C    5  S      Cor( 1S)     0.99958     -10.02962
    90    C    5  S      Val( 2S)     0.47952      -0.16627
    91    C    5  S      Ryd( 3S)     0.00088       0.70669
    92    C    5  S      Ryd( 4S)     0.00005       1.09370
    93    C    5  S      Ryd( 5S)     0.00000      22.76897
    94    C    5  px     Val( 2p)     0.58301      -0.05360
    95    C    5  px     Ryd( 4p)     0.00256       1.00511
    96    C    5  px     Ryd( 3p)     0.00018       0.34607
    97    C    5  px     Ryd( 5p)     0.00004       3.12110
    98    C    5  py     Val( 2p)     0.54961      -0.05610
    99    C    5  py     Ryd( 4p)     0.00248       0.84510
   100    C    5  py     Ryd( 3p)     0.00018       0.38051
   101    C    5  py     Ryd( 5p)     0.00007       3.10435
   102    C    5  pz     Val( 2p)     0.55622      -0.11526
   103    C    5  pz     Ryd( 4p)     0.00089       0.50549
   104    C    5  pz     Ryd( 3p)     0.00010       0.31758
   105    C    5  pz     Ryd( 5p)     0.00002       2.68398
   106    C    5  dxy    Ryd( 3d)     0.00030       2.51599
   107    C    5  dxz    Ryd( 3d)     0.00017       1.62303
   108    C    5  dyz    Ryd( 3d)     0.00012       1.67213
   109    C    5  dx2y2  Ryd( 3d)     0.00038       2.60671
   110    C    5  dz2    Ryd( 3d)     0.00022       2.04676

   111    H    6  S      Val( 1S)     0.39934       0.03327
   112    H    6  S      Ryd( 2S)     0.00043       0.86020
   113    H    6  S      Ryd( 3S)     0.00010       1.84468
   114    H    6  px     Ryd( 2p)     0.00005       2.01158
   115    H    6  py     Ryd( 2p)     0.00021       2.72022
   116    H    6  pz     Ryd( 2p)     0.00011       1.59866

   117    H    7  S      Val( 1S)     0.40431       0.02212
   118    H    7  S      Ryd( 2S)     0.00021       0.63949
   119    H    7  S      Ryd( 3S)     0.00009       2.05781
   120    H    7  px     Ryd( 2p)     0.00019       2.45907
   121    H    7  py     Ryd( 2p)     0.00010       2.19948
   122    H    7  pz     Ryd( 2p)     0.00008       1.58567

   123    H    8  S      Val( 1S)     0.30522       0.05935
   124    H    8  S      Ryd( 2S)     0.00100       0.43347
   125    H    8  S      Ryd( 3S)     0.00019       2.14234
   126    H    8  px     Ryd( 2p)     0.00008       1.99638
   127    H    8  py     Ryd( 2p)     0.00025       2.69643
   128    H    8  pz     Ryd( 2p)     0.00026       1.56492

   129    C    9  S      Cor( 1S)     0.99954     -10.02566
   130    C    9  S      Val( 2S)     0.46776      -0.15232
   131    C    9  S      Ryd( 3S)     0.00082       0.84138
   132    C    9  S      Ryd( 4S)     0.00006       1.30575
   133    C    9  S      Ryd( 5S)     0.00000      22.34723
   134    C    9  px     Val( 2p)     0.53197      -0.04846
   135    C    9  px     Ryd( 4p)     0.00205       0.86730
   136    C    9  px     Ryd( 3p)     0.00024       0.38063
   137    C    9  px     Ryd( 5p)     0.00008       3.10149
   138    C    9  py     Val( 2p)     0.58359      -0.05849
   139    C    9  py     Ryd( 4p)     0.00284       1.11210
   140    C    9  py     Ryd( 3p)     0.00011       0.34804
   141    C    9  py     Ryd( 5p)     0.00003       3.09540
   142    C    9  pz     Val( 2p)     0.52699      -0.10867
   143    C    9  pz     Ryd( 4p)     0.00066       0.52738
   144    C    9  pz     Ryd( 3p)     0.00025       0.27481
   145    C    9  pz     Ryd( 5p)     0.00001       2.71360
   146    C    9  dxy    Ryd( 3d)     0.00032       2.60465
   147    C    9  dxz    Ryd( 3d)     0.00023       1.68182
   148    C    9  dyz    Ryd( 3d)     0.00018       1.62023
   149    C    9  dx2y2  Ryd( 3d)     0.00034       2.51607
   150    C    9  dz2    Ryd( 3d)     0.00023       2.08530

   151    C   10  S      Cor( 1S)     0.99955     -10.01994
   152    C   10  S      Val( 2S)     0.46548      -0.14042
   153    C   10  S      Ryd( 3S)     0.00078       0.87540
   154    C   10  S      Ryd( 4S)     0.00005       0.97617
   155    C   10  S      Ryd( 5S)     0.00001      22.71334
   156    C   10  px     Val( 2p)     0.52403      -0.03088
   157    C   10  px     Ryd( 4p)     0.00200       0.80686
   158    C   10  px     Ryd( 3p)     0.00026       0.42015
   159    C   10  px     Ryd( 5p)     0.00007       3.17643
   160    C   10  py     Val( 2p)     0.58245      -0.04522
   161    C   10  py     Ryd( 4p)     0.00315       1.11390
   162    C   10  py     Ryd( 3p)     0.00013       0.35090
   163    C   10  py     Ryd( 5p)     0.00003       3.19068
   164    C   10  pz     Val( 2p)     0.45541      -0.08918
   165    C   10  pz     Ryd( 4p)     0.00045       0.51896
   166    C   10  pz     Ryd( 3p)     0.00022       0.29987
   167    C   10  pz     Ryd( 5p)     0.00001       2.73384
   168    C   10  dxy    Ryd( 3d)     0.00030       2.59327
   169    C   10  dxz    Ryd( 3d)     0.00027       1.69404
   170    C   10  dyz    Ryd( 3d)     0.00017       1.62204
   171    C   10  dx2y2  Ryd( 3d)     0.00038       2.51790
   172    C   10  dz2    Ryd( 3d)     0.00023       2.07203

   173    H   11  S      Val( 1S)     0.40408       0.05142
   174    H   11  S      Ryd( 2S)     0.00039       0.83973
   175    H   11  S      Ryd( 3S)     0.00010       1.91153
   176    H   11  px     Ryd( 2p)     0.00006       2.01086
   177    H   11  py     Ryd( 2p)     0.00024       2.74160
   178    H   11  pz     Ryd( 2p)     0.00006       1.61602

   179    H   12  S      Val( 1S)     0.39081       0.04995
   180    H   12  S      Ryd( 2S)     0.00030       0.51862
   181    H   12  S      Ryd( 3S)     0.00009       2.19921
   182    H   12  px     Ryd( 2p)     0.00018       2.54515
   183    H   12  py     Ryd( 2p)     0.00009       2.15454
   184    H   12  pz     Ryd( 2p)     0.00011       1.59812

   185    C   13  S      Cor( 1S)     0.99958     -10.02168
   186    C   13  S      Val( 2S)     0.47465      -0.15169
   187    C   13  S      Ryd( 3S)     0.00075       0.78853
   188    C   13  S      Ryd( 4S)     0.00006       1.11745
   189    C   13  S      Ryd( 5S)     0.00000      22.68416
   190    C   13  px     Val( 2p)     0.57382      -0.04272
   191    C   13  px     Ryd( 4p)     0.00306       0.98467
   192    C   13  px     Ryd( 3p)     0.00018       0.32704
   193    C   13  px     Ryd( 5p)     0.00004       3.16184
   194    C   13  py     Val( 2p)     0.54527      -0.04004
   195    C   13  py     Ryd( 4p)     0.00257       0.83704
   196    C   13  py     Ryd( 3p)     0.00022       0.38224
   197    C   13  py     Ryd( 5p)     0.00007       3.11474
   198    C   13  pz     Val( 2p)     0.51453      -0.10108
   199    C   13  pz     Ryd( 4p)     0.00073       0.51261
   200    C   13  pz     Ryd( 3p)     0.00013       0.32233
   201    C   13  pz     Ryd( 5p)     0.00001       2.69343
   202    C   13  dxy    Ryd( 3d)     0.00038       2.53241
   203    C   13  dxz    Ryd( 3d)     0.00020       1.63599
   204    C   13  dyz    Ryd( 3d)     0.00019       1.67109
   205    C   13  dx2y2  Ryd( 3d)     0.00034       2.57284
   206    C   13  dz2    Ryd( 3d)     0.00020       2.06559

   207    C   14  S      Cor( 1S)     0.99959     -10.02520
   208    C   14  S      Val( 2S)     0.47183      -0.15080
   209    C   14  S      Ryd( 3S)     0.00071       0.84817
   210    C   14  S      Ryd( 4S)     0.00005       0.89595
   211    C   14  S      Ryd( 5S)     0.00000      22.89781
   212    C   14  px     Val( 2p)     0.56521      -0.04141
   213    C   14  px     Ryd( 4p)     0.00295       0.98020
   214    C   14  px     Ryd( 3p)     0.00019       0.35263
   215    C   14  px     Ryd( 5p)     0.00005       3.14370
   216    C   14  py     Val( 2p)     0.54466      -0.03989
   217    C   14  py     Ryd( 4p)     0.00271       0.82459
   218    C   14  py     Ryd( 3p)     0.00020       0.39111
   219    C   14  py     Ryd( 5p)     0.00007       3.12492
   220    C   14  pz     Val( 2p)     0.45837      -0.09248
   221    C   14  pz     Ryd( 4p)     0.00051       0.50575
   222    C   14  pz     Ryd( 3p)     0.00012       0.31239
   223    C   14  pz     Ryd( 5p)     0.00001       2.71007
   224    C   14  dxy    Ryd( 3d)     0.00038       2.52187
   225    C   14  dxz    Ryd( 3d)     0.00023       1.63666
   226    C   14  dyz    Ryd( 3d)     0.00023       1.66997
   227    C   14  dx2y2  Ryd( 3d)     0.00032       2.57320
   228    C   14  dz2    Ryd( 3d)     0.00023       2.06405

   229    H   15  S      Val( 1S)     0.39937       0.05059
   230    H   15  S      Ryd( 2S)     0.00043       0.80946
   231    H   15  S      Ryd( 3S)     0.00008       1.94740
   232    H   15  px     Ryd( 2p)     0.00006       2.01449
   233    H   15  py     Ryd( 2p)     0.00022       2.73171
   234    H   15  pz     Ryd( 2p)     0.00009       1.61165

   235    H   16  S      Val( 1S)     0.39635       0.05508
   236    H   16  S      Ryd( 2S)     0.00028       0.61659
   237    H   16  S      Ryd( 3S)     0.00008       2.14624
   238    H   16  px     Ryd( 2p)     0.00017       2.54023
   239    H   16  py     Ryd( 2p)     0.00009       2.16455
   240    H   16  pz     Ryd( 2p)     0.00010       1.60437

   241    H   17  S      Val( 1S)     0.39849       0.05200
   242    H   17  S      Ryd( 2S)     0.00027       0.62193
   243    H   17  S      Ryd( 3S)     0.00009       2.14491
   244    H   17  px     Ryd( 2p)     0.00017       2.51777
   245    H   17  py     Ryd( 2p)     0.00010       2.17895
   246    H   17  pz     Ryd( 2p)     0.00009       1.60203

   247    N   18  S      Cor( 1S)     0.99966     -14.18587
   248    N   18  S      Val( 2S)     0.60836      -0.52758
   249    N   18  S      Ryd( 4S)     0.00023       1.45068
   250    N   18  S      Ryd( 3S)     0.00005       0.91118
   251    N   18  S      Ryd( 5S)     0.00000      35.29518
   252    N   18  px     Val( 2p)     0.64580      -0.24628
   253    N   18  px     Ryd( 4p)     0.00097       0.98610
   254    N   18  px     Ryd( 3p)     0.00017       0.77646
   255    N   18  px     Ryd( 5p)     0.00002       4.42486
   256    N   18  py     Val( 2p)     0.68553      -0.24960
   257    N   18  py     Ryd( 4p)     0.00185       1.24487
   258    N   18  py     Ryd( 3p)     0.00029       0.85475
   259    N   18  py     Ryd( 5p)     0.00001       4.32343
   260    N   18  pz     Val( 2p)     0.74280      -0.24561
   261    N   18  pz     Ryd( 3p)     0.00095       0.49331
   262    N   18  pz     Ryd( 4p)     0.00036       0.60657
   263    N   18  pz     Ryd( 5p)     0.00000       3.82861
   264    N   18  dxy    Ryd( 3d)     0.00033       2.88134
   265    N   18  dxz    Ryd( 3d)     0.00025       2.20686
   266    N   18  dyz    Ryd( 3d)     0.00008       2.17652
   267    N   18  dx2y2  Ryd( 3d)     0.00044       2.96892
   268    N   18  dz2    Ryd( 3d)     0.00037       2.61355

 WARNING:  Population inversion found on atom  C    1
           Population inversion found on atom  C    2
           Population inversion found on atom  C    3
           Population inversion found on atom  C    4
           Population inversion found on atom  C    5
           Population inversion found on atom  C    9
           Population inversion found on atom  C   10
           Population inversion found on atom  C   13
           Population inversion found on atom  C   14
           Population inversion found on atom  N   18


 Summary of Natural Population Analysis:                  
                                                          
                                       Natural Population 
                Natural  -----------------------------------------------
    Atom  No    Charge         Core      Valence    Rydberg      Total
 -----------------------------------------------------------------------
      C    1    0.14820      0.99960     1.84239    0.00981     2.85180
      C    2    0.11228      0.99947     1.87887    0.00937     2.88772
      C    3   -0.07350      0.99950     2.06602    0.00799     3.07350
      C    4    0.10280      0.99957     1.88931    0.00832     2.89720
      C    5   -0.17660      0.99958     2.16837    0.00864     3.17660
      H    6    0.09975      0.00000     0.39934    0.00091     0.40025
      H    7    0.09501      0.00000     0.40431    0.00067     0.40499
      H    8    0.19299      0.00000     0.30522    0.00179     0.30701
      C    9   -0.11828      0.99954     2.11030    0.00844     3.11828
      C   10   -0.03544      0.99955     2.02737    0.00852     3.03544
      H   11    0.09507      0.00000     0.40408    0.00085     0.40493
      H   12    0.10843      0.00000     0.39081    0.00076     0.39157
      C   13   -0.11700      0.99958     2.10828    0.00914     3.11700
      C   14   -0.04862      0.99959     2.04008    0.00896     3.04862
      H   15    0.09974      0.00000     0.39937    0.00089     0.40026
      H   16    0.10292      0.00000     0.39635    0.00073     0.39708
      H   17    0.10080      0.00000     0.39849    0.00072     0.39920
      N   18   -0.18854      0.99966     2.68248    0.00639     3.68854
 =======================================================================
   * Total *    0.50000      9.99566    23.91144    0.09290    34.00000

                                 Natural Population      
 --------------------------------------------------------
   Core                       9.99566 ( 99.9566% of  10)
   Valence                   23.91144 ( 99.6310% of  24)
   Natural Minimal Basis     33.90710 ( 99.7268% of  34)
   Natural Rydberg Basis      0.09290 (  0.2732% of  34)
 --------------------------------------------------------

    Atom  No          Natural Electron Configuration
 ----------------------------------------------------------------------------
      C    1      [core]2S( 0.45)2p( 1.39)4p( 0.01)
      C    2      [core]2S( 0.41)2p( 1.47)4p( 0.01)
      C    3      [core]2S( 0.44)2p( 1.63)4p( 0.01)
      C    4      [core]2S( 0.46)2p( 1.43)4p( 0.01)
      C    5      [core]2S( 0.48)2p( 1.69)4p( 0.01)
      H    6            1S( 0.40)
      H    7            1S( 0.40)
      H    8            1S( 0.31)
      C    9      [core]2S( 0.47)2p( 1.64)4p( 0.01)
      C   10      [core]2S( 0.47)2p( 1.56)4p( 0.01)
      H   11            1S( 0.40)
      H   12            1S( 0.39)
      C   13      [core]2S( 0.47)2p( 1.63)4p( 0.01)
      C   14      [core]2S( 0.47)2p( 1.57)4p( 0.01)
      H   15            1S( 0.40)
      H   16            1S( 0.40)
      H   17            1S( 0.40)
      N   18      [core]2S( 0.61)2p( 2.07)


 NBO analysis skipped by request.
 1\1\GINC-COREV3-23-050\SP\UB3LYP\6-311+G(d,p)\C9H8N1(2)\ROOT\23-Jul-20
 21\0\\# b3lyp/6-311+g(d,p) geom=connectivity pop=(hirshfeld,chelpg,mbs
 ,npa)\\Table5_8\\0,2\C,0,-2.415366,-0.664433,0.\C,0,0.026297,-0.676386
 ,0.\C,0,0.022459,0.749884,0.\C,0,-1.232984,1.438362,0.\C,0,-2.430782,0
 .707345,0.\H,0,1.204044,-2.473613,0.\H,0,-3.30204,-1.28107,0.\H,0,-1.1
 98206,-2.341802,-0.000001\C,0,1.225068,-1.387993,0.\C,0,1.272009,1.401
 121,0.\H,0,-1.244582,2.52085,0.\H,0,-3.387121,1.215485,0.000001\C,0,2.
 465564,0.685967,0.\C,0,2.445569,-0.708588,0.\H,0,1.288212,2.485807,0.\
 H,0,3.411638,1.215021,0.\H,0,3.372202,-1.270313,0.\N,0,-1.201592,-1.33
 4577,0.\\Version=ES64L-G09RevD.01\State=2-A\HF=-402.6056386\S2=0.76771
 5\S2-1=0.\S2A=0.750216\RMSD=9.499e-09\Dipole=-0.3813159,-0.6761199,-0.
 0000003\Quadrupole=2.05461,4.8281219,-6.8827319,1.8883983,-0.0000007,0
 .0000039\PG=C01 [X(C9H8N1)]\\@


 A SUCCESSFUL PURSUIT OF SCIENCE MAKES A MAN THE
 BENEFACTOR OF ALL MANKIND OF EVERY AGE.
   --  JOSEPH PRIESTLEY, "EXPERIMENTS AND
 OBSERVATIONS ON DIFFERENT KINDS OF AIR", 1774
 Job cpu time:       0 days  0 hours 13 minutes  2.5 seconds.
 File lengths (MBytes):  RWF=    114 Int=      0 D2E=      0 Chk=      5 Scr=      1
 Normal termination of Gaussian 09 at Fri Jul 23 17:35:44 2021.
