 Entering Gaussian System, Link 0=g09
 Initial command:
 /cm/shared/apps/gaussian/g09revD.01/g09/l1.exe "//home/sweav003/HartwigDocs/IrCatSilyDir_One/G09-Table2_7.com.o9616052.tmp/Gau-152683.inp" -scrdir="//home/sweav003/HartwigDocs/IrCatSilyDir_One/G09-Table2_7.com.o9616052.tmp/"
 Entering Link 1 = /cm/shared/apps/gaussian/g09revD.01/g09/l1.exe PID=    152684.
  
 Copyright (c) 1988,1990,1992,1993,1995,1998,2003,2009,2013,
            Gaussian, Inc.  All Rights Reserved.
  
 This is part of the Gaussian(R) 09 program.  It is based on
 the Gaussian(R) 03 system (copyright 2003, Gaussian, Inc.),
 the Gaussian(R) 98 system (copyright 1998, Gaussian, Inc.),
 the Gaussian(R) 94 system (copyright 1995, Gaussian, Inc.),
 the Gaussian 92(TM) system (copyright 1992, Gaussian, Inc.),
 the Gaussian 90(TM) system (copyright 1990, Gaussian, Inc.),
 the Gaussian 88(TM) system (copyright 1988, Gaussian, Inc.),
 the Gaussian 86(TM) system (copyright 1986, Carnegie Mellon
 University), and the Gaussian 82(TM) system (copyright 1983,
 Carnegie Mellon University). Gaussian is a federally registered
 trademark of Gaussian, Inc.
  
 This software contains proprietary and confidential information,
 including trade secrets, belonging to Gaussian, Inc.
  
 This software is provided under written license and may be
 used, copied, transmitted, or stored only in accord with that
 written license.
  
 The following legend is applicable only to US Government
 contracts under FAR:
  
                    RESTRICTED RIGHTS LEGEND
  
 Use, reproduction and disclosure by the US Government is
 subject to restrictions as set forth in subparagraphs (a)
 and (c) of the Commercial Computer Software - Restricted
 Rights clause in FAR 52.227-19.
  
 Gaussian, Inc.
 340 Quinnipiac St., Bldg. 40, Wallingford CT 06492
  
  
 ---------------------------------------------------------------
 Warning -- This program may not be used in any manner that
 competes with the business of Gaussian, Inc. or will provide
 assistance to any competitor of Gaussian, Inc.  The licensee
 of this program is prohibited from giving any competitor of
 Gaussian, Inc. access to this program.  By using this program,
 the user acknowledges that Gaussian, Inc. is engaged in the
 business of creating and licensing software in the field of
 computational chemistry and represents and warrants to the
 licensee that it is not a competitor of Gaussian, Inc. and that
 it will not use this program in any manner prohibited above.
 ---------------------------------------------------------------
  

 Cite this work as:
 Gaussian 09, Revision D.01,
 M. J. Frisch, G. W. Trucks, H. B. Schlegel, G. E. Scuseria, 
 M. A. Robb, J. R. Cheeseman, G. Scalmani, V. Barone, B. Mennucci, 
 G. A. Petersson, H. Nakatsuji, M. Caricato, X. Li, H. P. Hratchian, 
 A. F. Izmaylov, J. Bloino, G. Zheng, J. L. Sonnenberg, M. Hada, 
 M. Ehara, K. Toyota, R. Fukuda, J. Hasegawa, M. Ishida, T. Nakajima, 
 Y. Honda, O. Kitao, H. Nakai, T. Vreven, J. A. Montgomery, Jr., 
 J. E. Peralta, F. Ogliaro, M. Bearpark, J. J. Heyd, E. Brothers, 
 K. N. Kudin, V. N. Staroverov, T. Keith, R. Kobayashi, J. Normand, 
 K. Raghavachari, A. Rendell, J. C. Burant, S. S. Iyengar, J. Tomasi, 
 M. Cossi, N. Rega, J. M. Millam, M. Klene, J. E. Knox, J. B. Cross, 
 V. Bakken, C. Adamo, J. Jaramillo, R. Gomperts, R. E. Stratmann, 
 O. Yazyev, A. J. Austin, R. Cammi, C. Pomelli, J. W. Ochterski, 
 R. L. Martin, K. Morokuma, V. G. Zakrzewski, G. A. Voth, 
 P. Salvador, J. J. Dannenberg, S. Dapprich, A. D. Daniels, 
 O. Farkas, J. B. Foresman, J. V. Ortiz, J. Cioslowski, 
 and D. J. Fox, Gaussian, Inc., Wallingford CT, 2013.
 
 ******************************************
 Gaussian 09:  ES64L-G09RevD.01 24-Apr-2013
                13-Oct-2021 
 ******************************************
 %mem=100MW
 %nprocshared=20
 Will use up to   20 processors via shared memory.
 %chk=Table2_7.chk
 ----------------------------------------------------------------------
 # opt freq b3lyp/6-311+g(d,p) pop=(npa,hirshfeld,chelpg,mbs) geom=conn
 ectivity
 ----------------------------------------------------------------------
 1/14=-1,18=20,19=15,26=3,38=1,57=2/1,3;
 2/9=110,12=2,17=6,18=5,40=1/2;
 3/5=4,6=6,7=111,11=2,16=1,25=1,30=1,71=1,74=-5/1,2,3;
 4//1;
 5/5=2,38=5/2;
 6/7=2,8=2,9=2,10=2,15=8,20=3,27=100,28=1,40=-1,79=1/1,2,7;
 7//1,2,3,16;
 1/14=-1,18=20,19=15,26=3/3(2);
 2/9=110/2;
 99//99;
 2/9=110/2;
 3/5=4,6=6,7=111,11=2,16=1,25=1,30=1,71=1,74=-5/1,2,3;
 4/5=5,16=3,69=1/1;
 5/5=2,38=5/2;
 7//1,2,3,16;
 1/14=-1,18=20,19=15,26=3/3(-5);
 2/9=110/2;
 6/7=2,8=2,9=2,10=2,15=8,19=2,20=3,27=100,28=1,40=-1,79=1/1,2,7;
 99/9=1/99;
 --------
 Table2_7
 --------
 Symbolic Z-matrix:
 Charge =  0 Multiplicity = 1
 C                    -3.05776  -0.00578  -0.55075 
 C                    -1.65716   0.02169  -0.58919 
 C                    -0.97277   1.21941  -0.34222 
 C                    -1.68899   2.38967  -0.05681 
 C                    -3.08959   2.3622   -0.01837 
 C                    -3.77398   1.16447  -0.26534 
 H                    -3.5803   -0.92027  -0.73932 
 C                     0.42783   1.24688  -0.38066 
 C                    -1.0046    3.58739   0.19017 
 H                    -4.84337   1.1435   -0.23599 
 C                     0.396     3.61486   0.15173 
 C                     1.11222   2.44461  -0.13368 
 H                    -1.55145   4.48091   0.40808 
 H                     0.91854   4.52935   0.34029 
 H                     2.18161   2.46558  -0.16303 
 Si                   -4.08107   3.98221   0.37674 
 H                    -3.32204   5.14888  -0.09618 
 C                    -4.35476   4.12194   2.29225 
 H                    -3.40637   4.15469   2.78659 
 H                    -4.90161   5.01545   2.51016 
 H                    -4.90726   3.27273   2.63648 
 C                    -5.80059   3.92282  -0.51955 
 H                    -6.34744   4.81634  -0.30163 
 H                    -5.64964   3.84576  -1.57604 
 H                    -6.35309   3.07362  -0.17532 
 H                    -1.11031  -0.87183  -0.80711 
 N                     1.17911   0.01934  -0.68004 
 C                     1.38649  -0.08653  -2.13148 
 H                     1.93899   0.76268  -2.47571 
 H                     1.93334  -0.98004  -2.3494 
 H                     0.4381   -0.11928  -2.62583 
 C                     2.48204   0.06434  -0.00089 
 H                     3.02889  -0.82917  -0.21881 
 H                     3.03454   0.91355  -0.34512 
 H                     2.33109   0.14141   1.0556 
 

 GradGradGradGradGradGradGradGradGradGradGradGradGradGradGradGradGradGrad
 Berny optimization.
 Initialization pass.
                           ----------------------------
                           !    Initial Parameters    !
                           ! (Angstroms and Degrees)  !
 --------------------------                            --------------------------
 ! Name  Definition              Value          Derivative Info.                !
 --------------------------------------------------------------------------------
 ! R1    R(1,2)                  1.4014         estimate D2E/DX2                !
 ! R2    R(1,6)                  1.4014         estimate D2E/DX2                !
 ! R3    R(1,7)                  1.07           estimate D2E/DX2                !
 ! R4    R(2,3)                  1.4014         estimate D2E/DX2                !
 ! R5    R(2,26)                 1.07           estimate D2E/DX2                !
 ! R6    R(3,4)                  1.4014         estimate D2E/DX2                !
 ! R7    R(3,8)                  1.4014         estimate D2E/DX2                !
 ! R8    R(4,5)                  1.4014         estimate D2E/DX2                !
 ! R9    R(4,9)                  1.4014         estimate D2E/DX2                !
 ! R10   R(5,6)                  1.4014         estimate D2E/DX2                !
 ! R11   R(5,16)                 1.94           estimate D2E/DX2                !
 ! R12   R(6,10)                 1.07           estimate D2E/DX2                !
 ! R13   R(8,12)                 1.4014         estimate D2E/DX2                !
 ! R14   R(8,27)                 1.47           estimate D2E/DX2                !
 ! R15   R(9,11)                 1.4014         estimate D2E/DX2                !
 ! R16   R(9,13)                 1.07           estimate D2E/DX2                !
 ! R17   R(11,12)                1.4014         estimate D2E/DX2                !
 ! R18   R(11,14)                1.07           estimate D2E/DX2                !
 ! R19   R(12,15)                1.07           estimate D2E/DX2                !
 ! R20   R(16,17)                1.47           estimate D2E/DX2                !
 ! R21   R(16,18)                1.94           estimate D2E/DX2                !
 ! R22   R(16,22)                1.94           estimate D2E/DX2                !
 ! R23   R(18,19)                1.07           estimate D2E/DX2                !
 ! R24   R(18,20)                1.07           estimate D2E/DX2                !
 ! R25   R(18,21)                1.07           estimate D2E/DX2                !
 ! R26   R(22,23)                1.07           estimate D2E/DX2                !
 ! R27   R(22,24)                1.07           estimate D2E/DX2                !
 ! R28   R(22,25)                1.07           estimate D2E/DX2                !
 ! R29   R(27,28)                1.47           estimate D2E/DX2                !
 ! R30   R(27,32)                1.47           estimate D2E/DX2                !
 ! R31   R(28,29)                1.07           estimate D2E/DX2                !
 ! R32   R(28,30)                1.07           estimate D2E/DX2                !
 ! R33   R(28,31)                1.07           estimate D2E/DX2                !
 ! R34   R(32,33)                1.07           estimate D2E/DX2                !
 ! R35   R(32,34)                1.07           estimate D2E/DX2                !
 ! R36   R(32,35)                1.07           estimate D2E/DX2                !
 ! A1    A(2,1,6)              120.0            estimate D2E/DX2                !
 ! A2    A(2,1,7)              120.0            estimate D2E/DX2                !
 ! A3    A(6,1,7)              120.0            estimate D2E/DX2                !
 ! A4    A(1,2,3)              120.0            estimate D2E/DX2                !
 ! A5    A(1,2,26)             120.0            estimate D2E/DX2                !
 ! A6    A(3,2,26)             120.0            estimate D2E/DX2                !
 ! A7    A(2,3,4)              120.0            estimate D2E/DX2                !
 ! A8    A(2,3,8)              120.0            estimate D2E/DX2                !
 ! A9    A(4,3,8)              120.0            estimate D2E/DX2                !
 ! A10   A(3,4,5)              120.0            estimate D2E/DX2                !
 ! A11   A(3,4,9)              120.0            estimate D2E/DX2                !
 ! A12   A(5,4,9)              120.0            estimate D2E/DX2                !
 ! A13   A(4,5,6)              120.0            estimate D2E/DX2                !
 ! A14   A(4,5,16)             120.0            estimate D2E/DX2                !
 ! A15   A(6,5,16)             120.0            estimate D2E/DX2                !
 ! A16   A(1,6,5)              120.0            estimate D2E/DX2                !
 ! A17   A(1,6,10)             120.0            estimate D2E/DX2                !
 ! A18   A(5,6,10)             120.0            estimate D2E/DX2                !
 ! A19   A(3,8,12)             120.0            estimate D2E/DX2                !
 ! A20   A(3,8,27)             120.0            estimate D2E/DX2                !
 ! A21   A(12,8,27)            120.0            estimate D2E/DX2                !
 ! A22   A(4,9,11)             120.0            estimate D2E/DX2                !
 ! A23   A(4,9,13)             120.0            estimate D2E/DX2                !
 ! A24   A(11,9,13)            120.0            estimate D2E/DX2                !
 ! A25   A(9,11,12)            120.0            estimate D2E/DX2                !
 ! A26   A(9,11,14)            120.0            estimate D2E/DX2                !
 ! A27   A(12,11,14)           120.0            estimate D2E/DX2                !
 ! A28   A(8,12,11)            120.0            estimate D2E/DX2                !
 ! A29   A(8,12,15)            120.0            estimate D2E/DX2                !
 ! A30   A(11,12,15)           120.0            estimate D2E/DX2                !
 ! A31   A(5,16,17)            109.4712         estimate D2E/DX2                !
 ! A32   A(5,16,18)            109.4712         estimate D2E/DX2                !
 ! A33   A(5,16,22)            109.4712         estimate D2E/DX2                !
 ! A34   A(17,16,18)           109.4712         estimate D2E/DX2                !
 ! A35   A(17,16,22)           109.4712         estimate D2E/DX2                !
 ! A36   A(18,16,22)           109.4712         estimate D2E/DX2                !
 ! A37   A(16,18,19)           109.4712         estimate D2E/DX2                !
 ! A38   A(16,18,20)           109.4712         estimate D2E/DX2                !
 ! A39   A(16,18,21)           109.4712         estimate D2E/DX2                !
 ! A40   A(19,18,20)           109.4712         estimate D2E/DX2                !
 ! A41   A(19,18,21)           109.4712         estimate D2E/DX2                !
 ! A42   A(20,18,21)           109.4712         estimate D2E/DX2                !
 ! A43   A(16,22,23)           109.4712         estimate D2E/DX2                !
 ! A44   A(16,22,24)           109.4712         estimate D2E/DX2                !
 ! A45   A(16,22,25)           109.4712         estimate D2E/DX2                !
 ! A46   A(23,22,24)           109.4712         estimate D2E/DX2                !
 ! A47   A(23,22,25)           109.4712         estimate D2E/DX2                !
 ! A48   A(24,22,25)           109.4712         estimate D2E/DX2                !
 ! A49   A(8,27,28)            109.4712         estimate D2E/DX2                !
 ! A50   A(8,27,32)            109.4712         estimate D2E/DX2                !
 ! A51   A(28,27,32)           109.4712         estimate D2E/DX2                !
 ! A52   A(27,28,29)           109.4712         estimate D2E/DX2                !
 ! A53   A(27,28,30)           109.4712         estimate D2E/DX2                !
 ! A54   A(27,28,31)           109.4712         estimate D2E/DX2                !
 ! A55   A(29,28,30)           109.4712         estimate D2E/DX2                !
 ! A56   A(29,28,31)           109.4712         estimate D2E/DX2                !
 ! A57   A(30,28,31)           109.4712         estimate D2E/DX2                !
 ! A58   A(27,32,33)           109.4712         estimate D2E/DX2                !
 ! A59   A(27,32,34)           109.4712         estimate D2E/DX2                !
 ! A60   A(27,32,35)           109.4712         estimate D2E/DX2                !
 ! A61   A(33,32,34)           109.4712         estimate D2E/DX2                !
 ! A62   A(33,32,35)           109.4712         estimate D2E/DX2                !
 ! A63   A(34,32,35)           109.4712         estimate D2E/DX2                !
 ! D1    D(6,1,2,3)              0.0            estimate D2E/DX2                !
 ! D2    D(6,1,2,26)          -179.9999         estimate D2E/DX2                !
 ! D3    D(7,1,2,3)           -179.9999         estimate D2E/DX2                !
 ! D4    D(7,1,2,26)             0.0003         estimate D2E/DX2                !
 ! D5    D(2,1,6,5)              0.0            estimate D2E/DX2                !
 ! D6    D(2,1,6,10)          -179.9999         estimate D2E/DX2                !
 ! D7    D(7,1,6,5)            179.9999         estimate D2E/DX2                !
 ! D8    D(7,1,6,10)             0.0            estimate D2E/DX2                !
 ! D9    D(1,2,3,4)              0.0            estimate D2E/DX2                !
 ! D10   D(1,2,3,8)            179.9999         estimate D2E/DX2                !
 ! D11   D(26,2,3,4)           179.9999         estimate D2E/DX2                !
 ! D12   D(26,2,3,8)            -0.0002         estimate D2E/DX2                !
 ! D13   D(2,3,4,5)              0.0            estimate D2E/DX2                !
 ! D14   D(2,3,4,9)            179.9999         estimate D2E/DX2                !
 ! D15   D(8,3,4,5)           -179.9999         estimate D2E/DX2                !
 ! D16   D(8,3,4,9)              0.0            estimate D2E/DX2                !
 ! D17   D(2,3,8,12)          -179.9999         estimate D2E/DX2                !
 ! D18   D(2,3,8,27)             0.0001         estimate D2E/DX2                !
 ! D19   D(4,3,8,12)             0.0            estimate D2E/DX2                !
 ! D20   D(4,3,8,27)          -180.0            estimate D2E/DX2                !
 ! D21   D(3,4,5,6)              0.0            estimate D2E/DX2                !
 ! D22   D(3,4,5,16)           180.0            estimate D2E/DX2                !
 ! D23   D(9,4,5,6)           -179.9999         estimate D2E/DX2                !
 ! D24   D(9,4,5,16)             0.0001         estimate D2E/DX2                !
 ! D25   D(3,4,9,11)             0.0            estimate D2E/DX2                !
 ! D26   D(3,4,9,13)           179.9999         estimate D2E/DX2                !
 ! D27   D(5,4,9,11)           180.0            estimate D2E/DX2                !
 ! D28   D(5,4,9,13)            -0.0002         estimate D2E/DX2                !
 ! D29   D(4,5,6,1)              0.0            estimate D2E/DX2                !
 ! D30   D(4,5,6,10)           179.9999         estimate D2E/DX2                !
 ! D31   D(16,5,6,1)           180.0            estimate D2E/DX2                !
 ! D32   D(16,5,6,10)           -0.0001         estimate D2E/DX2                !
 ! D33   D(4,5,16,17)           30.0            estimate D2E/DX2                !
 ! D34   D(4,5,16,18)          -90.0            estimate D2E/DX2                !
 ! D35   D(4,5,16,22)          150.0            estimate D2E/DX2                !
 ! D36   D(6,5,16,17)         -150.0            estimate D2E/DX2                !
 ! D37   D(6,5,16,18)           90.0            estimate D2E/DX2                !
 ! D38   D(6,5,16,22)          -30.0            estimate D2E/DX2                !
 ! D39   D(3,8,12,11)           -0.0001         estimate D2E/DX2                !
 ! D40   D(3,8,12,15)          179.9998         estimate D2E/DX2                !
 ! D41   D(27,8,12,11)         179.9999         estimate D2E/DX2                !
 ! D42   D(27,8,12,15)          -0.0002         estimate D2E/DX2                !
 ! D43   D(3,8,27,28)           90.0            estimate D2E/DX2                !
 ! D44   D(3,8,27,32)         -150.0            estimate D2E/DX2                !
 ! D45   D(12,8,27,28)         -90.0            estimate D2E/DX2                !
 ! D46   D(12,8,27,32)          30.0            estimate D2E/DX2                !
 ! D47   D(4,9,11,12)           -0.0002         estimate D2E/DX2                !
 ! D48   D(4,9,11,14)          179.9999         estimate D2E/DX2                !
 ! D49   D(13,9,11,12)        -180.0            estimate D2E/DX2                !
 ! D50   D(13,9,11,14)           0.0001         estimate D2E/DX2                !
 ! D51   D(9,11,12,8)            0.0002         estimate D2E/DX2                !
 ! D52   D(9,11,12,15)        -179.9998         estimate D2E/DX2                !
 ! D53   D(14,11,12,8)        -179.9998         estimate D2E/DX2                !
 ! D54   D(14,11,12,15)          0.0002         estimate D2E/DX2                !
 ! D55   D(5,16,18,19)          60.0            estimate D2E/DX2                !
 ! D56   D(5,16,18,20)         180.0            estimate D2E/DX2                !
 ! D57   D(5,16,18,21)         -60.0            estimate D2E/DX2                !
 ! D58   D(17,16,18,19)        -60.0            estimate D2E/DX2                !
 ! D59   D(17,16,18,20)         60.0            estimate D2E/DX2                !
 ! D60   D(17,16,18,21)        180.0            estimate D2E/DX2                !
 ! D61   D(22,16,18,19)        180.0            estimate D2E/DX2                !
 ! D62   D(22,16,18,20)        -60.0            estimate D2E/DX2                !
 ! D63   D(22,16,18,21)         60.0            estimate D2E/DX2                !
 ! D64   D(5,16,22,23)         180.0            estimate D2E/DX2                !
 ! D65   D(5,16,22,24)         -60.0            estimate D2E/DX2                !
 ! D66   D(5,16,22,25)          60.0            estimate D2E/DX2                !
 ! D67   D(17,16,22,23)        -60.0            estimate D2E/DX2                !
 ! D68   D(17,16,22,24)         60.0            estimate D2E/DX2                !
 ! D69   D(17,16,22,25)        180.0            estimate D2E/DX2                !
 ! D70   D(18,16,22,23)         60.0            estimate D2E/DX2                !
 ! D71   D(18,16,22,24)        180.0            estimate D2E/DX2                !
 ! D72   D(18,16,22,25)        -60.0            estimate D2E/DX2                !
 ! D73   D(8,27,28,29)          60.0            estimate D2E/DX2                !
 ! D74   D(8,27,28,30)         180.0            estimate D2E/DX2                !
 ! D75   D(8,27,28,31)         -60.0            estimate D2E/DX2                !
 ! D76   D(32,27,28,29)        -60.0            estimate D2E/DX2                !
 ! D77   D(32,27,28,30)         60.0            estimate D2E/DX2                !
 ! D78   D(32,27,28,31)        180.0            estimate D2E/DX2                !
 ! D79   D(8,27,32,33)        -180.0            estimate D2E/DX2                !
 ! D80   D(8,27,32,34)         -60.0            estimate D2E/DX2                !
 ! D81   D(8,27,32,35)          60.0            estimate D2E/DX2                !
 ! D82   D(28,27,32,33)        -60.0            estimate D2E/DX2                !
 ! D83   D(28,27,32,34)         60.0            estimate D2E/DX2                !
 ! D84   D(28,27,32,35)       -180.0            estimate D2E/DX2                !
 --------------------------------------------------------------------------------
 Trust Radius=3.00D-01 FncErr=1.00D-07 GrdErr=1.00D-06
 Number of steps in this run=    193 maximum allowed number of steps=    210.
 GradGradGradGradGradGradGradGradGradGradGradGradGradGradGradGradGradGrad

                          Input orientation:                          
 ---------------------------------------------------------------------
 Center     Atomic      Atomic             Coordinates (Angstroms)
 Number     Number       Type             X           Y           Z
 ---------------------------------------------------------------------
      1          6           0       -3.057760   -0.005782   -0.550750
      2          6           0       -1.657157    0.021689   -0.589190
      3          6           0       -0.972771    1.219413   -0.342218
      4          6           0       -1.688989    2.389667   -0.056806
      5          6           0       -3.089592    2.362197   -0.018366
      6          6           0       -3.773978    1.164472   -0.265338
      7          1           0       -3.580303   -0.920271   -0.739317
      8          6           0        0.427832    1.246883   -0.380656
      9          6           0       -1.004604    3.587391    0.190166
     10          1           0       -4.843370    1.143498   -0.235987
     11          6           0        0.396000    3.614861    0.151727
     12          6           0        1.112218    2.444607   -0.133682
     13          1           0       -1.551452    4.480906    0.408082
     14          1           0        0.918543    4.529351    0.340294
     15          1           0        2.181610    2.465580   -0.163028
     16         14           0       -4.081074    3.982214    0.376737
     17          1           0       -3.322037    5.148882   -0.096177
     18          6           0       -4.354760    4.121937    2.292246
     19          1           0       -3.406366    4.154693    2.786589
     20          1           0       -4.901609    5.015452    2.510164
     21          1           0       -4.907257    3.272730    2.636477
     22          6           0       -5.800593    3.922824   -0.519548
     23          1           0       -6.347441    4.816339   -0.301630
     24          1           0       -5.649642    3.845761   -1.576040
     25          1           0       -6.353090    3.073617   -0.175318
     26          1           0       -1.110308   -0.871825   -0.807110
     27          7           0        1.179110    0.019344   -0.680039
     28          6           0        1.386492   -0.086527   -2.131481
     29          1           0        1.938990    0.762680   -2.475710
     30          1           0        1.933340   -0.980042   -2.349399
     31          1           0        0.438099   -0.119282   -2.625826
     32          6           0        2.482043    0.064345   -0.000893
     33          1           0        3.028891   -0.829170   -0.218811
     34          1           0        3.034540    0.913552   -0.345122
     35          1           0        2.331091    0.141407    1.055599
 ---------------------------------------------------------------------
                    Distance matrix (angstroms):
                    1          2          3          4          5
     1  C    0.000000
     2  C    1.401400   0.000000
     3  C    2.427296   1.401400   0.000000
     4  C    2.802800   2.427296   1.401400   0.000000
     5  C    2.427296   2.802800   2.427296   1.401400   0.000000
     6  C    1.401400   2.427296   2.802800   2.427296   1.401400
     7  H    1.070000   2.146700   3.396345   3.872800   3.396345
     8  C    3.707756   2.427296   1.401400   2.427296   3.707756
     9  C    4.204200   3.707756   2.427296   1.401400   2.427296
    10  H    2.146700   3.396345   3.872800   3.396345   2.146700
    11  C    5.052820   4.204200   2.802800   2.427296   3.707756
    12  C    4.854592   3.707756   2.427296   2.802800   4.204200
    13  H    4.828943   4.570596   3.396345   2.146700   2.652671
    14  H    6.096915   5.274200   3.872800   3.396345   4.570596
    15  H    5.805941   4.570596   3.396345   3.872800   5.274200
    16  Si   4.220369   4.742800   4.220369   2.906241   1.940000
    17  H    5.181412   5.413224   4.584791   3.206503   2.797445
    18  C    5.177151   5.691377   5.177151   3.952865   3.168007
    19  H    5.344989   5.615812   4.932311   3.761595   3.343825
    20  H    6.162934   6.713429   6.162934   4.879038   4.088598
    21  H    4.932311   5.615812   5.344989   4.288452   3.343825
    22  C    4.791456   5.691377   5.536040   4.412481   3.168007
    23  H    5.842680   6.713429   6.467349   5.258313   4.088598
    24  H    4.754309   5.615812   5.503921   4.484981   3.343825
    25  H    4.525797   5.615812   5.693308   4.715471   3.343825
    26  H    2.146700   1.070000   2.146700   3.396345   3.872800
    27  N    4.238916   2.837722   2.486942   3.772644   4.914121
    28  C    4.717691   3.413821   3.236212   4.460314   5.522394
    29  H    5.409576   4.127989   3.638508   4.654074   5.820964
    30  H    5.394016   4.122314   4.160753   5.452723   6.467931
    31  H    4.066921   2.925381   2.999587   4.173630   5.039959
    32  C    5.567466   4.181015   3.658747   4.775747   6.026902
    33  H    6.151055   4.777048   4.497246   5.713629   6.903683
    34  H    6.164704   4.781946   4.018968   4.957194   6.301614
    35  H    5.625099   4.315760   3.745864   4.738477   5.955595
                    6          7          8          9         10
     6  C    0.000000
     7  H    2.146700   0.000000
     8  C    4.204200   4.570596   0.000000
     9  C    3.707756   5.274200   2.802800   0.000000
    10  H    1.070000   2.471400   5.274200   4.570596   0.000000
    11  C    4.854592   6.096915   2.427296   1.401400   5.805941
    12  C    5.052820   5.805941   1.401400   2.427296   6.096915
    13  H    4.048685   5.882642   3.872800   1.070000   4.731791
    14  H    5.805941   7.148675   3.396345   2.146700   6.707886
    15  H    6.096915   6.707886   2.146700   3.396345   7.148675
    16  Si   2.906241   5.052792   5.327844   3.107308   3.002472
    17  H    4.013525   6.108596   5.419229   2.809047   4.286852
    18  C    3.952865   5.934140   6.187369   3.990993   3.937233
    19  H    4.288452   6.182033   5.760892   3.582137   4.502027
    20  H    4.879038   6.894765   7.138760   4.754829   4.747290
    21  H    3.761595   5.544190   6.455255   4.616725   3.576137
    22  C    3.432244   5.332313   6.780356   4.859807   2.953192
    23  H    4.467680   6.384146   7.658433   5.504370   3.969421
    24  H    3.524963   5.262825   6.717053   4.976206   3.122186
    25  H    3.210102   4.894648   7.025669   5.385522   2.451183
    26  H    3.396345   2.471400   2.652671   4.570596   4.280590
    27  N    5.100625   4.851639   1.470000   4.272800   6.142569
    28  C    5.628316   5.225161   2.400500   4.960349   6.626993
    29  H    6.138825   6.025776   2.628174   4.873462   7.152746
    30  H    6.443270   5.744232   3.331921   5.995194   7.409435
    31  H    4.996150   4.510881   2.628174   4.873462   5.932946
    32  C    6.357516   6.186015   2.400500   4.960349   7.408206
    33  H    7.089133   6.630285   3.331921   5.995195   8.115676
    34  H    6.813608   6.875642   2.628174   4.873462   7.882021
    35  H    6.329566   6.268450   2.628174   4.873463   7.358347
                   11         12         13         14         15
    11  C    0.000000
    12  C    1.401400   0.000000
    13  H    2.146700   3.396345   0.000000
    14  H    1.070000   2.146700   2.471400   0.000000
    15  H    2.146700   1.070000   4.280590   2.471400   0.000000
    16  Si   4.497752   5.440133   2.578501   5.029599   6.466277
    17  H    4.029699   5.193951   1.958428   4.307766   6.123292
    18  C    5.235329   6.211796   3.396685   5.637715   7.176073
    19  H    4.657457   5.645350   3.033878   4.982928   6.540552
    20  H    5.965613   7.054451   3.990995   6.230473   7.988728
    21  H    5.866478   6.677847   4.205575   6.386822   7.664251
    22  C    6.240450   7.079617   4.384878   6.801029   8.121959
    23  H    6.864625   7.829421   4.859807   7.299929   8.848163
    24  H    6.291922   7.054529   4.597316   6.876096   8.076510
    25  H    6.778651   7.491876   5.037514   7.433819   8.556340
    26  H    4.828943   4.048685   5.506636   5.882642   4.731791
    27  N    3.772644   2.486942   5.342800   4.631321   2.693767
    28  C    4.460313   3.236212   5.995194   5.256898   3.319680
    29  H    4.173629   2.999587   5.858724   4.812380   2.882227
    30  H    5.452723   4.160753   7.040557   6.214312   4.088297
    31  H    4.654073   3.638508   5.858724   5.535204   3.973250
    32  C    4.120806   2.749492   5.995195   4.743124   2.425383
    33  H    5.178690   3.794536   7.040558   5.786183   3.402408
    34  H    3.808652   2.466609   5.858725   4.245143   1.780293
    35  H    4.077554   2.864397   5.858726   4.664869   2.628531
                   16         17         18         19         20
    16  Si   0.000000
    17  H    1.470000   0.000000
    18  C    1.940000   2.797445   0.000000
    19  H    2.508459   3.050552   1.070000   0.000000
    20  H    2.508459   3.050552   1.070000   1.747303   0.000000
    21  H    2.508459   3.674271   1.070000   1.747303   1.747303
    22  C    1.940000   2.797445   3.168007   4.088598   3.343825
    23  H    2.508459   3.050552   3.343825   4.315646   3.168007
    24  H    2.508459   3.050552   4.088598   4.915309   4.315646
    25  H    2.508459   3.674271   3.343825   4.315646   3.617918
    26  H    5.812800   6.453378   6.713430   6.591847   7.748438
    27  N    6.670131   6.849334   7.502630   7.081328   8.491974
    28  C    7.262238   7.329544   8.381081   8.071360   9.333556
    29  H    7.398853   7.251161   8.580752   8.232276   9.473056
    30  H    8.260084   8.382106   9.333556   9.014230  10.309114
    31  H    6.801513   6.949194   8.071361   7.895632   9.014231
    32  C    7.652896   7.716796   8.274323   7.692488   9.237813
    33  H    8.605563   8.722754   9.237813   8.676627  10.222511
    34  H    7.782656   7.642386   8.476509   7.861163   9.378737
    35  H    7.505233   7.639322   7.878739   7.212573   8.842173
                   21         22         23         24         25
    21  H    0.000000
    22  C    3.343825   0.000000
    23  H    3.617918   1.070000   0.000000
    24  H    4.315646   1.070000   1.747303   0.000000
    25  H    3.168007   1.070000   1.747303   1.747303   0.000000
    26  H    6.591847   6.713429   7.748438   6.591846   6.591846
    27  N    7.656870   7.998698   8.933271   7.878841   8.143547
    28  C    8.580752   8.386144   9.338104   8.079517   8.585698
    29  H    8.905385   8.585698   9.477537   8.240275   8.910152
    30  H    9.473056   9.338104  10.313231   9.021534   9.477537
    31  H    8.232278   7.726338   8.706652   7.340586   7.894291
    32  C    8.476509   9.151991  10.031535   9.105191   9.335187
    33  H    9.378737  10.031535  10.945056   9.950578  10.161457
    34  H    8.804987   9.335188  10.161458   9.248137   9.634434
    35  H    8.043509   9.105190   9.950577   9.183674   9.248135
                   26         27         28         29         30
    26  H    0.000000
    27  N    2.460034   0.000000
    28  C    2.933371   1.470000   0.000000
    29  H    3.841101   2.086720   1.070000   0.000000
    30  H    3.413820   2.086720   1.070000   1.747303   0.000000
    31  H    2.504319   2.086720   1.070000   1.747303   1.747303
    32  C    3.798867   1.470000   2.400500   2.628174   2.628174
    33  H    4.181015   2.086720   2.628174   2.969085   2.400500
    34  H    4.536604   2.086720   2.628174   2.400500   2.969085
    35  H    4.042222   2.086720   3.331921   3.606919   3.606919
                   31         32         33         34         35
    31  H    0.000000
    32  C    3.331921   0.000000
    33  H    3.606919   1.070000   0.000000
    34  H    3.606919   1.070000   1.747303   0.000000
    35  H    4.147803   1.070000   1.747303   1.747303   0.000000
 Stoichiometry    C14H19NSi
 Framework group  C1[X(C14H19NSi)]
 Deg. of freedom    99
 Full point group                 C1      NOp   1
 Largest Abelian subgroup         C1      NOp   1
 Largest concise Abelian subgroup C1      NOp   1
                         Standard orientation:                         
 ---------------------------------------------------------------------
 Center     Atomic      Atomic             Coordinates (Angstroms)
 Number     Number       Type             X           Y           Z
 ---------------------------------------------------------------------
      1          6           0        0.259627    2.498422    0.447438
      2          6           0       -0.950832    1.795909    0.375423
      3          6           0       -0.947379    0.418812    0.115589
      4          6           0        0.266533   -0.255772   -0.072229
      5          6           0        1.476992    0.446741   -0.000213
      6          6           0        1.473539    1.823838    0.259620
      7          1           0        0.256990    3.549866    0.645829
      8          6           0       -2.157839   -0.283701    0.043575
      9          6           0        0.269985   -1.632870   -0.332062
     10          1           0        2.397751    2.360221    0.314608
     11          6           0       -0.940474   -2.335383   -0.404077
     12          6           0       -2.154386   -1.660799   -0.216257
     13          1           0        1.196834   -2.147929   -0.475468
     14          1           0       -0.937837   -3.386827   -0.602467
     15          1           0       -3.078598   -2.197184   -0.271238
     16         14           0        3.157447   -0.487107   -0.260215
     17          1           0        2.951085   -1.623055   -1.170126
     18          6           0        3.807248   -1.136890    1.448334
     19          1           0        3.088586   -1.807062    1.871765
     20          1           0        4.734097   -1.651950    1.304930
     21          1           0        3.957456   -0.310043    2.110649
     22          6           0        4.460441    0.727972   -1.027933
     23          1           0        5.387290    0.212912   -1.171336
     24          1           0        4.102045    1.086357   -1.970277
     25          1           0        4.610649    1.554819   -0.365617
     26          1           0       -1.877681    2.310969    0.518824
     27          7           0       -3.431173    0.423904    0.240587
     28          6           0       -3.923549    0.916264   -1.054036
     29          1           0       -4.073758    0.089416   -1.716350
     30          1           0       -4.850398    1.431324   -0.910633
     31          1           0       -3.204888    1.586436   -1.477469
     32          6           0       -4.418493   -0.496799    0.822313
     33          1           0       -5.345341    0.018261    0.965716
     34          1           0       -4.568701   -1.323646    0.159999
     35          1           0       -4.060096   -0.855183    1.764657
 ---------------------------------------------------------------------
 Rotational constants (GHZ):      1.0151883      0.2752615      0.2366253
 Standard basis: 6-311+G(d,p) (5D, 7F)
 There are   490 symmetry adapted cartesian basis functions of A   symmetry.
 There are   474 symmetry adapted basis functions of A   symmetry.
   474 basis functions,   742 primitive gaussians,   490 cartesian basis functions
    62 alpha electrons       62 beta electrons
       nuclear repulsion energy      1172.6445734300 Hartrees.
 NAtoms=   35 NActive=   35 NUniq=   35 SFac= 1.00D+00 NAtFMM=   60 NAOKFM=F Big=F
 Integral buffers will be    131072 words long.
 Raffenetti 2 integral format.
 Two-electron integral symmetry is turned on.
 One-electron integrals computed using PRISM.
 NBasis=   474 RedAO= T EigKep=  2.06D-06  NBF=   474
 NBsUse=   469 1.00D-06 EigRej=  9.96D-07 NBFU=   469
 ExpMin= 3.31D-02 ExpMax= 6.94D+04 ExpMxC= 2.33D+03 IAcc=3 IRadAn=         5 AccDes= 0.00D+00
 Harris functional with IExCor=  402 and IRadAn=       5 diagonalized for initial guess.
 HarFok:  IExCor=  402 AccDes= 0.00D+00 IRadAn=         5 IDoV= 1 UseB2=F ITyADJ=14
 ICtDFT=  3500011 ScaDFX=  1.000000  1.000000  1.000000  1.000000
 FoFCou: FMM=F IPFlag=           0 FMFlag=      100000 FMFlg1=           0
         NFxFlg=           0 DoJE=T BraDBF=F KetDBF=T FulRan=T
         wScrn=  0.000000 ICntrl=     500 IOpCl=  0 I1Cent=   200000004 NGrid=           0
         NMat0=    1 NMatS0=      1 NMatT0=    0 NMatD0=    1 NMtDS0=    0 NMtDT0=    0
 Petite list used in FoFCou.
 Requested convergence on RMS density matrix=1.00D-08 within 128 cycles.
 Requested convergence on MAX density matrix=1.00D-06.
 Requested convergence on             energy=1.00D-06.
 No special actions if energy rises.
 SCF Done:  E(RB3LYP) =  -889.359510712     A.U. after   14 cycles
            NFock= 14  Conv=0.72D-08     -V/T= 2.0032

 **********************************************************************

            Population analysis using the SCF density.

 **********************************************************************

 Orbital symmetries:
       Occupied  (A) (A) (A) (A) (A) (A) (A) (A) (A) (A) (A) (A)
                 (A) (A) (A) (A) (A) (A) (A) (A) (A) (A) (A) (A)
                 (A) (A) (A) (A) (A) (A) (A) (A) (A) (A) (A) (A)
                 (A) (A) (A) (A) (A) (A) (A) (A) (A) (A) (A) (A)
                 (A) (A) (A) (A) (A) (A) (A) (A) (A) (A) (A) (A)
                 (A) (A)
       Virtual   (A) (A) (A) (A) (A) (A) (A) (A) (A) (A) (A) (A)
                 (A) (A) (A) (A) (A) (A) (A) (A) (A) (A) (A) (A)
                 (A) (A) (A) (A) (A) (A) (A) (A) (A) (A) (A) (A)
                 (A) (A) (A) (A) (A) (A) (A) (A) (A) (A) (A) (A)
                 (A) (A) (A) (A) (A) (A) (A) (A) (A) (A) (A) (A)
                 (A) (A) (A) (A) (A) (A) (A) (A) (A) (A) (A) (A)
                 (A) (A) (A) (A) (A) (A) (A) (A) (A) (A) (A) (A)
                 (A) (A) (A) (A) (A) (A) (A) (A) (A) (A) (A) (A)
                 (A) (A) (A) (A) (A) (A) (A) (A) (A) (A) (A) (A)
                 (A) (A) (A) (A) (A) (A) (A) (A) (A) (A) (A) (A)
                 (A) (A) (A) (A) (A) (A) (A) (A) (A) (A) (A) (A)
                 (A) (A) (A) (A) (A) (A) (A) (A) (A) (A) (A) (A)
                 (A) (A) (A) (A) (A) (A) (A) (A) (A) (A) (A) (A)
                 (A) (A) (A) (A) (A) (A) (A) (A) (A) (A) (A) (A)
                 (A) (A) (A) (A) (A) (A) (A) (A) (A) (A) (A) (A)
                 (A) (A) (A) (A) (A) (A) (A) (A) (A) (A) (A) (A)
                 (A) (A) (A) (A) (A) (A) (A) (A) (A) (A) (A) (A)
                 (A) (A) (A) (A) (A) (A) (A) (A) (A) (A) (A) (A)
                 (A) (A) (A) (A) (A) (A) (A) (A) (A) (A) (A) (A)
                 (A) (A) (A) (A) (A) (A) (A) (A) (A) (A) (A) (A)
                 (A) (A) (A) (A) (A) (A) (A) (A) (A) (A) (A) (A)
                 (A) (A) (A) (A) (A) (A) (A) (A) (A) (A) (A) (A)
                 (A) (A) (A) (A) (A) (A) (A) (A) (A) (A) (A) (A)
                 (A) (A) (A) (A) (A) (A) (A) (A) (A) (A) (A) (A)
                 (A) (A) (A) (A) (A) (A) (A) (A) (A) (A) (A) (A)
                 (A) (A) (A) (A) (A) (A) (A) (A) (A) (A) (A) (A)
                 (A) (A) (A) (A) (A) (A) (A) (A) (A) (A) (A) (A)
                 (A) (A) (A) (A) (A) (A) (A) (A) (A) (A) (A) (A)
                 (A) (A) (A) (A) (A) (A) (A) (A) (A) (A) (A) (A)
                 (A) (A) (A) (A) (A) (A) (A) (A) (A) (A) (A) (A)
                 (A) (A) (A) (A) (A) (A) (A) (A) (A) (A) (A) (A)
                 (A) (A) (A) (A) (A) (A) (A) (A) (A) (A) (A) (A)
                 (A) (A) (A) (A) (A) (A) (A) (A) (A) (A) (A) (A)
                 (A) (A) (A) (A) (A) (A) (A) (A) (A) (A) (A)
 The electronic state is 1-A.
 Alpha  occ. eigenvalues --  -66.09094 -14.31826 -10.20739 -10.18488 -10.18314
 Alpha  occ. eigenvalues --  -10.17964 -10.17719 -10.17702 -10.17618 -10.17408
 Alpha  occ. eigenvalues --  -10.17304 -10.17203 -10.17008 -10.16678 -10.14546
 Alpha  occ. eigenvalues --  -10.14382  -5.26272  -3.62103  -3.62088  -3.62048
 Alpha  occ. eigenvalues --   -0.93742  -0.87545  -0.82018  -0.77422  -0.75037
 Alpha  occ. eigenvalues --   -0.72060  -0.71377  -0.70337  -0.68579  -0.65624
 Alpha  occ. eigenvalues --   -0.62265  -0.61759  -0.58117  -0.52181  -0.51374
 Alpha  occ. eigenvalues --   -0.50375  -0.49089  -0.47192  -0.46301  -0.45664
 Alpha  occ. eigenvalues --   -0.43954  -0.42203  -0.42003  -0.41624  -0.41309
 Alpha  occ. eigenvalues --   -0.40542  -0.40344  -0.40158  -0.39246  -0.38867
 Alpha  occ. eigenvalues --   -0.38675  -0.37587  -0.36674  -0.34148  -0.32970
 Alpha  occ. eigenvalues --   -0.31733  -0.30548  -0.29712  -0.28442  -0.25362
 Alpha  occ. eigenvalues --   -0.23747  -0.20928
 Alpha virt. eigenvalues --   -0.05416  -0.01882  -0.00354   0.00040   0.00356
 Alpha virt. eigenvalues --    0.01330   0.02132   0.02366   0.02474   0.03310
 Alpha virt. eigenvalues --    0.03681   0.04406   0.04806   0.05236   0.05664
 Alpha virt. eigenvalues --    0.05969   0.06255   0.06844   0.07276   0.07441
 Alpha virt. eigenvalues --    0.07652   0.07739   0.08342   0.08671   0.08976
 Alpha virt. eigenvalues --    0.09133   0.09639   0.09916   0.10648   0.11072
 Alpha virt. eigenvalues --    0.11518   0.11935   0.12216   0.12515   0.13000
 Alpha virt. eigenvalues --    0.13659   0.13776   0.13931   0.14441   0.15026
 Alpha virt. eigenvalues --    0.15247   0.15598   0.16124   0.16569   0.16687
 Alpha virt. eigenvalues --    0.17032   0.17169   0.18014   0.18150   0.18553
 Alpha virt. eigenvalues --    0.18751   0.19092   0.19524   0.19805   0.20480
 Alpha virt. eigenvalues --    0.20696   0.21020   0.21182   0.21628   0.21857
 Alpha virt. eigenvalues --    0.21960   0.22783   0.23546   0.23635   0.24139
 Alpha virt. eigenvalues --    0.24537   0.24809   0.24830   0.25253   0.26163
 Alpha virt. eigenvalues --    0.26168   0.26456   0.26863   0.27382   0.27610
 Alpha virt. eigenvalues --    0.27663   0.28828   0.29284   0.30040   0.30118
 Alpha virt. eigenvalues --    0.30467   0.30874   0.31096   0.31515   0.31759
 Alpha virt. eigenvalues --    0.32365   0.32905   0.33339   0.33678   0.34122
 Alpha virt. eigenvalues --    0.34972   0.35075   0.36451   0.36721   0.37795
 Alpha virt. eigenvalues --    0.38069   0.39904   0.41426   0.42084   0.43011
 Alpha virt. eigenvalues --    0.43816   0.46682   0.47467   0.47604   0.48681
 Alpha virt. eigenvalues --    0.49218   0.50578   0.50748   0.52301   0.52590
 Alpha virt. eigenvalues --    0.53016   0.53406   0.54109   0.54468   0.54845
 Alpha virt. eigenvalues --    0.56513   0.56783   0.57600   0.58250   0.58911
 Alpha virt. eigenvalues --    0.59760   0.60295   0.61183   0.61963   0.62568
 Alpha virt. eigenvalues --    0.62811   0.63468   0.63834   0.64599   0.65129
 Alpha virt. eigenvalues --    0.66017   0.66476   0.67006   0.68004   0.69084
 Alpha virt. eigenvalues --    0.69429   0.70124   0.70459   0.70725   0.71502
 Alpha virt. eigenvalues --    0.71621   0.72633   0.72964   0.73265   0.74095
 Alpha virt. eigenvalues --    0.74584   0.74922   0.75555   0.76122   0.77099
 Alpha virt. eigenvalues --    0.78073   0.78309   0.78837   0.80099   0.80766
 Alpha virt. eigenvalues --    0.81437   0.81747   0.82924   0.84289   0.84714
 Alpha virt. eigenvalues --    0.85292   0.86808   0.87217   0.87621   0.88232
 Alpha virt. eigenvalues --    0.89320   0.89618   0.90860   0.91174   0.92518
 Alpha virt. eigenvalues --    0.93291   0.94307   0.94926   0.95695   0.96261
 Alpha virt. eigenvalues --    0.97604   0.99506   1.01810   1.02050   1.03064
 Alpha virt. eigenvalues --    1.04525   1.06390   1.07615   1.08680   1.09590
 Alpha virt. eigenvalues --    1.10520   1.10932   1.11641   1.12674   1.13044
 Alpha virt. eigenvalues --    1.14881   1.15853   1.17418   1.18176   1.20449
 Alpha virt. eigenvalues --    1.22119   1.22524   1.25540   1.29390   1.29726
 Alpha virt. eigenvalues --    1.35019   1.36285   1.37171   1.39000   1.41698
 Alpha virt. eigenvalues --    1.42281   1.43991   1.46016   1.47432   1.47544
 Alpha virt. eigenvalues --    1.47817   1.49134   1.50625   1.51285   1.51978
 Alpha virt. eigenvalues --    1.52650   1.53170   1.53977   1.54648   1.55545
 Alpha virt. eigenvalues --    1.56893   1.57065   1.57924   1.58246   1.59702
 Alpha virt. eigenvalues --    1.60325   1.60752   1.61407   1.62069   1.62551
 Alpha virt. eigenvalues --    1.62975   1.63785   1.64451   1.65224   1.66806
 Alpha virt. eigenvalues --    1.67736   1.68404   1.69369   1.69995   1.72295
 Alpha virt. eigenvalues --    1.72849   1.73220   1.75335   1.76157   1.76915
 Alpha virt. eigenvalues --    1.77646   1.78109   1.79780   1.81571   1.82041
 Alpha virt. eigenvalues --    1.83073   1.84497   1.85751   1.86742   1.87458
 Alpha virt. eigenvalues --    1.88161   1.90954   1.91258   1.92294   1.93225
 Alpha virt. eigenvalues --    1.94287   1.95637   1.96578   1.96633   1.99310
 Alpha virt. eigenvalues --    2.00104   2.00849   2.01353   2.02497   2.02728
 Alpha virt. eigenvalues --    2.04800   2.06496   2.08100   2.08234   2.10614
 Alpha virt. eigenvalues --    2.11569   2.12734   2.16436   2.18604   2.19076
 Alpha virt. eigenvalues --    2.19351   2.20528   2.21066   2.22278   2.23143
 Alpha virt. eigenvalues --    2.23816   2.25606   2.26788   2.31935   2.34040
 Alpha virt. eigenvalues --    2.35874   2.41492   2.42516   2.44598   2.45576
 Alpha virt. eigenvalues --    2.46930   2.49383   2.50028   2.50538   2.51532
 Alpha virt. eigenvalues --    2.51818   2.52813   2.54811   2.55766   2.56154
 Alpha virt. eigenvalues --    2.57458   2.57985   2.58318   2.58911   2.59815
 Alpha virt. eigenvalues --    2.61540   2.61659   2.62631   2.63828   2.64808
 Alpha virt. eigenvalues --    2.65881   2.66297   2.66998   2.68748   2.69207
 Alpha virt. eigenvalues --    2.70934   2.71519   2.72375   2.73677   2.73841
 Alpha virt. eigenvalues --    2.75704   2.76203   2.76884   2.77551   2.78917
 Alpha virt. eigenvalues --    2.79125   2.81292   2.82016   2.83549   2.85130
 Alpha virt. eigenvalues --    2.87072   2.87506   2.88247   2.89373   2.89789
 Alpha virt. eigenvalues --    2.93079   2.93834   2.97376   2.98778   2.99287
 Alpha virt. eigenvalues --    3.01850   3.04235   3.08710   3.11922   3.13946
 Alpha virt. eigenvalues --    3.15144   3.22274   3.23588   3.25706   3.27556
 Alpha virt. eigenvalues --    3.38901   3.40294   3.41122   3.43321   3.46796
 Alpha virt. eigenvalues --    3.51149   3.54277   3.57227   3.58230   3.62599
 Alpha virt. eigenvalues --    3.71077   3.76299   3.79560   3.79818   3.81538
 Alpha virt. eigenvalues --    3.82130   3.82850   3.85226   3.85803   3.88160
 Alpha virt. eigenvalues --    3.89388   4.00189   4.07312   4.08079   4.16240
 Alpha virt. eigenvalues --    4.21873   4.32820   4.39266   4.84596   4.85360
 Alpha virt. eigenvalues --    4.88498   4.93899   5.82312  11.48331  11.52242
 Alpha virt. eigenvalues --   11.54571  23.53926  23.84926  23.93864  23.98864
 Alpha virt. eigenvalues --   23.99849  24.01306  24.01417  24.02080  24.02541
 Alpha virt. eigenvalues --   24.06757  24.08689  24.08886  24.16770  24.18559
 Alpha virt. eigenvalues --   35.58048 141.28036
          Condensed to atoms (all electrons):
               1          2          3          4          5          6
     1  C    8.214350   0.121633  -1.447560  -0.673774  -1.360361   0.855815
     2  C    0.121633   9.440783  -2.213210  -0.628898   1.306842  -2.017597
     3  C   -1.447560  -2.213210   9.679329   0.692277  -1.854206   1.281547
     4  C   -0.673774  -0.628898   0.692277   9.722006   1.001800   0.757674
     5  C   -1.360361   1.306842  -1.854206   1.001800   9.735236  -2.268096
     6  C    0.855815  -2.017597   1.281547   0.757674  -2.268096   9.420442
     7  H    0.451008  -0.087081   0.038261   0.001165  -0.013690  -0.039146
     8  C    0.479095  -0.257172   0.115724  -2.006636  -0.799791   0.117789
     9  C    0.472583   0.266967  -0.965843  -2.993722   0.151688  -1.581875
    10  H   -0.027668  -0.023329  -0.018334   0.021581  -0.051018   0.405333
    11  C    0.012746   0.504926  -0.374777  -1.290633   0.075513  -0.679199
    12  C   -0.416318  -0.416137   0.696894   0.843008   0.061617  -0.065291
    13  H    0.001821   0.003300   0.007443   0.024400  -0.010059   0.004508
    14  H   -0.000620   0.002455   0.002812  -0.001731  -0.007423  -0.001369
    15  H    0.004539   0.024367   0.022334  -0.032335  -0.000894  -0.001200
    16  Si   0.020798  -0.002657   0.056778   0.053243   0.191225   0.095107
    17  H   -0.003718  -0.001598   0.003988   0.035378  -0.067962   0.011781
    18  C    0.022877   0.022090  -0.016922  -0.047401  -0.093853  -0.026173
    19  H   -0.000992  -0.000615  -0.004157  -0.013887  -0.024843  -0.004861
    20  H   -0.000201  -0.000394  -0.000138   0.016194   0.016752   0.007160
    21  H   -0.000786   0.002915   0.002097  -0.015183   0.006611  -0.017851
    22  C   -0.047813  -0.023036   0.013987   0.014528  -0.102021   0.034265
    23  H    0.004686   0.000749  -0.000953   0.001064  -0.012030   0.013922
    24  H   -0.017048  -0.001828  -0.001069   0.002165   0.048289  -0.022671
    25  H    0.009618   0.000194  -0.001346  -0.002194  -0.033767   0.004011
    26  H   -0.056785   0.415067  -0.025006   0.023925  -0.018398  -0.014700
    27  N   -0.058204  -0.051850  -0.081295   0.128390   0.007393   0.034914
    28  C   -0.017495  -0.020293   0.005020   0.024075   0.007587   0.026967
    29  H   -0.001202  -0.005067   0.004305  -0.003958  -0.001790  -0.000771
    30  H   -0.000165  -0.006901   0.003997  -0.002489  -0.000017  -0.000375
    31  H    0.028133   0.043691  -0.032603  -0.009660  -0.001562   0.003021
    32  C   -0.014218  -0.094969   0.048279  -0.018739  -0.007232   0.014371
    33  H    0.000680   0.003904  -0.004747   0.001673   0.000092   0.000025
    34  H   -0.002712  -0.021425   0.012561  -0.007790  -0.000436  -0.000650
    35  H    0.003885   0.016586   0.000879  -0.002309   0.000501   0.000710
               7          8          9         10         11         12
     1  C    0.451008   0.479095   0.472583  -0.027668   0.012746  -0.416318
     2  C   -0.087081  -0.257172   0.266967  -0.023329   0.504926  -0.416137
     3  C    0.038261   0.115724  -0.965843  -0.018334  -0.374777   0.696894
     4  C    0.001165  -2.006636  -2.993722   0.021581  -1.290633   0.843008
     5  C   -0.013690  -0.799791   0.151688  -0.051018   0.075513   0.061617
     6  C   -0.039146   0.117789  -1.581875   0.405333  -0.679199  -0.065291
     7  H    0.546568  -0.002386   0.002891  -0.007690  -0.001407  -0.001326
     8  C   -0.002386  11.315242   2.232884   0.001894  -1.567095  -1.774813
     9  C    0.002891   2.232884  10.683233   0.023223  -0.178718  -2.004977
    10  H   -0.007690   0.001894   0.023223   0.560539   0.002376  -0.001358
    11  C   -0.001407  -1.567095  -0.178718   0.002376   8.261234   1.177672
    12  C   -0.001326  -1.774813  -2.004977  -0.001358   1.177672   7.903842
    13  H    0.000001  -0.015334   0.338851  -0.000002  -0.050169  -0.007091
    14  H    0.000000   0.023143  -0.071233  -0.000001   0.431919  -0.029683
    15  H   -0.000001  -0.069441   0.000601   0.000000   0.010353   0.405820
    16  Si  -0.002500  -0.005105  -0.095973   0.001068  -0.069922   0.006076
    17  H    0.000007  -0.008642  -0.084337   0.000240  -0.019947   0.008870
    18  C    0.000304  -0.013491   0.055044  -0.001773   0.043828   0.010553
    19  H    0.000000   0.002998   0.028294   0.000007   0.010498  -0.000615
    20  H    0.000000   0.000419  -0.020802   0.000018  -0.006670  -0.000704
    21  H    0.000003  -0.001750   0.010133  -0.000171   0.003090   0.001087
    22  C    0.000644   0.003625  -0.043061  -0.001129  -0.022575  -0.005137
    23  H   -0.000001   0.000144   0.001900   0.000085   0.000526   0.000008
    24  H   -0.000001  -0.000311  -0.000397  -0.000449  -0.000169  -0.000002
    25  H    0.000003  -0.000171   0.002198   0.001624   0.000447  -0.000017
    26  H   -0.006361   0.029468   0.012704  -0.000392  -0.000051  -0.011947
    27  N    0.000242  -0.876271  -0.058651   0.000130   0.181539  -0.209349
    28  C   -0.000130  -0.706746  -0.061287  -0.000002   0.062084   0.124323
    29  H    0.000002   0.051309  -0.001455   0.000000  -0.014717   0.016314
    30  H   -0.000001   0.037498   0.002159   0.000000   0.003588   0.000925
    31  H    0.000010  -0.012047   0.003074   0.000001  -0.004216  -0.019934
    32  C    0.000076  -0.299475   0.004594   0.000040  -0.010457  -0.083305
    33  H    0.000000   0.043614   0.000333   0.000000   0.000197   0.000999
    34  H    0.000000   0.019738  -0.003131   0.000000  -0.020899   0.016564
    35  H   -0.000001  -0.020267  -0.003095   0.000000   0.002108   0.004550
              13         14         15         16         17         18
     1  C    0.001821  -0.000620   0.004539   0.020798  -0.003718   0.022877
     2  C    0.003300   0.002455   0.024367  -0.002657  -0.001598   0.022090
     3  C    0.007443   0.002812   0.022334   0.056778   0.003988  -0.016922
     4  C    0.024400  -0.001731  -0.032335   0.053243   0.035378  -0.047401
     5  C   -0.010059  -0.007423  -0.000894   0.191225  -0.067962  -0.093853
     6  C    0.004508  -0.001369  -0.001200   0.095107   0.011781  -0.026173
     7  H    0.000001   0.000000  -0.000001  -0.002500   0.000007   0.000304
     8  C   -0.015334   0.023143  -0.069441  -0.005105  -0.008642  -0.013491
     9  C    0.338851  -0.071233   0.000601  -0.095973  -0.084337   0.055044
    10  H   -0.000002  -0.000001   0.000000   0.001068   0.000240  -0.001773
    11  C   -0.050169   0.431919   0.010353  -0.069922  -0.019947   0.043828
    12  C   -0.007091  -0.029683   0.405820   0.006076   0.008870   0.010553
    13  H    0.572133  -0.007703  -0.000505   0.036854   0.005247  -0.002540
    14  H   -0.007703   0.545752  -0.006901  -0.001451   0.000074   0.000110
    15  H   -0.000505  -0.006901   0.562629  -0.000856   0.000001   0.000020
    16  Si   0.036854  -0.001451  -0.000856  12.111237   0.474434   0.126247
    17  H    0.005247   0.000074   0.000001   0.474434   0.879647  -0.041848
    18  C   -0.002540   0.000110   0.000020   0.126247  -0.041848   5.844824
    19  H   -0.000249   0.000004   0.000000  -0.011694  -0.001333   0.361652
    20  H    0.000259   0.000000   0.000000  -0.005712   0.000034   0.359647
    21  H   -0.000122   0.000001   0.000000  -0.019244   0.002596   0.395996
    22  C   -0.000175   0.000004   0.000001   0.240854  -0.042086  -0.145643
    23  H    0.000024   0.000000   0.000000  -0.022261  -0.001993   0.003815
    24  H    0.000030   0.000000   0.000000  -0.037420  -0.000837   0.012686
    25  H    0.000025   0.000000   0.000000   0.011643   0.002987  -0.008262
    26  H    0.000005   0.000001  -0.000011  -0.000316  -0.000003  -0.000007
    27  N    0.000762  -0.001725  -0.022854   0.000153  -0.000046  -0.000295
    28  C    0.000098   0.000020   0.000720  -0.000081  -0.000043  -0.000192
    29  H   -0.000004   0.000112   0.001760   0.000024   0.000000  -0.000005
    30  H    0.000000  -0.000002  -0.000139   0.000021   0.000000   0.000000
    31  H   -0.000002   0.000001   0.000105  -0.000314   0.000000   0.000007
    32  C    0.000058   0.001950  -0.013193  -0.002235  -0.000047   0.000089
    33  H    0.000000  -0.000006   0.000502  -0.000020   0.000000   0.000001
    34  H    0.000000   0.000244   0.005207   0.000153   0.000000  -0.000008
    35  H    0.000000  -0.000013  -0.000391  -0.000142   0.000000   0.000010
              19         20         21         22         23         24
     1  C   -0.000992  -0.000201  -0.000786  -0.047813   0.004686  -0.017048
     2  C   -0.000615  -0.000394   0.002915  -0.023036   0.000749  -0.001828
     3  C   -0.004157  -0.000138   0.002097   0.013987  -0.000953  -0.001069
     4  C   -0.013887   0.016194  -0.015183   0.014528   0.001064   0.002165
     5  C   -0.024843   0.016752   0.006611  -0.102021  -0.012030   0.048289
     6  C   -0.004861   0.007160  -0.017851   0.034265   0.013922  -0.022671
     7  H    0.000000   0.000000   0.000003   0.000644  -0.000001  -0.000001
     8  C    0.002998   0.000419  -0.001750   0.003625   0.000144  -0.000311
     9  C    0.028294  -0.020802   0.010133  -0.043061   0.001900  -0.000397
    10  H    0.000007   0.000018  -0.000171  -0.001129   0.000085  -0.000449
    11  C    0.010498  -0.006670   0.003090  -0.022575   0.000526  -0.000169
    12  C   -0.000615  -0.000704   0.001087  -0.005137   0.000008  -0.000002
    13  H   -0.000249   0.000259  -0.000122  -0.000175   0.000024   0.000030
    14  H    0.000004   0.000000   0.000001   0.000004   0.000000   0.000000
    15  H    0.000000   0.000000   0.000000   0.000001   0.000000   0.000000
    16  Si  -0.011694  -0.005712  -0.019244   0.240854  -0.022261  -0.037420
    17  H   -0.001333   0.000034   0.002596  -0.042086  -0.001993  -0.000837
    18  C    0.361652   0.359647   0.395996  -0.145643   0.003815   0.012686
    19  H    0.511253  -0.016614  -0.017877   0.017336  -0.000102  -0.000158
    20  H   -0.016614   0.519622  -0.021656  -0.012822   0.001192  -0.000030
    21  H   -0.017877  -0.021656   0.501920  -0.005339   0.000125  -0.000167
    22  C    0.017336  -0.012822  -0.005339   5.733130   0.373285   0.379841
    23  H   -0.000102   0.001192   0.000125   0.373285   0.515225  -0.014554
    24  H   -0.000158  -0.000030  -0.000167   0.379841  -0.014554   0.503419
    25  H   -0.000149   0.000258   0.001449   0.375111  -0.024376  -0.019891
    26  H    0.000000   0.000000  -0.000001   0.000038   0.000000   0.000000
    27  N    0.000012   0.000000  -0.000001   0.000215   0.000000  -0.000002
    28  C    0.000002   0.000000  -0.000001   0.000181   0.000001   0.000001
    29  H    0.000000   0.000000   0.000000   0.000001   0.000000   0.000000
    30  H    0.000000   0.000000   0.000000   0.000000   0.000000   0.000000
    31  H    0.000000   0.000000   0.000000  -0.000001   0.000000   0.000000
    32  C    0.000012   0.000001  -0.000008  -0.000025   0.000000   0.000000
    33  H    0.000000   0.000000   0.000000   0.000000   0.000000   0.000000
    34  H    0.000000   0.000000   0.000000   0.000000   0.000000   0.000000
    35  H    0.000000   0.000000   0.000000   0.000000   0.000000   0.000000
              25         26         27         28         29         30
     1  C    0.009618  -0.056785  -0.058204  -0.017495  -0.001202  -0.000165
     2  C    0.000194   0.415067  -0.051850  -0.020293  -0.005067  -0.006901
     3  C   -0.001346  -0.025006  -0.081295   0.005020   0.004305   0.003997
     4  C   -0.002194   0.023925   0.128390   0.024075  -0.003958  -0.002489
     5  C   -0.033767  -0.018398   0.007393   0.007587  -0.001790  -0.000017
     6  C    0.004011  -0.014700   0.034914   0.026967  -0.000771  -0.000375
     7  H    0.000003  -0.006361   0.000242  -0.000130   0.000002  -0.000001
     8  C   -0.000171   0.029468  -0.876271  -0.706746   0.051309   0.037498
     9  C    0.002198   0.012704  -0.058651  -0.061287  -0.001455   0.002159
    10  H    0.001624  -0.000392   0.000130  -0.000002   0.000000   0.000000
    11  C    0.000447  -0.000051   0.181539   0.062084  -0.014717   0.003588
    12  C   -0.000017  -0.011947  -0.209349   0.124323   0.016314   0.000925
    13  H    0.000025   0.000005   0.000762   0.000098  -0.000004   0.000000
    14  H    0.000000   0.000001  -0.001725   0.000020   0.000112  -0.000002
    15  H    0.000000  -0.000011  -0.022854   0.000720   0.001760  -0.000139
    16  Si   0.011643  -0.000316   0.000153  -0.000081   0.000024   0.000021
    17  H    0.002987  -0.000003  -0.000046  -0.000043   0.000000   0.000000
    18  C   -0.008262  -0.000007  -0.000295  -0.000192  -0.000005   0.000000
    19  H   -0.000149   0.000000   0.000012   0.000002   0.000000   0.000000
    20  H    0.000258   0.000000   0.000000   0.000000   0.000000   0.000000
    21  H    0.001449  -0.000001  -0.000001  -0.000001   0.000000   0.000000
    22  C    0.375111   0.000038   0.000215   0.000181   0.000001   0.000000
    23  H   -0.024376   0.000000   0.000000   0.000001   0.000000   0.000000
    24  H   -0.019891   0.000000  -0.000002   0.000001   0.000000   0.000000
    25  H    0.525169  -0.000001   0.000000  -0.000002   0.000000   0.000000
    26  H   -0.000001   0.509695   0.000925  -0.004535   0.000045   0.000409
    27  N    0.000000   0.000925   7.448748   0.503602  -0.109884  -0.060531
    28  C   -0.000002  -0.004535   0.503602   5.271686   0.407606   0.392276
    29  H    0.000000   0.000045  -0.109884   0.407606   0.595767  -0.042862
    30  H    0.000000   0.000409  -0.060531   0.392276  -0.042862   0.553658
    31  H    0.000000   0.000813  -0.036201   0.402911  -0.037733  -0.018869
    32  C   -0.000001  -0.000392   0.327167  -0.107274  -0.017557   0.000080
    33  H    0.000000  -0.000065  -0.071762  -0.006499  -0.003491   0.005169
    34  H    0.000000   0.000063  -0.096904  -0.003247   0.025985  -0.004031
    35  H    0.000000  -0.000064  -0.041467   0.006216  -0.000766   0.000469
              31         32         33         34         35
     1  C    0.028133  -0.014218   0.000680  -0.002712   0.003885
     2  C    0.043691  -0.094969   0.003904  -0.021425   0.016586
     3  C   -0.032603   0.048279  -0.004747   0.012561   0.000879
     4  C   -0.009660  -0.018739   0.001673  -0.007790  -0.002309
     5  C   -0.001562  -0.007232   0.000092  -0.000436   0.000501
     6  C    0.003021   0.014371   0.000025  -0.000650   0.000710
     7  H    0.000010   0.000076   0.000000   0.000000  -0.000001
     8  C   -0.012047  -0.299475   0.043614   0.019738  -0.020267
     9  C    0.003074   0.004594   0.000333  -0.003131  -0.003095
    10  H    0.000001   0.000040   0.000000   0.000000   0.000000
    11  C   -0.004216  -0.010457   0.000197  -0.020899   0.002108
    12  C   -0.019934  -0.083305   0.000999   0.016564   0.004550
    13  H   -0.000002   0.000058   0.000000   0.000000   0.000000
    14  H    0.000001   0.001950  -0.000006   0.000244  -0.000013
    15  H    0.000105  -0.013193   0.000502   0.005207  -0.000391
    16  Si  -0.000314  -0.002235  -0.000020   0.000153  -0.000142
    17  H    0.000000  -0.000047   0.000000   0.000000   0.000000
    18  C    0.000007   0.000089   0.000001  -0.000008   0.000010
    19  H    0.000000   0.000012   0.000000   0.000000   0.000000
    20  H    0.000000   0.000001   0.000000   0.000000   0.000000
    21  H    0.000000  -0.000008   0.000000   0.000000   0.000000
    22  C   -0.000001  -0.000025   0.000000   0.000000   0.000000
    23  H    0.000000   0.000000   0.000000   0.000000   0.000000
    24  H    0.000000   0.000000   0.000000   0.000000   0.000000
    25  H    0.000000  -0.000001   0.000000   0.000000   0.000000
    26  H    0.000813  -0.000392  -0.000065   0.000063  -0.000064
    27  N   -0.036201   0.327167  -0.071762  -0.096904  -0.041467
    28  C    0.402911  -0.107274  -0.006499  -0.003247   0.006216
    29  H   -0.037733  -0.017557  -0.003491   0.025985  -0.000766
    30  H   -0.018869   0.000080   0.005169  -0.004031   0.000469
    31  H    0.527050   0.016789   0.000476  -0.000927  -0.000567
    32  C    0.016789   5.231051   0.408826   0.417108   0.424939
    33  H    0.000476   0.408826   0.550591  -0.044090  -0.016637
    34  H   -0.000927   0.417108  -0.044090   0.646095  -0.041589
    35  H   -0.000567   0.424939  -0.016637  -0.041589   0.520606
 Mulliken charges:
               1
     1  C   -0.556625
     2  C   -0.302412
     3  C    0.353655
     4  C    0.386792
     5  C    0.118301
     6  C   -0.347534
     7  H    0.120536
     8  C   -0.037637
     9  C   -0.124798
    10  H    0.115158
    11  C   -0.473024
    12  C   -0.231117
    13  H    0.098136
    14  H    0.121259
    15  H    0.109763
    16  Si   0.851989
    17  H   -0.150844
    18  C   -0.861389
    19  H    0.166076
    20  H    0.164188
    21  H    0.172130
    22  C   -0.736181
    23  H    0.159519
    24  H    0.170576
    25  H    0.155440
    26  H    0.145877
    27  N    0.143099
    28  C   -0.307550
    29  H    0.138029
    30  H    0.136135
    31  H    0.148552
    32  C   -0.226305
    33  H    0.130235
    34  H    0.104121
    35  H    0.145849
 Sum of Mulliken charges =   0.00000
 Mulliken charges with hydrogens summed into heavy atoms:
               1
     1  C   -0.436089
     2  C   -0.156536
     3  C    0.353655
     4  C    0.386792
     5  C    0.118301
     6  C   -0.232376
     8  C   -0.037637
     9  C   -0.026662
    11  C   -0.351765
    12  C   -0.121354
    16  Si   0.701145
    18  C   -0.358995
    22  C   -0.250646
    27  N    0.143099
    28  C    0.115166
    32  C    0.153901
 Electronic spatial extent (au):  <R**2>=           4842.7341
 Charge=              0.0000 electrons
 Dipole moment (field-independent basis, Debye):
    X=             -0.7221    Y=             -0.2113    Z=             -0.3267  Tot=              0.8203
 Quadrupole moment (field-independent basis, Debye-Ang):
   XX=            -94.6125   YY=           -100.9470   ZZ=           -110.2434
   XY=              1.9769   XZ=              1.6561   YZ=              0.2390
 Traceless Quadrupole moment (field-independent basis, Debye-Ang):
   XX=              7.3218   YY=              0.9873   ZZ=             -8.3092
   XY=              1.9769   XZ=              1.6561   YZ=              0.2390
 Octapole moment (field-independent basis, Debye-Ang**2):
  XXX=            -44.1303  YYY=              4.5522  ZZZ=              0.2274  XYY=             -7.4005
  XXY=             -3.2426  XXZ=             -0.7542  XZZ=             -7.2451  YZZ=              2.1101
  YYZ=              1.0265  XYZ=              6.8308
 Hexadecapole moment (field-independent basis, Debye-Ang**3):
 XXXX=          -4890.5277 YYYY=          -1210.3579 ZZZZ=           -459.2611 XXXY=            -26.7998
 XXXZ=              5.8292 YYYX=             16.7216 YYYZ=             24.5210 ZZZX=            -14.1442
 ZZZY=            -11.4026 XXYY=          -1051.3400 XXZZ=           -951.4936 YYZZ=           -308.2199
 XXYZ=              2.0474 YYXZ=             14.6977 ZZXY=              6.3472
 N-N= 1.172644573430D+03 E-N=-4.426664666678D+03  KE= 8.865388559421D+02
 There are a total of      290546 grid points.
 ElSum from          density=      123.9999548526
 ElSum from atomic densities=      123.9986417657

 Hirshfeld populations at iteration   1 (CX, CA, CB, DipXYZ):
               1          2          3          4          5          6
     1  C    0.000000   3.024823   3.024823   0.017730   0.059737   0.012474
     2  C    0.000000   3.019992   3.019992  -0.054292   0.001711   0.004524
     3  C    0.000000   3.004300   3.004300   0.007131  -0.008731  -0.003959
     4  C    0.000000   3.001879   3.001879  -0.020942   0.007986   0.004330
     5  C    0.000000   3.051227   3.051227  -0.072978   0.012800   0.009328
     6  C    0.000000   3.022435   3.022435   0.042848   0.052519   0.009867
     7  H    0.000002   0.478017   0.478017   0.001182   0.157529   0.029949
     8  C    0.000000   2.974000   2.974000  -0.069359   0.068359   0.017616
     9  C    0.000000   3.024322   3.024322   0.057767  -0.002694  -0.003784
    10  H    0.000001   0.478200   0.478200   0.128680   0.084062   0.011462
    11  C    0.000000   3.024486   3.024486  -0.018220  -0.062610  -0.011492
    12  C    0.000000   3.029847   3.029847  -0.043168  -0.039731   0.000243
    13  H    0.000000   0.478868   0.478868   0.110050  -0.086327  -0.013870
    14  H    0.000002   0.477578   0.477578  -0.000710  -0.158133  -0.030011
    15  H    0.000000   0.479103   0.479103  -0.120122  -0.092609  -0.010411
    16  Si   0.000000   6.818009   6.818009   0.040070   0.010178   0.001405
    17  H    0.000001   0.542721   0.542721  -0.019928  -0.096723  -0.075033
    18  C    0.000000   3.102055   3.102055   0.036122  -0.032659   0.085158
    19  H    0.000001   0.480621   0.480621  -0.105668  -0.099601   0.061467
    20  H    0.000001   0.481373   0.481373   0.137220  -0.075345  -0.026682
    21  H    0.000001   0.480423   0.480423   0.023558   0.124029   0.096842
    22  C    0.000000   3.101809   3.101809   0.067354   0.054168  -0.038947
    23  H    0.000001   0.480383   0.480383   0.136209  -0.082049  -0.020362
    24  H    0.000001   0.480301   0.480301  -0.055209   0.048336  -0.142797
    25  H    0.000001   0.481590   0.481590   0.023011   0.118694   0.100210
    26  H    0.000001   0.478160   0.478160  -0.115927   0.092488   0.016368
    27  N    0.000000   3.566715   3.566715  -0.006151  -0.107331  -0.093980
    28  C    0.000000   3.023541   3.023541  -0.000525   0.007069   0.021700
    29  H    0.000001   0.487130   0.487130  -0.022947  -0.093223  -0.083893
    30  H    0.000001   0.479123   0.479123  -0.127509   0.074849   0.016948
    31  H    0.000001   0.478809   0.478809   0.086758   0.095426  -0.064663
    32  C    0.000000   3.024043   3.024043   0.006857   0.021201   0.000235
    33  H    0.000001   0.478932   0.478932  -0.130220   0.069484   0.025031
    34  H    0.000000   0.487146   0.487146  -0.024674  -0.101728  -0.076028
    35  H    0.000001   0.478015   0.478015   0.039835  -0.047432   0.137788
       Tot   0.000018  61.999977  61.999977  -0.046168  -0.026301  -0.032967

 Dip from Atomic Chgs             -0.238147  -0.056623  -0.096131
         Total Dipole             -0.284315  -0.082924  -0.129099

 Hirshfeld charges, spin densities, dipoles, and CM5 charges using IRadAn=      4:
              Q-H        S-H        Dx         Dy         Dz        Q-CM5   
     1  C   -0.049647   0.000000   0.017730   0.059737   0.012474  -0.106955
     2  C   -0.039985   0.000000  -0.054292   0.001711   0.004524  -0.092643
     3  C   -0.008599   0.000000   0.007131  -0.008731  -0.003959  -0.009059
     4  C   -0.003759   0.000000  -0.020942   0.007986   0.004330  -0.010833
     5  C   -0.102453   0.000000  -0.072978   0.012800   0.009328  -0.139041
     6  C   -0.044871   0.000000   0.042848   0.052519   0.009867  -0.102040
     7  H    0.043965   0.000000   0.001182   0.157529   0.029949   0.101545
     8  C    0.052001   0.000000  -0.069359   0.068359   0.017616   0.096892
     9  C   -0.048645   0.000000   0.057767  -0.002694  -0.003784  -0.104976
    10  H    0.043600   0.000000   0.128680   0.084062   0.011462   0.099830
    11  C   -0.048973   0.000000  -0.018220  -0.062610  -0.011492  -0.106208
    12  C   -0.059693   0.000000  -0.043168  -0.039731   0.000243  -0.111981
    13  H    0.042263   0.000000   0.110050  -0.086327  -0.013870   0.095733
    14  H    0.044845   0.000000  -0.000710  -0.158133  -0.030011   0.102438
    15  H    0.041794   0.000000  -0.120122  -0.092609  -0.010411   0.104165
    16  Si   0.363983   0.000000   0.040070   0.010178   0.001405   0.227894
    17  H   -0.085442   0.000000  -0.019928  -0.096723  -0.075033   0.000205
    18  C   -0.204109   0.000000   0.036122  -0.032659   0.085158  -0.325603
    19  H    0.038757   0.000000  -0.105668  -0.099601   0.061467   0.095685
    20  H    0.037253   0.000000   0.137220  -0.075345  -0.026682   0.093999
    21  H    0.039154   0.000000   0.023558   0.124029   0.096842   0.096134
    22  C   -0.203617   0.000000   0.067354   0.054168  -0.038947  -0.325401
    23  H    0.039234   0.000000   0.136209  -0.082049  -0.020362   0.095980
    24  H    0.039398   0.000000  -0.055209   0.048336  -0.142797   0.096267
    25  H    0.036819   0.000000   0.023011   0.118694   0.100210   0.093974
    26  H    0.043680   0.000000  -0.115927   0.092488   0.016368   0.107928
    27  N   -0.133429   0.000000  -0.006151  -0.107331  -0.093980  -0.391966
    28  C   -0.047082   0.000000  -0.000525   0.007069   0.021700  -0.146448
    29  H    0.025739   0.000000  -0.022947  -0.093223  -0.083893   0.091430
    30  H    0.041755   0.000000  -0.127509   0.074849   0.016948   0.106073
    31  H    0.042383   0.000000   0.086758   0.095426  -0.064663   0.107714
    32  C   -0.048086   0.000000   0.006857   0.021201   0.000235  -0.148577
    33  H    0.042135   0.000000  -0.130220   0.069484   0.025031   0.106453
    34  H    0.025708   0.000000  -0.024674  -0.101728  -0.076028   0.092514
    35  H    0.043969   0.000000   0.039835  -0.047432   0.137788   0.108926
       Tot   0.000045   0.000000  -0.046168  -0.026301  -0.032967   0.000045
 Hirshfeld charges with hydrogens summed into heavy atoms:
              Q-H       Q-CM5   
     1  C   -0.005682  -0.005410
     2  C    0.003695   0.015285
     3  C   -0.008599  -0.009059
     4  C   -0.003759  -0.010833
     5  C   -0.102453  -0.139041
     6  C   -0.001271  -0.002211
     8  C    0.052001   0.096892
     9  C   -0.006381  -0.009243
    11  C   -0.004128  -0.003770
    12  C   -0.017899  -0.007816
    16  Si   0.278541   0.228098
    18  C   -0.088945  -0.039786
    22  C   -0.088166  -0.039181
    27  N   -0.133429  -0.391966
    28  C    0.062794   0.158769
    32  C    0.063726   0.159317
 
 EQQ= 0.000000000000E+00 EQD= 0.000000000000E+00 EDD= 0.870337607557E-02
 EQQ+QD+DD= 0.870337607557E-02
 
          MBS Condensed to atoms (all electrons):
               1          2          3          4          5          6
     1  C    4.841574   0.516757  -0.030071  -0.010862  -0.030143   0.485421
     2  C    0.516757   4.850037   0.482682  -0.029381  -0.011837  -0.030553
     3  C   -0.030071   0.482682   4.763541   0.474126  -0.029627  -0.010889
     4  C   -0.010862  -0.029381   0.474126   4.745704   0.472395  -0.029425
     5  C   -0.030143  -0.011837  -0.029627   0.472395   4.982099   0.507731
     6  C    0.485421  -0.030553  -0.010889  -0.029425   0.507731   4.842983
     7  H    0.392191  -0.026047   0.001499   0.000053   0.001521  -0.026362
     8  C    0.000948  -0.032306   0.479227  -0.028674   0.001022   0.000035
     9  C    0.000033   0.001055  -0.031436   0.484256  -0.034728   0.000979
    10  H   -0.027118   0.001500   0.000026   0.001609  -0.028196   0.392194
    11  C    0.000001   0.000043  -0.009484  -0.030573   0.000994  -0.000013
    12  C   -0.000010   0.000887  -0.034659  -0.009899   0.000026   0.000000
    13  H   -0.000002  -0.000025   0.001449  -0.026181  -0.004833   0.000053
    14  H    0.000000   0.000001   0.000016   0.001518  -0.000024   0.000000
    15  H    0.000000  -0.000026   0.001353   0.000056   0.000001   0.000000
    16  Si   0.000890   0.000022   0.000881  -0.020422   0.356945  -0.018717
    17  H   -0.000003   0.000000  -0.000012  -0.000257  -0.007757   0.000167
    18  C   -0.000002   0.000000  -0.000002  -0.000029  -0.006409  -0.000074
    19  H    0.000000   0.000000  -0.000001   0.000042  -0.000171   0.000007
    20  H    0.000000   0.000000   0.000000  -0.000001   0.000211   0.000001
    21  H   -0.000001   0.000000   0.000000   0.000010  -0.000148   0.000055
    22  C    0.000003   0.000000  -0.000001   0.000075  -0.006083  -0.000960
    23  H    0.000000   0.000000   0.000000  -0.000001   0.000192   0.000020
    24  H   -0.000002   0.000000   0.000000   0.000001  -0.000155   0.000091
    25  H   -0.000001   0.000000   0.000000   0.000002  -0.000275  -0.000320
    26  H   -0.024583   0.389354  -0.025987   0.001437   0.000045   0.001435
    27  N    0.000037  -0.005307  -0.027364   0.000511  -0.000004   0.000000
    28  C    0.000002  -0.000549  -0.000705  -0.000017   0.000000   0.000000
    29  H    0.000000   0.000009  -0.000109   0.000003   0.000000   0.000000
    30  H    0.000000   0.000003   0.000012   0.000000   0.000000   0.000000
    31  H    0.000004   0.000546   0.000473  -0.000020   0.000000   0.000000
    32  C    0.000000   0.000060   0.001071  -0.000013   0.000000   0.000000
    33  H    0.000000  -0.000001  -0.000022   0.000000   0.000000   0.000000
    34  H    0.000000  -0.000003  -0.000056   0.000000   0.000000   0.000000
    35  H    0.000000   0.000007   0.000104  -0.000002   0.000000   0.000000
               7          8          9         10         11         12
     1  C    0.392191   0.000948   0.000033  -0.027118   0.000001  -0.000010
     2  C   -0.026047  -0.032306   0.001055   0.001500   0.000043   0.000887
     3  C    0.001499   0.479227  -0.031436   0.000026  -0.009484  -0.034659
     4  C    0.000053  -0.028674   0.484256   0.001609  -0.030573  -0.009899
     5  C    0.001521   0.001022  -0.034728  -0.028196   0.000994   0.000026
     6  C   -0.026362   0.000035   0.000979   0.392194  -0.000013   0.000000
     7  H    0.556028  -0.000022   0.000001  -0.003497   0.000000   0.000000
     8  C   -0.000022   4.766997  -0.011438   0.000001  -0.028497   0.515319
     9  C    0.000001  -0.011438   4.876190  -0.000021   0.516773  -0.031199
    10  H   -0.003497   0.000001  -0.000021   0.563503   0.000000   0.000000
    11  C    0.000000  -0.028497   0.516773   0.000000   4.832902   0.486259
    12  C    0.000000   0.515319  -0.031199   0.000000   0.486259   4.883211
    13  H    0.000000   0.000055   0.391651  -0.000002  -0.024658   0.001454
    14  H    0.000000   0.001446  -0.025835   0.000000   0.392620  -0.026242
    15  H    0.000000  -0.026145   0.001475   0.000000  -0.025237   0.392869
    16  Si  -0.000024  -0.000011  -0.008654  -0.004183   0.000079   0.000000
    17  H    0.000000   0.000000  -0.004841   0.000019   0.000064  -0.000001
    18  C    0.000000   0.000000  -0.000016   0.000046   0.000000   0.000000
    19  H    0.000000   0.000000   0.000069   0.000001   0.000000   0.000000
    20  H    0.000000   0.000000   0.000001  -0.000003   0.000000   0.000000
    21  H    0.000000   0.000000   0.000000   0.000027   0.000000   0.000000
    22  C    0.000000   0.000000   0.000014   0.000154   0.000000   0.000000
[...]
 009765,0.00003565,0.00014415,-0.00006772,-0.00004703,-0.00020163,-0.00
 004089,0.00007342,0.00003320,-0.00009477,0.00006627,0.00001378,0.00000
 157,0.00000831,0.00002430,0.00000423,-0.00001380,0.00002458,0.00000328
 ,0.00001304,-0.00362406,-0.00215805,-0.00494168,0.00003985,-0.00008599
 ,-0.00006568,0.00000660,0.00000879,0.00000295,-0.00028206,-0.00041051,
 0.00028923,0.00141437,-0.00098457,-0.00043698,0.00002005,0.00000886,-0
 .00003586,0.00007197,-0.00014930,-0.00003744,-0.00008523,0.00005479,-0
 .00018401,-0.00007445,0.00003411,-0.00000277,0.00001634,-0.00000886,0.
 00000511,0.00001038,-0.00001168,-0.00001054,-0.00000077,0.00000463,0.0
 0001439,0.00000533,-0.00000248,-0.00000426,0.00000306,0.00000220,0.000
 00085,0.00001775,-0.00001057,-0.00000310,0.00000613,-0.00000108,0.0000
 0117,0.00000016,0.00000232,0.00000100,0.,0.00000176,0.00000138,-0.0000
 5222,0.00002317,-0.00002460,0.01434880,-0.03323117,-0.01416207,0.00639
 397,-0.02480348,-0.05065188,-0.00497516,0.01288772,0.00293064,-0.01259
 947,0.03761793,0.06385443,0.00004020,0.00009042,0.00006111,-0.00077549
 ,-0.00032965,0.00125146,-0.00015146,0.00050813,0.00141285,0.00040232,-
 0.00058516,-0.00027700,-0.00008972,-0.00009050,0.00003350,-0.00011422,
 0.00015282,-0.00001709,0.00000367,0.00000126,-0.00000693,0.00000037,0.
 00132166,0.00050936,0.00022525,0.00010158,0.00001074,0.00000728,0.0000
 1016,-0.00002035,-0.00022055,0.00024395,0.00010038,-0.00027902,-0.0005
 8762,-0.00022322,0.00001293,0.00000822,-0.00000666,-0.00000788,-0.0000
 1040,0.00000978,0.00004712,0.00005815,-0.00001308,-0.00007111,0.000069
 21,0.00001565,0.00000633,-0.00002026,0.00000566,0.00000838,-0.00001382
 ,0.00000095,0.00000033,0.00000172,0.00000366,0.00000020,-0.00000230,-0
 .00000550,-0.00000063,0.00000129,0.00000330,0.00001671,-0.00001331,-0.
 00000350,0.00000635,0.00000006,0.00000058,-0.00000029,0.00000169,0.000
 00159,-0.00000153,0.00000051,0.00000092,-0.00069067,0.00008317,0.00092
 659,0.00242867,-0.00124279,-0.00037156,-0.27829589,0.03100179,-0.09539
 753,-0.01763096,0.00285021,-0.00618313,-0.00638102,0.00032320,-0.00173
 375,0.30001088,0.00001648,-0.00019805,-0.00006493,0.00006003,0.0006101
 6,-0.00028730,0.00070843,0.00001811,-0.00036381,-0.00002910,0.00003171
 ,0.00004463,0.00001968,-0.00005844,-0.00004339,0.00000062,0.00003141,0
 .00004547,-0.00005921,-0.00000343,-0.00000897,-0.00121296,0.00002723,-
 0.00038888,-0.00009935,-0.00010266,-0.00003051,0.00000702,-0.00002283,
 0.00000485,0.00011714,-0.00007309,-0.00007545,-0.00009909,0.00005631,0
 .00005811,-0.00000326,-0.00000239,0.00000608,-0.00000035,0.00000932,-0
 .00000502,0.00001470,0.00003523,0.00003518,0.00002491,0.00001987,-0.00
 002682,-0.00001111,-0.00000692,0.00000601,-0.00000478,-0.00000454,0.00
 001154,0.00000083,-0.00000255,-0.00000764,-0.00000180,0.00000060,-0.00
 000164,-0.00000035,-0.00000062,0.00000292,-0.00001265,-0.00000077,0.00
 000145,-0.00000193,0.00000035,-0.00000013,0.00000601,0.00000103,0.0000
 0016,-0.00000289,-0.00000169,0.00000279,-0.00017199,-0.00026041,0.0006
 0285,-0.00634840,-0.00063031,-0.00368537,0.03243680,-0.05235162,0.0130
 6865,-0.01981833,0.00268468,-0.00754204,0.02791019,-0.00174038,0.01179
 438,-0.03359803,0.05120179,0.00024834,0.00012494,0.00012149,0.00058742
 ,-0.00032099,-0.00003986,-0.00004996,-0.00027868,-0.00011105,0.0002229
 3,-0.00036134,-0.00008778,-0.00022267,0.00014971,-0.00001044,-0.000031
 96,0.00015144,-0.00001129,-0.00002226,-0.00002605,0.00000979,-0.001947
 62,0.00135026,0.00099342,0.00021252,0.00011021,0.00001488,-0.00003764,
 0.00002570,0.00000311,-0.00024588,0.00023922,-0.00008173,0.00021695,-0
 .00061645,-0.00011948,0.00001887,0.00002416,0.00003402,0.00001537,-0.0
 0001448,-0.00000855,0.00005274,0.00011386,0.00002860,0.00019656,-0.000
 27242,-0.00005330,-0.00002850,0.00006289,0.00000712,-0.00005270,0.0000
 6889,0.00001672,0.00000689,-0.00000455,-0.00001064,-0.00000545,0.00001
 291,0.00002920,0.00000301,-0.00000885,-0.00000970,-0.00005089,0.000053
 28,0.00001019,-0.00001963,0.00000448,-0.00000222,0.00001059,-0.0000068
 4,0.00000386,0.00001132,-0.00000435,-0.00000247,0.00043195,0.00050326,
 -0.00087393,-0.03239114,0.00524309,-0.01765009,-0.08421795,0.01014705,
 -0.08369222,0.01313876,-0.00257594,0.00657567,0.00459244,0.00065853,0.
 00205628,0.09951676,-0.01184104,0.09942562,0.00028229,-0.00004155,0.00
 003367,-0.00026564,0.00017958,0.00004284,0.00212415,0.00141693,-0.0006
 4300,-0.00092810,-0.00043366,-0.00018058,0.00022274,-0.00006387,0.0001
 1035,-0.00008311,0.00013405,0.00006515,0.00002681,0.00003568,-0.000019
 31,-0.02832767,0.01200622,0.00052250,0.00078817,-0.00072695,-0.0002605
 4,0.00008653,-0.00001136,-0.00000103,-0.00138951,0.00018524,-0.0012217
 0,0.00276385,-0.00347740,-0.00143466,-0.00008805,-0.00005043,0.0001972
 0,0.00010823,-0.00031550,-0.00005384,-0.00031709,-0.00082853,0.0004277
 0,-0.00073592,0.00056286,0.00018539,0.00012682,-0.00012701,-0.00001907
 ,0.00014050,-0.00015789,-0.00009883,-0.00001960,0.00003436,0.00008263,
 0.00003658,-0.00003636,-0.00006330,0.00000757,0.00002341,0.00001379,0.
 00016311,-0.00010119,-0.00004414,0.00005456,-0.00002084,0.00000321,-0.
 00003414,0.00001821,-0.00000863,-0.00000994,0.00001858,0.00000913,-0.0
 0025508,-0.00027381,-0.00017394,-0.18439776,0.02883841,-0.06003124,-0.
 00586546,-0.00413880,-0.00569630,0.00242097,0.00047175,0.00503143,0.00
 054218,0.00065977,0.00186860,0.00106703,0.00033077,0.00187763,0.469449
 74,0.00027002,0.00041571,0.00013921,-0.00081604,-0.00042864,0.00018407
 ,-0.00013659,-0.00320624,-0.00167993,0.00055276,0.00025249,-0.00078921
 ,-0.00000549,-0.00015974,-0.00001036,-0.00016785,0.00011393,0.00004894
 ,0.00000147,0.00000013,-0.00000797,0.03144627,-0.00807007,0.01349446,0
 .00039479,-0.00050519,-0.00013348,-0.00000410,0.00005051,-0.00000213,0
 .00063130,0.00090684,0.00020201,0.00232553,-0.00283874,0.00088628,-0.0
 0000757,0.00000288,0.00003330,-0.00007698,0.00008056,0.00001486,0.0016
 9962,-0.00188692,-0.00022274,-0.00012017,0.00006697,-0.00005765,0.0000
 2667,-0.00000948,0.00001220,0.00002043,-0.00002715,-0.00001895,-0.0000
 0252,0.00001187,0.00002749,0.00000789,-0.00000438,-0.00000842,0.000004
 76,0.00000313,0.00000253,0.00002658,-0.00001709,0.00000018,0.00001057,
 0.00000147,0.00000343,0.00000270,0.00000345,0.00000494,0.00000200,0.00
 000261,0.00000075,0.00048200,0.00056182,-0.00005469,0.00995010,-0.0805
 2147,-0.01591346,-0.00753902,0.00178235,0.00333417,0.00226268,0.000855
 35,0.00025882,-0.00135950,0.00007843,-0.00174260,-0.00034230,-0.000576
 31,-0.00270118,-0.01265591,0.56608192,0.00000952,-0.00000981,0.0000574
 7,0.00026870,-0.00019565,-0.00006519,0.00219123,-0.00359590,-0.0002152
 6,0.00078958,0.00005984,0.00011100,0.00039596,-0.00035154,-0.00012612,
 0.00010701,-0.00010987,0.00001885,0.00007646,0.00005044,-0.00002567,0.
 00632420,0.00615319,0.00590855,0.00052143,-0.00021577,0.00000142,0.000
 05739,-0.00000901,0.00000116,-0.00045917,0.00028895,-0.00021709,0.0012
 3633,-0.00273174,-0.00117994,0.00003011,-0.00004522,-0.00001261,0.0000
 2318,-0.00024429,0.00000986,0.00008001,-0.00038606,0.00047513,-0.00034
 633,0.00034846,0.00018258,0.00007259,-0.00007421,-0.00001947,0.0000805
 2,-0.00008290,-0.00007461,-0.00001336,0.00000283,0.00004459,0.00001463
 ,-0.00001693,-0.00004047,0.00001591,0.00001353,0.00000604,0.00010963,-
 0.00009599,-0.00004733,0.00004434,-0.00000761,0.00001048,-0.00002268,0
 .00000769,-0.00000589,-0.00000543,0.00001266,0.00000555,-0.00044035,-0
 .00018253,-0.00016263,-0.03753063,-0.00602597,-0.10434392,-0.03888908,
 0.00164662,-0.02842450,-0.00158663,-0.00030036,0.00231428,-0.00051217,
 0.00100972,0.00119284,-0.00008604,-0.00139317,-0.00597664,-0.03055813,
 0.02960929,0.58443400,-0.00009704,-0.00010316,-0.00003004,0.00008238,0
 .00019770,-0.00003795,-0.00019337,0.00125940,0.00020019,-0.00022024,-0
 .00011140,0.00023908,-0.00006399,0.00009168,0.00005647,0.00001737,-0.0
 0002446,-0.00004097,-0.00003271,-0.00001144,0.00000378,-0.00310990,-0.
 00035222,-0.00481070,-0.00014748,0.00012289,-0.00001629,-0.00001430,-0
 .00001087,-0.00000075,0.00035945,-0.00001402,0.00012362,-0.00078956,-0
 .00045851,0.00012770,0.00003575,0.00000964,-0.00001135,-0.00002179,0.0
 0006105,0.00001778,0.00052105,0.00018916,0.00012331,0.00013164,-0.0001
 0377,-0.00002299,-0.00002648,0.00001990,0.00000173,-0.00002581,0.00002
 902,0.00002203,0.00000345,-0.00000590,-0.00001879,-0.00000639,0.000006
 32,0.00001214,-0.00000431,-0.00000458,-0.00000168,-0.00003626,0.000025
 03,0.00000755,-0.00001272,0.00000234,-0.00000286,0.00000518,-0.0000024
 7,-0.00000031,0.00000063,-0.00000421,-0.00000065,-0.00004261,-0.000023
 38,-0.00000583,-0.02065440,0.03280251,0.00521274,0.00059776,0.00101825
 ,0.00166588,-0.00002740,-0.00029057,-0.00033514,0.00022601,-0.00053155
 ,-0.00067446,0.00006044,-0.00027336,0.00029126,-0.06367694,0.06245653,
 0.01148527,0.08113114,0.00003036,0.00000669,0.00000366,0.00009691,0.00
 002671,0.00002692,-0.00020922,-0.00013705,0.00013493,0.00003608,-0.000
 09611,-0.00006269,0.00004236,-0.00001652,-0.00000156,0.00005454,0.0000
 0245,0.00001442,0.00002276,0.00001535,-0.00000299,-0.00080028,0.000626
 95,0.00113267,0.00013961,-0.00005386,-0.00001365,0.00001669,0.00000234
 ,0.00000211,0.00013500,0.00018578,0.00023323,-0.00036497,-0.00010674,-
 0.00011114,0.00004249,-0.00000179,-0.00002393,-0.00000805,-0.00002829,
 -0.00000521,0.00035093,0.00031461,-0.00006008,-0.00015807,0.00011939,0
 .00003225,0.00003154,-0.00002446,-0.00000186,0.00003085,-0.00003099,-0
 .00002152,-0.00000259,0.00000640,0.00001861,0.00000710,-0.00000825,-0.
 00001320,0.00000188,0.00000553,0.00000247,0.00004140,-0.00002582,-0.00
 000917,0.00001297,-0.00000468,0.00000179,-0.00000713,0.00000379,-0.000
 00123,-0.00000301,0.00000482,0.00000191,-0.00000065,-0.00003181,-0.000
 02595,0.00572659,-0.00081824,-0.00058164,-0.00077434,0.00052049,-0.001
 10855,-0.00015724,-0.00055727,0.00006834,0.00031192,0.00037215,0.00078
 869,-0.00017506,0.00054129,0.00017399,0.06883413,-0.27834677,-0.043350
 20,-0.07733232,0.30007780,-0.00014558,0.00007044,-0.00004354,0.0002094
 0,0.00016524,-0.00002309,-0.00057737,0.00036945,0.00034380,-0.00019152
 ,-0.00040986,-0.00000871,0.00009498,0.00009070,0.00001364,0.00003744,-
 0.00013715,-0.00002934,-0.00000049,0.00000348,0.00000335,-0.00149915,-
 0.00034104,-0.00149204,0.00034483,0.00017050,-0.00003735,0.00000324,-0
 .00000589,0.00001057,-0.00030211,0.00026453,0.00028197,0.00015721,-0.0
 0067926,0.00062559,0.00001882,0.00000615,-0.00001613,-0.00001204,-0.00
 000606,0.00002659,0.00040021,-0.00004211,-0.00041318,-0.00005278,0.000
 03537,0.00001945,0.00000947,-0.00000702,-0.00000262,0.00000802,-0.0000
 1004,-0.00000904,-0.00000053,0.00000243,0.00000571,0.00000274,-0.00000
 205,-0.00000325,0.00000076,0.00000207,0.00000065,0.00001030,-0.0000059
 3,-0.00000245,0.00000314,-0.00000183,-0.00000019,-0.00000305,0.0000013
 5,-0.00000178,-0.00000059,0.00000134,0.00000048,-0.00001083,-0.0000457
 9,0.00006555,-0.00733775,0.01378516,0.00146710,-0.00062229,0.00200804,
 0.00085036,0.00002539,-0.00011178,-0.00015918,-0.00006996,-0.00043565,
 0.00007392,0.00015872,0.00008199,0.00019844,0.01431057,-0.04642739,-0.
 05798055,-0.01054433,0.04738089,0.05664514,-0.00012896,0.00021545,-0.0
 0001787,0.00007745,0.00001533,0.00006404,-0.00120837,0.00099621,-0.000
 23453,-0.00015080,-0.00031650,-0.00023134,-0.00010786,0.00021195,0.000
 06610,-0.00001093,-0.00008307,-0.00003657,-0.00002291,-0.00001958,0.00
 001411,0.00271859,-0.00639991,-0.00174994,0.00008364,0.00016931,0.0001
 0093,-0.00003663,0.00001503,0.00000701,0.00048778,0.00029433,0.0001244
 4,-0.00031077,0.00067246,0.00061007,0.00005985,0.00001687,0.00002144,-
 0.00004983,0.00011362,0.00000832,0.00006746,0.00121444,0.00070426,0.00
 019508,-0.00023169,-0.00007272,-0.00003248,0.00005488,0.00000682,-0.00
 004612,0.00005945,0.00002777,0.00000684,-0.00000945,-0.00001832,-0.000
 01024,0.00001199,0.00002357,0.00000018,-0.00000740,-0.00000676,-0.0000
 5520,0.00005458,0.00001574,-0.00002308,0.00000557,-0.00000340,0.000011
 49,-0.00000685,0.00000326,0.00000798,-0.00000537,-0.00000225,0.0003248
 0,0.00028228,0.00011122,-0.03847182,-0.01442968,0.00262199,0.00039438,
 0.00050801,0.00501423,0.00084293,0.00051359,-0.00173837,-0.00000081,-0
 .00012578,-0.00046541,0.00023540,0.00036936,-0.00037595,-0.14352677,-0
 .09333674,0.06160736,0.00676647,0.00410364,-0.00296019,0.17233864,-0.0
 0002574,-0.00004368,-0.00002883,0.00003456,-0.00001697,-0.00002447,-0.
 00000704,0.00002473,0.00026312,0.00012115,0.00019764,0.00008835,-0.000
 08616,0.00002053,-0.00003299,0.00001190,0.00002546,0.00000190,-0.00000
 317,-0.00000829,0.00000943,0.00156975,-0.00068252,-0.00102186,-0.00037
 822,0.00004237,0.00001443,-0.00001676,-0.00000111,-0.00000184,0.000441
 66,-0.00024555,0.00059575,-0.00073119,0.00057627,-0.00010686,0.0000251
 5,0.00002784,-0.00010400,-0.00001048,0.00004914,-0.00002493,0.00131220
 ,-0.00071058,-0.00075996,0.00015142,-0.00013244,-0.00003004,-0.0000258
 8,0.00002859,0.00000015,-0.00002968,0.00003498,0.00001816,0.00000357,-
 0.00000850,-0.00001703,-0.00000817,0.00000837,0.00001349,0.00000038,-0
 .00000478,-0.00000390,-0.00003684,0.00002504,0.00000929,-0.00001330,0.
 00000424,-0.00000103,0.00000660,-0.00000418,0.00000118,0.00000309,-0.0
 0000391,-0.00000198,0.00005932,0.00000289,0.00003263,-0.00068640,0.008
 78187,-0.00545829,0.00024898,0.00057008,0.00017131,-0.00049143,-0.0003
 1661,-0.00085483,0.00003337,-0.00050403,0.00028922,0.00012868,0.000131
 97,-0.00027214,-0.09253646,-0.14112854,0.06032038,-0.01986116,-0.02008
 232,0.01369651,0.10655762,0.15040303,-0.00003844,0.00002562,0.00001117
 ,-0.00013205,0.00002470,0.00003634,-0.00014762,-0.00000631,-0.00015357
 ,-0.00006047,0.00001487,-0.00005555,0.00000428,-0.00001396,0.00001108,
 -0.00003652,-0.00000819,-0.00001677,-0.00001130,-0.00000657,0.00000428
 ,-0.00006626,-0.00040534,0.00044500,-0.00001491,0.00004156,0.00006337,
 -0.00000215,0.00000175,-0.00000202,-0.00033231,-0.00014781,-0.00019009
 ,0.00125627,0.00072193,-0.00012649,-0.00004491,-0.00000137,0.00001617,
 0.00003113,-0.00001340,-0.00002488,-0.00025074,-0.00042292,0.00022310,
 0.00000783,0.00001998,-0.00001403,-0.00000491,-0.00000504,0.00000158,0
 .00000063,-0.00000579,0.00000511,0.00000046,0.00000385,-0.00000322,0.0
 0000108,-0.00000140,0.00000013,-0.00000451,-0.00000050,0.00000171,-0.0
 0000204,-0.00000136,0.00000291,0.00000005,-0.00000020,-0.00000035,0.00
 000043,0.00000030,0.00000035,-0.00000192,-0.00000080,-0.00000057,-0.00
 001385,0.00004655,-0.00000466,-0.01128524,-0.01012178,0.00539389,-0.00
 220344,-0.00211448,0.00422710,0.00149452,0.00107075,0.00082150,0.00007
 513,0.00014793,-0.00022883,0.00024929,0.00017234,-0.00000262,0.0603094
 2,0.05886624,-0.09075599,-0.00395627,-0.00393659,0.00242698,-0.0650994
 4,-0.06467926,0.08940300,-0.00011563,0.00008001,0.00002731,0.00012174,
 0.00004389,0.00000245,-0.00044466,-0.00034186,0.00008319,-0.00001425,-
 0.00023837,-0.00007354,0.00008501,0.00002240,0.00000915,0.00001687,-0.
 00010699,-0.00003226,0.00000245,0.00000463,-0.00000587,0.00180594,-0.0
 0128826,-0.00139415,0.00025147,0.00013970,0.00004820,0.00000149,0.0000
 0116,0.00000144,-0.00033903,0.00019324,0.00018689,0.00043800,0.0005417
 6,0.00025380,-0.00000186,0.00000442,-0.00001530,0.00000266,-0.00000080
 ,-0.00001013,-0.00015177,0.00011152,-0.00008239,-0.00002798,0.00002929
 ,0.00000071,0.00000480,-0.00000725,0.00000152,0.00000500,-0.00000783,-
 0.00000318,0.00000057,0.00000492,0.00000400,0.00000315,-0.00000257,-0.
 00000080,-0.00000252,0.00000083,0.00000142,0.00000880,-0.00000618,0.00
 000052,0.00000354,-0.00000078,0.00000059,-0.00000078,0.00000064,0.0000
 0020,-0.00000143,0.00000032,-0.00000055,0.00002285,0.00003811,-0.00005
 605,-0.00238035,-0.00580614,-0.03559765,-0.00556929,0.00186915,-0.0013
 5520,0.00006897,0.00029401,-0.00035624,0.00002033,-0.00026279,0.000275
 20,0.00013056,-0.00027403,-0.00195210,-0.05049103,0.00399614,0.0249086
 3,-0.00073502,-0.00007680,0.00853532,-0.00042540,0.00423867,0.02027878
 ,0.05770679,0.00007985,-0.00010311,0.00002387,-0.00014303,-0.00001059,
 0.00001825,0.00021199,0.00005647,0.00023199,0.00006265,0.00026053,0.00
 005217,-0.00010336,-0.00002782,-0.00004220,-0.00003455,0.00010589,0.00
 002163,-0.00001305,-0.00000799,-0.00000648,-0.00016707,0.00072748,0.00
 157792,-0.00033797,-0.00007935,0.00003428,-0.00000868,-0.00000079,-0.0
 0000706,0.00023319,-0.00032552,-0.00026804,0.00016199,0.00009360,-0.00
 024037,-0.00003286,-0.00000106,0.00001464,0.00001291,0.00000842,-0.000
 00165,-0.00017028,-0.00064291,0.00066780,0.00009395,-0.00006161,-0.000
 03268,-0.00001892,0.00001271,0.00000328,-0.00001424,0.00001793,0.00001
 674,0.00000198,-0.00000396,-0.00001388,-0.00000490,0.00000366,0.000007
 25,-0.00000354,-0.00000379,-0.00000055,-0.00002519,0.00001482,0.000006
 40,-0.00000786,0.00000239,-0.00000058,0.00000484,-0.00000205,0.0000014
 6,-0.00000002,-0.00000302,-0.00000093,0.00001432,-0.00000720,-0.000062
 72,0.00066380,-0.00107007,0.00403647,0.00079516,-0.00015076,0.00022325
 ,0.00007191,0.00013252,-0.00041939,-0.00017369,0.00051556,0.00017842,0
 .00005330,0.00063595,0.00008743,0.00224755,-0.05354569,-0.04009886,0.0
 0122793,-0.00246155,-0.02946682,-0.00148395,0.00293893,0.02073469,-0.0
 0319416,0.05298196,-0.00005648,0.00003811,0.00002484,0.00011025,0.0000
 3387,0.00008460,-0.00067967,0.00022755,0.00010577,0.00002149,-0.000208
 77,-0.00009299,-0.00001826,0.00007175,0.00000566,0.00005814,-0.0000457
 8,-0.00001745,0.00000302,0.00000171,-0.00000051,0.00117111,-0.00196164
 ,0.00025400,0.00011929,0.00013607,0.00001006,-0.00000602,0.00000539,-0
 .00000084,0.00007567,0.00010971,0.00024337,-0.00001002,-0.00013248,0.0
 0048741,0.00003195,0.00000415,-0.00001341,-0.00001013,0.00002881,-0.00
 001141,0.00050823,0.00024274,-0.00019931,0.00001682,-0.00001874,-0.000
 03622,-0.00000196,0.00000414,0.00000737,-0.00000565,0.00000488,0.00000
 799,0.00000242,0.00000231,-0.00000051,0.00000004,0.00000048,0.00000338
 ,-0.00000271,-0.00000101,0.00000045,-0.00000288,0.00000387,0.00000710,
 -0.00000207,0.00000004,-0.00000044,0.00000316,0.00000015,0.00000168,-0
 .00000162,-0.00000109,-0.00000046,0.00004882,0.00007191,-0.00004583,-0
 .00275905,-0.00223600,-0.01393053,-0.00352429,0.00115437,0.00024786,0.
 00015338,-0.00000116,0.00036150,0.00017016,0.00005348,0.00022965,0.000
 07252,-0.00017330,-0.00078441,0.01541702,-0.03735303,-0.30509990,0.000
 92085,-0.00068573,-0.00283684,0.00186038,-0.00210104,-0.01151512,-0.01
 368391,0.04272427,0.33250351\\0.,-0.00000509,0.00000689,-0.00000965,-0
 .00000409,-0.00000022,0.00000608,0.00000159,-0.00000340,0.00001146,0.0
 0001210,0.00000871,-0.00000569,-0.00000032,0.00000324,-0.00000005,0.00
 000267,0.00000622,0.00000400,-0.00000460,0.00000610,0.00000711,-0.0000
 2332,0.00001725,-0.00001757,-0.00000999,-0.00001406,-0.00000009,-0.000
 00522,0.00000445,0.00001301,-0.00001314,-0.00001009,-0.00000604,0.0000
 1697,-0.00000232,0.00000008,0.00000394,0.00000008,-0.00000073,0.000011
 96,-0.00000666,0.00000036,0.00000787,-0.00000463,0.00000186,-0.0000113
 8,-0.00001281,-0.00000991,0.00000585,-0.00000281,0.00000552,-0.0000008
 6,0.00002611,0.00000360,0.00000298,-0.00000858,0.00000185,0.00000139,-
 0.00000365,0.00000332,0.00000182,-0.00000583,-0.00002467,-0.00000861,-
 0.00000435,0.00000159,-0.00000408,0.00000214,0.00000683,-0.00000350,0.
 00000376,0.00000515,0.00000161,0.00000315,-0.00000112,0.00000139,0.000
 00545,-0.00000765,0.00001454,-0.00001402,0.00000293,-0.00000631,-0.000
 01274,-0.00000215,-0.00000161,0.00000101,-0.00000075,-0.00000195,0.000
 00482,-0.00000514,0.00000108,0.00000261,0.00002774,0.00000590,0.000005
 46,-0.00000258,0.00000544,-0.00000027,-0.00000605,0.00000046,-0.000002
 95,-0.00000263,0.00000452,0.00000193\\\@


 LIVE PURE, SPEAK TRUE, RIGHT WRONG, FOLLOW THE KING...
 ELSE, WHEREFORE BORN......
           IDYLLS OF THE KING, TENNYSON
 Job cpu time:       0 days  9 hours 55 minutes 24.3 seconds.
 File lengths (MBytes):  RWF=   1305 Int=      0 D2E=      0 Chk=     19 Scr=      1
 Normal termination of Gaussian 09 at Wed Oct 13 17:34:33 2021.
