 Entering Gaussian System, Link 0=g09
 Initial command:
 /cm/shared/apps/gaussian/g09revD.01/g09/l1.exe "//home/sweav003/CHB/CHActivation_Mkhalid/OtherCharges/G09-Table6_7.com.o9447137.tmp/Gau-32157.inp" -scrdir="//home/sweav003/CHB/CHActivation_Mkhalid/OtherCharges/G09-Table6_7.com.o9447137.tmp/"
 Entering Link 1 = /cm/shared/apps/gaussian/g09revD.01/g09/l1.exe PID=     32158.
  
 Copyright (c) 1988,1990,1992,1993,1995,1998,2003,2009,2013,
            Gaussian, Inc.  All Rights Reserved.
  
 This is part of the Gaussian(R) 09 program.  It is based on
 the Gaussian(R) 03 system (copyright 2003, Gaussian, Inc.),
 the Gaussian(R) 98 system (copyright 1998, Gaussian, Inc.),
 the Gaussian(R) 94 system (copyright 1995, Gaussian, Inc.),
 the Gaussian 92(TM) system (copyright 1992, Gaussian, Inc.),
 the Gaussian 90(TM) system (copyright 1990, Gaussian, Inc.),
 the Gaussian 88(TM) system (copyright 1988, Gaussian, Inc.),
 the Gaussian 86(TM) system (copyright 1986, Carnegie Mellon
 University), and the Gaussian 82(TM) system (copyright 1983,
 Carnegie Mellon University). Gaussian is a federally registered
 trademark of Gaussian, Inc.
  
 This software contains proprietary and confidential information,
 including trade secrets, belonging to Gaussian, Inc.
  
 This software is provided under written license and may be
 used, copied, transmitted, or stored only in accord with that
 written license.
  
 The following legend is applicable only to US Government
 contracts under FAR:
  
                    RESTRICTED RIGHTS LEGEND
  
 Use, reproduction and disclosure by the US Government is
 subject to restrictions as set forth in subparagraphs (a)
 and (c) of the Commercial Computer Software - Restricted
 Rights clause in FAR 52.227-19.
  
 Gaussian, Inc.
 340 Quinnipiac St., Bldg. 40, Wallingford CT 06492
  
  
 ---------------------------------------------------------------
 Warning -- This program may not be used in any manner that
 competes with the business of Gaussian, Inc. or will provide
 assistance to any competitor of Gaussian, Inc.  The licensee
 of this program is prohibited from giving any competitor of
 Gaussian, Inc. access to this program.  By using this program,
 the user acknowledges that Gaussian, Inc. is engaged in the
 business of creating and licensing software in the field of
 computational chemistry and represents and warrants to the
 licensee that it is not a competitor of Gaussian, Inc. and that
 it will not use this program in any manner prohibited above.
 ---------------------------------------------------------------
  

 Cite this work as:
 Gaussian 09, Revision D.01,
 M. J. Frisch, G. W. Trucks, H. B. Schlegel, G. E. Scuseria, 
 M. A. Robb, J. R. Cheeseman, G. Scalmani, V. Barone, B. Mennucci, 
 G. A. Petersson, H. Nakatsuji, M. Caricato, X. Li, H. P. Hratchian, 
 A. F. Izmaylov, J. Bloino, G. Zheng, J. L. Sonnenberg, M. Hada, 
 M. Ehara, K. Toyota, R. Fukuda, J. Hasegawa, M. Ishida, T. Nakajima, 
 Y. Honda, O. Kitao, H. Nakai, T. Vreven, J. A. Montgomery, Jr., 
 J. E. Peralta, F. Ogliaro, M. Bearpark, J. J. Heyd, E. Brothers, 
 K. N. Kudin, V. N. Staroverov, T. Keith, R. Kobayashi, J. Normand, 
 K. Raghavachari, A. Rendell, J. C. Burant, S. S. Iyengar, J. Tomasi, 
 M. Cossi, N. Rega, J. M. Millam, M. Klene, J. E. Knox, J. B. Cross, 
 V. Bakken, C. Adamo, J. Jaramillo, R. Gomperts, R. E. Stratmann, 
 O. Yazyev, A. J. Austin, R. Cammi, C. Pomelli, J. W. Ochterski, 
 R. L. Martin, K. Morokuma, V. G. Zakrzewski, G. A. Voth, 
 P. Salvador, J. J. Dannenberg, S. Dapprich, A. D. Daniels, 
 O. Farkas, J. B. Foresman, J. V. Ortiz, J. Cioslowski, 
 and D. J. Fox, Gaussian, Inc., Wallingford CT, 2013.
 
 ******************************************
 Gaussian 09:  ES64L-G09RevD.01 24-Apr-2013
                23-Jul-2021 
 ******************************************
 %mem=100MW
 %nprocshared=20
 Will use up to   20 processors via shared memory.
 ---------------------------------------------------------------------
 # b3lyp/6-311+g(d,p) geom=connectivity pop=(hirshfeld,chelpg,mbs,npa)
 ---------------------------------------------------------------------
 1/38=1,57=2/1;
 2/12=2,17=6,18=5,40=1/2;
 3/5=4,6=6,7=111,11=2,16=1,25=1,30=1,74=-5/1,2,3;
 4//1;
 5/5=2,38=5/2;
 6/7=2,8=2,9=2,10=2,15=8,20=3,27=100,28=1,40=-1,79=1/1,2,7;
 99/5=1,9=1/99;
 --------
 Table6_7
 --------
 Symbolic Z-matrix:
 Charge =  0 Multiplicity = 1
 6                    -1.46554  -0.70209  -0.00012 
 6                    -1.53639   0.67046  -0.00017 
 6                    -0.1982    1.16454   0.00008 
 6                     0.6567    0.08239   0.00014 
 7                    -0.13138  -1.04852   0.00029 
 1                     0.21808  -1.99265  -0.00024 
 1                    -2.23823  -1.45352  -0.00021 
 1                    -2.44286   1.25552  -0.00005 
 1                     0.10767   2.19986   0.00046 
 6                     2.14914   0.00781  -0.00015 
 1                     2.53578  -0.51218   0.88379 
 1                     2.53539  -0.5106   -0.88519 
 1                     2.56958   1.01451   0.00068 
 
                          Input orientation:                          
 ---------------------------------------------------------------------
 Center     Atomic      Atomic             Coordinates (Angstroms)
 Number     Number       Type             X           Y           Z
 ---------------------------------------------------------------------
      1          6           0       -1.465541   -0.702089   -0.000117
      2          6           0       -1.536391    0.670457   -0.000168
      3          6           0       -0.198196    1.164544    0.000075
      4          6           0        0.656698    0.082387    0.000141
      5          7           0       -0.131378   -1.048517    0.000292
      6          1           0        0.218082   -1.992653   -0.000237
      7          1           0       -2.238226   -1.453521   -0.000206
      8          1           0       -2.442857    1.255522   -0.000047
      9          1           0        0.107666    2.199858    0.000461
     10          6           0        2.149136    0.007814   -0.000147
     11          1           0        2.535780   -0.512179    0.883791
     12          1           0        2.535386   -0.510600   -0.885191
     13          1           0        2.569579    1.014510    0.000678
 ---------------------------------------------------------------------
                    Distance matrix (angstroms):
                    1          2          3          4          5
     1  C    0.000000
     2  C    1.374373   0.000000
     3  C    2.256210   1.426495   0.000000
     4  C    2.262587   2.270565   1.379097   0.000000
     5  N    1.378406   2.220120   2.214069   1.378408   0.000000
     6  H    2.121354   3.189096   3.184522   2.120890   1.006735
     7  H    1.077818   2.236930   3.319034   3.277133   2.145422
     8  H    2.188010   1.078880   2.246504   3.314134   3.263668
     9  H    3.300951   2.245438   1.079549   2.187492   3.257159
    10  C    3.683728   3.744623   2.616867   1.494300   2.513281
    11  H    4.102186   4.331580   3.326707   2.159929   2.860413
    12  H    4.102126   4.330996   3.326000   2.159841   2.860955
    13  H    4.385078   4.120360   2.771839   2.127902   3.398713
                    6          7          8          9         10
     6  H    0.000000
     7  H    2.514779   0.000000
     8  H    4.198957   2.716761   0.000000
     9  H    4.193965   4.341703   2.719731   0.000000
    10  C    2.780438   4.624332   4.758485   2.995439   0.000000
    11  H    2.888777   4.945575   5.356563   3.745818   1.096008
    12  H    2.889554   4.945672   5.355891   3.744968   1.096013
    13  H    3.817403   5.404273   5.018227   2.732410   1.090967
                   11         12         13
    11  H    0.000000
    12  H    1.768983   0.000000
    13  H    1.764032   1.764056   0.000000
 Stoichiometry    C5H7N
 Framework group  C1[X(C5H7N)]
 Deg. of freedom    33
 Full point group                 C1      NOp   1
 Largest Abelian subgroup         C1      NOp   1
 Largest concise Abelian subgroup C1      NOp   1
                         Standard orientation:                         
 ---------------------------------------------------------------------
 Center     Atomic      Atomic             Coordinates (Angstroms)
 Number     Number       Type             X           Y           Z
 ---------------------------------------------------------------------
      1          6           0        1.465541   -0.702089    0.000117
      2          6           0        1.536391    0.670457    0.000168
      3          6           0        0.198196    1.164544   -0.000075
      4          6           0       -0.656698    0.082387   -0.000141
      5          7           0        0.131378   -1.048517   -0.000292
      6          1           0       -0.218082   -1.992653    0.000237
      7          1           0        2.238226   -1.453521    0.000206
      8          1           0        2.442857    1.255522    0.000047
      9          1           0       -0.107666    2.199858   -0.000461
     10          6           0       -2.149136    0.007814    0.000147
     11          1           0       -2.535780   -0.512179   -0.883791
     12          1           0       -2.535386   -0.510600    0.885191
     13          1           0       -2.569579    1.014510   -0.000678
 ---------------------------------------------------------------------
 Rotational constants (GHZ):      8.5951055      3.4240907      2.4866147
 Standard basis: 6-311+G(d,p) (5D, 7F)
 There are   180 symmetry adapted cartesian basis functions of A   symmetry.
 There are   174 symmetry adapted basis functions of A   symmetry.
   174 basis functions,   272 primitive gaussians,   180 cartesian basis functions
    22 alpha electrons       22 beta electrons
       nuclear repulsion energy       221.6040148673 Hartrees.
 NAtoms=   13 NActive=   13 NUniq=   13 SFac= 1.00D+00 NAtFMM=   60 NAOKFM=F Big=F
 Integral buffers will be    131072 words long.
 Raffenetti 2 integral format.
 Two-electron integral symmetry is turned on.
 One-electron integrals computed using PRISM.
 NBasis=   174 RedAO= T EigKep=  9.09D-06  NBF=   174
 NBsUse=   174 1.00D-06 EigRej= -1.00D+00 NBFU=   174
 ExpMin= 4.38D-02 ExpMax= 6.29D+03 ExpMxC= 9.49D+02 IAcc=2 IRadAn=         4 AccDes= 0.00D+00
 Harris functional with IExCor=  402 and IRadAn=       4 diagonalized for initial guess.
 HarFok:  IExCor=  402 AccDes= 0.00D+00 IRadAn=         4 IDoV= 1 UseB2=F ITyADJ=14
 ICtDFT=  3500011 ScaDFX=  1.000000  1.000000  1.000000  1.000000
 FoFCou: FMM=F IPFlag=           0 FMFlag=      100000 FMFlg1=           0
         NFxFlg=           0 DoJE=T BraDBF=F KetDBF=T FulRan=T
         wScrn=  0.000000 ICntrl=     500 IOpCl=  0 I1Cent=   200000004 NGrid=           0
         NMat0=    1 NMatS0=      1 NMatT0=    0 NMatD0=    1 NMtDS0=    0 NMtDT0=    0
 Petite list used in FoFCou.
 Requested convergence on RMS density matrix=1.00D-08 within 128 cycles.
 Requested convergence on MAX density matrix=1.00D-06.
 Requested convergence on             energy=1.00D-06.
 No special actions if energy rises.
 SCF Done:  E(RB3LYP) =  -249.559854220     A.U. after   12 cycles
            NFock= 12  Conv=0.55D-08     -V/T= 2.0046

 **********************************************************************

            Population analysis using the SCF density.

 **********************************************************************

 Orbital symmetries:
       Occupied  (A) (A) (A) (A) (A) (A) (A) (A) (A) (A) (A) (A)
                 (A) (A) (A) (A) (A) (A) (A) (A) (A) (A)
       Virtual   (A) (A) (A) (A) (A) (A) (A) (A) (A) (A) (A) (A)
                 (A) (A) (A) (A) (A) (A) (A) (A) (A) (A) (A) (A)
                 (A) (A) (A) (A) (A) (A) (A) (A) (A) (A) (A) (A)
                 (A) (A) (A) (A) (A) (A) (A) (A) (A) (A) (A) (A)
                 (A) (A) (A) (A) (A) (A) (A) (A) (A) (A) (A) (A)
                 (A) (A) (A) (A) (A) (A) (A) (A) (A) (A) (A) (A)
                 (A) (A) (A) (A) (A) (A) (A) (A) (A) (A) (A) (A)
                 (A) (A) (A) (A) (A) (A) (A) (A) (A) (A) (A) (A)
                 (A) (A) (A) (A) (A) (A) (A) (A) (A) (A) (A) (A)
                 (A) (A) (A) (A) (A) (A) (A) (A) (A) (A) (A) (A)
                 (A) (A) (A) (A) (A) (A) (A) (A) (A) (A) (A) (A)
                 (A) (A) (A) (A) (A) (A) (A) (A) (A) (A) (A) (A)
                 (A) (A) (A) (A) (A) (A) (A) (A)
 The electronic state is 1-A.
 Alpha  occ. eigenvalues --  -14.35336 -10.19556 -10.18656 -10.17575 -10.15059
 Alpha  occ. eigenvalues --  -10.14845  -0.97488  -0.77171  -0.76346  -0.67433
 Alpha  occ. eigenvalues --   -0.58744  -0.56728  -0.51454  -0.43655  -0.43618
 Alpha  occ. eigenvalues --   -0.42278  -0.39717  -0.38475  -0.38453  -0.36427
 Alpha  occ. eigenvalues --   -0.24479  -0.20767
 Alpha virt. eigenvalues --   -0.00410   0.01795   0.02470   0.02864   0.04499
 Alpha virt. eigenvalues --    0.04521   0.04792   0.06752   0.07175   0.07836
 Alpha virt. eigenvalues --    0.07973   0.08593   0.09627   0.11526   0.13381
 Alpha virt. eigenvalues --    0.13425   0.13901   0.14872   0.15321   0.16959
 Alpha virt. eigenvalues --    0.18037   0.19456   0.19514   0.20286   0.21182
 Alpha virt. eigenvalues --    0.21455   0.21681   0.22530   0.22851   0.23345
 Alpha virt. eigenvalues --    0.25487   0.26876   0.28035   0.29037   0.30511
 Alpha virt. eigenvalues --    0.33115   0.38601   0.42931   0.43245   0.43602
 Alpha virt. eigenvalues --    0.45239   0.49105   0.52870   0.54825   0.55808
 Alpha virt. eigenvalues --    0.58331   0.59432   0.60392   0.60824   0.61712
 Alpha virt. eigenvalues --    0.64676   0.64951   0.67154   0.69496   0.72513
 Alpha virt. eigenvalues --    0.74315   0.74931   0.78239   0.80602   0.82904
 Alpha virt. eigenvalues --    0.84369   0.84615   0.86177   0.87865   0.90867
 Alpha virt. eigenvalues --    0.95274   0.96557   1.00261   1.05838   1.06121
 Alpha virt. eigenvalues --    1.09250   1.11047   1.16114   1.18442   1.20762
 Alpha virt. eigenvalues --    1.36363   1.37065   1.45211   1.45334   1.51079
 Alpha virt. eigenvalues --    1.54954   1.55178   1.56202   1.57704   1.61389
 Alpha virt. eigenvalues --    1.62032   1.64058   1.66521   1.70124   1.73767
 Alpha virt. eigenvalues --    1.74858   1.79895   1.83319   1.85210   1.87202
 Alpha virt. eigenvalues --    1.92253   1.95350   1.95487   1.98861   1.99591
 Alpha virt. eigenvalues --    2.06504   2.08147   2.12064   2.18373   2.21899
 Alpha virt. eigenvalues --    2.26989   2.36130   2.39674   2.40292   2.43277
 Alpha virt. eigenvalues --    2.46174   2.47523   2.50478   2.52549   2.54897
 Alpha virt. eigenvalues --    2.57148   2.65591   2.66000   2.68317   2.71601
 Alpha virt. eigenvalues --    2.73158   2.75366   2.79253   2.79427   2.84901
 Alpha virt. eigenvalues --    2.89957   2.92927   2.93787   2.98085   3.03984
 Alpha virt. eigenvalues --    3.13958   3.25082   3.31153   3.44414   3.48915
 Alpha virt. eigenvalues --    3.52060   3.68844   3.78340   3.81237   3.88080
 Alpha virt. eigenvalues --    3.88163   4.08405   4.18829   4.37170   4.91796
 Alpha virt. eigenvalues --    5.12769  23.71553  23.88232  23.95741  24.13184
 Alpha virt. eigenvalues --   24.19627  35.61502
          Condensed to atoms (all electrons):
               1          2          3          4          5          6
     1  C    4.990653   0.687254  -0.263369   0.009406   0.311877  -0.035187
     2  C    0.687254   4.879962   0.325501   0.114883  -0.159145   0.003455
     3  C   -0.263369   0.325501   5.130084   0.334421  -0.075181   0.022519
     4  C    0.009406   0.114883   0.334421   5.483279   0.238494  -0.048537
     5  N    0.311877  -0.159145  -0.075181   0.238494   6.566352   0.381738
     6  H   -0.035187   0.003455   0.022519  -0.048537   0.381738   0.411671
     7  H    0.399170   0.003806  -0.017630   0.035609  -0.063747  -0.001662
     8  H   -0.031740   0.371009   0.030669  -0.031102   0.018152  -0.000105
     9  H   -0.008775   0.003927   0.391692  -0.044885   0.016755  -0.000195
    10  C    0.028424   0.014370  -0.125529   0.115813  -0.127827  -0.001512
    11  H    0.004797  -0.002691  -0.006274  -0.023829  -0.001977   0.000745
    12  H    0.004793  -0.002668  -0.006192  -0.023355  -0.001995   0.000750
    13  H   -0.003228   0.006452  -0.015088  -0.083516   0.014156  -0.000264
               7          8          9         10         11         12
     1  C    0.399170  -0.031740  -0.008775   0.028424   0.004797   0.004793
     2  C    0.003806   0.371009   0.003927   0.014370  -0.002691  -0.002668
     3  C   -0.017630   0.030669   0.391692  -0.125529  -0.006274  -0.006192
     4  C    0.035609  -0.031102  -0.044885   0.115813  -0.023829  -0.023355
     5  N   -0.063747   0.018152   0.016755  -0.127827  -0.001977  -0.001995
     6  H   -0.001662  -0.000105  -0.000195  -0.001512   0.000745   0.000750
     7  H    0.535087  -0.003710  -0.000225   0.000491  -0.000015  -0.000015
     8  H   -0.003710   0.538640  -0.005362  -0.001332   0.000016   0.000016
     9  H   -0.000225  -0.005362   0.545294  -0.005177  -0.000069  -0.000069
    10  C    0.000491  -0.001332  -0.005177   5.651723   0.388741   0.388127
    11  H   -0.000015   0.000016  -0.000069   0.388741   0.562666  -0.044253
    12  H   -0.000015   0.000016  -0.000069   0.388127  -0.044253   0.562665
    13  H    0.000026  -0.000028   0.001527   0.454998  -0.022846  -0.022850
              13
     1  C   -0.003228
     2  C    0.006452
     3  C   -0.015088
     4  C   -0.083516
     5  N    0.014156
     6  H   -0.000264
     7  H    0.000026
     8  H   -0.000028
     9  H    0.001527
    10  C    0.454998
    11  H   -0.022846
    12  H   -0.022850
    13  H    0.519074
 Mulliken charges:
               1
     1  C   -0.094075
     2  C   -0.246115
     3  C    0.274377
     4  C   -0.076680
     5  N   -0.117652
     6  H    0.266584
     7  H    0.112815
     8  H    0.114876
     9  H    0.105563
    10  C   -0.781311
    11  H    0.144988
    12  H    0.145045
    13  H    0.151586
 Sum of Mulliken charges =   0.00000
 Mulliken charges with hydrogens summed into heavy atoms:
               1
     1  C    0.018740
     2  C   -0.131239
     3  C    0.379940
     4  C   -0.076680
     5  N    0.148932
    10  C   -0.339693
 Electronic spatial extent (au):  <R**2>=            526.5909
 Charge=              0.0000 electrons
 Dipole moment (field-independent basis, Debye):
    X=             -1.0902    Y=             -1.6650    Z=              0.0005  Tot=              1.9901
 Quadrupole moment (field-independent basis, Debye-Ang):
   XX=            -34.1630   YY=            -31.2579   ZZ=            -40.7874
   XY=             -0.1557   XZ=             -0.0002   YZ=             -0.0029
 Traceless Quadrupole moment (field-independent basis, Debye-Ang):
   XX=              1.2398   YY=              4.1449   ZZ=             -5.3847
   XY=             -0.1557   XZ=             -0.0002   YZ=             -0.0029
 Octapole moment (field-independent basis, Debye-Ang**2):
  XXX=              0.9565  YYY=            -10.4431  ZZZ=              0.0013  XYY=             -0.1204
  XXY=             -1.4757  XXZ=             -0.0011  XZZ=             -4.6333  YZZ=             -2.6847
  YYZ=             -0.0011  XYZ=             -0.0003
 Hexadecapole moment (field-independent basis, Debye-Ang**3):
 XXXX=           -467.0089 YYYY=           -174.1457 ZZZZ=            -56.7336 XXXY=             -2.9902
 XXXZ=              0.0053 YYYX=             -2.2507 YYYZ=             -0.0127 ZZZX=             -0.0079
 ZZZY=             -0.0027 XXYY=           -104.3869 XXZZ=            -95.2957 YYZZ=            -48.5080
 XXYZ=             -0.0019 YYXZ=              0.0041 ZZXY=              1.5176
 N-N= 2.216040148673D+02 E-N=-1.022700029852D+03  KE= 2.484219732891D+02
 There are a total of      106328 grid points.
 ElSum from          density=       44.0000361765
 ElSum from atomic densities=       44.0000381430

 Hirshfeld populations at iteration   1 (CX, CA, CB, DipXYZ):
               1          2          3          4          5          6
     1  C    0.000001   3.018778   3.018778  -0.003834  -0.108138  -0.000015
     2  C    0.000001   3.049385   3.049385   0.056809   0.075690  -0.000022
     3  C    0.000001   3.051284   3.051284  -0.000197   0.087480  -0.000030
     4  C    0.000000   2.989147   2.989147  -0.085706  -0.082943   0.000032
     5  N    0.000000   3.545089   3.545089  -0.032873  -0.067557   0.000092
     6  H    0.000001   0.427669   0.427669  -0.071223  -0.200683   0.000112
     7  H    0.000005   0.475308   0.475308   0.119410  -0.115664   0.000016
     8  H    0.000005   0.478235   0.478235   0.137167   0.093580  -0.000027
     9  H    0.000003   0.479102   0.479102  -0.042432   0.158560  -0.000074
    10  C    0.000000   3.048517   3.048517   0.012019   0.001728  -0.000004
    11  H    0.000001   0.480830   0.480830  -0.055382  -0.067106  -0.118002
    12  H    0.000001   0.480829   0.480829  -0.055323  -0.066895   0.118150
    13  H    0.000001   0.475846   0.475846  -0.062723   0.141907  -0.000116
       Tot   0.000019  22.000018  22.000018  -0.084290  -0.150040   0.000113

 Dip from Atomic Chgs             -0.344730  -0.505251   0.000084
         Total Dipole             -0.429020  -0.655291   0.000197

 Hirshfeld charges, spin densities, dipoles, and CM5 charges using IRadAn=      4:
              Q-H        S-H        Dx         Dy         Dz        Q-CM5   
     1  C   -0.037557   0.000000  -0.003834  -0.108138  -0.000015  -0.025912
     2  C   -0.098770   0.000000   0.056809   0.075690  -0.000022  -0.145261
     3  C   -0.102567   0.000000  -0.000197   0.087480  -0.000030  -0.147305
     4  C    0.021706   0.000000  -0.085706  -0.082943   0.000032   0.072006
     5  N   -0.090177   0.000000  -0.032873  -0.067557   0.000092  -0.449226
     6  H    0.144663   0.000000  -0.071223  -0.200683   0.000112   0.338430
     7  H    0.049385   0.000000   0.119410  -0.115664   0.000016   0.112897
     8  H    0.043530   0.000000   0.137167   0.093580  -0.000027   0.099426
     9  H    0.041795   0.000000  -0.042432   0.158560  -0.000074   0.098062
    10  C   -0.097034   0.000000   0.012019   0.001728  -0.000004  -0.235904
    11  H    0.038341   0.000000  -0.055382  -0.067106  -0.118002   0.090916
    12  H    0.038341   0.000000  -0.055323  -0.066895   0.118150   0.090915
    13  H    0.048308   0.000000  -0.062723   0.141907  -0.000116   0.100919
       Tot  -0.000036   0.000000  -0.084290  -0.150040   0.000113  -0.000036
 Hirshfeld charges with hydrogens summed into heavy atoms:
              Q-H       Q-CM5   
     1  C    0.011828   0.086985
     2  C   -0.055240  -0.045835
     3  C   -0.060772  -0.049242
     4  C    0.021706   0.072006
     5  N    0.054485  -0.110796
    10  C    0.027956   0.046846
 
 EQQ= 0.000000000000E+00 EQD= 0.000000000000E+00 EDD= 0.720605279582E-02
 EQQ+QD+DD= 0.720605279582E-02
 
          MBS Condensed to atoms (all electrons):
               1          2          3          4          5          6
     1  C    4.859353   0.546039  -0.054353  -0.066045   0.412995  -0.025368
     2  C    0.546039   4.888019   0.479225  -0.052060  -0.056318   0.002400
     3  C   -0.054353   0.479225   4.910032   0.542932  -0.058490   0.002518
     4  C   -0.066045  -0.052060   0.542932   4.798610   0.414516  -0.026071
     5  N    0.412995  -0.056318  -0.058490   0.414516   6.331483   0.345127
     6  H   -0.025368   0.002400   0.002518  -0.026071   0.345127   0.421190
     7  H    0.392674  -0.018760   0.001661   0.001879  -0.020498  -0.001825
     8  H   -0.021330   0.392272  -0.019059   0.001635   0.001318  -0.000054
     9  H    0.001705  -0.019210   0.391599  -0.022168   0.001357  -0.000058
    10  C    0.001230   0.000992  -0.020585   0.395797  -0.023446  -0.001197
    11  H    0.000038  -0.000025   0.000488  -0.023004  -0.001315   0.000380
    12  H    0.000038  -0.000025   0.000484  -0.023014  -0.001312   0.000379
    13  H   -0.000036   0.000033  -0.003266  -0.020863   0.001056  -0.000029
               7          8          9         10         11         12
     1  C    0.392674  -0.021330   0.001705   0.001230   0.000038   0.000038
     2  C   -0.018760   0.392272  -0.019210   0.000992  -0.000025  -0.000025
     3  C    0.001661  -0.019059   0.391599  -0.020585   0.000488   0.000484
     4  C    0.001879   0.001635  -0.022168   0.395797  -0.023004  -0.023014
     5  N   -0.020498   0.001318   0.001357  -0.023446  -0.001315  -0.001312
     6  H   -0.001825  -0.000054  -0.000058  -0.001197   0.000380   0.000379
     7  H    0.528149  -0.001438  -0.000034  -0.000021   0.000000   0.000000
     8  H   -0.001438   0.539763  -0.001555  -0.000014   0.000001   0.000001
     9  H   -0.000034  -0.001555   0.545379  -0.001427   0.000018   0.000018
    10  C   -0.000021  -0.000014  -0.001427   4.785165   0.372735   0.372733
    11  H    0.000000   0.000001   0.000018   0.372735   0.600625  -0.024304
    12  H    0.000000   0.000001   0.000018   0.372733  -0.024304   0.600625
    13  H    0.000001  -0.000001   0.000619   0.378148  -0.021249  -0.021252
              13
     1  C   -0.000036
     2  C    0.000033
     3  C   -0.003266
     4  C   -0.020863
     5  N    0.001056
     6  H   -0.000029
     7  H    0.000001
     8  H   -0.000001
     9  H    0.000619
    10  C    0.378148
    11  H   -0.021249
    12  H   -0.021252
    13  H    0.579696
 MBS Mulliken charges:
               1
     1  C   -0.046940
     2  C   -0.162581
     3  C   -0.173186
     4  C    0.077858
     5  N   -0.346472
     6  H    0.282610
     7  H    0.118212
     8  H    0.108462
     9  H    0.103759
    10  C   -0.260109
    11  H    0.095613
    12  H    0.095630
    13  H    0.107145
 Sum of MBS Mulliken charges =   0.00000
 MBS Mulliken charges with hydrogens summed into heavy atoms:
               1
     1  C    0.071272
     2  C   -0.054119
     3  C   -0.069427
     4  C    0.077858
     5  N   -0.063863
    10  C    0.038279
 Breneman (CHELPG) radii used.
 Generate Potential Derived Charges using the Breneman model, NDens= 1.
 Grid spacing= 0.300 Box extension= 2.800
 NStep X,Y,Z=   36     34     26   Total possible points=       31824
 Number of Points to Fit=   10026

 **********************************************************************

            Electrostatic Properties Using The SCF Density

 **********************************************************************

       Atomic Center    1 is at   1.465541 -0.702089  0.000117
       Atomic Center    2 is at   1.536391  0.670457  0.000168
       Atomic Center    3 is at   0.198196  1.164544 -0.000075
       Atomic Center    4 is at  -0.656698  0.082387 -0.000141
       Atomic Center    5 is at   0.131378 -1.048517 -0.000292
       Atomic Center    6 is at  -0.218082 -1.992653  0.000237
       Atomic Center    7 is at   2.238226 -1.453521  0.000206
       Atomic Center    8 is at   2.442857  1.255522  0.000047
       Atomic Center    9 is at  -0.107666  2.199858 -0.000461
       Atomic Center   10 is at  -2.149136  0.007814  0.000147
       Atomic Center   11 is at  -2.535780 -0.512179 -0.883791
       Atomic Center   12 is at  -2.535386 -0.510600  0.885191
       Atomic Center   13 is at  -2.569579  1.014510 -0.000678
   10026 points will be used for fitting atomic charges
 Fitting point charges to electrostatic potential
 Charges from ESP fit, RMS=   0.00407 RRMS=   0.28573:
 ESP charges:
               1
     1  C   -0.215776
     2  C   -0.059873
     3  C   -0.281231
     4  C    0.160739
     5  N   -0.262173
     6  H    0.308706
     7  H    0.144762
     8  H    0.084741
     9  H    0.128499
    10  C   -0.187846
    11  H    0.050868
    12  H    0.050841
    13  H    0.077743
 Sum of ESP charges =   0.00000
 ESP charges with hydrogens summed into heavy atoms:
               1
     1  C   -0.071013
     2  C    0.024868
     3  C   -0.152733
     4  C    0.160739
     5  N    0.046533
    10  C   -0.008394
 Charge=   0.00000 Dipole=    -0.9993    -1.6288     0.0003 Tot=     1.9109
 -----------------------------------------------------------------

              Electrostatic Properties (Atomic Units)

 -----------------------------------------------------------------
    Center     Electric         -------- Electric Field --------
               Potential          X             Y             Z
 -----------------------------------------------------------------
    1 Atom    -14.762712
    2 Atom    -14.799443
    3 Atom    -14.801504
    4 Atom    -14.753294
    5 Atom    -18.356895
    6 Atom     -1.006579
    7 Atom     -1.096728
    8 Atom     -1.118092
    9 Atom     -1.118175
   10 Atom    -14.769339
   11 Atom     -1.112523
   12 Atom     -1.112531
   13 Atom     -1.111372
 -----------------------------------------------------------------
 ******************************Gaussian NBO Version 3.1******************************
             N A T U R A L   A T O M I C   O R B I T A L   A N D
          N A T U R A L   B O N D   O R B I T A L   A N A L Y S I S
 ******************************Gaussian NBO Version 3.1******************************
       /RESON  / : Allow strongly delocalized NBO set

 Analyzing the SCF density

 Job title: Table6_7                                                        

 Storage needed:     91644 in NPA ( 104856625 available)


 NATURAL POPULATIONS:  Natural atomic orbital occupancies 
                                                          
   NAO  Atom  No  lang   Type(AO)    Occupancy      Energy
 ----------------------------------------------------------
     1    C    1  S      Cor( 1S)     1.99922     -10.05083
     2    C    1  S      Val( 2S)     0.92356      -0.15461
     3    C    1  S      Ryd( 3S)     0.00186       0.72163
     4    C    1  S      Ryd( 4S)     0.00027       1.12508
     5    C    1  S      Ryd( 5S)     0.00000      22.58919
     6    C    1  px     Val( 2p)     0.90530      -0.01690
     7    C    1  px     Ryd( 4p)     0.00555       0.87650
     8    C    1  px     Ryd( 3p)     0.00023       0.50694
     9    C    1  px     Ryd( 5p)     0.00013       2.82350
    10    C    1  py     Val( 2p)     1.10711      -0.05579
    11    C    1  py     Ryd( 4p)     0.00530       0.90675
    12    C    1  py     Ryd( 3p)     0.00097       0.53332
    13    C    1  py     Ryd( 5p)     0.00020       2.73889
    14    C    1  pz     Val( 2p)     1.09868      -0.10979
    15    C    1  pz     Ryd( 4p)     0.00463       0.51537
    16    C    1  pz     Ryd( 3p)     0.00056       0.36840
    17    C    1  pz     Ryd( 5p)     0.00005       2.57422
    18    C    1  dxy    Ryd( 3d)     0.00100       2.42063
    19    C    1  dxz    Ryd( 3d)     0.00087       1.60936
    20    C    1  dyz    Ryd( 3d)     0.00078       1.66590
    21    C    1  dx2y2  Ryd( 3d)     0.00096       2.64912
    22    C    1  dz2    Ryd( 3d)     0.00052       2.06173

    23    C    2  S      Cor( 1S)     1.99918     -10.00751
    24    C    2  S      Val( 2S)     0.95873      -0.14734
    25    C    2  S      Ryd( 3S)     0.00173       0.60842
    26    C    2  S      Ryd( 4S)     0.00014       1.23717
    27    C    2  S      Ryd( 5S)     0.00000      22.76211
    28    C    2  px     Val( 2p)     1.13489      -0.03115
    29    C    2  px     Ryd( 4p)     0.00416       0.99139
    30    C    2  px     Ryd( 3p)     0.00040       0.47502
    31    C    2  px     Ryd( 5p)     0.00008       2.97727
    32    C    2  py     Val( 2p)     1.08371      -0.03907
    33    C    2  py     Ryd( 4p)     0.00519       0.81630
    34    C    2  py     Ryd( 3p)     0.00029       0.45217
    35    C    2  py     Ryd( 5p)     0.00015       3.01387
    36    C    2  pz     Val( 2p)     1.09714      -0.09170
    37    C    2  pz     Ryd( 4p)     0.00239       0.51761
    38    C    2  pz     Ryd( 3p)     0.00039       0.34600
    39    C    2  pz     Ryd( 5p)     0.00004       2.66997
    40    C    2  dxy    Ryd( 3d)     0.00060       2.44803
    41    C    2  dxz    Ryd( 3d)     0.00057       1.66590
    42    C    2  dyz    Ryd( 3d)     0.00058       1.67537
    43    C    2  dx2y2  Ryd( 3d)     0.00077       2.66515
    44    C    2  dz2    Ryd( 3d)     0.00045       2.10094

    45    C    3  S      Cor( 1S)     1.99904     -10.00238
    46    C    3  S      Val( 2S)     0.94851      -0.13558
    47    C    3  S      Ryd( 3S)     0.00132       0.62432
    48    C    3  S      Ryd( 4S)     0.00010       0.84427
    49    C    3  S      Ryd( 5S)     0.00001      23.19324
    50    C    3  px     Val( 2p)     1.05021      -0.03510
    51    C    3  px     Ryd( 4p)     0.00442       0.72650
    52    C    3  px     Ryd( 3p)     0.00036       0.49205
    53    C    3  px     Ryd( 5p)     0.00015       3.03336
    54    C    3  py     Val( 2p)     1.16999      -0.03645
    55    C    3  py     Ryd( 4p)     0.00407       1.05909
    56    C    3  py     Ryd( 3p)     0.00046       0.56533
    57    C    3  py     Ryd( 5p)     0.00007       2.94857
    58    C    3  pz     Val( 2p)     1.11118      -0.09127
    59    C    3  pz     Ryd( 4p)     0.00241       0.49713
    60    C    3  pz     Ryd( 3p)     0.00046       0.36589
    61    C    3  pz     Ryd( 5p)     0.00004       2.67644
    62    C    3  dxy    Ryd( 3d)     0.00082       2.64747
    63    C    3  dxz    Ryd( 3d)     0.00057       1.65325
    64    C    3  dyz    Ryd( 3d)     0.00065       1.69701
    65    C    3  dx2y2  Ryd( 3d)     0.00060       2.47968
    66    C    3  dz2    Ryd( 3d)     0.00045       2.11610

    67    C    4  S      Cor( 1S)     1.99914     -10.05867
    68    C    4  S      Val( 2S)     0.85069      -0.12441
    69    C    4  S      Ryd( 3S)     0.00142       0.68501
    70    C    4  S      Ryd( 4S)     0.00027       1.07259
    71    C    4  S      Ryd( 5S)     0.00001      22.67181
    72    C    4  px     Val( 2p)     1.01640      -0.03939
    73    C    4  px     Ryd( 4p)     0.00559       1.30540
    74    C    4  px     Ryd( 3p)     0.00043       0.48890
    75    C    4  px     Ryd( 5p)     0.00020       2.94561
    76    C    4  py     Val( 2p)     0.91843      -0.02521
    77    C    4  py     Ryd( 4p)     0.00498       0.81654
    78    C    4  py     Ryd( 3p)     0.00060       0.38807
    79    C    4  py     Ryd( 5p)     0.00014       3.02011
    80    C    4  pz     Val( 2p)     1.06325      -0.09865
    81    C    4  pz     Ryd( 4p)     0.00330       0.59604
    82    C    4  pz     Ryd( 3p)     0.00045       0.40321
    83    C    4  pz     Ryd( 5p)     0.00010       2.59775
    84    C    4  dxy    Ryd( 3d)     0.00123       2.67222
    85    C    4  dxz    Ryd( 3d)     0.00090       1.70724
    86    C    4  dyz    Ryd( 3d)     0.00104       1.62402
    87    C    4  dx2y2  Ryd( 3d)     0.00081       2.40373
    88    C    4  dz2    Ryd( 3d)     0.00045       2.03865

    89    N    5  S      Cor( 1S)     1.99932     -14.17439
    90    N    5  S      Val( 2S)     1.23409      -0.52559
    91    N    5  S      Ryd( 3S)     0.00070       0.92540
    92    N    5  S      Ryd( 4S)     0.00013       1.54827
    93    N    5  S      Ryd( 5S)     0.00000      34.85285
    94    N    5  px     Val( 2p)     1.31131      -0.24043
    95    N    5  px     Ryd( 3p)     0.00242       0.75512
    96    N    5  px     Ryd( 4p)     0.00038       0.80313
    97    N    5  px     Ryd( 5p)     0.00003       4.39431
    98    N    5  py     Val( 2p)     1.37622      -0.24884
    99    N    5  py     Ryd( 4p)     0.00290       0.87498
   100    N    5  py     Ryd( 3p)     0.00068       0.68450
   101    N    5  py     Ryd( 5p)     0.00002       4.40207
   102    N    5  pz     Val( 2p)     1.60497      -0.25345
   103    N    5  pz     Ryd( 3p)     0.00418       0.37598
   104    N    5  pz     Ryd( 4p)     0.00041       0.67955
   105    N    5  pz     Ryd( 5p)     0.00001       3.81428
   106    N    5  dxy    Ryd( 3d)     0.00083       2.93101
   107    N    5  dxz    Ryd( 3d)     0.00067       2.19014
   108    N    5  dyz    Ryd( 3d)     0.00039       2.22263
   109    N    5  dx2y2  Ryd( 3d)     0.00087       2.93798
   110    N    5  dz2    Ryd( 3d)     0.00058       2.62538

   111    H    6  S      Val( 1S)     0.59880       0.08015
   112    H    6  S      Ryd( 3S)     0.00054       1.50190
   113    H    6  S      Ryd( 2S)     0.00032       1.49787
   114    H    6  px     Ryd( 2p)     0.00021       2.01905
   115    H    6  py     Ryd( 2p)     0.00042       2.61762
   116    H    6  pz     Ryd( 2p)     0.00071       1.56661

   117    H    7  S      Val( 1S)     0.79583       0.03982
   118    H    7  S      Ryd( 2S)     0.00039       0.66979
   119    H    7  S      Ryd( 3S)     0.00020       1.97290
   120    H    7  px     Ryd( 2p)     0.00033       2.34842
   121    H    7  py     Ryd( 2p)     0.00027       2.30359
   122    H    7  pz     Ryd( 2p)     0.00035       1.59320

   123    H    8  S      Val( 1S)     0.78525       0.06968
   124    H    8  S      Ryd( 2S)     0.00051       0.47184
   125    H    8  S      Ryd( 3S)     0.00023       2.20040
   126    H    8  px     Ryd( 2p)     0.00036       2.51110
   127    H    8  py     Ryd( 2p)     0.00021       2.16803
   128    H    8  pz     Ryd( 2p)     0.00024       1.61012

   129    H    9  S      Val( 1S)     0.78650       0.06728
   130    H    9  S      Ryd( 2S)     0.00039       0.48672
   131    H    9  S      Ryd( 3S)     0.00023       2.17872
   132    H    9  px     Ryd( 2p)     0.00013       1.99666
   133    H    9  py     Ryd( 2p)     0.00043       2.72002
   134    H    9  pz     Ryd( 2p)     0.00023       1.61581

   135    C   10  S      Cor( 1S)     1.99930     -10.03132
   136    C   10  S      Val( 2S)     1.07904      -0.24555
   137    C   10  S      Ryd( 4S)     0.00073       0.87590
   138    C   10  S      Ryd( 3S)     0.00016       0.61774
   139    C   10  S      Ryd( 5S)     0.00000      23.28710
   140    C   10  px     Val( 2p)     1.08398      -0.09066
   141    C   10  px     Ryd( 4p)     0.00119       0.47884
   142    C   10  px     Ryd( 3p)     0.00025       0.19724
   143    C   10  px     Ryd( 5p)     0.00010       3.09605
   144    C   10  py     Val( 2p)     1.22480      -0.10175
   145    C   10  py     Ryd( 4p)     0.00275       0.50708
   146    C   10  py     Ryd( 3p)     0.00012       0.22739
   147    C   10  py     Ryd( 5p)     0.00002       3.11637
   148    C   10  pz     Val( 2p)     1.20680      -0.09912
   149    C   10  pz     Ryd( 4p)     0.00033       0.49617
   150    C   10  pz     Ryd( 3p)     0.00005       0.20016
   151    C   10  pz     Ryd( 5p)     0.00006       3.09387
   152    C   10  dxy    Ryd( 3d)     0.00043       2.06997
   153    C   10  dxz    Ryd( 3d)     0.00066       1.93903
   154    C   10  dyz    Ryd( 3d)     0.00068       2.04029
   155    C   10  dx2y2  Ryd( 3d)     0.00072       2.27059
   156    C   10  dz2    Ryd( 3d)     0.00066       2.11764

   157    H   11  S      Val( 1S)     0.79227       0.02527
   158    H   11  S      Ryd( 2S)     0.00111       0.55248
   159    H   11  S      Ryd( 3S)     0.00009       2.19933
   160    H   11  px     Ryd( 2p)     0.00020       1.84074
   161    H   11  py     Ryd( 2p)     0.00014       1.97341
   162    H   11  pz     Ryd( 2p)     0.00024       2.36112

   163    H   12  S      Val( 1S)     0.79226       0.02528
   164    H   12  S      Ryd( 2S)     0.00111       0.55249
   165    H   12  S      Ryd( 3S)     0.00009       2.19935
   166    H   12  px     Ryd( 2p)     0.00020       1.84051
   167    H   12  py     Ryd( 2p)     0.00014       1.97225
   168    H   12  pz     Ryd( 2p)     0.00024       2.36257

   169    H   13  S      Val( 1S)     0.77872       0.03395
   170    H   13  S      Ryd( 2S)     0.00050       0.60965
   171    H   13  S      Ryd( 3S)     0.00008       2.11828
   172    H   13  px     Ryd( 2p)     0.00017       1.87435
   173    H   13  py     Ryd( 2p)     0.00024       2.56600
   174    H   13  pz     Ryd( 2p)     0.00010       1.73171

 WARNING:  Population inversion found on atom  C    1
           Population inversion found on atom  C    2
           Population inversion found on atom  C    3
           Population inversion found on atom  C    4
           Population inversion found on atom  N    5
           Population inversion found on atom  H    6
           Population inversion found on atom  C   10


 Summary of Natural Population Analysis:                  
                                                          
                                       Natural Population 
                Natural  -----------------------------------------------
    Atom  No    Charge         Core      Valence    Rydberg      Total
 -----------------------------------------------------------------------
      C    1   -0.05775      1.99922     4.03466    0.02387     6.05775
      C    2   -0.29160      1.99918     4.27448    0.01794     6.29160
      C    3   -0.29590      1.99904     4.27989    0.01698     6.29590
      C    4    0.13014      1.99914     3.84877    0.02194     5.86986
      N    5   -0.54113      1.99932     5.52660    0.01521     7.54113
      H    6    0.39902      0.00000     0.59880    0.00219     0.60098
      H    7    0.20264      0.00000     0.79583    0.00153     0.79736
      H    8    0.21321      0.00000     0.78525    0.00154     0.78679
      H    9    0.21209      0.00000     0.78650    0.00141     0.78791
      C   10   -0.60282      1.99930     4.59462    0.00890     6.60282
      H   11    0.20596      0.00000     0.79227    0.00178     0.79404
      H   12    0.20596      0.00000     0.79226    0.00178     0.79404
      H   13    0.22017      0.00000     0.77872    0.00110     0.77983
 =======================================================================
   * Total *    0.00000     11.99519    31.88864    0.11617    44.00000

                                 Natural Population      
 --------------------------------------------------------
   Core                      11.99519 ( 99.9599% of  12)
   Valence                   31.88864 ( 99.6520% of  32)
   Natural Minimal Basis     43.88383 ( 99.7360% of  44)
   Natural Rydberg Basis      0.11617 (  0.2640% of  44)
 --------------------------------------------------------

    Atom  No          Natural Electron Configuration
 ----------------------------------------------------------------------------
      C    1      [core]2S( 0.92)2p( 3.11)4p( 0.02)
      C    2      [core]2S( 0.96)2p( 3.32)4p( 0.01)
      C    3      [core]2S( 0.95)2p( 3.33)4p( 0.01)
      C    4      [core]2S( 0.85)2p( 3.00)4p( 0.01)
      N    5      [core]2S( 1.23)2p( 4.29)3p( 0.01)
      H    6            1S( 0.60)
      H    7            1S( 0.80)
      H    8            1S( 0.79)
      H    9            1S( 0.79)
      C   10      [core]2S( 1.08)2p( 3.52)
      H   11            1S( 0.79)
      H   12            1S( 0.79)
      H   13            1S( 0.78)


 NBO analysis skipped by request.
 1\1\GINC-COREV2-22-035\SP\RB3LYP\6-311+G(d,p)\C5H7N1\ROOT\23-Jul-2021\
 0\\# b3lyp/6-311+g(d,p) geom=connectivity pop=(hirshfeld,chelpg,mbs,np
 a)\\Table6_7\\0,1\C,0,-1.465541,-0.702089,-0.000117\C,0,-1.536391,0.67
 0457,-0.000168\C,0,-0.198196,1.164544,0.000075\C,0,0.656698,0.082387,0
 .000141\N,0,-0.131378,-1.048517,0.000292\H,0,0.218082,-1.992653,-0.000
 237\H,0,-2.238226,-1.453521,-0.000206\H,0,-2.442857,1.255522,-0.000047
 \H,0,0.107666,2.199858,0.000461\C,0,2.149136,0.007814,-0.000147\H,0,2.
 53578,-0.512179,0.883791\H,0,2.535386,-0.5106,-0.885191\H,0,2.569579,1
 .01451,0.000678\\Version=ES64L-G09RevD.01\State=1-A\HF=-249.5598542\RM
 SD=5.529e-09\Dipole=0.4289016,-0.6550584,-0.0001988\Quadrupole=0.92176
 07,3.0815994,-4.00336,0.1157889,-0.0001822,0.0021522\PG=C01 [X(C5H7N1)
 ]\\@


 ALL MEN WHO EXPLORE
 DEPLORE
 THAT FRUSTRATING HURDLE
 THE GIRDLE.

         -- COLIN FLETCHER
 Job cpu time:       0 days  0 hours  2 minutes 45.0 seconds.
 File lengths (MBytes):  RWF=     66 Int=      0 D2E=      0 Chk=      2 Scr=      1
 Normal termination of Gaussian 09 at Fri Jul 23 17:36:26 2021.
