	You are loading a legacy vmd module, please load an up to date module instead.


	 module load container_env vmd

	Please run vmd command with crun.vmd prepend to it:
	
	 crun.vmd vmd

	 
module: Command not found.
module: Command not found.
 Entering Gaussian System, Link 0=g09
 Initial command:
 /opt/gaussian/g09/l1.exe "/tmp/G09-25.com.o10577412.tmp/Gau-1221616.inp" -scrdir="/tmp/G09-25.com.o10577412.tmp/"
 Entering Link 1 = /opt/gaussian/g09/l1.exe PID=   1221617.
  
 Copyright (c) 1988,1990,1992,1993,1995,1998,2003,2009,2013,
            Gaussian, Inc.  All Rights Reserved.
  
 This is part of the Gaussian(R) 09 program.  It is based on
 the Gaussian(R) 03 system (copyright 2003, Gaussian, Inc.),
 the Gaussian(R) 98 system (copyright 1998, Gaussian, Inc.),
 the Gaussian(R) 94 system (copyright 1995, Gaussian, Inc.),
 the Gaussian 92(TM) system (copyright 1992, Gaussian, Inc.),
 the Gaussian 90(TM) system (copyright 1990, Gaussian, Inc.),
 the Gaussian 88(TM) system (copyright 1988, Gaussian, Inc.),
 the Gaussian 86(TM) system (copyright 1986, Carnegie Mellon
 University), and the Gaussian 82(TM) system (copyright 1983,
 Carnegie Mellon University). Gaussian is a federally registered
 trademark of Gaussian, Inc.
  
 This software contains proprietary and confidential information,
 including trade secrets, belonging to Gaussian, Inc.
  
 This software is provided under written license and may be
 used, copied, transmitted, or stored only in accord with that
 written license.
  
 The following legend is applicable only to US Government
 contracts under FAR:
  
                    RESTRICTED RIGHTS LEGEND
  
 Use, reproduction and disclosure by the US Government is
 subject to restrictions as set forth in subparagraphs (a)
 and (c) of the Commercial Computer Software - Restricted
 Rights clause in FAR 52.227-19.
  
 Gaussian, Inc.
 340 Quinnipiac St., Bldg. 40, Wallingford CT 06492
  
  
 ---------------------------------------------------------------
 Warning -- This program may not be used in any manner that
 competes with the business of Gaussian, Inc. or will provide
 assistance to any competitor of Gaussian, Inc.  The licensee
 of this program is prohibited from giving any competitor of
 Gaussian, Inc. access to this program.  By using this program,
 the user acknowledges that Gaussian, Inc. is engaged in the
 business of creating and licensing software in the field of
 computational chemistry and represents and warrants to the
 licensee that it is not a competitor of Gaussian, Inc. and that
 it will not use this program in any manner prohibited above.
 ---------------------------------------------------------------
  

 Cite this work as:
 Gaussian 09, Revision D.01,
 M. J. Frisch, G. W. Trucks, H. B. Schlegel, G. E. Scuseria, 
 M. A. Robb, J. R. Cheeseman, G. Scalmani, V. Barone, B. Mennucci, 
 G. A. Petersson, H. Nakatsuji, M. Caricato, X. Li, H. P. Hratchian, 
 A. F. Izmaylov, J. Bloino, G. Zheng, J. L. Sonnenberg, M. Hada, 
 M. Ehara, K. Toyota, R. Fukuda, J. Hasegawa, M. Ishida, T. Nakajima, 
 Y. Honda, O. Kitao, H. Nakai, T. Vreven, J. A. Montgomery, Jr., 
 J. E. Peralta, F. Ogliaro, M. Bearpark, J. J. Heyd, E. Brothers, 
 K. N. Kudin, V. N. Staroverov, T. Keith, R. Kobayashi, J. Normand, 
 K. Raghavachari, A. Rendell, J. C. Burant, S. S. Iyengar, J. Tomasi, 
 M. Cossi, N. Rega, J. M. Millam, M. Klene, J. E. Knox, J. B. Cross, 
 V. Bakken, C. Adamo, J. Jaramillo, R. Gomperts, R. E. Stratmann, 
 O. Yazyev, A. J. Austin, R. Cammi, C. Pomelli, J. W. Ochterski, 
 R. L. Martin, K. Morokuma, V. G. Zakrzewski, G. A. Voth, 
 P. Salvador, J. J. Dannenberg, S. Dapprich, A. D. Daniels, 
 O. Farkas, J. B. Foresman, J. V. Ortiz, J. Cioslowski, 
 and D. J. Fox, Gaussian, Inc., Wallingford CT, 2013.
 
 ******************************************
 Gaussian 09:  ES64L-G09RevD.01 24-Apr-2013
                23-Apr-2024 
 ******************************************
 %nprocshared=20
 Will use up to   20 processors via shared memory.
 %mem=4GB
 %chk=25.chk
 ----------------------------------------------------------------------
 # opt freq=noraman b3lyp/6-311+g(d,p) pop=(npa,hirshfeld,chelpg,mbs) g
 eom=connectivity
 ----------------------------------------------------------------------
 1/14=-1,18=20,19=15,26=3,38=1,57=2/1,3;
 2/9=110,12=2,17=6,18=5,40=1/2;
 3/5=4,6=6,7=111,11=2,16=1,25=1,30=1,71=1,74=-5/1,2,3;
 4//1;
 5/5=2,38=5/2;
 6/7=2,8=2,9=2,10=2,15=8,20=3,27=100,28=1,40=-1,79=1/1,2,7;
 7//1,2,3,16;
 1/14=-1,18=20,19=15,26=3/3(2);
 2/9=110/2;
 99//99;
 2/9=110/2;
 3/5=4,6=6,7=111,11=2,16=1,25=1,30=1,71=1,74=-5/1,2,3;
 4/5=5,16=3,69=1/1;
 5/5=2,38=5/2;
 7//1,2,3,16;
 1/14=-1,18=20,19=15,26=3/3(-5);
 2/9=110/2;
 6/7=2,8=2,9=2,10=2,15=8,19=2,20=3,27=100,28=1,40=-1,79=1/1,2,7;
 99/9=1/99;
 -------------------
 Title Card Required
 -------------------
 Symbolic Z-matrix:
 Charge =  0 Multiplicity = 1
 C                     0.4572   -0.1751    0. 
 C                     1.85236  -0.1751    0. 
 C                     2.5499    1.03265   0. 
 C                     1.85224   2.24116  -0.0012 
 C                     0.45742   2.24108  -0.00168 
 C                    -0.24018   1.03288  -0.00068 
 H                     2.40187  -1.12761   0.00132 
 H                    -0.0927    3.19337  -0.00263 
 H                    -1.33979   1.03306  -0.00086 
 O                     2.56771   3.47931  -0.00128 
 H                     2.72725   3.75717  -0.90623 
 O                     3.9799    1.03276   0.00082 
 C                     4.4569   -0.0983    0.73436 
 H                     4.32511  -0.98434   0.14916 
 H                     5.49572   0.03207   0.95516 
 H                     3.90679  -0.18894   1.64763 
 C                    -0.31274  -1.50881   0.00063 
 H                     0.07875  -2.14701  -0.76379 
 H                    -0.2024   -1.98389   0.95301 
 H                    -1.34952  -1.32221  -0.18689 
 

 GradGradGradGradGradGradGradGradGradGradGradGradGradGradGradGradGradGrad
 Berny optimization.
 Initialization pass.
                           ----------------------------
                           !    Initial Parameters    !
                           ! (Angstroms and Degrees)  !
 --------------------------                            --------------------------
 ! Name  Definition              Value          Derivative Info.                !
 --------------------------------------------------------------------------------
 ! R1    R(1,2)                  1.3952         estimate D2E/DX2                !
 ! R2    R(1,6)                  1.3948         estimate D2E/DX2                !
 ! R3    R(1,17)                 1.54           estimate D2E/DX2                !
 ! R4    R(2,3)                  1.3947         estimate D2E/DX2                !
 ! R5    R(2,7)                  1.0997         estimate D2E/DX2                !
 ! R6    R(3,4)                  1.3954         estimate D2E/DX2                !
 ! R7    R(3,12)                 1.43           estimate D2E/DX2                !
 ! R8    R(4,5)                  1.3948         estimate D2E/DX2                !
 ! R9    R(4,10)                 1.43           estimate D2E/DX2                !
 ! R10   R(5,6)                  1.3951         estimate D2E/DX2                !
 ! R11   R(5,8)                  1.0998         estimate D2E/DX2                !
 ! R12   R(6,9)                  1.0996         estimate D2E/DX2                !
 ! R13   R(10,11)                0.96           estimate D2E/DX2                !
 ! R14   R(12,13)                1.43           estimate D2E/DX2                !
 ! R15   R(13,14)                1.07           estimate D2E/DX2                !
 ! R16   R(13,15)                1.07           estimate D2E/DX2                !
 ! R17   R(13,16)                1.07           estimate D2E/DX2                !
 ! R18   R(17,18)                1.07           estimate D2E/DX2                !
 ! R19   R(17,19)                1.07           estimate D2E/DX2                !
 ! R20   R(17,20)                1.07           estimate D2E/DX2                !
 ! A1    A(2,1,6)              119.9985         estimate D2E/DX2                !
 ! A2    A(2,1,17)             119.9972         estimate D2E/DX2                !
 ! A3    A(6,1,17)             120.0043         estimate D2E/DX2                !
 ! A4    A(1,2,3)              120.0086         estimate D2E/DX2                !
 ! A5    A(1,2,7)              119.9808         estimate D2E/DX2                !
 ! A6    A(3,2,7)              120.0106         estimate D2E/DX2                !
 ! A7    A(2,3,4)              119.9942         estimate D2E/DX2                !
 ! A8    A(2,3,12)             120.0128         estimate D2E/DX2                !
 ! A9    A(4,3,12)             119.993          estimate D2E/DX2                !
 ! A10   A(3,4,5)              119.994          estimate D2E/DX2                !
 ! A11   A(3,4,10)             119.9811         estimate D2E/DX2                !
 ! A12   A(5,4,10)             120.0249         estimate D2E/DX2                !
 ! A13   A(4,5,6)              120.0047         estimate D2E/DX2                !
 ! A14   A(4,5,8)              120.0113         estimate D2E/DX2                !
 ! A15   A(6,5,8)              119.984          estimate D2E/DX2                !
 ! A16   A(1,6,5)              120.0            estimate D2E/DX2                !
 ! A17   A(1,6,9)              120.008          estimate D2E/DX2                !
 ! A18   A(5,6,9)              119.992          estimate D2E/DX2                !
 ! A19   A(4,10,11)            109.5            estimate D2E/DX2                !
 ! A20   A(3,12,13)            109.5            estimate D2E/DX2                !
 ! A21   A(12,13,14)           109.4712         estimate D2E/DX2                !
 ! A22   A(12,13,15)           109.4712         estimate D2E/DX2                !
 ! A23   A(12,13,16)           109.4712         estimate D2E/DX2                !
 ! A24   A(14,13,15)           109.4713         estimate D2E/DX2                !
 ! A25   A(14,13,16)           109.4712         estimate D2E/DX2                !
 ! A26   A(15,13,16)           109.4712         estimate D2E/DX2                !
 ! A27   A(1,17,18)            109.4712         estimate D2E/DX2                !
 ! A28   A(1,17,19)            109.4712         estimate D2E/DX2                !
 ! A29   A(1,17,20)            109.4712         estimate D2E/DX2                !
 ! A30   A(18,17,19)           109.4713         estimate D2E/DX2                !
 ! A31   A(18,17,20)           109.4712         estimate D2E/DX2                !
 ! A32   A(19,17,20)           109.4712         estimate D2E/DX2                !
 ! D1    D(6,1,2,3)              0.0323         estimate D2E/DX2                !
 ! D2    D(6,1,2,7)            179.9532         estimate D2E/DX2                !
 ! D3    D(17,1,2,3)          -179.9729         estimate D2E/DX2                !
 ! D4    D(17,1,2,7)            -0.052          estimate D2E/DX2                !
 ! D5    D(2,1,6,5)              0.0149         estimate D2E/DX2                !
 ! D6    D(2,1,6,9)            179.9892         estimate D2E/DX2                !
 ! D7    D(17,1,6,5)          -179.9798         estimate D2E/DX2                !
 ! D8    D(17,1,6,9)            -0.0056         estimate D2E/DX2                !
 ! D9    D(2,1,17,18)          -49.2925         estimate D2E/DX2                !
 ! D10   D(2,1,17,19)           70.7075         estimate D2E/DX2                !
 ! D11   D(2,1,17,20)         -169.2925         estimate D2E/DX2                !
 ! D12   D(6,1,17,18)          130.7022         estimate D2E/DX2                !
 ! D13   D(6,1,17,19)         -109.2978         estimate D2E/DX2                !
 ! D14   D(6,1,17,20)           10.7022         estimate D2E/DX2                !
 ! D15   D(1,2,3,4)             -0.0568         estimate D2E/DX2                !
 ! D16   D(1,2,3,12)           179.9619         estimate D2E/DX2                !
 ! D17   D(7,2,3,4)           -179.9777         estimate D2E/DX2                !
 ! D18   D(7,2,3,12)             0.041          estimate D2E/DX2                !
 ! D19   D(2,3,4,5)              0.0341         estimate D2E/DX2                !
 ! D20   D(2,3,4,10)          -179.9964         estimate D2E/DX2                !
 ! D21   D(12,3,4,5)          -179.9846         estimate D2E/DX2                !
 ! D22   D(12,3,4,10)           -0.0151         estimate D2E/DX2                !
 ! D23   D(2,3,12,13)          -32.9353         estimate D2E/DX2                !
 ! D24   D(4,3,12,13)          147.0834         estimate D2E/DX2                !
 ! D25   D(3,4,5,6)              0.0131         estimate D2E/DX2                !
 ! D26   D(3,4,5,8)           -179.9995         estimate D2E/DX2                !
 ! D27   D(10,4,5,6)          -179.9563         estimate D2E/DX2                !
 ! D28   D(10,4,5,8)             0.0311         estimate D2E/DX2                !
 ! D29   D(3,4,10,11)           90.1114         estimate D2E/DX2                !
 ! D30   D(5,4,10,11)          -89.9191         estimate D2E/DX2                !
 ! D31   D(4,5,6,1)             -0.0376         estimate D2E/DX2                !
 ! D32   D(4,5,6,9)            179.9881         estimate D2E/DX2                !
 ! D33   D(8,5,6,1)            179.975          estimate D2E/DX2                !
 ! D34   D(8,5,6,9)              0.0007         estimate D2E/DX2                !
 ! D35   D(3,12,13,14)          74.6799         estimate D2E/DX2                !
 ! D36   D(3,12,13,15)        -165.3201         estimate D2E/DX2                !
 ! D37   D(3,12,13,16)         -45.3201         estimate D2E/DX2                !
 --------------------------------------------------------------------------------
 Trust Radius=3.00D-01 FncErr=1.00D-07 GrdErr=1.00D-06
 Number of steps in this run=     99 maximum allowed number of steps=    120.
 GradGradGradGradGradGradGradGradGradGradGradGradGradGradGradGradGradGrad

                          Input orientation:                          
 ---------------------------------------------------------------------
 Center     Atomic      Atomic             Coordinates (Angstroms)
 Number     Number       Type             X           Y           Z
 ---------------------------------------------------------------------
      1          6           0        0.457198   -0.175097    0.000000
      2          6           0        1.852358   -0.175097    0.000000
      3          6           0        2.549896    1.032654    0.000000
      4          6           0        1.852242    2.241163   -0.001199
      5          6           0        0.457417    2.241085   -0.001678
      6          6           0       -0.240184    1.032879   -0.000682
      7          1           0        2.401866   -1.127610    0.001315
      8          1           0       -0.092705    3.193366   -0.002631
      9          1           0       -1.339788    1.033062   -0.000862
     10          8           0        2.567711    3.479309   -0.001276
     11          1           0        2.727248    3.757173   -0.906228
     12          8           0        3.979896    1.032758    0.000824
     13          6           0        4.456899   -0.098301    0.734360
     14          1           0        4.325109   -0.984342    0.149158
     15          1           0        5.495721    0.032069    0.955164
     16          1           0        3.906787   -0.188945    1.647629
     17          6           0       -0.312737   -1.508814    0.000630
     18          1           0        0.078754   -2.147008   -0.763793
     19          1           0       -0.202400   -1.983891    0.953010
     20          1           0       -1.349519   -1.322215   -0.186889
 ---------------------------------------------------------------------
                    Distance matrix (angstroms):
                    1          2          3          4          5
     1  C    0.000000
     2  C    1.395160   0.000000
     3  C    2.416205   1.394712   0.000000
     4  C    2.790065   2.416260   1.395427   0.000000
     5  C    2.416183   2.789946   2.416356   1.394825   0.000000
     6  C    1.394829   2.416183   2.790080   2.416236   1.395138
     7  H    2.165414   1.099655   2.165330   3.413316   3.889601
     8  H    3.413055   3.889707   3.413506   2.165528   1.099761
     9  H    2.165365   3.413128   3.889684   3.412999   2.165471
    10  O    4.220065   3.723763   2.446720   1.430000   2.446740
    11  H    4.630024   4.129096   2.876753   1.970533   2.875563
    12  O    3.724019   2.446494   1.430000   2.446867   3.723965
    13  C    4.067283   2.707179   2.335595   3.577482   4.691517
    14  H    3.954473   2.606074   2.691078   4.067131   5.038370
    15  H    5.132442   3.772180   3.254441   4.366882   5.583887
    16  H    3.822896   2.633543   2.459296   3.584021   4.530276
    17  C    1.540000   2.542919   3.828019   4.330065   3.828169
    18  H    2.148263   2.759979   4.098802   4.794044   4.469851
    19  H    2.148263   2.898620   4.193198   4.794074   4.381462
    20  H    2.148263   3.406292   4.559142   4.794102   3.999553
                    6          7          8          9         10
     6  C    0.000000
     7  H    3.412938   0.000000
     8  H    2.165516   4.989362   0.000000
     9  H    1.099604   4.320704   2.494420   0.000000
    10  O    3.724149   4.609904   2.675738   4.610061   0.000000
    11  H    4.128855   4.979018   3.014382   4.978077   0.960000
    12  O    4.220080   2.675326   4.610240   5.319684   2.824869
    13  C    4.886967   2.412467   5.663667   5.951648   4.112114
    14  H    4.993349   1.934230   6.082217   6.015271   4.799506
    15  H    5.900497   3.438985   6.491661   6.974249   4.622930
    16  H    4.626785   2.419964   5.491749   5.633592   4.238879
    17  C    2.542728   2.741238   4.707326   2.741526   5.760065
    18  H    3.285687   2.649795   5.397069   3.564711   6.199337
    19  H    3.164151   2.901921   5.265859   3.362369   6.199252
    20  H    2.609935   3.761142   4.690842   2.362631   6.199497
                   11         12         13         14         15
    11  H    0.000000
    12  O    3.132781   0.000000
    13  C    4.532980   1.430000   0.000000
    14  H    5.113606   2.051796   1.070000   0.000000
    15  H    5.000563   2.051796   1.070000   1.747303   0.000000
    16  H    4.846168   2.051796   1.070000   1.747303   1.747303
    17  C    6.147724   4.988615   5.027657   4.669770   6.084705
    18  H    6.472570   5.090625   5.060615   4.496310   6.086602
    19  H    6.708161   5.243894   5.031136   4.705701   6.044227
    20  H    6.552683   5.829562   6.005095   5.694602   7.070762
                   16         17         18         19         20
    16  H    0.000000
    17  C    4.717948   0.000000
    18  H    4.929787   1.070000   0.000000
    19  H    4.537592   1.070000   1.747303   0.000000
    20  H    5.681418   1.070000   1.747303   1.747303   0.000000
 Stoichiometry    C8H10O2
 Framework group  C1[X(C8H10O2)]
 Deg. of freedom    54
 Full point group                 C1      NOp   1
 Largest Abelian subgroup         C1      NOp   1
 Largest concise Abelian subgroup C1      NOp   1
                         Standard orientation:                         
 ---------------------------------------------------------------------
 Center     Atomic      Atomic             Coordinates (Angstroms)
 Number     Number       Type             X           Y           Z
 ---------------------------------------------------------------------
      1          6           0       -1.696117   -0.262015   -0.030469
      2          6           0       -0.470788   -0.915141   -0.166362
      3          6           0        0.716251   -0.183333   -0.141535
      4          6           0        0.678235    1.202417    0.018058
      5          6           0       -0.546860    1.855372    0.153438
      6          6           0       -1.734122    1.123082    0.129570
      7          1           0       -0.441126   -2.007222   -0.291746
      8          1           0       -0.577155    2.947496    0.279223
      9          1           0       -2.699795    1.638028    0.236510
     10          8           0        1.895474    1.952475    0.043397
     11          1           0        2.123043    2.224255   -0.848762
     12          8           0        1.972269   -0.852771   -0.279996
     13          6           0        1.889505   -2.150687    0.314533
     14          1           0        1.323445   -2.798839   -0.321372
     15          1           0        2.874783   -2.547879    0.442460
     16          1           0        1.408357   -2.076509    1.267369
     17          6           0       -3.006619   -1.070386   -0.057295
     18          1           0       -3.004072   -1.725924   -0.902968
     19          1           0       -3.088619   -1.646717    0.840490
     20          1           0       -3.837711   -0.400176   -0.128046
 ---------------------------------------------------------------------
 Rotational constants (GHZ):      1.8063151      1.1881153      0.7332711
 Standard basis: 6-311+G(d,p) (5D, 7F)
 There are   290 symmetry adapted cartesian basis functions of A   symmetry.
 There are   280 symmetry adapted basis functions of A   symmetry.
   280 basis functions,   440 primitive gaussians,   290 cartesian basis functions
    37 alpha electrons       37 beta electrons
       nuclear repulsion energy       514.6661777325 Hartrees.
 NAtoms=   20 NActive=   20 NUniq=   20 SFac= 1.00D+00 NAtFMM=   60 NAOKFM=F Big=F
 Integral buffers will be    131072 words long.
 Raffenetti 2 integral format.
 Two-electron integral symmetry is turned on.
 One-electron integrals computed using PRISM.
 NBasis=   280 RedAO= T EigKep=  1.64D-06  NBF=   280
 NBsUse=   280 1.00D-06 EigRej= -1.00D+00 NBFU=   280
 ExpMin= 4.38D-02 ExpMax= 8.59D+03 ExpMxC= 1.30D+03 IAcc=2 IRadAn=         4 AccDes= 0.00D+00
 Harris functional with IExCor=  402 and IRadAn=       4 diagonalized for initial guess.
 HarFok:  IExCor=  402 AccDes= 0.00D+00 IRadAn=         4 IDoV= 1 UseB2=F ITyADJ=14
 ICtDFT=  3500011 ScaDFX=  1.000000  1.000000  1.000000  1.000000
 FoFCou: FMM=F IPFlag=           0 FMFlag=      100000 FMFlg1=           0
         NFxFlg=           0 DoJE=T BraDBF=F KetDBF=T FulRan=T
         wScrn=  0.000000 ICntrl=     500 IOpCl=  0 I1Cent=   200000004 NGrid=           0
         NMat0=    1 NMatS0=      1 NMatT0=    0 NMatD0=    1 NMtDS0=    0 NMtDT0=    0
 Petite list used in FoFCou.
 Requested convergence on RMS density matrix=1.00D-08 within 128 cycles.
 Requested convergence on MAX density matrix=1.00D-06.
 Requested convergence on             energy=1.00D-06.
 No special actions if energy rises.
 SCF Done:  E(RB3LYP) =  -461.419092967     A.U. after   15 cycles
            NFock= 15  Conv=0.30D-08     -V/T= 2.0042

 **********************************************************************

            Population analysis using the SCF density.

 **********************************************************************

 Orbital symmetries:
       Occupied  (A) (A) (A) (A) (A) (A) (A) (A) (A) (A) (A) (A)
                 (A) (A) (A) (A) (A) (A) (A) (A) (A) (A) (A) (A)
                 (A) (A) (A) (A) (A) (A) (A) (A) (A) (A) (A) (A)
                 (A)
       Virtual   (A) (A) (A) (A) (A) (A) (A) (A) (A) (A) (A) (A)
                 (A) (A) (A) (A) (A) (A) (A) (A) (A) (A) (A) (A)
                 (A) (A) (A) (A) (A) (A) (A) (A) (A) (A) (A) (A)
                 (A) (A) (A) (A) (A) (A) (A) (A) (A) (A) (A) (A)
                 (A) (A) (A) (A) (A) (A) (A) (A) (A) (A) (A) (A)
                 (A) (A) (A) (A) (A) (A) (A) (A) (A) (A) (A) (A)
                 (A) (A) (A) (A) (A) (A) (A) (A) (A) (A) (A) (A)
                 (A) (A) (A) (A) (A) (A) (A) (A) (A) (A) (A) (A)
                 (A) (A) (A) (A) (A) (A) (A) (A) (A) (A) (A) (A)
                 (A) (A) (A) (A) (A) (A) (A) (A) (A) (A) (A) (A)
                 (A) (A) (A) (A) (A) (A) (A) (A) (A) (A) (A) (A)
                 (A) (A) (A) (A) (A) (A) (A) (A) (A) (A) (A) (A)
                 (A) (A) (A) (A) (A) (A) (A) (A) (A) (A) (A) (A)
                 (A) (A) (A) (A) (A) (A) (A) (A) (A) (A) (A) (A)
                 (A) (A) (A) (A) (A) (A) (A) (A) (A) (A) (A) (A)
                 (A) (A) (A) (A) (A) (A) (A) (A) (A) (A) (A) (A)
                 (A) (A) (A) (A) (A) (A) (A) (A) (A) (A) (A) (A)
                 (A) (A) (A) (A) (A) (A) (A) (A) (A) (A) (A) (A)
                 (A) (A) (A) (A) (A) (A) (A) (A) (A) (A) (A) (A)
                 (A) (A) (A) (A) (A) (A) (A) (A) (A) (A) (A) (A)
                 (A) (A) (A)
 The electronic state is 1-A.
 Alpha  occ. eigenvalues --  -19.15049 -19.13682 -10.23902 -10.23437 -10.21464
 Alpha  occ. eigenvalues --  -10.19112 -10.18366 -10.18071 -10.17773 -10.16815
 Alpha  occ. eigenvalues --   -1.05356  -1.02950  -0.86381  -0.77597  -0.75550
 Alpha  occ. eigenvalues --   -0.71071  -0.68630  -0.61402  -0.59504  -0.54721
 Alpha  occ. eigenvalues --   -0.50501  -0.49475  -0.47632  -0.45887  -0.45177
 Alpha  occ. eigenvalues --   -0.43415  -0.42861  -0.41151  -0.40440  -0.37992
 Alpha  occ. eigenvalues --   -0.36701  -0.36119  -0.33998  -0.30860  -0.30235
 Alpha  occ. eigenvalues --   -0.25429  -0.23512
 Alpha virt. eigenvalues --   -0.02276  -0.00706   0.00010   0.00415   0.01401
 Alpha virt. eigenvalues --    0.02278   0.03745   0.03923   0.04674   0.05532
 Alpha virt. eigenvalues --    0.05684   0.06738   0.07519   0.08036   0.08697
 Alpha virt. eigenvalues --    0.09564   0.10650   0.11532   0.11743   0.11777
 Alpha virt. eigenvalues --    0.13091   0.13717   0.14134   0.14702   0.15167
 Alpha virt. eigenvalues --    0.15966   0.16329   0.16872   0.17847   0.18449
 Alpha virt. eigenvalues --    0.18789   0.19504   0.19712   0.20259   0.20851
 Alpha virt. eigenvalues --    0.20982   0.21913   0.22283   0.22772   0.23209
 Alpha virt. eigenvalues --    0.23602   0.24143   0.24723   0.25831   0.26197
 Alpha virt. eigenvalues --    0.26675   0.27867   0.28704   0.29424   0.29823
 Alpha virt. eigenvalues --    0.30497   0.31671   0.33018   0.34648   0.35372
 Alpha virt. eigenvalues --    0.36103   0.36510   0.36847   0.38491   0.39341
 Alpha virt. eigenvalues --    0.42424   0.43057   0.45557   0.46615   0.47980
 Alpha virt. eigenvalues --    0.51106   0.51362   0.53703   0.54214   0.55217
 Alpha virt. eigenvalues --    0.56185   0.56562   0.57975   0.58764   0.60910
 Alpha virt. eigenvalues --    0.62094   0.62743   0.63660   0.63733   0.65149
 Alpha virt. eigenvalues --    0.66711   0.67153   0.68465   0.69644   0.69896
 Alpha virt. eigenvalues --    0.70772   0.71560   0.72343   0.73588   0.76770
 Alpha virt. eigenvalues --    0.78470   0.82665   0.83543   0.84482   0.86666
 Alpha virt. eigenvalues --    0.87729   0.88509   0.90852   0.91498   0.93681
 Alpha virt. eigenvalues --    0.95394   0.96790   0.99977   1.00784   1.01853
 Alpha virt. eigenvalues --    1.04020   1.05961   1.07977   1.09081   1.09835
 Alpha virt. eigenvalues --    1.15489   1.16072   1.17959   1.25309   1.28150
 Alpha virt. eigenvalues --    1.28948   1.31514   1.32017   1.34955   1.36534
 Alpha virt. eigenvalues --    1.37771   1.40389   1.42026   1.45522   1.47139
 Alpha virt. eigenvalues --    1.48621   1.50985   1.53190   1.54760   1.55056
 Alpha virt. eigenvalues --    1.56622   1.56738   1.57661   1.58807   1.60423
 Alpha virt. eigenvalues --    1.61182   1.64573   1.66311   1.66728   1.68952
 Alpha virt. eigenvalues --    1.71046   1.72583   1.73485   1.75589   1.77823
 Alpha virt. eigenvalues --    1.79654   1.82743   1.83294   1.84756   1.89065
 Alpha virt. eigenvalues --    1.91265   1.92805   1.95273   1.96985   1.98984
 Alpha virt. eigenvalues --    2.00113   2.02277   2.05988   2.06875   2.08765
 Alpha virt. eigenvalues --    2.11903   2.14218   2.14801   2.17181   2.18896
 Alpha virt. eigenvalues --    2.23169   2.27821   2.29821   2.31637   2.36968
 Alpha virt. eigenvalues --    2.41308   2.44482   2.48366   2.49704   2.52350
 Alpha virt. eigenvalues --    2.53662   2.55861   2.57731   2.59184   2.59822
 Alpha virt. eigenvalues --    2.60557   2.62769   2.64532   2.64981   2.69545
 Alpha virt. eigenvalues --    2.71627   2.72741   2.76555   2.77219   2.78544
 Alpha virt. eigenvalues --    2.80645   2.81268   2.83987   2.87250   2.89653
 Alpha virt. eigenvalues --    2.91651   2.94008   2.95132   3.01737   3.05723
 Alpha virt. eigenvalues --    3.08934   3.09473   3.12280   3.15648   3.17867
 Alpha virt. eigenvalues --    3.21841   3.25577   3.32600   3.35960   3.38382
 Alpha virt. eigenvalues --    3.41147   3.52532   3.59026   3.66663   3.69492
 Alpha virt. eigenvalues --    3.84287   3.84975   3.85654   3.85760   3.87992
 Alpha virt. eigenvalues --    4.00834   4.06326   4.10627   4.15566   4.17568
 Alpha virt. eigenvalues --    4.30169   4.85224   5.07040   5.15028   5.34750
 Alpha virt. eigenvalues --    5.42701   5.62998   5.74567  23.51035  23.88053
 Alpha virt. eigenvalues --   23.92757  23.97039  23.98890  24.05639  24.08074
 Alpha virt. eigenvalues --   24.16926  49.91695  49.97686
          Condensed to atoms (all electrons):
               1          2          3          4          5          6
     1  C    8.984111  -1.889925   0.292038  -0.681322   0.604856  -0.688122
     2  C   -1.889925  16.684075  -0.833178  -6.681236  -1.697551   0.079899
     3  C    0.292038  -0.833178  17.923487  -7.854331  -1.882304  -1.128705
     4  C   -0.681322  -6.681236  -7.854331  22.898958  -2.202896   0.086869
     5  C    0.604856  -1.697551  -1.882304  -2.202896  11.277108  -0.009790
     6  C   -0.688122   0.079899  -1.128705   0.086869  -0.009790   7.923560
     7  H    0.082564   0.302820  -0.013450  -0.073090   0.001059   0.005026
     8  H    0.022031  -0.006605  -0.025267   0.019994   0.361425  -0.029546
     9  H   -0.000631   0.002990  -0.001731  -0.010308   0.008748   0.309120
    10  O   -0.033609   0.070440  -0.226995   0.682885  -0.439189  -0.000993
    11  H    0.001587  -0.009451  -0.020233  -0.007036   0.052124  -0.007656
    12  O    0.014688   0.140059   0.738513  -0.782122  -0.019224  -0.017428
    13  C   -0.178372  -0.184994  -0.017755  -0.021622   0.185620   0.007649
    14  H    0.030478   0.067298   0.000373  -0.122566   0.013215  -0.010505
    15  H   -0.001753  -0.015586   0.006431   0.036268   0.000243   0.000378
    16  H    0.002117  -0.017842  -0.054254   0.050642  -0.002890   0.010375
    17  C   -1.041747  -0.190782  -0.617632   0.830102  -0.515167   0.243115
    18  H   -0.097898   0.169029   0.027778  -0.005453  -0.001957  -0.104328
    19  H    0.087119  -0.136448   0.006945   0.001062   0.005928  -0.005729
    20  H   -0.120843  -0.075147  -0.001114   0.000475   0.028147   0.109049
               7          8          9         10         11         12
     1  C    0.082564   0.022031  -0.000631  -0.033609   0.001587   0.014688
     2  C    0.302820  -0.006605   0.002990   0.070440  -0.009451   0.140059
     3  C   -0.013450  -0.025267  -0.001731  -0.226995  -0.020233   0.738513
     4  C   -0.073090   0.019994  -0.010308   0.682885  -0.007036  -0.782122
     5  C    0.001059   0.361425   0.008748  -0.439189   0.052124  -0.019224
     6  C    0.005026  -0.029546   0.309120  -0.000993  -0.007656  -0.017428
     7  H    0.554271   0.000042  -0.000288   0.000092  -0.000023  -0.017435
     8  H    0.000042   0.527856  -0.007451  -0.006102   0.000091  -0.000306
     9  H   -0.000288  -0.007451   0.550320  -0.000674   0.000024   0.000219
    10  O    0.000092  -0.006102  -0.000674   7.979554   0.263795   0.036224
    11  H   -0.000023   0.000091   0.000024   0.263795   0.467859  -0.000707
    12  O   -0.017435  -0.000306   0.000219   0.036224  -0.000707   8.090777
    13  C   -0.005694  -0.000150   0.000251   0.010227  -0.001982   0.115861
    14  H    0.001317  -0.000003   0.000002  -0.000288   0.000077  -0.048233
    15  H    0.000395   0.000000   0.000000  -0.000219   0.000023  -0.051518
    16  H   -0.002287   0.000005   0.000001   0.001512  -0.000095  -0.033214
    17  C    0.050489   0.010414   0.029916  -0.002325  -0.000372   0.011073
    18  H    0.000455   0.000014   0.000287  -0.000006  -0.000001  -0.000030
    19  H    0.000198   0.000012   0.000242  -0.000006   0.000001  -0.000019
    20  H    0.000297  -0.000009   0.001957   0.000001  -0.000001   0.000034
              13         14         15         16         17         18
     1  C   -0.178372   0.030478  -0.001753   0.002117  -1.041747  -0.097898
     2  C   -0.184994   0.067298  -0.015586  -0.017842  -0.190782   0.169029
     3  C   -0.017755   0.000373   0.006431  -0.054254  -0.617632   0.027778
     4  C   -0.021622  -0.122566   0.036268   0.050642   0.830102  -0.005453
     5  C    0.185620   0.013215   0.000243  -0.002890  -0.515167  -0.001957
     6  C    0.007649  -0.010505   0.000378   0.010375   0.243115  -0.104328
     7  H   -0.005694   0.001317   0.000395  -0.002287   0.050489   0.000455
     8  H   -0.000150  -0.000003   0.000000   0.000005   0.010414   0.000014
     9  H    0.000251   0.000002   0.000000   0.000001   0.029916   0.000287
    10  O    0.010227  -0.000288  -0.000219   0.001512  -0.002325  -0.000006
    11  H   -0.001982   0.000077   0.000023  -0.000095  -0.000372  -0.000001
    12  O    0.115861  -0.048233  -0.051518  -0.033214   0.011073  -0.000030
    13  C    5.167812   0.433655   0.405665   0.415402  -0.055968   0.001441
    14  H    0.433655   0.602874  -0.030660  -0.051334  -0.012314   0.000050
    15  H    0.405665  -0.030660   0.519338  -0.023747   0.000916   0.000000
    16  H    0.415402  -0.051334  -0.023747   0.548388   0.002433  -0.000009
    17  C   -0.055968  -0.012314   0.000916   0.002433   6.584330   0.372925
    18  H    0.001441   0.000050   0.000000  -0.000009   0.372925   0.548952
    19  H   -0.002239  -0.000019  -0.000001   0.000032   0.401913  -0.030913
    20  H   -0.000019  -0.000004   0.000000   0.000000   0.431329  -0.026713
              19         20
     1  C    0.087119  -0.120843
     2  C   -0.136448  -0.075147
     3  C    0.006945  -0.001114
     4  C    0.001062   0.000475
     5  C    0.005928   0.028147
     6  C   -0.005729   0.109049
     7  H    0.000198   0.000297
     8  H    0.000012  -0.000009
     9  H    0.000242   0.001957
    10  O   -0.000006   0.000001
    11  H    0.000001  -0.000001
    12  O   -0.000019   0.000034
    13  C   -0.002239  -0.000019
    14  H   -0.000019  -0.000004
    15  H   -0.000001   0.000000
    16  H    0.000032   0.000000
    17  C    0.401913   0.431329
    18  H   -0.030913  -0.026713
    19  H    0.531091  -0.023271
    20  H   -0.023271   0.539436
 Mulliken charges:
               1
     1  C    0.612633
     2  C    0.222136
     3  C   -0.318615
     4  C   -0.165274
     5  C    0.232496
     6  C   -0.772237
     7  H    0.113242
     8  H    0.133556
     9  H    0.117007
    10  O   -0.334324
    11  H    0.261975
    12  O   -0.177212
    13  C   -0.274788
    14  H    0.126587
    15  H    0.153828
    16  H    0.154763
    17  C   -0.532648
    18  H    0.146376
    19  H    0.164101
    20  H    0.136398
 Sum of Mulliken charges =   0.00000
 Mulliken charges with hydrogens summed into heavy atoms:
               1
     1  C    0.612633
     2  C    0.335378
     3  C   -0.318615
     4  C   -0.165274
     5  C    0.366052
     6  C   -0.655230
    10  O   -0.072350
    12  O   -0.177212
    13  C    0.160390
    17  C   -0.085772
 Electronic spatial extent (au):  <R**2>=           1564.7060
 Charge=              0.0000 electrons
 Dipole moment (field-independent basis, Debye):
    X=             -1.8503    Y=             -1.4614    Z=             -0.7116  Tot=              2.4628
 Quadrupole moment (field-independent basis, Debye-Ang):
   XX=            -60.2908   YY=            -52.6180   ZZ=            -61.3170
   XY=             -2.7930   XZ=             -2.1152   YZ=             -4.1745
 Traceless Quadrupole moment (field-independent basis, Debye-Ang):
   XX=             -2.2155   YY=              5.4572   ZZ=             -3.2417
   XY=             -2.7930   XZ=             -2.1152   YZ=             -4.1745
 Octapole moment (field-independent basis, Debye-Ang**2):
  XXX=              0.0619  YYY=             -2.4030  ZZZ=             -1.9681  XYY=              9.7257
  XXY=             -3.5578  XXZ=             -3.8902  XZZ=             10.1434  YZZ=              0.8584
  YYZ=             -7.1225  XYZ=            -12.3974
 Hexadecapole moment (field-independent basis, Debye-Ang**3):
 XXXX=          -1167.8943 YYYY=           -759.4038 ZZZZ=            -94.4521 XXXY=            -18.6499
 XXXZ=            -13.2924 YYYX=            -16.6146 YYYZ=            -17.2481 ZZZX=             -4.6236
 ZZZY=             -6.9610 XXYY=           -304.1231 XXZZ=           -212.8140 YYZZ=           -146.4200
 XXYZ=            -25.1691 YYXZ=            -18.9026 ZZXY=             14.0326
 N-N= 5.146661777325D+02 E-N=-2.105943998752D+03  KE= 4.594814219894D+02
 There are a total of      164622 grid points.
 ElSum from          density=       74.0000561341
 ElSum from atomic densities=       73.9997262245

 Hirshfeld populations at iteration   1 (CX, CA, CB, DipXYZ):
               1          2          3          4          5          6
     1  C    0.000000   2.999976   2.999976  -0.066386  -0.046130   0.001051
     2  C    0.000000   3.033394   3.033394  -0.001803  -0.057355  -0.004395
     3  C    0.000000   2.969402   2.969402   0.119103  -0.064753  -0.005945
     4  C    0.000000   2.973336   2.973336   0.122566   0.066936   0.003947
     5  C    0.000000   3.027278   3.027278  -0.006838   0.057747   0.014421
     6  C    0.000000   3.030951   3.030951  -0.051797   0.026303   0.009894
     7  H    0.000000   0.475074   0.475074  -0.009318  -0.152775  -0.018963
     8  H    0.000002   0.472748   0.472748  -0.018205   0.159928   0.020545
     9  H    0.000002   0.476726   0.476726  -0.135765   0.077247   0.016119
    10  O    0.000005   4.116790   4.116790  -0.110897  -0.051412  -0.146281
    11  H    0.000001   0.413975   0.413975   0.058875   0.065375  -0.198653
    12  O    0.000001   4.079916   4.079916  -0.136102  -0.085077   0.081135
    13  C    0.000000   3.007625   3.007625   0.025555   0.043836  -0.020716
    14  H    0.000001   0.482108   0.482108  -0.067527  -0.099806  -0.084386
    15  H    0.000001   0.473919   0.473919   0.143249  -0.067632   0.024870
    16  H    0.000001   0.480184   0.480184  -0.049817  -0.003514   0.137805
    17  C    0.000000   3.048107   3.048107   0.002483   0.001492   0.000700
    18  H    0.000001   0.479617   0.479617  -0.002040  -0.092660  -0.121318
    19  H    0.000001   0.479330   0.479330  -0.014200  -0.082340   0.128976
    20  H    0.000001   0.479573   0.479573  -0.119772   0.091539  -0.010487
       Tot   0.000016  37.000028  37.000028  -0.318637  -0.213051  -0.171681

 Dip from Atomic Chgs             -0.409355  -0.361551  -0.108625
         Total Dipole             -0.727992  -0.574602  -0.280306

 Hirshfeld charges, spin densities, dipoles, and CM5 charges using IRadAn=      4:
              Q-H        S-H        Dx         Dy         Dz        Q-CM5   
     1  C    0.000047   0.000000  -0.066386  -0.046130   0.001051  -0.017251
     2  C   -0.066787   0.000000  -0.001803  -0.057355  -0.004395  -0.115576
     3  C    0.061197   0.000000   0.119103  -0.064753  -0.005945   0.077182
     4  C    0.053329   0.000000   0.122566   0.066936   0.003947   0.067024
     5  C   -0.054557   0.000000  -0.006838   0.057747   0.014421  -0.103444
     6  C   -0.061901   0.000000  -0.051797   0.026303   0.009894  -0.113594
     7  H    0.049852   0.000000  -0.009318  -0.152775  -0.018963   0.108568
     8  H    0.054505   0.000000  -0.018205   0.159928   0.020545   0.110594
     9  H    0.046547   0.000000  -0.135765   0.077247   0.016119   0.101060
    10  O   -0.233579   0.000000  -0.110897  -0.051412  -0.146281  -0.428015
    11  H    0.172049   0.000000   0.058875   0.065375  -0.198653   0.346552
    12  O   -0.159832   0.000000  -0.136102  -0.085077   0.081135  -0.242679
    13  C   -0.015251   0.000000   0.025555   0.043836  -0.020716  -0.146456
    14  H    0.035784   0.000000  -0.067527  -0.099806  -0.084386   0.099329
    15  H    0.052162   0.000000   0.143249  -0.067632   0.024870   0.113906
    16  H    0.039631   0.000000  -0.049817  -0.003514   0.137805   0.103941
    17  C   -0.096214   0.000000   0.002483   0.001492   0.000700  -0.248437
    18  H    0.040766   0.000000  -0.002040  -0.092660  -0.121318   0.095480
    19  H    0.041341   0.000000  -0.014200  -0.082340   0.128976   0.095901
    20  H    0.040853   0.000000  -0.119772   0.091539  -0.010487   0.095857
       Tot  -0.000056   0.000000  -0.318637  -0.213051  -0.171681  -0.000056
 Hirshfeld charges with hydrogens summed into heavy atoms:
              Q-H       Q-CM5   
     1  C    0.000047  -0.017251
     2  C   -0.016935  -0.007007
     3  C    0.061197   0.077182
     4  C    0.053329   0.067024
     5  C   -0.000052   0.007150
     6  C   -0.015354  -0.012533
    10  O   -0.061530  -0.081463
    12  O   -0.159832  -0.242679
    13  C    0.112327   0.170720
    17  C    0.026747   0.038801
 
 EQQ= 0.000000000000E+00 EQD= 0.000000000000E+00 EDD= 0.482109098739E-02
 EQQ+QD+DD= 0.482109098739E-02
 
          MBS Condensed to atoms (all electrons):
               1          2          3          4          5          6
     1  C    4.788959   0.503440  -0.027322  -0.010655  -0.031216   0.506443
     2  C    0.503440   4.891079   0.497157  -0.032447  -0.009479  -0.032981
     3  C   -0.027322   0.497157   4.732557   0.484939  -0.035752  -0.009801
     4  C   -0.010655  -0.032447   0.484939   4.729081   0.500265  -0.028926
     5  C   -0.031216  -0.009479  -0.035752   0.500265   4.844201   0.499650
     6  C    0.506443  -0.032981  -0.009801  -0.028926   0.499650   4.850816
     7  H   -0.024368   0.386380  -0.025098   0.001145   0.000037   0.001476
     8  H    0.001472   0.000038   0.001291  -0.024354   0.383609  -0.023029
     9  H   -0.025914   0.001496   0.000028   0.001382  -0.024853   0.386774
    10  O    0.000007   0.000298  -0.021755   0.287241  -0.022084   0.000333
    11  H    0.000005  -0.000038  -0.000042  -0.033225  -0.000005  -0.000040
    12  O    0.000304  -0.019465   0.289924  -0.020721   0.000261   0.000008
    13  C    0.000103  -0.011869  -0.038579   0.001238  -0.000015   0.000000
    14  H    0.000009  -0.002889  -0.002495  -0.000062   0.000001  -0.000001
    15  H   -0.000001   0.000235   0.002471  -0.000022   0.000000   0.000000
    16  H   -0.000011   0.001211  -0.006452   0.000258  -0.000006  -0.000007
    17  C    0.375905  -0.027699   0.000816   0.000019   0.000921  -0.028045
    18  H   -0.021778  -0.002835   0.000016   0.000002  -0.000030   0.000956
    19  H   -0.021626  -0.001561  -0.000003   0.000003  -0.000028   0.000341
    20  H   -0.022023   0.001378  -0.000027   0.000002   0.000047  -0.004486
               7          8          9         10         11         12
     1  C   -0.024368   0.001472  -0.025914   0.000007   0.000005   0.000304
     2  C    0.386380   0.000038   0.001496   0.000298  -0.000038  -0.019465
     3  C   -0.025098   0.001291   0.000028  -0.021755  -0.000042   0.289924
     4  C    0.001145  -0.024354   0.001382   0.287241  -0.033225  -0.020721
     5  C    0.000037   0.383609  -0.024853  -0.022084  -0.000005   0.000261
     6  C    0.001476  -0.023029   0.386774   0.000333  -0.000040   0.000008
     7  H    0.564261   0.000001  -0.000041  -0.000006   0.000001  -0.001871
     8  H    0.000001   0.548567  -0.003873  -0.000710   0.000203  -0.000005
     9  H   -0.000041  -0.003873   0.567952  -0.000005   0.000001   0.000000
    10  O   -0.000006  -0.000710  -0.000005   8.003743   0.265835  -0.000078
    11  H    0.000001   0.000203   0.000001   0.265835   0.419923   0.000156
    12  O   -0.001871  -0.000005   0.000000  -0.000078   0.000156   7.912722
    13  C   -0.003340   0.000000   0.000000   0.000012  -0.000010   0.270484
    14  H    0.000222   0.000000   0.000000   0.000000   0.000000  -0.019549
    15  H    0.000033   0.000000   0.000000   0.000000   0.000001  -0.017558
    16  H   -0.000637   0.000000   0.000000  -0.000001   0.000001  -0.017661
    17  C   -0.003550  -0.000018  -0.004049   0.000000   0.000000  -0.000001
    18  H    0.000626   0.000001   0.000064   0.000000   0.000000   0.000000
    19  H    0.000306   0.000001   0.000093   0.000000   0.000000   0.000000
    20  H    0.000041  -0.000002   0.001436   0.000000   0.000000   0.000000
              13         14         15         16         17         18
     1  C    0.000103   0.000009  -0.000001  -0.000011   0.375905  -0.021778
     2  C   -0.011869  -0.002889   0.000235   0.001211  -0.027699  -0.002835
     3  C   -0.038579  -0.002495   0.002471  -0.006452   0.000816   0.000016
     4  C    0.001238  -0.000062  -0.000022   0.000258   0.000019   0.000002
     5  C   -0.000015   0.000001   0.000000  -0.000006   0.000921  -0.000030
     6  C    0.000000  -0.000001   0.000000  -0.000007  -0.028045   0.000956
     7  H   -0.003340   0.000222   0.000033  -0.000637  -0.003550   0.000626
     8  H    0.000000   0.000000   0.000000   0.000000  -0.000018   0.000001
     9  H    0.000000   0.000000   0.000000   0.000000  -0.004049   0.000064
    10  O    0.000012   0.000000   0.000000  -0.000001   0.000000   0.000000
    11  H   -0.000010   0.000000   0.000001   0.000001   0.000000   0.000000
    12  O    0.270484  -0.019549  -0.017558  -0.017661  -0.000001   0.000000
    13  C    4.734397   0.376420   0.380773   0.374984   0.000000   0.000000
    14  H    0.376420   0.604936  -0.025582  -0.028350   0.000003   0.000000
    15  H    0.380773  -0.025582   0.562464  -0.022576   0.000000   0.000000
    16  H    0.374984  -0.028350  -0.022576   0.592140   0.000000   0.000000
    17  C    0.000000   0.000003   0.000000   0.000000   4.818821   0.380878
    18  H    0.000000   0.000000   0.000000   0.000000   0.380878   0.581504
    19  H    0.000000   0.000000   0.000000   0.000001   0.379288  -0.022216
    20  H    0.000000   0.000000   0.000000   0.000000   0.383666  -0.022172
              19         20
     1  C   -0.021626  -0.022023
     2  C   -0.001561   0.001378
     3  C   -0.000003  -0.000027
     4  C    0.000003   0.000002
     5  C   -0.000028   0.000047
     6  C    0.000341  -0.004486
     7  H    0.000306   0.000041
     8  H    0.000001  -0.000002
     9  H    0.000093   0.001436
    10  O    0.000000   0.000000
    11  H    0.000000   0.000000
    12  O    0.000000   0.000000
    13  C    0.000000   0.000000
    14  H    0.000000   0.000000
    15  H    0.000000   0.000000
    16  H    0.000001   0.000000
    17  C    0.379288   0.383666
    18  H   -0.022216  -0.022172
    19  H    0.578992  -0.022061
    20  H   -0.022061   0.583240
 MBS Mulliken charges:
               1
     1  C    0.008267
     2  C   -0.141447
     3  C    0.158126
     4  C    0.144838
     5  C   -0.105524
     6  C   -0.119481
     7  H    0.104381
     8  H    0.116808
     9  H    0.099509
    10  O   -0.512830
    11  H    0.347234
    12  O   -0.376949
    13  C   -0.084599
    14  H    0.097338
    15  H    0.119762
    16  H    0.107107
    17  C   -0.276955
    18  H    0.104986
    19  H    0.108470
    20  H    0.100961
 Sum of MBS Mulliken charges =   0.00000
 MBS Mulliken charges with hydrogens summed into heavy atoms:
               1
     1  C    0.008267
     2  C   -0.037066
     3  C    0.158126
     4  C    0.144838
     5  C    0.011284
     6  C   -0.019972
    10  O   -0.165596
    12  O   -0.376949
    13  C    0.239608
    17  C    0.037461
 Breneman (CHELPG) radii used.
 Generate Potential Derived Charges using the Breneman model, NDens= 1.
 Grid spacing= 0.300 Box extension= 2.800
 NStep X,Y,Z=   43     39     27   Total possible points=       45279
 Number of Points to Fit=   13350

 **********************************************************************

            Electrostatic Properties Using The SCF Density

 **********************************************************************

       Atomic Center    1 is at  -1.696117 -0.262015 -0.030469
       Atomic Center    2 is at  -0.470788 -0.915141 -0.166362
       Atomic Center    3 is at   0.716251 -0.183333 -0.141535
       Atomic Center    4 is at   0.678235  1.202417  0.018058
       Atomic Center    5 is at  -0.546860  1.855372  0.153438
       Atomic Center    6 is at  -1.734122  1.123082  0.129570
       Atomic Center    7 is at  -0.441126 -2.007222 -0.291746
       Atomic Center    8 is at  -0.577155  2.947496  0.279223
       Atomic Center    9 is at  -2.699795  1.638028  0.236510
       Atomic Center   10 is at   1.895474  1.952475  0.043397
       Atomic Center   11 is at   2.123043  2.224255 -0.848762
       Atomic Center   12 is at   1.972269 -0.852771 -0.279996
       Atomic Center   13 is at   1.889505 -2.150687  0.314533
       Atomic Center   14 is at   1.323445 -2.798839 -0.321372
       Atomic Center   15 is at   2.874783 -2.547879  0.442460
       Atomic Center   16 is at   1.408357 -2.076509  1.267369
       Atomic Center   17 is at  -3.006619 -1.070386 -0.057295
       Atomic Center   18 is at  -3.004072 -1.725924 -0.902968
       Atomic Center   19 is at  -3.088619 -1.646717  0.840490
       Atomic Center   20 is at  -3.837711 -0.400176 -0.128046
   13350 points will be used for fitting atomic charges
 Fitting point charges to electrostatic potential
 Charges from ESP fit, RMS=   0.00379 RRMS=   0.26595:
 ESP charges:
               1
     1  C    0.190140
     2  C   -0.391516
     3  C    0.313787
     4  C    0.241464
     5  C   -0.157732
     6  C   -0.263039
     7  H    0.200320
     8  H    0.126214
     9  H    0.140368
    10  O   -0.569821
    11  H    0.366414
    12  O   -0.433841
    13  C    0.309201
    14  H   -0.046812
    15  H    0.013623
    16  H   -0.027715
    17  C   -0.157196
    18  H    0.041305
    19  H    0.052824
    20  H    0.052012
 Sum of ESP charges =   0.00000
 ESP charges with hydrogens summed into heavy atoms:
               1
     1  C    0.190140
     2  C   -0.191196
     3  C    0.313787
     4  C    0.241464
     5  C   -0.031518
     6  C   -0.122671
    10  O   -0.203407
    12  O   -0.433841
    13  C    0.248297
    17  C   -0.011055
 Charge=   0.00000 Dipole=    -1.9071    -1.4241    -0.7234 Tot=     2.4877
 -----------------------------------------------------------------

              Electrostatic Properties (Atomic Units)

 -----------------------------------------------------------------
    Center     Electric         -------- Electric Field --------
               Potential          X             Y             Z
 -----------------------------------------------------------------
    1 Atom    -14.759285
    2 Atom    -14.770029
    3 Atom    -14.710661
    4 Atom    -14.713681
    5 Atom    -14.767737
    6 Atom    -14.773064
    7 Atom     -1.090802
    8 Atom     -1.097299
    9 Atom     -1.103117
   10 Atom    -22.357119
   11 Atom     -0.992482
   12 Atom    -22.344898
   13 Atom    -14.732334
   14 Atom     -1.113841
   15 Atom     -1.109172
   16 Atom     -1.111676
   17 Atom    -14.778499
   18 Atom     -1.114888
   19 Atom     -1.114383
   20 Atom     -1.116139
 -----------------------------------------------------------------
 ******************************Gaussian NBO Version 3.1******************************
             N A T U R A L   A T O M I C   O R B I T A L   A N D
          N A T U R A L   B O N D   O R B I T A L   A N A L Y S I S
 ******************************Gaussian NBO Version 3.1******************************
       /RESON  / : Allow strongly delocalized NBO set

 Analyzing the SCF density

 Job title: Title Card Required                                             

 Storage needed:    236700 in NPA ( 536868712 available)


 NATURAL POPULATIONS:  Natural atomic orbital occupancies 
                                                          
   NAO  Atom  No  lang   Type(AO)    Occupancy      Energy
 ----------------------------------------------------------
     1    C    1  S      Cor( 1S)     1.99904     -10.04586
     2    C    1  S      Val( 2S)     0.89135      -0.14351
     3    C    1  S      Ryd( 3S)     0.00071       0.74587
     4    C    1  S      Ryd( 4S)     0.00023       0.97947
     5    C    1  S      Ryd( 5S)     0.00001      22.93478
     6    C    1  px     Val( 2p)     1.05321      -0.05267
     7    C    1  px     Ryd( 4p)     0.00472       1.18001
     8    C    1  px     Ryd( 3p)     0.00043       0.85395
     9    C    1  px     Ryd( 5p)     0.00009       2.92159
    10    C    1  py     Val( 2p)     1.07357      -0.05287
    11    C    1  py     Ryd( 4p)     0.00410       0.96241
    12    C    1  py     Ryd( 3p)     0.00035       0.87770
    13    C    1  py     Ryd( 5p)     0.00008       2.89292
    14    C    1  pz     Val( 2p)     0.98466      -0.10179
    15    C    1  pz     Ryd( 3p)     0.00113       0.59782
    16    C    1  pz     Ryd( 4p)     0.00032       0.77796
    17    C    1  pz     Ryd( 5p)     0.00002       2.30884
    18    C    1  dxy    Ryd( 3d)     0.00069       2.49087
    19    C    1  dxz    Ryd( 3d)     0.00057       1.68437
    20    C    1  dyz    Ryd( 3d)     0.00064       1.69737
    21    C    1  dx2y2  Ryd( 3d)     0.00082       2.55311
    22    C    1  dz2    Ryd( 3d)     0.00036       2.05466

    23    C    2  S      Cor( 1S)     1.99892     -10.03020
    24    C    2  S      Val( 2S)     0.93943      -0.15754
    25    C    2  S      Ryd( 4S)     0.00157       0.83243
    26    C    2  S      Ryd( 3S)     0.00020       0.66710
    27    C    2  S      Ryd( 5S)     0.00001      23.23596
    28    C    2  px     Val( 2p)     1.07921      -0.06206
    29    C    2  px     Ryd( 4p)     0.00327       0.89376
    30    C    2  px     Ryd( 3p)     0.00025       0.57087
    31    C    2  px     Ryd( 5p)     0.00015       3.26089
    32    C    2  py     Val( 2p)     1.18450      -0.07645
    33    C    2  py     Ryd( 4p)     0.00454       1.10875
    34    C    2  py     Ryd( 3p)     0.00036       0.36033
    35    C    2  py     Ryd( 5p)     0.00006       3.21926
    36    C    2  pz     Val( 2p)     1.05760      -0.11880
    37    C    2  pz     Ryd( 4p)     0.00112       0.53665
    38    C    2  pz     Ryd( 3p)     0.00052       0.32532
    39    C    2  pz     Ryd( 5p)     0.00001       2.75355
    40    C    2  dxy    Ryd( 3d)     0.00073       2.61067
    41    C    2  dxz    Ryd( 3d)     0.00055       1.70951
    42    C    2  dyz    Ryd( 3d)     0.00048       1.64821
    43    C    2  dx2y2  Ryd( 3d)     0.00063       2.47908
    44    C    2  dz2    Ryd( 3d)     0.00044       2.07923

    45    C    3  S      Cor( 1S)     1.99857     -10.10614
    46    C    3  S      Val( 2S)     0.84507      -0.14610
    47    C    3  S      Ryd( 4S)     0.00099       0.89922
    48    C    3  S      Ryd( 3S)     0.00023       0.73348
    49    C    3  S      Ryd( 5S)     0.00002      22.85990
    50    C    3  px     Val( 2p)     0.82499      -0.04663
    51    C    3  px     Ryd( 4p)     0.00818       1.08895
    52    C    3  px     Ryd( 3p)     0.00027       0.80841
    53    C    3  px     Ryd( 5p)     0.00017       2.89513
    54    C    3  py     Val( 2p)     1.02105      -0.06593
    55    C    3  py     Ryd( 4p)     0.00377       1.13909
    56    C    3  py     Ryd( 3p)     0.00032       0.78054
    57    C    3  py     Ryd( 5p)     0.00018       2.85569
    58    C    3  pz     Val( 2p)     0.99979      -0.12260
    59    C    3  pz     Ryd( 3p)     0.00115       0.62371
    60    C    3  pz     Ryd( 4p)     0.00029       0.69521
    61    C    3  pz     Ryd( 5p)     0.00008       2.43457
    62    C    3  dxy    Ryd( 3d)     0.00152       2.46346
    63    C    3  dxz    Ryd( 3d)     0.00185       1.63258
    64    C    3  dyz    Ryd( 3d)     0.00105       1.70003
    65    C    3  dx2y2  Ryd( 3d)     0.00173       2.54209
    66    C    3  dz2    Ryd( 3d)     0.00073       2.04539

    67    C    4  S      Cor( 1S)     1.99855     -10.10329
    68    C    4  S      Val( 2S)     0.84334      -0.14482
    69    C    4  S      Ryd( 4S)     0.00122       0.90728
    70    C    4  S      Ryd( 3S)     0.00030       0.59165
    71    C    4  S      Ryd( 5S)     0.00002      22.97091
    72    C    4  px     Val( 2p)     0.85746      -0.05999
    73    C    4  px     Ryd( 4p)     0.00628       1.09258
    74    C    4  px     Ryd( 3p)     0.00034       0.40543
    75    C    4  px     Ryd( 5p)     0.00034       2.99653
    76    C    4  py     Val( 2p)     0.99521      -0.06209
    77    C    4  py     Ryd( 4p)     0.00492       1.12076
    78    C    4  py     Ryd( 3p)     0.00082       0.42340
    79    C    4  py     Ryd( 5p)     0.00021       2.95540
    80    C    4  pz     Val( 2p)     1.04030      -0.12023
    81    C    4  pz     Ryd( 4p)     0.00187       0.62865
    82    C    4  pz     Ryd( 3p)     0.00054       0.33076
    83    C    4  pz     Ryd( 5p)     0.00005       2.67490
    84    C    4  dxy    Ryd( 3d)     0.00164       2.45527
    85    C    4  dxz    Ryd( 3d)     0.00141       1.64071
    86    C    4  dyz    Ryd( 3d)     0.00092       1.67409
    87    C    4  dx2y2  Ryd( 3d)     0.00192       2.56722
    88    C    4  dz2    Ryd( 3d)     0.00059       2.06605

    89    C    5  S      Cor( 1S)     1.99904     -10.03703
    90    C    5  S      Val( 2S)     0.95813      -0.16989
    91    C    5  S      Ryd( 3S)     0.00194       0.71612
    92    C    5  S      Ryd( 4S)     0.00014       1.42742
    93    C    5  S      Ryd( 5S)     0.00001      22.42534
    94    C    5  px     Val( 2p)     1.05897      -0.05260
    95    C    5  px     Ryd( 4p)     0.00495       0.79968
    96    C    5  px     Ryd( 3p)     0.00037       0.40188
    97    C    5  px     Ryd( 5p)     0.00018       3.12918
    98    C    5  py     Val( 2p)     1.17893      -0.06943
    99    C    5  py     Ryd( 4p)     0.00580       1.13751
   100    C    5  py     Ryd( 3p)     0.00038       0.32021
   101    C    5  py     Ryd( 5p)     0.00007       3.14779
   102    C    5  pz     Val( 2p)     1.00571      -0.11282
   103    C    5  pz     Ryd( 4p)     0.00108       0.52995
   104    C    5  pz     Ryd( 3p)     0.00041       0.31380
   105    C    5  pz     Ryd( 5p)     0.00003       2.68801
   106    C    5  dxy    Ryd( 3d)     0.00068       2.57881
   107    C    5  dxz    Ryd( 3d)     0.00057       1.69698
   108    C    5  dyz    Ryd( 3d)     0.00049       1.63505
   109    C    5  dx2y2  Ryd( 3d)     0.00067       2.46543
   110    C    5  dz2    Ryd( 3d)     0.00044       2.03094

   111    C    6  S      Cor( 1S)     1.99903     -10.02893
   112    C    6  S      Val( 2S)     0.94139      -0.15460
   113    C    6  S      Ryd( 3S)     0.00134       0.83966
   114    C    6  S      Ryd( 4S)     0.00017       0.84904
   115    C    6  S      Ryd( 5S)     0.00001      22.96579
   116    C    6  px     Val( 2p)     1.14415      -0.05893
   117    C    6  px     Ryd( 4p)     0.00539       1.06616
   118    C    6  px     Ryd( 3p)     0.00039       0.36575
   119    C    6  px     Ryd( 5p)     0.00008       3.16945
   120    C    6  py     Val( 2p)     1.08822      -0.05199
   121    C    6  py     Ryd( 4p)     0.00480       0.78322
   122    C    6  py     Ryd( 3p)     0.00032       0.40903
   123    C    6  py     Ryd( 5p)     0.00012       3.15848
   124    C    6  pz     Val( 2p)     1.03498      -0.10969
   125    C    6  pz     Ryd( 4p)     0.00127       0.51468
   126    C    6  pz     Ryd( 3p)     0.00037       0.30185
   127    C    6  pz     Ryd( 5p)     0.00002       2.71511
   128    C    6  dxy    Ryd( 3d)     0.00077       2.50582
   129    C    6  dxz    Ryd( 3d)     0.00043       1.64006
   130    C    6  dyz    Ryd( 3d)     0.00048       1.69884
   131    C    6  dx2y2  Ryd( 3d)     0.00071       2.53744
   132    C    6  dz2    Ryd( 3d)     0.00041       2.04379

   133    H    7  S      Val( 1S)     0.78339       0.02690
   134    H    7  S      Ryd( 2S)     0.00106       0.86380
   135    H    7  S      Ryd( 3S)     0.00017       1.83794
   136    H    7  px     Ryd( 2p)     0.00015       2.02010
   137    H    7  py     Ryd( 2p)     0.00044       2.69580
   138    H    7  pz     Ryd( 2p)     0.00020       1.63236

   139    H    8  S      Val( 1S)     0.77633       0.03569
   140    H    8  S      Ryd( 2S)     0.00099       0.69095
   141    H    8  S      Ryd( 3S)     0.00019       1.98965
   142    H    8  px     Ryd( 2p)     0.00010       1.98855
   143    H    8  py     Ryd( 2p)     0.00045       2.66186
   144    H    8  pz     Ryd( 2p)     0.00017       1.61025

   145    H    9  S      Val( 1S)     0.79044       0.03558
   146    H    9  S      Ryd( 2S)     0.00071       0.82016
   147    H    9  S      Ryd( 3S)     0.00018       1.91014
   148    H    9  px     Ryd( 2p)     0.00035       2.53307
   149    H    9  py     Ryd( 2p)     0.00021       2.14459
   150    H    9  pz     Ryd( 2p)     0.00021       1.60828

   151    O   10  S      Cor( 1S)     1.99977     -18.93378
   152    O   10  S      Val( 2S)     1.67706      -0.90233
   153    O   10  S      Ryd( 4S)     0.00049       1.93967
   154    O   10  S      Ryd( 3S)     0.00034       1.15874
   155    O   10  S      Ryd( 5S)     0.00000      49.56949
   156    O   10  px     Val( 2p)     1.60958      -0.29858
   157    O   10  px     Ryd( 3p)     0.00228       0.59889
   158    O   10  px     Ryd( 4p)     0.00013       1.12231
   159    O   10  px     Ryd( 5p)     0.00002       4.83085
   160    O   10  py     Val( 2p)     1.80071      -0.30093
   161    O   10  py     Ryd( 3p)     0.00330       0.61714
   162    O   10  py     Ryd( 4p)     0.00007       1.10173
   163    O   10  py     Ryd( 5p)     0.00001       4.86331
   164    O   10  pz     Val( 2p)     1.61727      -0.29147
   165    O   10  pz     Ryd( 3p)     0.00207       0.66499
   166    O   10  pz     Ryd( 4p)     0.00018       1.11928
   167    O   10  pz     Ryd( 5p)     0.00001       4.92744
   168    O   10  dxy    Ryd( 3d)     0.00073       3.25747
   169    O   10  dxz    Ryd( 3d)     0.00083       3.07940
   170    O   10  dyz    Ryd( 3d)     0.00079       3.08210
   171    O   10  dx2y2  Ryd( 3d)     0.00043       3.11147
   172    O   10  dz2    Ryd( 3d)     0.00145       3.43424

   173    H   11  S      Val( 1S)     0.52377       0.11984
   174    H   11  S      Ryd( 3S)     0.00056       1.46533
   175    H   11  S      Ryd( 2S)     0.00034       1.30103
   176    H   11  px     Ryd( 2p)     0.00144       1.74594
   177    H   11  py     Ryd( 2p)     0.00163       1.68806
   178    H   11  pz     Ryd( 2p)     0.00073       2.45803

   179    O   12  S      Cor( 1S)     1.99977     -18.95422
   180    O   12  S      Val( 2S)     1.63217      -0.87535
   181    O   12  S      Ryd( 3S)     0.00256       0.90572
   182    O   12  S      Ryd( 4S)     0.00008       1.41505
   183    O   12  S      Ryd( 5S)     0.00000      49.51513
   184    O   12  px     Val( 2p)     1.61490      -0.31104
   185    O   12  px     Ryd( 3p)     0.00312       0.63852
   186    O   12  px     Ryd( 4p)     0.00085       0.82866
   187    O   12  px     Ryd( 5p)     0.00006       5.06535
   188    O   12  py     Val( 2p)     1.47722      -0.29291
   189    O   12  py     Ryd( 4p)     0.00232       0.92432
   190    O   12  py     Ryd( 3p)     0.00067       0.84472
   191    O   12  py     Ryd( 5p)     0.00001       5.14485
   192    O   12  pz     Val( 2p)     1.80793      -0.30596
   193    O   12  pz     Ryd( 3p)     0.00334       0.59477
   194    O   12  pz     Ryd( 4p)     0.00038       0.73435
   195    O   12  pz     Ryd( 5p)     0.00001       4.99193
   196    O   12  dxy    Ryd( 3d)     0.00083       3.26581
   197    O   12  dxz    Ryd( 3d)     0.00077       2.96994
   198    O   12  dyz    Ryd( 3d)     0.00051       3.19137
   199    O   12  dx2y2  Ryd( 3d)     0.00093       3.31935
   200    O   12  dz2    Ryd( 3d)     0.00065       3.10496

   201    C   13  S      Cor( 1S)     1.99919     -10.08441
   202    C   13  S      Val( 2S)     1.06662      -0.25800
   203    C   13  S      Ryd( 4S)     0.00216       0.87044
   204    C   13  S      Ryd( 3S)     0.00012       0.61286
   205    C   13  S      Ryd( 5S)     0.00001      23.35701
   206    C   13  px     Val( 2p)     1.19886      -0.10704
   207    C   13  px     Ryd( 3p)     0.00268       0.81060
   208    C   13  px     Ryd( 4p)     0.00035       1.32367
   209    C   13  px     Ryd( 5p)     0.00005       1.91608
   210    C   13  py     Val( 2p)     0.81413      -0.08269
   211    C   13  py     Ryd( 3p)     0.00229       0.64177
   212    C   13  py     Ryd( 4p)     0.00024       1.21597
   213    C   13  py     Ryd( 5p)     0.00006       1.97755
   214    C   13  pz     Val( 2p)     1.10184      -0.10070
   215    C   13  pz     Ryd( 3p)     0.00082       0.60578
   216    C   13  pz     Ryd( 4p)     0.00060       1.23889
   217    C   13  pz     Ryd( 5p)     0.00005       1.99968
   218    C   13  dxy    Ryd( 3d)     0.00150       2.02530
   219    C   13  dxz    Ryd( 3d)     0.00081       2.08242
   220    C   13  dyz    Ryd( 3d)     0.00193       2.03025
   221    C   13  dx2y2  Ryd( 3d)     0.00166       2.11185
   222    C   13  dz2    Ryd( 3d)     0.00123       2.04437

   223    H   14  S      Val( 1S)     0.84147       0.01018
   224    H   14  S      Ryd( 2S)     0.00113       0.53115
   225    H   14  S      Ryd( 3S)     0.00019       2.23062
   226    H   14  px     Ryd( 2p)     0.00028       2.05927
   227    H   14  py     Ryd( 2p)     0.00014       2.13471
   228    H   14  pz     Ryd( 2p)     0.00029       2.08247

   229    H   15  S      Val( 1S)     0.81218       0.02598
   230    H   15  S      Ryd( 2S)     0.00046       0.44523
   231    H   15  S      Ryd( 3S)     0.00013       2.21408
   232    H   15  px     Ryd( 2p)     0.00041       2.59055
   233    H   15  py     Ryd( 2p)     0.00009       1.85078
   234    H   15  pz     Ryd( 2p)     0.00016       1.75311

   235    H   16  S      Val( 1S)     0.82656       0.01474
   236    H   16  S      Ryd( 2S)     0.00142       0.60164
   237    H   16  S      Ryd( 3S)     0.00015       2.18327
   238    H   16  px     Ryd( 2p)     0.00024       1.96666
   239    H   16  py     Ryd( 2p)     0.00010       1.73064
   240    H   16  pz     Ryd( 2p)     0.00032       2.60965

   241    C   17  S      Cor( 1S)     1.99930     -10.02022
   242    C   17  S      Val( 2S)     1.07297      -0.23745
   243    C   17  S      Ryd( 4S)     0.00035       0.76883
   244    C   17  S      Ryd( 3S)     0.00017       0.69263
   245    C   17  S      Ryd( 5S)     0.00000      23.34035
   246    C   17  px     Val( 2p)     1.10639      -0.09068
   247    C   17  px     Ryd( 4p)     0.00173       0.53592
   248    C   17  px     Ryd( 3p)     0.00030       0.36834
   249    C   17  px     Ryd( 5p)     0.00005       2.91674
   250    C   17  py     Val( 2p)     1.17951      -0.09366
   251    C   17  py     Ryd( 4p)     0.00253       0.52960
   252    C   17  py     Ryd( 3p)     0.00013       0.38105
   253    C   17  py     Ryd( 5p)     0.00004       2.94796
   254    C   17  pz     Val( 2p)     1.21069      -0.09486
   255    C   17  pz     Ryd( 4p)     0.00053       0.50894
   256    C   17  pz     Ryd( 3p)     0.00005       0.37418
   257    C   17  pz     Ryd( 5p)     0.00006       2.93802
   258    C   17  dxy    Ryd( 3d)     0.00084       2.28602
   259    C   17  dxz    Ryd( 3d)     0.00025       1.77056
   260    C   17  dyz    Ryd( 3d)     0.00103       2.26256
   261    C   17  dx2y2  Ryd( 3d)     0.00037       2.00984
   262    C   17  dz2    Ryd( 3d)     0.00066       2.14261

   263    H   18  S      Val( 1S)     0.79283       0.03836
   264    H   18  S      Ryd( 2S)     0.00068       0.68529
   265    H   18  S      Ryd( 3S)     0.00010       2.08386
   266    H   18  px     Ryd( 2p)     0.00016       1.71192
   267    H   18  py     Ryd( 2p)     0.00016       2.15815
   268    H   18  pz     Ryd( 2p)     0.00023       2.37213

   269    H   19  S      Val( 1S)     0.79039       0.03898
   270    H   19  S      Ryd( 2S)     0.00067       0.67350
   271    H   19  S      Ryd( 3S)     0.00010       2.10458
   272    H   19  px     Ryd( 2p)     0.00018       1.75643
   273    H   19  py     Ryd( 2p)     0.00016       2.07360
   274    H   19  pz     Ryd( 2p)     0.00025       2.44703

   275    H   20  S      Val( 1S)     0.79543       0.03900
   276    H   20  S      Ryd( 2S)     0.00068       0.75884
   277    H   20  S      Ryd( 3S)     0.00009       1.96862
   278    H   20  px     Ryd( 2p)     0.00023       2.35726
   279    H   20  py     Ryd( 2p)     0.00018       2.13732
   280    H   20  pz     Ryd( 2p)     0.00008       1.75855

 WARNING:  1 low occupancy (<1.9990e) core orbital  found on  C    2
           1 low occupancy (<1.9990e) core orbital  found on  C    3
           1 low occupancy (<1.9990e) core orbital  found on  C    4

 WARNING:  Population inversion found on atom  C    1
           Population inversion found on atom  C    2
           Population inversion found on atom  C    3
           Population inversion found on atom  C    4
           Population inversion found on atom  C    5
           Population inversion found on atom  C    6
           Population inversion found on atom  O   10
           Population inversion found on atom  H   11
           Population inversion found on atom  O   12
           Population inversion found on atom  C   13
           Population inversion found on atom  C   17


 Summary of Natural Population Analysis:                  
                                                          
                                       Natural Population 
                Natural  -----------------------------------------------
    Atom  No    Charge         Core      Valence    Rydberg      Total
 -----------------------------------------------------------------------
      C    1   -0.01714      1.99904     4.00280    0.01530     6.01714
      C    2   -0.27455      1.99892     4.26074    0.01490     6.27455
      C    3    0.28797      1.99857     3.69091    0.02256     5.71203
      C    4    0.24176      1.99855     3.73632    0.02338     5.75824
      C    5   -0.21899      1.99904     4.20175    0.01820     6.21899
      C    6   -0.22482      1.99903     4.20873    0.01706     6.22482
      H    7    0.21459      0.00000     0.78339    0.00202     0.78541
      H    8    0.22177      0.00000     0.77633    0.00190     0.77823
      H    9    0.20790      0.00000     0.79044    0.00166     0.79210
      O   10   -0.71751      1.99977     6.70462    0.01312     8.71751
      H   11    0.47155      0.00000     0.52377    0.00469     0.52845
      O   12   -0.54907      1.99977     6.53222    0.01708     8.54907
      C   13   -0.19721      1.99919     4.18146    0.01656     6.19721
      H   14    0.15650      0.00000     0.84147    0.00203     0.84350
      H   15    0.18658      0.00000     0.81218    0.00123     0.81342
      H   16    0.17120      0.00000     0.82656    0.00223     0.82880
      C   17   -0.57794      1.99930     4.56956    0.00908     6.57794
      H   18    0.20584      0.00000     0.79283    0.00133     0.79416
      H   19    0.20826      0.00000     0.79039    0.00135     0.79174
      H   20    0.20330      0.00000     0.79543    0.00127     0.79670
 =======================================================================
   * Total *    0.00000     19.99116    53.82190    0.18694    74.00000

                                 Natural Population      
 --------------------------------------------------------
   Core                      19.99116 ( 99.9558% of  20)
   Valence                   53.82190 ( 99.6702% of  54)
   Natural Minimal Basis     73.81306 ( 99.7474% of  74)
   Natural Rydberg Basis      0.18694 (  0.2526% of  74)
 --------------------------------------------------------

    Atom  No          Natural Electron Configuration
 ----------------------------------------------------------------------------
      C    1      [core]2S( 0.89)2p( 3.11)4p( 0.01)
      C    2      [core]2S( 0.94)2p( 3.32)4p( 0.01)
      C    3      [core]2S( 0.85)2p( 2.85)3d( 0.01)4p( 0.01)
      C    4      [core]2S( 0.84)2p( 2.89)3d( 0.01)4p( 0.01)
      C    5      [core]2S( 0.96)2p( 3.24)4p( 0.01)
      C    6      [core]2S( 0.94)2p( 3.27)4p( 0.01)
      H    7            1S( 0.78)
      H    8            1S( 0.78)
      H    9            1S( 0.79)
      O   10      [core]2S( 1.68)2p( 5.03)3p( 0.01)
      H   11            1S( 0.52)
      O   12      [core]2S( 1.63)2p( 4.90)3p( 0.01)
      C   13      [core]2S( 1.07)2p( 3.11)3p( 0.01)3d( 0.01)
      H   14            1S( 0.84)
      H   15            1S( 0.81)
      H   16            1S( 0.83)
      C   17      [core]2S( 1.07)2p( 3.50)
      H   18            1S( 0.79)
      H   19            1S( 0.79)
      H   20            1S( 0.80)


 NBO analysis skipped by request.
 Calling FoFJK, ICntrl=      2127 FMM=F ISym2X=0 I1Cent= 0 IOpClX= 0 NMat=1 NMatS=1 NMatT=0.
 ***** Axes restored to original set *****
 -------------------------------------------------------------------
 Center     Atomic                   Forces (Hartrees/Bohr)
 Number     Number              X              Y              Z
 -------------------------------------------------------------------
      1        6          -0.011999266   -0.015491231   -0.000997707
      2        6          -0.002088575   -0.003233522    0.000161823
      3        6           0.032926838   -0.005123090   -0.001518966
      4        6           0.011796540    0.028673122   -0.008915068
      5        6          -0.002574033    0.005446805    0.000496620
      6        6          -0.004638546    0.002050652    0.000521774
      7        1          -0.009246714    0.010314991   -0.000987899
      8        1           0.008018012   -0.007587078    0.000228875
      9        1           0.010104447    0.000255638    0.000106320
     10        8          -0.014905828   -0.021952144    0.007645286
     11        1           0.000994941   -0.001912280   -0.003100080
     12        8          -0.036906157    0.002502420    0.006994534
     13        6           0.001463014    0.010452548   -0.008865175
     14        1           0.003187076   -0.015422269   -0.006202264
     15        1           0.013470214    0.006131482   -0.000660904
     16        1          -0.005713331   -0.003036892    0.014878184
     17        6           0.016396930    0.029192933   -0.000973549
     18        1           0.003827365   -0.011515008   -0.009846323
     19        1           0.000092328   -0.009509483    0.013144400
     20        1          -0.014205255   -0.000237593   -0.002109880
 -------------------------------------------------------------------
 Cartesian Forces:  Max     0.036906157 RMS     0.011562689

 GradGradGradGradGradGradGradGradGradGradGradGradGradGradGradGradGradGrad
 Berny optimization.
 FormGI is forming the generalized inverse of G from B-inverse, IUseBI=4.
 GSVD:  received Info=                   1 from GESDD.
 Internal  Forces:  Max     0.051517847 RMS     0.009268608
 Search for a local minimum.
 Step number   1 out of a maximum of   99
 All quantities printed in internal units (Hartrees-Bohrs-Radians)
 Mixed Optimization -- RFO/linear search
 Second derivative matrix not updated -- first step.
 ITU=  0
     Eigenvalues ---    0.00237   0.01295   0.01295   0.01295   0.01387
     Eigenvalues ---    0.01990   0.02008   0.02152   0.02155   0.02155
     Eigenvalues ---    0.02155   0.02156   0.02156   0.07243   0.07243
     Eigenvalues ---    0.10344   0.10344   0.16000   0.16000   0.16000
     Eigenvalues ---    0.16000   0.16000   0.16000   0.16000   0.16000
     Eigenvalues ---    0.16000   0.16000   0.22375   0.23491   0.24610
     Eigenvalues ---    0.25000   0.25000   0.25000   0.25000   0.28519
     Eigenvalues ---    0.33709   0.33720   0.33726   0.37230   0.37230
     Eigenvalues ---    0.37230   0.37230   0.37230   0.37230   0.40989
     Eigenvalues ---    0.40989   0.40989   0.42248   0.42538   0.46412
     Eigenvalues ---    0.46453   0.46466   0.46497   0.55473
 RFO step:  Lambda=-2.54792942D-02 EMin= 2.36824130D-03
 Linear search not attempted -- first point.
 Iteration  1 RMS(Cart)=  0.15438601 RMS(Int)=  0.01135156
 Iteration  2 RMS(Cart)=  0.03590507 RMS(Int)=  0.00076663
 Iteration  3 RMS(Cart)=  0.00097350 RMS(Int)=  0.00054889
 Iteration  4 RMS(Cart)=  0.00000095 RMS(Int)=  0.00054889
 Variable       Old X    -DE/DX   Delta X   Delta X   Delta X     New X
                                 (Linear)    (Quad)   (Total)
    R1        2.63647   0.00183   0.00000   0.00430   0.00428   2.64075
    R2        2.63584  -0.00022   0.00000  -0.00045  -0.00051   2.63534
    R3        2.91018  -0.00992   0.00000  -0.03194  -0.03194   2.87824
    R4        2.63562   0.00519   0.00000   0.01115   0.01119   2.64681
    R5        2.07805  -0.01356   0.00000  -0.03738  -0.03738   2.04067
    R6        2.63697   0.00013   0.00000   0.00027   0.00032   2.63730
    R7        2.70231  -0.02449   0.00000  -0.05626  -0.05626   2.64605
    R8        2.63584  -0.00685   0.00000  -0.01454  -0.01451   2.62132
    R9        2.70231  -0.02762   0.00000  -0.06345  -0.06345   2.63886
   R10        2.63643  -0.00089   0.00000  -0.00239  -0.00242   2.63401
   R11        2.07825  -0.01058   0.00000  -0.02918  -0.02918   2.04906
   R12        2.07795  -0.01010   0.00000  -0.02786  -0.02786   2.05009
   R13        1.81414   0.00254   0.00000   0.00437   0.00437   1.81851
   R14        2.70231   0.00518   0.00000   0.01190   0.01190   2.71421
   R15        2.02201   0.01577   0.00000   0.03964   0.03964   2.06165
   R16        2.02201   0.01369   0.00000   0.03441   0.03441   2.05642
   R17        2.02201   0.01589   0.00000   0.03995   0.03995   2.06196
   R18        2.02201   0.01530   0.00000   0.03847   0.03847   2.06047
   R19        2.02201   0.01593   0.00000   0.04006   0.04006   2.06206
   R20        2.02201   0.01409   0.00000   0.03543   0.03543   2.05743
    A1        2.09437  -0.00511   0.00000  -0.01805  -0.01808   2.07629
    A2        2.09435   0.00078   0.00000   0.00259   0.00260   2.09695
    A3        2.09447   0.00433   0.00000   0.01546   0.01547   2.10994
    A4        2.09455   0.00371   0.00000   0.01684   0.01691   2.11145
    A5        2.09406  -0.00482   0.00000  -0.02440  -0.02447   2.06959
    A6        2.09458   0.00111   0.00000   0.00758   0.00752   2.10210
    A7        2.09429  -0.00416   0.00000  -0.01463  -0.01476   2.07954
    A8        2.09462   0.02540   0.00000   0.09195   0.09144   2.18606
    A9        2.09427  -0.02123   0.00000  -0.07733  -0.07763   2.01665
   A10        2.09429   0.00137   0.00000   0.00339   0.00329   2.09758
   A11        2.09407  -0.00109   0.00000  -0.00319  -0.00348   2.09059
   A12        2.09483  -0.00027   0.00000  -0.00022  -0.00056   2.09427
   A13        2.09448   0.00230   0.00000   0.00646   0.00651   2.10099
   A14        2.09459  -0.00442   0.00000  -0.02086  -0.02090   2.07369
   A15        2.09411   0.00212   0.00000   0.01440   0.01436   2.10847
   A16        2.09440   0.00190   0.00000   0.00598   0.00595   2.10034
   A17        2.09453  -0.00068   0.00000  -0.00155  -0.00154   2.09300
   A18        2.09426  -0.00121   0.00000  -0.00443  -0.00441   2.08984
   A19        1.91114  -0.00386   0.00000  -0.02081  -0.02081   1.89032
   A20        1.91114   0.05152   0.00000   0.18701   0.18701   2.09815
[...]
 8,-0.00417933,-0.00207562,-0.00110407,-0.01010853,0.03000137,-0.005402
 21,-0.12328280,0.11481042,-0.02444147,0.01208590,-0.01443717,0.0029137
 3,0.00003989,0.00005038,0.00004523,0.12490645,-0.00399376,-0.00240020,
 0.00044623,-0.00063298,0.00040618,-0.00025284,-0.00070865,0.00084378,0
 .00051452,-0.00187637,0.00195244,0.00016387,0.11678803,-0.26493576,0.0
 4108702,0.01488381,-0.01698572,0.00407384,0.00008689,-0.00007075,-0.00
 002100,-0.12539191,0.28008590,-0.00042178,0.00050489,0.00597923,0.0000
 8287,-0.00026157,-0.00107559,-0.00125745,0.00033879,0.00601351,-0.0018
 0047,0.00426970,0.00483016,-0.02466708,0.04083448,-0.04191898,-0.00039
 697,0.00029876,0.00203784,0.00004084,-0.00002558,-0.00034718,0.0271658
 2,-0.04506474,0.03245082,-0.01311429,-0.00271357,-0.00177789,0.0007159
 3,0.00298417,-0.00102141,0.00070873,0.00005015,0.00018014,0.00160589,-
 0.00244987,-0.00033730,-0.01186709,0.00220790,-0.00203588,-0.32766706,
 0.00210346,-0.03817098,-0.00067055,-0.00005094,-0.00014776,0.00071092,
 -0.00015667,0.00060328,0.34894249,0.02629108,0.00317648,0.00337147,0.0
 0240093,-0.00430021,0.00147267,-0.00009763,-0.00147032,0.00007070,-0.0
 0161349,-0.00395935,0.00095853,-0.02801180,0.00333994,-0.00375227,0.00
 119474,-0.05711271,0.00284032,0.00139931,0.00016623,0.00022163,0.00059
 227,0.00090946,-0.00045935,-0.00093943,0.05816473,-0.00505554,-0.00038
 368,0.00244578,-0.00094813,0.00154757,0.00571868,0.00019677,0.00008859
 ,-0.00071811,-0.00043156,0.00084956,0.00621883,0.00136959,0.00013789,0
 .00219266,-0.03807005,0.00296513,-0.03848708,-0.00031241,0.00003588,0.
 00048613,0.00051855,-0.00055570,-0.00370508,0.04195478,-0.00395978,0.0
 2996084,0.00064163,-0.00346640,0.00059972,-0.00399295,0.00245275,-0.00
 147007,-0.00108531,0.00278670,-0.00154017,-0.15023134,-0.10699582,-0.0
 0235202,-0.03170485,-0.05194534,0.00099814,-0.00234011,0.00744589,-0.0
 0176942,0.00033312,0.00032413,0.00003805,0.00261585,0.00051655,0.00077
 682,-0.00112262,-0.00167322,-0.00000259,0.64157847,-0.00531007,-0.0000
 4512,-0.00083175,0.00843521,0.00172688,0.00148600,-0.03049724,-0.05577
 266,0.00333068,-0.05384447,-0.25079850,0.01706644,-0.01466813,0.000573
 51,-0.00126159,0.00429395,-0.00270300,0.00140896,-0.00096036,-0.001789
 45,0.00004996,-0.00016384,0.00074848,-0.00054570,-0.00012033,0.0001231
 7,0.00001109,0.01510512,0.37523658,0.00082579,-0.00057371,-0.00096482,
 -0.00214055,0.00071764,0.00491731,0.00221149,0.00760157,0.00790518,-0.
 00834558,0.01023152,-0.04034365,-0.00321507,-0.00606253,0.00637014,-0.
 00141607,0.00181950,0.00451058,0.00018209,0.00021389,-0.00024671,0.000
 85536,-0.00045607,-0.00372191,-0.00017762,-0.00018917,0.00035764,0.077
 43224,-0.03741496,0.04049919,0.00057660,0.00016434,0.00010215,-0.00194
 485,-0.00012984,-0.00017350,0.00465087,0.00263444,0.00004259,-0.029864
 07,-0.00204901,-0.00325605,0.00174282,-0.00305803,0.00044168,-0.001202
 83,0.00048465,-0.00046463,0.00019812,0.00042392,-0.00003859,0.00019357
 ,0.00001926,0.00010432,0.00002312,-0.00018360,0.00002479,-0.46313041,0
 .07608942,-0.06750032,0.49135008,0.00016480,-0.00040700,0.00002857,0.0
 0022610,0.00055840,-0.00008875,-0.00794184,-0.00308594,-0.00044734,-0.
 04236894,0.00554603,-0.00638581,-0.00303054,-0.00708800,0.00052236,-0.
 00079708,0.00153435,-0.00005190,-0.00001311,0.00001552,0.00001104,-0.0
 0000724,0.00005972,-0.00007898,-0.00019363,-0.00038174,0.00001703,0.12
 568604,-0.07027660,0.02352353,-0.07478834,0.07125229,0.00009806,0.0000
 2951,-0.00031881,-0.00021395,-0.00013424,-0.00049233,0.00123663,0.0009
 1288,0.00205246,0.00129388,-0.00120029,-0.00245210,0.00043648,0.000517
 87,0.00099343,-0.00032001,0.00011343,0.00192823,0.00001067,0.00006739,
 0.00012099,0.00010721,-0.00007567,-0.00060907,0.00002564,0.00001814,-0
 .00000773,-0.07309477,0.01714456,-0.01638674,0.07078583,-0.01691458,0.
 01759700,-0.00131202,0.00097504,-0.00118722,-0.03289869,-0.00769874,-0
 .00398314,-0.25574865,-0.04193230,-0.02319302,-0.06069136,0.00567947,-
 0.00948107,0.01050112,0.00516569,0.00025221,-0.00646271,-0.00749657,0.
 00018561,0.00019138,0.00053769,0.00037222,-0.00121174,-0.00003093,-0.0
 0015994,-0.00022558,-0.00018707,0.00004969,0.00709611,0.00364127,0.000
 90066,-0.00184784,0.00030457,-0.00010367,0.48599122,0.00335810,-0.0068
 2131,0.00200400,-0.03758727,0.00438454,-0.00478066,-0.00792188,-0.1124
 9999,0.00730022,0.03892327,-0.00146968,0.00608133,0.00016062,-0.007304
 45,0.00129855,-0.00092591,0.00193387,-0.00048997,0.00210061,0.00155763
 ,-0.00026466,0.00169800,0.00017763,0.00020538,0.00007703,0.00031166,-0
 .00007589,0.00924322,0.00336663,0.00045821,0.00006968,0.00158139,-0.00
 031603,-0.08455169,0.35427025,-0.00145631,0.00168392,0.00664469,-0.000
 61658,-0.00093750,0.00489145,-0.02701369,0.00292799,-0.04241285,-0.013
 23279,0.00181390,0.00618773,0.00081520,0.00194250,0.00391266,-0.000552
 16,-0.00133647,-0.00127797,0.00019755,-0.00046571,-0.00310860,-0.00035
 423,-0.00001751,0.00001316,0.00002047,-0.00011011,-0.00043553,0.000269
 78,-0.00026543,-0.00304821,-0.00007746,-0.00028567,-0.00128463,0.06351
 325,-0.04332977,0.07895928,0.00037645,0.00120154,-0.00010089,0.0013525
 6,-0.00054542,0.00033418,-0.03945673,0.03469589,-0.00838267,-0.0023197
 4,-0.00504178,-0.00000435,-0.00148892,0.00127154,-0.00045166,0.0010822
 8,0.00099967,-0.00003322,-0.00190838,0.00104426,-0.00033681,-0.0002560
 5,-0.00012240,0.00002222,0.00004126,0.00009229,0.00002086,0.00204791,-
 0.00143691,0.00037199,-0.00076420,0.00356196,-0.00035434,-0.11503971,0
 .03622785,-0.01150045,0.56831830,-0.00024835,-0.00058674,0.00004269,-0
 .00709019,0.00322244,-0.00135813,0.01229862,0.00583324,0.00040334,-0.0
 0711401,-0.00184127,-0.00046563,0.00125031,0.00055313,0.00020055,-0.00
 169868,-0.00087682,-0.00006705,-0.00128300,-0.00088939,-0.00008756,-0.
 00041303,0.00015925,-0.00010756,-0.00008582,-0.00012891,-0.00001935,0.
 00175443,0.00146273,0.00010751,0.00029425,-0.00063544,-0.00001843,0.06
 893656,-0.18404918,0.02312946,0.07569434,0.49276759,0.00006014,0.00023
 226,0.00010712,0.00107178,-0.00051951,-0.00057321,-0.00586315,0.003282
 73,-0.00574159,0.00022815,-0.00019921,0.00218999,-0.00044875,0.0002027
 0,0.00082090,0.00026957,0.00028119,0.00047224,-0.00007524,0.00021164,-
 0.00023249,0.00005489,-0.00006998,-0.00030660,0.00004104,0.00000365,-0
 .00019694,0.00001069,-0.00030232,0.00045253,0.00001470,0.00040068,-0.0
 0117642,-0.01517857,0.01892408,-0.06136870,-0.00809668,0.01785689,0.56
 198374,-0.00073328,0.00011928,-0.00064943,0.00039515,-0.00072391,0.000
 20879,0.00471225,0.00100947,0.00205787,-0.00065879,0.00112720,-0.00068
 586,0.00066688,0.00035434,-0.00008050,0.00008894,-0.00073855,0.0000536
 9,-0.00142390,-0.00004781,0.00107141,-0.00000580,0.00000065,0.00005636
 ,-0.00000013,-0.00001885,0.00009404,-0.00048099,-0.00033997,-0.0000116
 1,0.00010549,-0.00040594,0.00018100,-0.00411271,0.02160252,0.01420235,
 -0.05388713,-0.01853572,-0.02130383,0.05361155,0.00031526,-0.00003454,
 0.00003826,0.00029731,0.00030627,0.00032633,-0.00567576,0.00020719,-0.
 00074948,0.00082013,-0.00059548,0.00044126,-0.00046808,-0.00011794,0.0
 0004909,0.00032091,0.00042429,-0.00005603,-0.00015448,0.00034813,-0.00
 005929,0.00004877,-0.00002001,-0.00004215,0.00001369,0.00002911,0.0000
 0868,0.00034116,-0.00008048,0.00017560,-0.00016926,0.00080238,-0.00043
 456,0.01142142,-0.03251462,-0.01653486,-0.01490463,-0.14023075,-0.1183
 8582,0.00919763,0.16534905,-0.00004108,0.00045094,-0.00016984,0.000050
 12,-0.00139951,0.00017401,-0.00042862,-0.00002082,0.00070972,0.0002853
 0,0.00015458,-0.00032035,-0.00002191,0.00009408,-0.00006210,0.00004474
 ,-0.00007753,-0.00005447,-0.00008370,0.00069284,-0.00003773,0.00001289
 ,0.00000579,0.00002932,-0.00003222,0.00005332,0.00002498,-0.00011238,0
 .00011808,0.00001014,-0.00002697,-0.00000853,0.00002625,0.00264630,0.0
 0482042,0.01205637,-0.01817864,-0.12209048,-0.20931366,0.01966237,0.13
 360757,0.21753043,-0.00003701,0.00003941,-0.00002880,0.00023769,0.0002
 3922,-0.00003537,0.00193225,0.00315134,-0.00018689,-0.00127276,-0.0008
 2171,-0.00011033,0.00009315,0.00041141,-0.00003383,-0.00008714,-0.0001
 0875,0.00000686,0.00010485,0.00004865,0.00006773,-0.00010636,0.0000033
 7,-0.00000884,-0.00002515,-0.00000332,0.00000031,0.00030024,0.00037815
 ,0.00001268,-0.00020687,-0.00010590,-0.00003459,-0.02504344,0.00234247
 ,-0.00350704,-0.28272886,-0.08731600,-0.01995475,0.00005910,-0.0017457
 0,-0.00010833,0.31314919,0.00027368,0.00046206,-0.00000004,-0.00033369
 ,-0.00125150,0.00013256,0.00139925,-0.00458287,0.00076625,0.00177611,0
 .00080632,0.00017191,-0.00019474,-0.00054926,0.00003649,-0.00010073,0.
 00018620,-0.00003898,-0.00035696,0.00079517,-0.00018800,0.00013828,0.0
 0000680,0.00001242,-0.00001854,0.00005239,-0.00001112,-0.00032524,-0.0
 0003479,-0.00005257,0.00020077,-0.00011921,0.00005670,0.03994102,0.003
 57312,0.00475089,-0.10045175,-0.08180545,-0.00941282,-0.01775370,-0.00
 490912,0.00019795,0.08749710,0.09065674,-0.00005438,-0.00003044,0.0001
 4362,0.00002858,0.00020640,0.00028690,0.00000911,0.00099188,0.00051971
 ,-0.00040300,-0.00016179,0.00027406,0.00003447,0.00011415,-0.00001332,
 0.00000599,-0.00003994,-0.00003964,0.00011348,-0.00013576,-0.00043609,
 -0.00002395,-0.00000496,-0.00004360,0.00000207,-0.00000915,-0.00002368
 ,0.00009194,0.00003787,-0.00012244,-0.00006913,0.00001729,0.00014425,-
 0.00773950,-0.00007938,-0.00078736,-0.01847562,-0.00772510,-0.05231707
 ,-0.02369325,-0.00859205,-0.00068685,0.02439063,0.00627051,0.04897036,
 -0.00084966,0.00034707,0.00040451,0.00042546,-0.00106041,0.00008839,0.
 00471944,0.00060428,-0.00116665,-0.00067735,0.00123036,0.00031000,0.00
 059364,0.00039209,0.00016425,0.00009180,-0.00070917,0.00014927,-0.0010
 9881,-0.00013093,-0.00134828,0.00001423,-0.00001186,-0.00005783,0.0000
 1682,-0.00002557,-0.00009299,-0.00047825,-0.00030732,-0.00005134,0.000
 11965,-0.00039805,-0.00005550,0.00176140,0.01702708,-0.02075604,-0.075
 77464,-0.03599834,0.06907116,0.00162821,0.00029356,-0.00370349,-0.0063
 3127,-0.01173965,0.02579802,0.07578767,0.00029595,-0.00012928,0.000051
 44,0.00036921,0.00051517,-0.00032676,-0.00533915,0.00026121,-0.0005956
 0,0.00079960,-0.00065416,-0.00014658,-0.00040760,-0.00014777,-0.000136
 69,0.00029710,0.00041739,0.00002551,-0.00016620,0.00018179,-0.00006523
 ,0.00003106,-0.00000892,0.00005906,0.00002164,0.00001514,-0.00000373,0
 .00037228,-0.00013812,-0.00004821,-0.00023561,0.00084286,0.00019189,0.
 00462195,-0.02705538,0.02696870,-0.03233376,-0.09282212,0.08746832,0.0
 0514454,0.01101278,-0.01661360,-0.00399399,-0.00329968,0.00913950,0.03
 047932,0.11099205,-0.00021941,-0.00038181,0.00004082,-0.00002916,0.001
 08622,-0.00006610,0.00274025,0.00029809,0.00064782,-0.00057713,0.00023
 452,-0.00024372,0.00028774,0.00002706,0.00004090,-0.00007350,-0.000218
 53,-0.00005083,-0.00017688,-0.00079920,-0.00019636,-0.00002461,-0.0000
 0063,-0.00000178,0.00002422,-0.00005865,0.00002218,-0.00010369,-0.0001
 6561,0.00006486,0.00010725,-0.00028506,-0.00002783,-0.00665660,0.00851
 486,0.00072706,0.06512486,0.09023471,-0.23483731,0.00880590,0.01018894
 ,-0.01992866,-0.00046163,-0.00270141,0.00409330,-0.06873045,-0.1059572
 6,0.24971238,-0.11687827,-0.05537833,-0.00026742,-0.01958055,-0.032680
 12,0.00093645,-0.00439697,0.00380456,-0.00144420,-0.00032484,-0.001181
 96,0.00020161,-0.00143910,0.00251379,-0.00143793,0.01045655,0.00943099
 ,-0.00027933,0.00156081,-0.00088187,0.00057169,0.00043563,0.00082549,-
 0.00008328,0.00043419,0.00191901,0.00044815,0.00092594,0.00088390,0.00
 004279,-0.00020670,0.00017998,-0.00002750,-0.00085268,-0.00181112,0.00
 003160,0.00024454,-0.00018570,0.00003909,0.00002213,0.00002421,0.00001
 561,-0.00001265,0.00003436,-0.00000834,0.00003627,0.00002589,-0.000012
 59,0.55493687,-0.04947121,-0.17734454,0.00631486,-0.00740144,-0.001530
 23,-0.00055783,0.00161766,0.00322434,0.00022518,0.00145373,-0.00193533
 ,0.00029505,0.00180800,-0.00116530,0.00118750,-0.01467085,-0.02772708,
 0.00173941,0.00089921,0.00050537,-0.00016551,-0.00052560,-0.00049487,0
 .00003423,-0.00136264,0.00129368,-0.00083060,-0.00042085,-0.00004590,-
 0.00006174,-0.00000783,-0.00013771,-0.00000155,0.00172955,0.00055290,0
 .00022117,-0.00026087,0.00038583,-0.00006455,0.00004464,-0.00005256,-0
 .00000414,0.00003619,-0.00002828,0.00001029,0.00003185,-0.00005356,0.0
 0002426,-0.03721365,0.49369261,-0.00099502,0.00545172,-0.06650945,-0.0
 0196559,-0.00382592,0.00223766,-0.00124232,0.00054070,0.00344225,-0.00
 010123,-0.00005113,-0.00091032,-0.00131035,0.00125313,0.00694136,0.002
 44992,0.00478395,0.00393598,0.00040154,-0.00042047,-0.00211398,0.00006
 397,0.00020248,0.00037202,0.00078220,-0.00039552,-0.00436537,0.0002105
 6,0.00012967,-0.00015577,-0.00001319,0.00002573,-0.00014046,-0.0003695
 1,-0.00025055,0.00048091,0.00004590,-0.00005209,0.00010521,0.00004088,
 0.00002746,0.00000113,-0.00000854,0.00000991,0.00002192,-0.00004038,-0
 .00001024,-0.00000976,0.00765756,-0.00056110,0.53000754,0.00587779,-0.
 01126304,-0.01232908,0.00013277,-0.00087978,0.00022286,0.00013908,0.00
 065305,0.00010454,0.00094770,-0.00029650,-0.00019180,-0.00061517,-0.00
 059635,0.00029803,-0.00091210,0.00041316,-0.00036341,-0.00031791,0.000
 22380,-0.00008933,-0.00007533,-0.00007089,0.00011104,0.00025210,-0.000
 15806,0.00014906,-0.00041883,-0.00035586,0.00017383,0.00007414,-0.0000
 6492,0.00000300,0.00016622,0.00013984,0.00004129,0.00001939,-0.0000659
 2,0.00000713,-0.00000661,0.00000525,0.00002513,0.00000107,0.00001295,0
 .00000496,0.00000627,-0.00000521,-0.00000912,-0.07621857,0.05371188,0.
 06001883,0.07936599,0.00816625,-0.02130118,-0.01763559,0.00209185,0.00
 159306,0.00089775,0.00016366,-0.00137108,0.00103180,0.00017384,0.00099
 790,-0.00024261,-0.00012590,-0.00048001,0.00144580,-0.00276307,-0.0017
 4135,-0.00075800,-0.00032832,0.00029291,-0.00081885,-0.00012268,-0.000
 23567,0.00008672,0.00007102,-0.00003242,-0.00073844,-0.00062185,-0.000
 76312,-0.00006180,0.00013252,-0.00005067,-0.00002585,-0.00043363,0.000
 24422,-0.00005750,0.00012516,-0.00022251,-0.00001984,-0.00001920,0.000
 04207,0.00002096,-0.00002415,0.00001647,0.00000405,-0.00001765,0.00003
 048,-0.00000530,0.05469824,-0.14374892,-0.11412118,-0.05740473,0.16055
 542,-0.00193321,0.00240320,0.00335250,0.00027382,-0.00001761,0.0010445
 6,-0.00003773,-0.00039857,0.00012802,0.00001864,0.00042528,-0.00006805
 ,-0.00001288,0.00017878,-0.00035233,-0.00005128,0.00070646,-0.00025764
 ,-0.00034090,-0.00010943,-0.00032045,-0.00000143,0.00001983,0.00002395
 ,-0.00000183,0.00006169,0.00017020,-0.00020264,-0.00024744,-0.00002391
 ,0.00004701,-0.00001747,0.00002084,-0.00026902,0.00009732,-0.00004245,
 0.00008945,-0.00014745,0.00000543,-0.00001919,0.00000817,0.00003018,-0
 .00000904,0.00001664,0.00000072,-0.00000134,0.00000758,-0.00003353,0.0
 6106549,-0.11351443,-0.17189015,-0.06808661,0.12426891,0.18540698,0.00
 181827,-0.00784458,0.01474634,0.00032277,-0.00090826,-0.00024251,0.000
 18194,0.00046003,-0.00026491,0.00086667,-0.00008170,0.00046570,-0.0005
 8009,-0.00061307,-0.00025740,-0.00100650,0.00066080,0.00006528,-0.0004
 2880,0.00022759,0.00005292,-0.00004588,-0.00009414,-0.00011369,0.00026
 962,-0.00015581,-0.00006988,-0.00043872,-0.00047216,-0.00017188,0.0000
 8577,-0.00006665,0.00002940,0.00008311,0.00015730,-0.00004179,0.000044
 04,-0.00010772,0.00002975,0.00000067,0.00000210,0.00001783,-0.00000042
 ,0.00001535,-0.00000932,-0.00000271,0.00000108,-0.00003580,-0.05060723
 ,0.01298618,-0.02675690,0.00123861,-0.00541672,0.01091810,0.05066862,0
 .00264347,-0.01660364,0.02433250,0.00211523,0.00139009,-0.00043665,0.0
 0037939,-0.00143593,-0.00061278,0.00014893,0.00091666,0.00007207,0.000
 20725,-0.00083183,-0.00134824,-0.00278640,-0.00165970,0.00034875,-0.00
 040890,0.00045301,0.00055290,-0.00009990,-0.00024680,-0.00005504,-0.00
 010855,0.00011116,0.00075505,-0.00059354,-0.00070193,0.00005643,0.0001
 1020,-0.00003613,0.00006942,-0.00035047,0.00021430,-0.00009651,0.00008
 946,-0.00017322,0.00008480,-0.00001527,0.00002634,-0.00001263,-0.00001
 982,0.00001058,-0.00001168,-0.00000927,0.00003507,-0.00002507,0.013546
 20,-0.09193915,0.10079737,-0.00330138,0.00946119,-0.01828911,-0.012233
 67,0.10380536,0.00085877,0.00029914,0.00274144,-0.00096267,-0.00030577
 ,0.00100434,-0.00002309,0.00089689,0.00012684,0.00016373,-0.00068508,0
 .00013104,-0.00007793,-0.00020671,-0.00006311,0.00049120,-0.00023904,-
 0.00015026,0.00041091,0.00000076,-0.00038275,0.00000628,0.00001947,0.0
 0001281,0.00006114,-0.00009717,-0.00001188,0.00024250,0.00028998,-0.00
 008914,-0.00005554,0.00001163,-0.00000410,0.00038965,-0.00010788,0.000
 06393,-0.00009719,0.00016166,-0.00006620,0.00001298,-0.00002123,-0.000
 02263,0.00001320,-0.00001471,0.00000752,0.00001289,-0.00000905,0.00003
 327,-0.02804310,0.09985377,-0.24901018,-0.00342987,0.00956407,-0.02134
 505,0.03073202,-0.11026271,0.27058479,-0.01570722,0.00310117,-0.002264
 82,-0.00056320,-0.00355776,0.00015539,-0.00033181,0.00082931,-0.000207
 84,0.00038707,0.00016759,0.00003651,0.00006301,-0.00045284,0.00010502,
 0.00087572,0.00271398,-0.00017846,0.00035628,0.00002780,0.00008682,-0.
 00002673,-0.00003350,0.00000374,0.00097140,-0.00082177,0.00015657,-0.0
 0011490,-0.00035037,0.00002113,0.00004751,0.00005873,-0.00000347,-0.00
 034344,-0.00032971,0.00001705,0.00009762,-0.00008603,0.00002289,0.0000
 1894,0.00001650,-0.00002296,-0.00002562,-0.00001388,-0.00000276,0.0000
 1182,0.00002190,0.00002036,-0.29853537,0.03701604,-0.03886834,-0.00965
 662,0.00165537,-0.00144539,-0.00246977,0.00068705,-0.00070587,0.324945
 32,-0.02940091,0.00427402,-0.00469484,-0.00200453,-0.00527162,0.000466
 16,-0.00131026,0.00085699,-0.00018533,0.00028322,-0.00004573,0.0000312
 3,-0.00022318,-0.00004485,-0.00005450,-0.00132660,0.00174744,-0.000360
 05,-0.00013192,-0.00002649,-0.00005999,0.00003371,0.00004905,-0.000003
 76,0.00067096,-0.00030749,0.00016184,0.00001400,-0.00008831,0.00001536
 ,-0.00000193,0.00002548,-0.00000060,-0.00027282,-0.00045354,-0.0000015
 0,0.00009357,-0.00012242,0.00002510,-0.00000135,0.00000789,0.00001072,
 -0.00000795,0.00001430,-0.00000168,0.00000263,0.00000505,-0.00001013,0
 .04144610,-0.05345129,0.00646609,0.01930273,-0.00328678,0.00454764,0.0
 1348407,-0.00279544,0.00085196,-0.04064955,0.05891374,0.00158449,-0.00
 023775,-0.00132771,0.00000521,0.00027233,0.00115031,0.00003577,0.00009
 539,0.00058528,0.00003578,0.00001917,-0.00003190,0.00005967,-0.0000881
 5,-0.00022974,0.00026240,0.00016376,0.00002612,0.00010227,-0.00003061,
 -0.00033750,-0.00000336,-0.00001394,-0.00003301,0.00000792,-0.00004093
 ,0.00035349,-0.00002269,-0.00003848,0.00001574,0.00000508,0.00000624,0
 .00001677,0.00001166,-0.00000959,-0.00017093,0.00000307,0.00000203,-0.
 00000696,-0.00000396,0.00000412,0.00000376,-0.00000342,-0.00000257,0.0
 0000768,0.00000581,0.00000095,0.00001330,-0.03940637,0.00585572,-0.052
 44056,0.02333953,-0.00283510,0.00415020,-0.02909327,0.00408113,-0.0035
 6068,0.04307444,-0.00720372,0.05181634\\-0.00000396,0.00000147,-0.0000
 0134,0.00000265,0.00000091,-0.00000028,0.00000158,-0.00000150,0.000000
 63,-0.00000410,0.00000016,-0.00000107,0.00000006,0.00000011,-0.0000004
 4,-0.00000040,-0.00000387,0.00000145,0.00000201,0.00000010,0.00000035,
 -0.00000289,-0.00000170,0.00000015,-0.00000058,-0.00000366,0.00000067,
 -0.00000344,0.00000129,-0.00000044,-0.00000327,0.00000132,-0.00000040,
 -0.00000295,0.00000449,-0.00000124,0.00000161,-0.00000017,0.00000073,0
 .00000095,0.00000338,-0.00000054,-0.00000017,0.00000470,-0.00000095,0.
 00000146,0.00000302,-0.00000045,0.00000178,-0.00000214,0.00000035,0.00
 000387,-0.00000254,0.00000062,0.00000284,-0.00000297,0.00000136,0.0000
 0295,-0.00000238,0.00000083\\\@


 THE DIFFICULTY IN SCIENCE IS OFTEN NOT SO MUCH HOW
 TO MAKE A DISCOVERY BUT RATHER TO KNOW ONE HAS MADE IT.

                                                   -- J. D. BERNAL
 Job cpu time:       0 days  0 hours 41 minutes 48.7 seconds.
 File lengths (MBytes):  RWF=    151 Int=      0 D2E=      0 Chk=      7 Scr=      1
 Normal termination of Gaussian 09 at Tue Apr 23 11:54:29 2024.
