 Entering Gaussian System, Link 0=g09
 Initial command:
 /cm/shared/apps/gaussian/g09revD.01/g09/l1.exe "//home/sweav003/CHB/validation/thioanisole/G09-TMS-methylthioether.com.o9819646.tmp/Gau-29441.inp" -scrdir="//home/sweav003/CHB/validation/thioanisole/G09-TMS-methylthioether.com.o9819646.tmp/"
 Entering Link 1 = /cm/shared/apps/gaussian/g09revD.01/g09/l1.exe PID=     29442.
  
 Copyright (c) 1988,1990,1992,1993,1995,1998,2003,2009,2013,
            Gaussian, Inc.  All Rights Reserved.
  
 This is part of the Gaussian(R) 09 program.  It is based on
 the Gaussian(R) 03 system (copyright 2003, Gaussian, Inc.),
 the Gaussian(R) 98 system (copyright 1998, Gaussian, Inc.),
 the Gaussian(R) 94 system (copyright 1995, Gaussian, Inc.),
 the Gaussian 92(TM) system (copyright 1992, Gaussian, Inc.),
 the Gaussian 90(TM) system (copyright 1990, Gaussian, Inc.),
 the Gaussian 88(TM) system (copyright 1988, Gaussian, Inc.),
 the Gaussian 86(TM) system (copyright 1986, Carnegie Mellon
 University), and the Gaussian 82(TM) system (copyright 1983,
 Carnegie Mellon University). Gaussian is a federally registered
 trademark of Gaussian, Inc.
  
 This software contains proprietary and confidential information,
 including trade secrets, belonging to Gaussian, Inc.
  
 This software is provided under written license and may be
 used, copied, transmitted, or stored only in accord with that
 written license.
  
 The following legend is applicable only to US Government
 contracts under FAR:
  
                    RESTRICTED RIGHTS LEGEND
  
 Use, reproduction and disclosure by the US Government is
 subject to restrictions as set forth in subparagraphs (a)
 and (c) of the Commercial Computer Software - Restricted
 Rights clause in FAR 52.227-19.
  
 Gaussian, Inc.
 340 Quinnipiac St., Bldg. 40, Wallingford CT 06492
  
  
 ---------------------------------------------------------------
 Warning -- This program may not be used in any manner that
 competes with the business of Gaussian, Inc. or will provide
 assistance to any competitor of Gaussian, Inc.  The licensee
 of this program is prohibited from giving any competitor of
 Gaussian, Inc. access to this program.  By using this program,
 the user acknowledges that Gaussian, Inc. is engaged in the
 business of creating and licensing software in the field of
 computational chemistry and represents and warrants to the
 licensee that it is not a competitor of Gaussian, Inc. and that
 it will not use this program in any manner prohibited above.
 ---------------------------------------------------------------
  

 Cite this work as:
 Gaussian 09, Revision D.01,
 M. J. Frisch, G. W. Trucks, H. B. Schlegel, G. E. Scuseria, 
 M. A. Robb, J. R. Cheeseman, G. Scalmani, V. Barone, B. Mennucci, 
 G. A. Petersson, H. Nakatsuji, M. Caricato, X. Li, H. P. Hratchian, 
 A. F. Izmaylov, J. Bloino, G. Zheng, J. L. Sonnenberg, M. Hada, 
 M. Ehara, K. Toyota, R. Fukuda, J. Hasegawa, M. Ishida, T. Nakajima, 
 Y. Honda, O. Kitao, H. Nakai, T. Vreven, J. A. Montgomery, Jr., 
 J. E. Peralta, F. Ogliaro, M. Bearpark, J. J. Heyd, E. Brothers, 
 K. N. Kudin, V. N. Staroverov, T. Keith, R. Kobayashi, J. Normand, 
 K. Raghavachari, A. Rendell, J. C. Burant, S. S. Iyengar, J. Tomasi, 
 M. Cossi, N. Rega, J. M. Millam, M. Klene, J. E. Knox, J. B. Cross, 
 V. Bakken, C. Adamo, J. Jaramillo, R. Gomperts, R. E. Stratmann, 
 O. Yazyev, A. J. Austin, R. Cammi, C. Pomelli, J. W. Ochterski, 
 R. L. Martin, K. Morokuma, V. G. Zakrzewski, G. A. Voth, 
 P. Salvador, J. J. Dannenberg, S. Dapprich, A. D. Daniels, 
 O. Farkas, J. B. Foresman, J. V. Ortiz, J. Cioslowski, 
 and D. J. Fox, Gaussian, Inc., Wallingford CT, 2013.
 
 ******************************************
 Gaussian 09:  ES64L-G09RevD.01 24-Apr-2013
                21-Dec-2022 
 ******************************************
 %nprocshared=20
 Will use up to   20 processors via shared memory.
 %mem=4GB
 %chk=TMS-methylthioether.chk
 ----------------------------------------------------------------------
 # opt freq=noraman b3lyp/6-311+g(d,p) geom=connectivity pop=(hirshfeld
 ,chelpg,mbs,npa)
 ----------------------------------------------------------------------
 1/14=-1,18=20,19=15,26=3,38=1,57=2/1,3;
 2/9=110,12=2,17=6,18=5,40=1/2;
 3/5=4,6=6,7=111,11=2,16=1,25=1,30=1,71=1,74=-5/1,2,3;
 4//1;
 5/5=2,38=5/2;
 6/7=2,8=2,9=2,10=2,15=8,20=3,27=100,28=1,40=-1,79=1/1,2,7;
 7//1,2,3,16;
 1/14=-1,18=20,19=15,26=3/3(2);
 2/9=110/2;
 99//99;
 2/9=110/2;
 3/5=4,6=6,7=111,11=2,16=1,25=1,30=1,71=1,74=-5/1,2,3;
 4/5=5,16=3,69=1/1;
 5/5=2,38=5/2;
 7//1,2,3,16;
 1/14=-1,18=20,19=15,26=3/3(-5);
 2/9=110/2;
 6/7=2,8=2,9=2,10=2,15=8,19=2,20=3,27=100,28=1,40=-1,79=1/1,2,7;
 99/9=1/99;
 -------------------
 Title Card Required
 -------------------
 Symbolic Z-matrix:
 Charge =  0 Multiplicity = 1
 C                    -1.71233   0.5972   -0.00004 
 C                    -0.3141    0.70141  -0.00005 
 C                     0.49359  -0.43706  -0.00001 
 C                    -0.10658  -1.70579   0.00004 
 C                    -1.48974  -1.81314   0.00005 
 C                    -2.29311  -0.67074   0.00001 
 H                     0.13072   1.6891   -0.0001 
 H                     0.51041  -2.59759   0.00007 
 H                    -1.9482   -2.79599   0.00008 
 H                    -3.37324  -0.76884   0.00001 
 S                     2.27697  -0.40734  -0.00002 
 C                     2.68254   1.36701   0.0001 
 H                     2.30934   1.86451   0.89623 
 H                     3.77201   1.41261  -0.00017 
 H                     2.30888   1.86473  -0.89572 
 Si                   -2.80144   2.20264  -0.00007 
 C                    -2.40763   3.25119  -1.58407 
 H                    -3.21481   3.92745  -1.77392 
 H                    -1.50612   3.80636  -1.42927 
 H                    -2.28476   2.59809  -2.42268 
 C                    -2.40769   3.25121   1.58394 
 H                    -3.18433   3.97108   1.73728 
 H                    -2.34803   2.60432   2.43415 
 H                    -1.47354   3.75657   1.45402 
 C                    -4.6781    1.71097  -0.0001 
 H                    -5.27879   2.59645   0.00044 
 H                    -4.89539   1.13311  -0.87403 
 H                    -4.89518   1.13218   0.87327 
 

 GradGradGradGradGradGradGradGradGradGradGradGradGradGradGradGradGradGrad
 Berny optimization.
 Initialization pass.
                           ----------------------------
                           !    Initial Parameters    !
                           ! (Angstroms and Degrees)  !
 --------------------------                            --------------------------
 ! Name  Definition              Value          Derivative Info.                !
 --------------------------------------------------------------------------------
 ! R1    R(1,2)                  1.4021         estimate D2E/DX2                !
 ! R2    R(1,6)                  1.3946         estimate D2E/DX2                !
 ! R3    R(1,16)                 1.94           estimate D2E/DX2                !
 ! R4    R(2,3)                  1.3959         estimate D2E/DX2                !
 ! R5    R(2,7)                  1.0832         estimate D2E/DX2                !
 ! R6    R(3,4)                  1.4035         estimate D2E/DX2                !
 ! R7    R(3,11)                 1.7836         estimate D2E/DX2                !
 ! R8    R(4,5)                  1.3873         estimate D2E/DX2                !
 ! R9    R(4,8)                  1.0844         estimate D2E/DX2                !
 ! R10   R(5,6)                  1.3966         estimate D2E/DX2                !
 ! R11   R(5,9)                  1.0845         estimate D2E/DX2                !
 ! R12   R(6,10)                 1.0846         estimate D2E/DX2                !
 ! R13   R(11,12)                1.8201         estimate D2E/DX2                !
 ! R14   R(12,13)                1.0908         estimate D2E/DX2                !
 ! R15   R(12,14)                1.0904         estimate D2E/DX2                !
 ! R16   R(12,15)                1.0908         estimate D2E/DX2                !
 ! R17   R(16,17)                1.94           estimate D2E/DX2                !
 ! R18   R(16,21)                1.94           estimate D2E/DX2                !
 ! R19   R(16,25)                1.94           estimate D2E/DX2                !
 ! R20   R(17,18)                1.07           estimate D2E/DX2                !
 ! R21   R(17,19)                1.07           estimate D2E/DX2                !
 ! R22   R(17,20)                1.07           estimate D2E/DX2                !
 ! R23   R(21,22)                1.07           estimate D2E/DX2                !
 ! R24   R(21,23)                1.07           estimate D2E/DX2                !
 ! R25   R(21,24)                1.07           estimate D2E/DX2                !
 ! R26   R(25,26)                1.07           estimate D2E/DX2                !
 ! R27   R(25,27)                1.07           estimate D2E/DX2                !
 ! R28   R(25,28)                1.07           estimate D2E/DX2                !
 ! A1    A(2,1,6)              118.8723         estimate D2E/DX2                !
 ! A2    A(2,1,16)             119.8901         estimate D2E/DX2                !
 ! A3    A(6,1,16)             121.2375         estimate D2E/DX2                !
 ! A4    A(1,2,3)              121.0914         estimate D2E/DX2                !
 ! A5    A(1,2,7)              118.5072         estimate D2E/DX2                !
 ! A6    A(3,2,7)              120.4014         estimate D2E/DX2                !
 ! A7    A(2,3,4)              119.3299         estimate D2E/DX2                !
 ! A8    A(2,3,11)             124.3987         estimate D2E/DX2                !
 ! A9    A(4,3,11)             116.2714         estimate D2E/DX2                !
 ! A10   A(3,4,5)              119.7544         estimate D2E/DX2                !
 ! A11   A(3,4,8)              120.0063         estimate D2E/DX2                !
 ! A12   A(5,4,8)              120.2392         estimate D2E/DX2                !
 ! A13   A(4,5,6)              120.6777         estimate D2E/DX2                !
 ! A14   A(4,5,9)              119.4449         estimate D2E/DX2                !
 ! A15   A(6,5,9)              119.8774         estimate D2E/DX2                !
 ! A16   A(1,6,5)              120.2742         estimate D2E/DX2                !
 ! A17   A(1,6,10)             119.7996         estimate D2E/DX2                !
 ! A18   A(5,6,10)             119.9262         estimate D2E/DX2                !
 ! A19   A(3,11,12)            103.8302         estimate D2E/DX2                !
 ! A20   A(11,12,13)           111.6189         estimate D2E/DX2                !
 ! A21   A(11,12,14)           105.2718         estimate D2E/DX2                !
 ! A22   A(11,12,15)           111.6191         estimate D2E/DX2                !
 ! A23   A(13,12,14)           108.8426         estimate D2E/DX2                !
 ! A24   A(13,12,15)           110.4496         estimate D2E/DX2                !
 ! A25   A(14,12,15)           108.8429         estimate D2E/DX2                !
 ! A26   A(1,16,17)            109.4712         estimate D2E/DX2                !
 ! A27   A(1,16,21)            109.4712         estimate D2E/DX2                !
 ! A28   A(1,16,25)            109.4712         estimate D2E/DX2                !
 ! A29   A(17,16,21)           109.4713         estimate D2E/DX2                !
 ! A30   A(17,16,25)           109.4712         estimate D2E/DX2                !
 ! A31   A(21,16,25)           109.4712         estimate D2E/DX2                !
 ! A32   A(16,17,18)           109.4712         estimate D2E/DX2                !
 ! A33   A(16,17,19)           109.4712         estimate D2E/DX2                !
 ! A34   A(16,17,20)           109.4712         estimate D2E/DX2                !
 ! A35   A(18,17,19)           109.4713         estimate D2E/DX2                !
 ! A36   A(18,17,20)           109.4712         estimate D2E/DX2                !
 ! A37   A(19,17,20)           109.4712         estimate D2E/DX2                !
 ! A38   A(16,21,22)           109.4712         estimate D2E/DX2                !
 ! A39   A(16,21,23)           109.4712         estimate D2E/DX2                !
 ! A40   A(16,21,24)           109.4712         estimate D2E/DX2                !
 ! A41   A(22,21,23)           109.4713         estimate D2E/DX2                !
 ! A42   A(22,21,24)           109.4712         estimate D2E/DX2                !
 ! A43   A(23,21,24)           109.4712         estimate D2E/DX2                !
 ! A44   A(16,25,26)           109.4712         estimate D2E/DX2                !
 ! A45   A(16,25,27)           109.4712         estimate D2E/DX2                !
 ! A46   A(16,25,28)           109.4712         estimate D2E/DX2                !
 ! A47   A(26,25,27)           109.4713         estimate D2E/DX2                !
 ! A48   A(26,25,28)           109.4712         estimate D2E/DX2                !
 ! A49   A(27,25,28)           109.4712         estimate D2E/DX2                !
 ! D1    D(6,1,2,3)             -0.0003         estimate D2E/DX2                !
 ! D2    D(6,1,2,7)            179.9995         estimate D2E/DX2                !
 ! D3    D(16,1,2,3)           179.9991         estimate D2E/DX2                !
 ! D4    D(16,1,2,7)            -0.0012         estimate D2E/DX2                !
 ! D5    D(2,1,6,5)              0.0002         estimate D2E/DX2                !
 ! D6    D(2,1,6,10)          -179.9996         estimate D2E/DX2                !
 ! D7    D(16,1,6,5)          -179.9991         estimate D2E/DX2                !
 ! D8    D(16,1,6,10)            0.001          estimate D2E/DX2                !
 ! D9    D(2,1,16,17)           59.9983         estimate D2E/DX2                !
 ! D10   D(2,1,16,21)          -60.0018         estimate D2E/DX2                !
 ! D11   D(2,1,16,25)          179.9982         estimate D2E/DX2                !
 ! D12   D(6,1,16,17)         -120.0024         estimate D2E/DX2                !
 ! D13   D(6,1,16,21)          119.9976         estimate D2E/DX2                !
 ! D14   D(6,1,16,25)           -0.0024         estimate D2E/DX2                !
 ! D15   D(1,2,3,4)              0.0002         estimate D2E/DX2                !
 ! D16   D(1,2,3,11)          -179.9998         estimate D2E/DX2                !
 ! D17   D(7,2,3,4)           -179.9995         estimate D2E/DX2                !
 ! D18   D(7,2,3,11)             0.0004         estimate D2E/DX2                !
 ! D19   D(2,3,4,5)             -0.0001         estimate D2E/DX2                !
 ! D20   D(2,3,4,8)            179.9999         estimate D2E/DX2                !
 ! D21   D(11,3,4,5)           179.9999         estimate D2E/DX2                !
 ! D22   D(11,3,4,8)            -0.0001         estimate D2E/DX2                !
 ! D23   D(2,3,11,12)            0.0058         estimate D2E/DX2                !
 ! D24   D(4,3,11,12)         -179.9942         estimate D2E/DX2                !
 ! D25   D(3,4,5,6)              0.0001         estimate D2E/DX2                !
 ! D26   D(3,4,5,9)            179.9998         estimate D2E/DX2                !
 ! D27   D(8,4,5,6)           -180.0            estimate D2E/DX2                !
 ! D28   D(8,4,5,9)             -0.0002         estimate D2E/DX2                !
 ! D29   D(4,5,6,1)             -0.0001         estimate D2E/DX2                !
 ! D30   D(4,5,6,10)           179.9997         estimate D2E/DX2                !
 ! D31   D(9,5,6,1)           -179.9999         estimate D2E/DX2                !
 ! D32   D(9,5,6,10)             0.0            estimate D2E/DX2                !
 ! D33   D(3,11,12,13)          62.0883         estimate D2E/DX2                !
 ! D34   D(3,11,12,14)        -179.9855         estimate D2E/DX2                !
 ! D35   D(3,11,12,15)         -62.0588         estimate D2E/DX2                !
 ! D36   D(1,16,17,18)         160.0251         estimate D2E/DX2                !
 ! D37   D(1,16,17,19)         -79.9749         estimate D2E/DX2                !
 ! D38   D(1,16,17,20)          40.0251         estimate D2E/DX2                !
 ! D39   D(21,16,17,18)        -79.975          estimate D2E/DX2                !
 ! D40   D(21,16,17,19)         40.0251         estimate D2E/DX2                !
 ! D41   D(21,16,17,20)        160.025          estimate D2E/DX2                !
 ! D42   D(25,16,17,18)         40.0251         estimate D2E/DX2                !
 ! D43   D(25,16,17,19)        160.0251         estimate D2E/DX2                !
 ! D44   D(25,16,17,20)        -79.9749         estimate D2E/DX2                !
 ! D45   D(1,16,21,22)        -163.6905         estimate D2E/DX2                !
 ! D46   D(1,16,21,23)         -43.6905         estimate D2E/DX2                !
 ! D47   D(1,16,21,24)          76.3095         estimate D2E/DX2                !
 ! D48   D(17,16,21,22)         76.3095         estimate D2E/DX2                !
 ! D49   D(17,16,21,23)       -163.6905         estimate D2E/DX2                !
 ! D50   D(17,16,21,24)        -43.6905         estimate D2E/DX2                !
 ! D51   D(25,16,21,22)        -43.6905         estimate D2E/DX2                !
 ! D52   D(25,16,21,23)         76.3095         estimate D2E/DX2                !
 ! D53   D(25,16,21,24)       -163.6905         estimate D2E/DX2                !
 ! D54   D(1,16,25,26)         179.9681         estimate D2E/DX2                !
 ! D55   D(1,16,25,27)         -60.0319         estimate D2E/DX2                !
 ! D56   D(1,16,25,28)          59.9681         estimate D2E/DX2                !
 ! D57   D(17,16,25,26)        -60.032          estimate D2E/DX2                !
 ! D58   D(17,16,25,27)         59.9681         estimate D2E/DX2                !
 ! D59   D(17,16,25,28)        179.9681         estimate D2E/DX2                !
 ! D60   D(21,16,25,26)         59.9681         estimate D2E/DX2                !
 ! D61   D(21,16,25,27)        179.9681         estimate D2E/DX2                !
 ! D62   D(21,16,25,28)        -60.0319         estimate D2E/DX2                !
 --------------------------------------------------------------------------------
 Trust Radius=3.00D-01 FncErr=1.00D-07 GrdErr=1.00D-06
 Number of steps in this run=    149 maximum allowed number of steps=    168.
 GradGradGradGradGradGradGradGradGradGradGradGradGradGradGradGradGradGrad

                          Input orientation:                          
 ---------------------------------------------------------------------
 Center     Atomic      Atomic             Coordinates (Angstroms)
 Number     Number       Type             X           Y           Z
 ---------------------------------------------------------------------
      1          6           0       -1.712330    0.597202   -0.000040
      2          6           0       -0.314099    0.701409   -0.000052
      3          6           0        0.493586   -0.437062   -0.000012
      4          6           0       -0.106582   -1.705786    0.000036
      5          6           0       -1.489744   -1.813138    0.000046
      6          6           0       -2.293107   -0.670735    0.000007
      7          1           0        0.130716    1.689096   -0.000097
      8          1           0        0.510410   -2.597592    0.000066
      9          1           0       -1.948201   -2.795993    0.000080
     10          1           0       -3.373240   -0.768836    0.000011
     11         16           0        2.276968   -0.407335   -0.000018
     12          6           0        2.682541    1.367010    0.000095
     13          1           0        2.309338    1.864506    0.896227
     14          1           0        3.772014    1.412606   -0.000173
     15          1           0        2.308882    1.864729   -0.895724
     16         14           0       -2.801438    2.202644   -0.000070
     17          6           0       -2.407632    3.251192   -1.584072
     18          1           0       -3.214810    3.927448   -1.773919
     19          1           0       -1.506119    3.806360   -1.429269
     20          1           0       -2.284764    2.598090   -2.422679
     21          6           0       -2.407690    3.251210    1.583935
     22          1           0       -3.184334    3.971078    1.737284
     23          1           0       -2.348026    2.604318    2.434153
     24          1           0       -1.473541    3.756568    1.454020
     25          6           0       -4.678099    1.710971   -0.000101
     26          1           0       -5.278792    2.596447    0.000445
     27          1           0       -4.895392    1.133109   -0.874034
     28          1           0       -4.895178    1.132177    0.873268
 ---------------------------------------------------------------------
                    Distance matrix (angstroms):
                    1          2          3          4          5
     1  C    0.000000
     2  C    1.402109   0.000000
     3  C    2.436343   1.395877   0.000000
     4  C    2.807522   2.416123   1.403518   0.000000
     5  C    2.420596   2.775804   2.413956   1.387322   0.000000
     6  C    1.394620   2.408164   2.796473   2.419137   1.396595
     7  H    2.142207   1.083229   2.156901   3.403165   3.858955
     8  H    3.891951   3.400474   2.160596   1.084434   2.148484
     9  H    3.401383   3.860325   3.395126   2.140120   1.084521
    10  H    2.150507   3.394107   3.881033   3.398372   2.153630
    11  S    4.113829   2.818322   1.783630   2.714274   4.020498
    12  C    4.461782   3.069670   2.836582   4.149853   5.246075
    13  H    4.310820   3.006415   3.065520   4.403046   5.362950
    14  H    5.544629   4.147544   3.764221   4.976733   6.171833
    15  H    4.310339   3.005923   3.065264   4.402889   5.362711
    16  Si   1.940000   2.905264   4.221994   4.747428   4.224576
    17  C    3.168006   3.659698   4.952729   5.689979   5.385108
    18  H    4.061358   4.687009   5.995656   6.673928   6.251170
    19  H    3.519078   3.619985   4.903899   5.863904   5.798445
    20  H    3.193809   3.653771   4.775007   5.397905   5.095154
    21  C    3.168006   3.659731   4.952741   5.689960   5.385068
    22  H    4.070397   4.684797   5.998082   6.687105   6.272701
    23  H    3.218373   3.699092   4.821816   5.433783   5.116195
    24  H    3.486102   3.576678   4.854929   5.815493   5.756382
    25  C    3.168007   4.479254   5.600033   5.707276   4.752363
    26  H    4.088598   5.314071   6.520930   6.727627   5.813891
    27  H    3.344091   4.683851   5.680707   5.635248   4.587246
    28  H    3.343559   4.683432   5.680133   5.634467   4.586325
                    6          7          8          9         10
     6  C    0.000000
     7  H    3.382857   0.000000
     8  H    3.401836   4.303471   0.000000
     9  H    2.153063   4.943472   2.466603   0.000000
    10  H    1.084579   4.280086   4.292678   2.477923   0.000000
    11  S    4.577659   3.000237   2.813886   4.853632   5.661761
    12  C    5.376753   2.572071   4.520644   6.226907   6.421396
    13  H    5.330399   2.362321   4.893829   6.375733   6.326878
    14  H    6.412956   3.651780   5.169115   7.101631   7.470833
    15  H    5.330030   2.361652   4.893797   6.375543   6.326493
    16  Si   2.917997   2.976787   5.831861   5.070935   3.025996
    17  C    4.231304   3.375253   6.725529   6.268099   4.427453
    18  H    5.013944   4.398773   7.720131   7.067958   5.022650
    19  H    4.765140   3.033903   6.864400   6.769752   5.144064
    20  H    4.068746   3.539734   6.377916   5.922767   4.288403
    21  C    4.231266   3.375332   6.725507   6.268046   4.427401
    22  H    5.035756   4.383548   7.734111   7.095009   5.051790
    23  H    4.080938   3.592683   6.415240   5.936997   4.284190
    24  H    4.731475   2.993750   6.813618   6.728693   5.118817
    25  C    3.370565   4.808865   6.744208   5.269257   2.802160
    26  H    4.425923   5.485077   7.777718   6.338079   3.867332
    27  H    3.284766   5.131730   6.626075   4.988773   2.588107
    28  H    3.283878   5.131524   6.625258   4.987750   2.587030
                   11         12         13         14         15
    11  S    0.000000
    12  C    1.820107   0.000000
    13  H    2.442451   1.090796   0.000000
    14  H    2.355281   1.090427   1.774026   0.000000
    15  H    2.442454   1.090796   1.791951   1.774030   0.000000
    16  Si   5.709833   5.547279   5.199780   6.620757   5.199207
    17  C    6.151384   5.654165   5.506776   6.639063   4.964031
    18  H    7.217803   6.669461   6.473146   7.634547   5.961309
    19  H    5.840354   5.053552   4.872006   5.969176   4.313796
    20  H    5.975891   5.662112   5.714810   6.630118   4.896018
    21  C    6.151413   5.654133   4.964499   6.639172   5.506096
    22  H    7.212110   6.649753   5.943522   7.612839   6.445530
    23  H    6.032066   5.723825   4.960200   6.693356   5.772510
    24  H    5.789528   5.009681   4.266287   5.926608   4.838086
    25  C    7.270501   7.368672   7.046365   8.455379   7.045828
    26  H    8.130942   8.055702   7.675799   9.127901   7.675372
    27  H    7.387802   7.631768   7.454992   8.715830   7.241361
    28  H    7.387314   7.631475   7.241677   8.715605   7.454157
                   16         17         18         19         20
    16  Si   0.000000
    17  C    1.940000   0.000000
    18  H    2.508459   1.070000   0.000000
    19  H    2.508459   1.070000   1.747303   0.000000
    20  H    2.508459   1.070000   1.747303   1.747303   0.000000
    21  C    1.940000   3.168007   3.519080   3.193810   4.061359
    22  H    2.508459   3.486103   3.511606   3.587561   4.472093
    23  H    2.508459   4.070397   4.495537   4.132764   4.857249
    24  H    2.508459   3.218374   3.671621   2.883903   4.126615
    25  C    1.940000   3.168007   3.193809   4.061358   3.519079
    26  H    2.508459   3.344091   3.029844   4.212010   3.851719
    27  H    2.508459   3.343558   3.382674   4.352210   3.370438
    28  H    2.508459   4.088598   4.200569   4.892714   4.452688
                   21         22         23         24         25
    21  C    0.000000
    22  H    1.070000   0.000000
    23  H    1.070000   1.747303   0.000000
    24  H    1.070000   1.747303   1.747303   0.000000
    25  C    3.168007   3.218373   3.486102   4.070397   0.000000
    26  H    3.343559   3.048439   3.809513   4.235410   1.070000
    27  H    4.088598   4.219096   4.426922   4.900147   1.070000
    28  H    3.344091   3.425328   3.330398   4.351127   1.070000
                   26         27         28
    26  H    0.000000
    27  H    1.747303   0.000000
    28  H    1.747303   1.747303   0.000000
 Stoichiometry    C10H16SSi
 Framework group  C1[X(C10H16SSi)]
 Deg. of freedom    78
 Full point group                 C1      NOp   1
 Largest Abelian subgroup         C1      NOp   1
 Largest concise Abelian subgroup C1      NOp   1
                         Standard orientation:                         
 ---------------------------------------------------------------------
 Center     Atomic      Atomic             Coordinates (Angstroms)
 Number     Number       Type             X           Y           Z
 ---------------------------------------------------------------------
      1          6           0        0.564975    0.551425   -0.000016
      2          6           0       -0.632017   -0.178725   -0.000028
      3          6           0       -1.869883    0.466379    0.000012
      4          6           0       -1.914066    1.869201    0.000060
      5          6           0       -0.731919    2.595281    0.000070
      6          6           0        0.503892    1.944707    0.000031
      7          1           0       -0.577676   -1.260590   -0.000073
      8          1           0       -2.869760    2.381691    0.000090
      9          1           0       -0.771915    3.679064    0.000104
     10          1           0        1.420545    2.524413    0.000035
     11         16           0       -3.443632   -0.373055    0.000006
     12          6           0       -2.995756   -2.137197    0.000119
     13          1           0       -2.436798   -2.409865    0.896251
     14          1           0       -3.944657   -2.674429   -0.000149
     15          1           0       -2.436290   -2.409855   -0.895700
     16         14           0        2.266196   -0.381017   -0.000045
     17          6           0        2.393681   -1.493799   -1.584048
     18          1           0        3.420390   -1.727740   -1.773895
     19          1           0        1.844369   -2.398892   -1.429245
     20          1           0        1.986599   -0.968517   -2.422655
     21          6           0        2.393742   -1.493789    1.583959
     22          1           0        3.413154   -1.780465    1.737309
     23          1           0        2.045744   -0.945221    2.434177
     24          1           0        1.792675   -2.369426    1.454044
     25          6           0        3.712384    0.912094   -0.000077
     26          1           0        4.650686    0.397809    0.000469
     27          1           0        3.642361    1.525477   -0.874010
     28          1           0        3.641746    1.526208    0.873292
 ---------------------------------------------------------------------
 Rotational constants (GHZ):      1.1042049      0.4049896      0.3294002
 Standard basis: 6-311+G(d,p) (5D, 7F)
 There are   388 symmetry adapted cartesian basis functions of A   symmetry.
 There are   376 symmetry adapted basis functions of A   symmetry.
   376 basis functions,   588 primitive gaussians,   388 cartesian basis functions
    53 alpha electrons       53 beta electrons
       nuclear repulsion energy       860.9285172462 Hartrees.
 NAtoms=   28 NActive=   28 NUniq=   28 SFac= 1.00D+00 NAtFMM=   60 NAOKFM=F Big=F
 Integral buffers will be    131072 words long.
 Raffenetti 2 integral format.
 Two-electron integral symmetry is turned on.
 One-electron integrals computed using PRISM.
 NBasis=   376 RedAO= T EigKep=  1.80D-06  NBF=   376
 NBsUse=   375 1.00D-06 EigRej=  8.66D-07 NBFU=   375
 ExpMin= 3.31D-02 ExpMax= 9.34D+04 ExpMxC= 3.17D+03 IAcc=3 IRadAn=         5 AccDes= 0.00D+00
 Harris functional with IExCor=  402 and IRadAn=       5 diagonalized for initial guess.
 HarFok:  IExCor=  402 AccDes= 0.00D+00 IRadAn=         5 IDoV= 1 UseB2=F ITyADJ=14
 ICtDFT=  3500011 ScaDFX=  1.000000  1.000000  1.000000  1.000000
 FoFCou: FMM=F IPFlag=           0 FMFlag=      100000 FMFlg1=           0
         NFxFlg=           0 DoJE=T BraDBF=F KetDBF=T FulRan=T
         wScrn=  0.000000 ICntrl=     500 IOpCl=  0 I1Cent=   200000004 NGrid=           0
         NMat0=    1 NMatS0=      1 NMatT0=    0 NMatD0=    1 NMtDS0=    0 NMtDT0=    0
 Petite list used in FoFCou.
 Requested convergence on RMS density matrix=1.00D-08 within 128 cycles.
 Requested convergence on MAX density matrix=1.00D-06.
 Requested convergence on             energy=1.00D-06.
 No special actions if energy rises.
 SCF Done:  E(RB3LYP) =  -1078.57835430     A.U. after   15 cycles
            NFock= 15  Conv=0.46D-08     -V/T= 2.0027

 **********************************************************************

            Population analysis using the SCF density.

 **********************************************************************

 Orbital symmetries:
       Occupied  (A) (A) (A) (A) (A) (A) (A) (A) (A) (A) (A) (A)
                 (A) (A) (A) (A) (A) (A) (A) (A) (A) (A) (A) (A)
                 (A) (A) (A) (A) (A) (A) (A) (A) (A) (A) (A) (A)
                 (A) (A) (A) (A) (A) (A) (A) (A) (A) (A) (A) (A)
                 (A) (A) (A) (A) (A)
       Virtual   (A) (A) (A) (A) (A) (A) (A) (A) (A) (A) (A) (A)
                 (A) (A) (A) (A) (A) (A) (A) (A) (A) (A) (A) (A)
                 (A) (A) (A) (A) (A) (A) (A) (A) (A) (A) (A) (A)
                 (A) (A) (A) (A) (A) (A) (A) (A) (A) (A) (A) (A)
                 (A) (A) (A) (A) (A) (A) (A) (A) (A) (A) (A) (A)
                 (A) (A) (A) (A) (A) (A) (A) (A) (A) (A) (A) (A)
                 (A) (A) (A) (A) (A) (A) (A) (A) (A) (A) (A) (A)
                 (A) (A) (A) (A) (A) (A) (A) (A) (A) (A) (A) (A)
                 (A) (A) (A) (A) (A) (A) (A) (A) (A) (A) (A) (A)
                 (A) (A) (A) (A) (A) (A) (A) (A) (A) (A) (A) (A)
                 (A) (A) (A) (A) (A) (A) (A) (A) (A) (A) (A) (A)
                 (A) (A) (A) (A) (A) (A) (A) (A) (A) (A) (A) (A)
                 (A) (A) (A) (A) (A) (A) (A) (A) (A) (A) (A) (A)
                 (A) (A) (A) (A) (A) (A) (A) (A) (A) (A) (A) (A)
                 (A) (A) (A) (A) (A) (A) (A) (A) (A) (A) (A) (A)
                 (A) (A) (A) (A) (A) (A) (A) (A) (A) (A) (A) (A)
                 (A) (A) (A) (A) (A) (A) (A) (A) (A) (A) (A) (A)
                 (A) (A) (A) (A) (A) (A) (A) (A) (A) (A) (A) (A)
                 (A) (A) (A) (A) (A) (A) (A) (A) (A) (A) (A) (A)
                 (A) (A) (A) (A) (A) (A) (A) (A) (A) (A) (A) (A)
                 (A) (A) (A) (A) (A) (A) (A) (A) (A) (A) (A) (A)
                 (A) (A) (A) (A) (A) (A) (A) (A) (A) (A) (A) (A)
                 (A) (A) (A) (A) (A) (A) (A) (A) (A) (A) (A) (A)
                 (A) (A) (A) (A) (A) (A) (A) (A) (A) (A) (A) (A)
                 (A) (A) (A) (A) (A) (A) (A) (A) (A) (A) (A) (A)
                 (A) (A) (A) (A) (A) (A) (A) (A) (A) (A) (A) (A)
                 (A) (A) (A) (A) (A) (A) (A) (A) (A) (A)
 The electronic state is 1-A.
 Alpha  occ. eigenvalues --  -88.85416 -66.09422 -10.21191 -10.20491 -10.18003
 Alpha  occ. eigenvalues --  -10.18000 -10.17870 -10.17372 -10.16957 -10.14567
 Alpha  occ. eigenvalues --  -10.14436 -10.14424  -7.94022  -5.90431  -5.90021
 Alpha  occ. eigenvalues --   -5.89400  -5.26441  -3.62282  -3.62258  -3.62235
 Alpha  occ. eigenvalues --   -0.86769  -0.80374  -0.75312  -0.74162  -0.71478
 Alpha  occ. eigenvalues --   -0.68807  -0.68648  -0.65924  -0.60738  -0.58239
 Alpha  occ. eigenvalues --   -0.52059  -0.46958  -0.46584  -0.44998  -0.44178
 Alpha  occ. eigenvalues --   -0.44167  -0.42567  -0.41724  -0.41701  -0.40489
 Alpha  occ. eigenvalues --   -0.40326  -0.39796  -0.39402  -0.38718  -0.37877
 Alpha  occ. eigenvalues --   -0.35425  -0.33369  -0.30609  -0.29913  -0.29358
 Alpha  occ. eigenvalues --   -0.28910  -0.25777  -0.21528
 Alpha virt. eigenvalues --   -0.02565  -0.01541  -0.01337  -0.00206   0.01150
 Alpha virt. eigenvalues --    0.01703   0.01772   0.02578   0.03652   0.04097
 Alpha virt. eigenvalues --    0.04645   0.04737   0.05374   0.05429   0.06056
 Alpha virt. eigenvalues --    0.06513   0.06599   0.07108   0.07867   0.07876
 Alpha virt. eigenvalues --    0.08506   0.09201   0.09234   0.09447   0.09657
 Alpha virt. eigenvalues --    0.10174   0.10187   0.10482   0.11663   0.11843
 Alpha virt. eigenvalues --    0.12083   0.12584   0.13028   0.13480   0.13659
 Alpha virt. eigenvalues --    0.13846   0.14403   0.14610   0.15356   0.15809
 Alpha virt. eigenvalues --    0.16337   0.16491   0.17055   0.17349   0.17984
 Alpha virt. eigenvalues --    0.18167   0.18890   0.19196   0.19538   0.19716
 Alpha virt. eigenvalues --    0.20241   0.20318   0.21211   0.21720   0.22018
 Alpha virt. eigenvalues --    0.22765   0.23236   0.23590   0.24102   0.24657
 Alpha virt. eigenvalues --    0.24868   0.25648   0.26213   0.26732   0.27145
 Alpha virt. eigenvalues --    0.27915   0.28320   0.28642   0.29697   0.31040
 Alpha virt. eigenvalues --    0.31201   0.32381   0.32644   0.33156   0.33346
 Alpha virt. eigenvalues --    0.33946   0.34099   0.35869   0.36858   0.37640
 Alpha virt. eigenvalues --    0.37891   0.38791   0.39772   0.40972   0.45841
 Alpha virt. eigenvalues --    0.47048   0.48935   0.49586   0.49960   0.50673
 Alpha virt. eigenvalues --    0.52281   0.52954   0.53087   0.53415   0.54277
 Alpha virt. eigenvalues --    0.55701   0.57234   0.58544   0.59059   0.59970
 Alpha virt. eigenvalues --    0.60436   0.60707   0.62091   0.62308   0.63486
 Alpha virt. eigenvalues --    0.64052   0.64232   0.65484   0.65630   0.66295
 Alpha virt. eigenvalues --    0.66895   0.67152   0.67783   0.68668   0.69088
 Alpha virt. eigenvalues --    0.69800   0.70274   0.71902   0.73108   0.73938
 Alpha virt. eigenvalues --    0.74744   0.75691   0.76616   0.77865   0.78312
 Alpha virt. eigenvalues --    0.78520   0.78657   0.79542   0.80595   0.81632
 Alpha virt. eigenvalues --    0.82007   0.83901   0.84202   0.84636   0.86212
 Alpha virt. eigenvalues --    0.87529   0.88354   0.89697   0.90062   0.92087
 Alpha virt. eigenvalues --    0.92781   0.94211   0.94679   0.96315   0.98315
 Alpha virt. eigenvalues --    1.01362   1.02122   1.02702   1.03439   1.05574
 Alpha virt. eigenvalues --    1.06392   1.08439   1.09205   1.10340   1.11468
 Alpha virt. eigenvalues --    1.12029   1.13389   1.16230   1.16921   1.19897
 Alpha virt. eigenvalues --    1.20192   1.22832   1.24474   1.27583   1.29899
 Alpha virt. eigenvalues --    1.31851   1.38313   1.43034   1.46422   1.46613
 Alpha virt. eigenvalues --    1.47222   1.49582   1.49753   1.51005   1.52923
 Alpha virt. eigenvalues --    1.53104   1.53361   1.54942   1.55825   1.56171
 Alpha virt. eigenvalues --    1.57269   1.59166   1.59698   1.61092   1.61692
 Alpha virt. eigenvalues --    1.62271   1.62942   1.63218   1.64891   1.65762
 Alpha virt. eigenvalues --    1.66149   1.67675   1.69795   1.70969   1.71512
 Alpha virt. eigenvalues --    1.73225   1.73938   1.74048   1.76337   1.77316
 Alpha virt. eigenvalues --    1.77778   1.79320   1.80652   1.81190   1.81582
 Alpha virt. eigenvalues --    1.81809   1.84823   1.89773   1.91862   1.92457
 Alpha virt. eigenvalues --    1.92944   1.95470   1.98255   1.99208   1.99390
 Alpha virt. eigenvalues --    2.02078   2.03277   2.03913   2.04332   2.04763
 Alpha virt. eigenvalues --    2.06219   2.08744   2.13001   2.14304   2.17445
 Alpha virt. eigenvalues --    2.18914   2.20518   2.21334   2.23031   2.23894
 Alpha virt. eigenvalues --    2.25446   2.26675   2.28703   2.31177   2.33739
 Alpha virt. eigenvalues --    2.38925   2.41259   2.45059   2.46788   2.47980
 Alpha virt. eigenvalues --    2.48129   2.50712   2.50808   2.51809   2.52622
 Alpha virt. eigenvalues --    2.54019   2.56022   2.56101   2.57091   2.57363
 Alpha virt. eigenvalues --    2.58173   2.59541   2.60051   2.61062   2.63044
 Alpha virt. eigenvalues --    2.63598   2.64017   2.64617   2.67270   2.68703
 Alpha virt. eigenvalues --    2.69086   2.71526   2.73874   2.75828   2.79169
 Alpha virt. eigenvalues --    2.79804   2.80053   2.80988   2.83884   2.86083
 Alpha virt. eigenvalues --    2.87357   2.87887   2.91093   2.96156   2.97137
 Alpha virt. eigenvalues --    2.99005   3.08693   3.09515   3.16835   3.19369
 Alpha virt. eigenvalues --    3.22431   3.23109   3.25836   3.26923   3.37511
 Alpha virt. eigenvalues --    3.39208   3.51576   3.60020   3.72979   3.73422
 Alpha virt. eigenvalues --    3.74376   3.78210   3.79720   3.80460   3.81451
 Alpha virt. eigenvalues --    3.82159   3.83235   3.83605   4.02545   4.13354
 Alpha virt. eigenvalues --    4.16740   4.84816   5.82980   7.98588  11.49126
 Alpha virt. eigenvalues --   11.54272  11.54715  17.32049  17.50733  17.53480
 Alpha virt. eigenvalues --   23.53646  23.90263  23.92601  23.94802  24.00998
 Alpha virt. eigenvalues --   24.02068  24.03217  24.06750  24.08424  24.18137
 Alpha virt. eigenvalues --  141.27085 189.16064
          Condensed to atoms (all electrons):
               1          2          3          4          5          6
     1  C   10.573868   2.166777  -1.863478  -2.126669   1.311599  -4.412131
     2  C    2.166777  11.769015  -4.392106  -3.327234   0.432174  -0.765435
     3  C   -1.863478  -4.392106  14.144179   0.144400   0.705417  -2.012330
     4  C   -2.126669  -3.327234   0.144400   9.715524  -0.809784   2.019775
     5  C    1.311599   0.432174   0.705417  -0.809784   7.924010  -3.273703
     6  C   -4.412131  -0.765435  -2.012330   2.019775  -3.273703  14.063902
     7  H    0.004355   0.553651  -0.098701  -0.074175   0.010947  -0.079053
     8  H    0.006258  -0.078413   0.008271   0.360963   0.077314  -0.049038
     9  H    0.039347  -0.004598  -0.005022  -0.051494   0.365382  -0.000127
    10  H    0.030185   0.018271   0.004140  -0.004700  -0.001753   0.302119
    11  S   -0.231909   0.364184  -1.863120   0.437105  -0.148708   0.557169
    12  C   -0.135671  -0.510220   0.618352   0.011220   0.008835  -0.039622
    13  H   -0.009294  -0.052941   0.074994  -0.004750   0.001266  -0.002094
    14  H    0.007112   0.085925  -0.080675  -0.009774   0.000049  -0.000298
    15  H   -0.010468  -0.059172   0.080430  -0.002885   0.001217  -0.001663
    16  Si   0.304862   0.162208  -0.234430  -0.003002   0.074350   0.156184
    17  C   -0.089317   0.041451   0.069468  -0.001917   0.012997  -0.161984
    18  H   -0.012738   0.008316   0.003641   0.000916  -0.000976   0.014247
    19  H    0.002515  -0.004833  -0.009862  -0.002597   0.000466  -0.001068
    20  H    0.043217   0.000925  -0.016464  -0.005767   0.007519  -0.031169
    21  C   -0.085479   0.047681   0.085747  -0.004762   0.013339  -0.180782
    22  H   -0.007690   0.006466   0.002677   0.000787  -0.000820   0.013715
    23  H    0.040859  -0.001381  -0.016187  -0.005321   0.006817  -0.028346
    24  H   -0.002985  -0.002559  -0.008031  -0.002221   0.000405  -0.000558
    25  C    0.181122  -0.104241  -0.102850  -0.024456  -0.103905  -0.037710
    26  H   -0.004918   0.001058   0.000071  -0.000195   0.010077   0.005328
    27  H   -0.015683   0.005884   0.002751   0.000427  -0.015335   0.011688
    28  H   -0.022385   0.005483   0.002209   0.000889  -0.015113   0.017460
               7          8          9         10         11         12
     1  C    0.004355   0.006258   0.039347   0.030185  -0.231909  -0.135671
     2  C    0.553651  -0.078413  -0.004598   0.018271   0.364184  -0.510220
     3  C   -0.098701   0.008271  -0.005022   0.004140  -1.863120   0.618352
     4  C   -0.074175   0.360963  -0.051494  -0.004700   0.437105   0.011220
     5  C    0.010947   0.077314   0.365382  -0.001753  -0.148708   0.008835
     6  C   -0.079053  -0.049038  -0.000127   0.302119   0.557169  -0.039622
     7  H    0.569284  -0.000210   0.000105  -0.000163  -0.014044  -0.011982
     8  H   -0.000210   0.533671  -0.008389  -0.000312   0.020097  -0.001055
     9  H    0.000105  -0.008389   0.549380  -0.007678   0.000092   0.000010
    10  H   -0.000163  -0.000312  -0.007678   0.552445  -0.001223   0.000145
    11  S   -0.014044   0.020097   0.000092  -0.001223  17.882587  -0.205874
    12  C   -0.011982  -0.001055   0.000010   0.000145  -0.205874   5.476300
    13  H   -0.000708   0.000021   0.000000   0.000000  -0.084089   0.424474
    14  H    0.000702  -0.000010   0.000000   0.000000   0.004447   0.368416
    15  H   -0.000734   0.000021   0.000000   0.000000  -0.084228   0.424082
    16  Si   0.008485  -0.001709  -0.002453  -0.016781  -0.025428  -0.008033
    17  C    0.001675   0.000105   0.000152   0.001912  -0.003930   0.002576
    18  H   -0.000060   0.000000   0.000000  -0.000012  -0.000061   0.000038
    19  H   -0.000103   0.000000   0.000000  -0.000021   0.000144  -0.000580
    20  H    0.000168   0.000000   0.000000   0.000061  -0.000025   0.000059
    21  C    0.001291   0.000110   0.000138   0.001841  -0.003392   0.002411
    22  H   -0.000062   0.000000   0.000000  -0.000011  -0.000068   0.000051
    23  H    0.000148   0.000000   0.000000   0.000056  -0.000022   0.000053
    24  H   -0.000058   0.000000   0.000000  -0.000021   0.000086  -0.000651
    25  C    0.003630  -0.000017   0.001267  -0.002439   0.000169  -0.001052
    26  H   -0.000006   0.000000  -0.000002   0.000530  -0.000004   0.000008
    27  H   -0.000007   0.000000   0.000007  -0.000482  -0.000003  -0.000004
    28  H   -0.000008   0.000000   0.000007  -0.000500  -0.000011  -0.000004
              13         14         15         16         17         18
     1  C   -0.009294   0.007112  -0.010468   0.304862  -0.089317  -0.012738
     2  C   -0.052941   0.085925  -0.059172   0.162208   0.041451   0.008316
     3  C    0.074994  -0.080675   0.080430  -0.234430   0.069468   0.003641
     4  C   -0.004750  -0.009774  -0.002885  -0.003002  -0.001917   0.000916
     5  C    0.001266   0.000049   0.001217   0.074350   0.012997  -0.000976
     6  C   -0.002094  -0.000298  -0.001663   0.156184  -0.161984   0.014247
     7  H   -0.000708   0.000702  -0.000734   0.008485   0.001675  -0.000060
     8  H    0.000021  -0.000010   0.000021  -0.001709   0.000105   0.000000
     9  H    0.000000   0.000000   0.000000  -0.002453   0.000152   0.000000
    10  H    0.000000   0.000000   0.000000  -0.016781   0.001912  -0.000012
    11  S   -0.084089   0.004447  -0.084228  -0.025428  -0.003930  -0.000061
    12  C    0.424474   0.368416   0.424082  -0.008033   0.002576   0.000038
    13  H    0.548153  -0.021011  -0.050683  -0.000448  -0.001448   0.000001
    14  H   -0.021011   0.484634  -0.020962   0.000392  -0.000039   0.000000
    15  H   -0.050683  -0.020962   0.548545  -0.000918   0.002354   0.000001
    16  Si  -0.000448   0.000392  -0.000918  11.997217   0.152081  -0.012916
    17  C   -0.001448  -0.000039   0.002354   0.152081   5.943696   0.376996
    18  H    0.000001   0.000000   0.000001  -0.012916   0.376996   0.510204
    19  H    0.000012   0.000001  -0.000031   0.016353   0.349301  -0.021562
    20  H    0.000003   0.000000  -0.000040  -0.020609   0.372541  -0.017434
    21  C    0.002139  -0.000036  -0.001326   0.155146  -0.153414  -0.003457
    22  H    0.000001   0.000000   0.000001  -0.011761  -0.003629   0.000113
    23  H   -0.000033   0.000000   0.000003  -0.019281   0.017242  -0.000099
    24  H   -0.000011   0.000002   0.000005   0.016759  -0.009382   0.000119
    25  C   -0.000018   0.000008  -0.000024   0.317189  -0.136775  -0.009569
    26  H    0.000000   0.000000   0.000000  -0.012175  -0.001946   0.000677
    27  H    0.000000   0.000000   0.000000  -0.008528  -0.009843   0.000100
    28  H    0.000000   0.000000   0.000000  -0.007124   0.016119  -0.000091
              19         20         21         22         23         24
     1  C    0.002515   0.043217  -0.085479  -0.007690   0.040859  -0.002985
     2  C   -0.004833   0.000925   0.047681   0.006466  -0.001381  -0.002559
     3  C   -0.009862  -0.016464   0.085747   0.002677  -0.016187  -0.008031
     4  C   -0.002597  -0.005767  -0.004762   0.000787  -0.005321  -0.002221
     5  C    0.000466   0.007519   0.013339  -0.000820   0.006817   0.000405
     6  C   -0.001068  -0.031169  -0.180782   0.013715  -0.028346  -0.000558
     7  H   -0.000103   0.000168   0.001291  -0.000062   0.000148  -0.000058
     8  H    0.000000   0.000000   0.000110   0.000000   0.000000   0.000000
     9  H    0.000000   0.000000   0.000138   0.000000   0.000000   0.000000
    10  H   -0.000021   0.000061   0.001841  -0.000011   0.000056  -0.000021
    11  S    0.000144  -0.000025  -0.003392  -0.000068  -0.000022   0.000086
    12  C   -0.000580   0.000059   0.002411   0.000051   0.000053  -0.000651
    13  H    0.000012   0.000003   0.002139   0.000001  -0.000033  -0.000011
    14  H    0.000001   0.000000  -0.000036   0.000000   0.000000   0.000002
    15  H   -0.000031  -0.000040  -0.001326   0.000001   0.000003   0.000005
    16  Si   0.016353  -0.020609   0.155146  -0.011761  -0.019281   0.016759
    17  C    0.349301   0.372541  -0.153414  -0.003629   0.017242  -0.009382
    18  H   -0.021562  -0.017434  -0.003457   0.000113  -0.000099   0.000119
    19  H    0.525415  -0.018108  -0.008638   0.000185  -0.000037   0.001463
    20  H   -0.018108   0.501935   0.016988  -0.000111  -0.000191  -0.000022
    21  C   -0.008638   0.016988   5.937179   0.375550   0.371852   0.349249
    22  H    0.000185  -0.000111   0.375550   0.511554  -0.017697  -0.021819
    23  H   -0.000037  -0.000191   0.371852  -0.017697   0.502649  -0.017536
    24  H    0.001463  -0.000022   0.349249  -0.021819  -0.017536   0.525954
    25  C    0.015191  -0.007659  -0.143743  -0.011005  -0.007039   0.015966
    26  H   -0.000070   0.000077  -0.001454   0.000709   0.000089  -0.000082
    27  H   -0.000077   0.001136   0.016558  -0.000092  -0.000123  -0.000169
    28  H   -0.000166  -0.000116  -0.010536   0.000141   0.001246  -0.000081
              25         26         27         28
     1  C    0.181122  -0.004918  -0.015683  -0.022385
     2  C   -0.104241   0.001058   0.005884   0.005483
     3  C   -0.102850   0.000071   0.002751   0.002209
     4  C   -0.024456  -0.000195   0.000427   0.000889
     5  C   -0.103905   0.010077  -0.015335  -0.015113
     6  C   -0.037710   0.005328   0.011688   0.017460
     7  H    0.003630  -0.000006  -0.000007  -0.000008
     8  H   -0.000017   0.000000   0.000000   0.000000
     9  H    0.001267  -0.000002   0.000007   0.000007
    10  H   -0.002439   0.000530  -0.000482  -0.000500
    11  S    0.000169  -0.000004  -0.000003  -0.000011
    12  C   -0.001052   0.000008  -0.000004  -0.000004
    13  H   -0.000018   0.000000   0.000000   0.000000
    14  H    0.000008   0.000000   0.000000   0.000000
    15  H   -0.000024   0.000000   0.000000   0.000000
    16  Si   0.317189  -0.012175  -0.008528  -0.007124
    17  C   -0.136775  -0.001946  -0.009843   0.016119
    18  H   -0.009569   0.000677   0.000100  -0.000091
    19  H    0.015191  -0.000070  -0.000077  -0.000166
    20  H   -0.007659   0.000077   0.001136  -0.000116
    21  C   -0.143743  -0.001454   0.016558  -0.010536
    22  H   -0.011005   0.000709  -0.000092   0.000141
    23  H   -0.007039   0.000089  -0.000123   0.001246
    24  H    0.015966  -0.000082  -0.000169  -0.000081
    25  C    5.783158   0.371878   0.375133   0.376333
    26  H    0.371878   0.505477  -0.018141  -0.018297
    27  H    0.375133  -0.018141   0.514488  -0.023339
    28  H    0.376333  -0.018297  -0.023339   0.514221
 Mulliken charges:
               1
     1  C    0.318738
     2  C   -0.366338
     3  C    0.756510
     4  C   -0.230304
     5  C   -0.594081
     6  C   -0.084475
     7  H    0.125633
     8  H    0.132322
     9  H    0.123877
    10  H    0.124391
    11  S   -0.599941
    12  C   -0.422283
    13  H    0.176464
    14  H    0.181119
    15  H    0.176477
    16  Si   1.024371
    17  C   -0.787043
    18  H    0.163606
    19  H    0.156706
    20  H    0.173085
    21  C   -0.780198
    22  H    0.162818
    23  H    0.172278
    24  H    0.156180
    25  C   -0.748543
    26  H    0.161310
    27  H    0.163656
    28  H    0.163663
 Sum of Mulliken charges =   0.00000
 Mulliken charges with hydrogens summed into heavy atoms:
               1
     1  C    0.318738
     2  C   -0.240705
     3  C    0.756510
     4  C   -0.097982
     5  C   -0.470204
     6  C    0.039916
    11  S   -0.599941
    12  C    0.111778
    16  Si   1.024371
    17  C   -0.293646
    21  C   -0.288923
    25  C   -0.259914
 Electronic spatial extent (au):  <R**2>=           3484.7012
 Charge=              0.0000 electrons
 Dipole moment (field-independent basis, Debye):
    X=              0.9718    Y=             -1.0998    Z=             -0.0009  Tot=              1.4676
 Quadrupole moment (field-independent basis, Debye-Ang):
   XX=            -90.7473   YY=            -82.2885   ZZ=            -94.5758
   XY=              3.2751   XZ=              0.0008   YZ=             -0.0012
 Traceless Quadrupole moment (field-independent basis, Debye-Ang):
   XX=             -1.5434   YY=              6.9154   ZZ=             -5.3719
   XY=              3.2751   XZ=              0.0008   YZ=             -0.0012
 Octapole moment (field-independent basis, Debye-Ang**2):
  XXX=             12.1401  YYY=              3.9515  ZZZ=              0.0157  XYY=            -23.1050
  XXY=            -15.8061  XXZ=             -0.0509  XZZ=              3.0949  YZZ=             -1.5197
  YYZ=              0.0476  XYZ=              0.0095
 Hexadecapole moment (field-independent basis, Debye-Ang**3):
 XXXX=          -3365.4750 YYYY=          -1148.1479 ZZZZ=           -405.9132 XXXY=             19.6180
 XXXZ=             -0.4520 YYYX=             25.1014 YYYZ=             -0.1107 ZZZX=              0.2011
 ZZZY=              0.1176 XXYY=           -699.5722 XXZZ=           -652.2398 YYZZ=           -289.8181
 XXYZ=             -0.0027 YYXZ=              0.0915 ZZXY=             19.7535
 N-N= 8.609285172462D+02 E-N=-4.264120680551D+03  KE= 1.075659288985D+03
 There are a total of      230694 grid points.
 ElSum from          density=      105.9999574155
 ElSum from atomic densities=      106.0000720340

 Hirshfeld populations at iteration   1 (CX, CA, CB, DipXYZ):
               1          2          3          4          5          6
     1  C    0.000000   3.052144   3.052144  -0.053213   0.025755  -0.000086
     2  C    0.000000   3.028202   3.028202   0.005412  -0.048299  -0.000053
     3  C    0.000000   3.009286   3.009286  -0.039950  -0.029220   0.000027
     4  C    0.000001   3.026783   3.026783  -0.046569   0.032376   0.000017
     5  C    0.000000   3.022331   3.022331   0.001988   0.063148   0.000020
     6  C    0.000000   3.026705   3.026705   0.040954   0.039632  -0.000010
     7  H    0.000000   0.479420   0.479420   0.021265  -0.146361  -0.000077
     8  H    0.000002   0.475492   0.475492  -0.133775   0.089353   0.000007
     9  H    0.000002   0.476173   0.476173  -0.005545   0.159518   0.000009
    10  H    0.000001   0.478642   0.478642   0.123064   0.088064  -0.000003
    11  S    0.000002   8.005124   8.005124   0.152822  -0.100475   0.000021
    12  C    0.000000   3.048819   3.048819   0.004786  -0.009689  -0.000009
    13  H    0.000001   0.477110   0.477110   0.077628  -0.052128   0.128812
    14  H    0.000001   0.473318   0.473318  -0.139534  -0.092821  -0.000039
    15  H    0.000001   0.477101   0.477101   0.077726  -0.052129  -0.128780
    16  Si   0.000000   6.801908   6.801908   0.022350  -0.009468  -0.000644
    17  C    0.000000   3.103654   3.103654   0.013004  -0.053858  -0.078617
    18  H    0.000001   0.481075   0.481075   0.153827  -0.031395  -0.024311
    19  H    0.000001   0.482367   0.482367  -0.079777  -0.131923   0.026132
    20  H    0.000002   0.480761   0.480761  -0.057634   0.081121  -0.124284
    21  C    0.000000   3.103586   3.103586   0.013089  -0.054117   0.078876
    22  H    0.000001   0.481094   0.481094   0.152847  -0.039199   0.018725
    23  H    0.000002   0.480716   0.480716  -0.049070   0.084787   0.125792
    24  H    0.000001   0.482389   0.482389  -0.087210  -0.127637  -0.022367
    25  C    0.000000   3.102986   3.102986   0.074526   0.059088  -0.000002
    26  H    0.000001   0.480505   0.480505   0.137908  -0.080859   0.000125
    27  H    0.000001   0.481136   0.481136  -0.011600   0.086724  -0.132050
    28  H    0.000001   0.481156   0.481156  -0.011651   0.086813   0.131928
       Tot   0.000023  52.999979  52.999979   0.357669  -0.163199  -0.000840

 Dip from Atomic Chgs              0.023541  -0.269266   0.000381
         Total Dipole              0.381210  -0.432465  -0.000458

 Hirshfeld charges, spin densities, dipoles, and CM5 charges using IRadAn=      4:
              Q-H        S-H        Dx         Dy         Dz        Q-CM5   
     1  C   -0.104288   0.000000  -0.053213   0.025755  -0.000086  -0.143169
     2  C   -0.056404   0.000000   0.005412  -0.048299  -0.000053  -0.110320
     3  C   -0.018572   0.000000  -0.039950  -0.029220   0.000027  -0.038571
     4  C   -0.053566   0.000000  -0.046569   0.032376   0.000017  -0.107147
     5  C   -0.044662   0.000000   0.001988   0.063148   0.000020  -0.100243
     6  C   -0.053411   0.000000   0.040954   0.039632  -0.000010  -0.108824
     7  H    0.041161   0.000000   0.021265  -0.146361  -0.000077   0.095567
     8  H    0.049015   0.000000  -0.133775   0.089353   0.000007   0.102984
     9  H    0.047654   0.000000  -0.005545   0.159518   0.000009   0.103429
    10  H    0.042717   0.000000   0.123064   0.088064  -0.000003   0.097366
    11  S   -0.010247   0.000000   0.152822  -0.100475   0.000021  -0.018001
    12  C   -0.097637   0.000000   0.004786  -0.009689  -0.000009  -0.230925
    13  H    0.045781   0.000000   0.077628  -0.052128   0.128812   0.098536
    14  H    0.053364   0.000000  -0.139534  -0.092821  -0.000039   0.106477
    15  H    0.045799   0.000000   0.077726  -0.052129  -0.128780   0.098554
    16  Si   0.396184   0.000000   0.022350  -0.009468  -0.000644   0.288000
    17  C   -0.207308   0.000000   0.013004  -0.053858  -0.078617  -0.328489
    18  H    0.037851   0.000000   0.153827  -0.031395  -0.024311   0.094793
    19  H    0.035267   0.000000  -0.079777  -0.131923   0.026132   0.092304
    20  H    0.038478   0.000000  -0.057634   0.081121  -0.124284   0.095535
    21  C   -0.207172   0.000000   0.013089  -0.054117   0.078876  -0.328360
    22  H    0.037813   0.000000   0.152847  -0.039199   0.018725   0.094749
    23  H    0.038569   0.000000  -0.049070   0.084787   0.125792   0.095608
    24  H    0.035222   0.000000  -0.087210  -0.127637  -0.022367   0.092265
    25  C   -0.205973   0.000000   0.074526   0.059088  -0.000002  -0.327687
    26  H    0.038990   0.000000   0.137908  -0.080859   0.000125   0.095917
    27  H    0.037729   0.000000  -0.011600   0.086724  -0.132050   0.094867
    28  H    0.037689   0.000000  -0.011651   0.086813   0.131928   0.094828
       Tot   0.000043   0.000000   0.357669  -0.163199  -0.000840   0.000043
 Hirshfeld charges with hydrogens summed into heavy atoms:
              Q-H       Q-CM5   
     1  C   -0.104288  -0.143169
     2  C   -0.015243  -0.014753
     3  C   -0.018572  -0.038571
     4  C   -0.004551  -0.004163
     5  C    0.002992   0.003186
     6  C   -0.010694  -0.011458
    11  S   -0.010247  -0.018001
    12  C    0.047307   0.072641
    16  Si   0.396184   0.288000
    17  C   -0.095712  -0.045857
    21  C   -0.095569  -0.045737
    25  C   -0.091564  -0.042075
 
 EQQ= 0.000000000000E+00 EQD= 0.000000000000E+00 EDD= 0.837655762965E-02
 EQQ+QD+DD= 0.837655762965E-02
 
          MBS Condensed to atoms (all electrons):
               1          2          3          4          5          6
     1  C    4.960696   0.489600  -0.026460  -0.011399  -0.030258   0.497408
     2  C    0.489600   4.861939   0.497370  -0.029644  -0.012577  -0.031778
     3  C   -0.026460   0.497370   4.832451   0.489807  -0.029018  -0.012128
     4  C   -0.011399  -0.029644   0.489807   4.838777   0.513119  -0.031102
     5  C   -0.030258  -0.012577  -0.029018   0.513119   4.818707   0.500136
     6  C    0.497408  -0.031778  -0.012128  -0.031102   0.500136   4.847279
     7  H   -0.029086   0.388926  -0.027946   0.001439   0.000044   0.001654
     8  H    0.000045   0.001463  -0.026997   0.388737  -0.024921   0.001477
     9  H    0.001523   0.000061   0.001497  -0.026429   0.389284  -0.025675
    10  H   -0.028315   0.001657   0.000046   0.001492  -0.026846   0.390063
    11  S    0.000525  -0.019605   0.321406  -0.026885   0.000612   0.000017
    12  C    0.000022  -0.003487  -0.009172   0.000300  -0.000003   0.000000
    13  H   -0.000003  -0.000042  -0.000971   0.000005   0.000000   0.000000
    14  H    0.000000   0.000072   0.000555  -0.000006   0.000000   0.000000
    15  H   -0.000003  -0.000044  -0.000972   0.000005   0.000000   0.000000
    16  Si   0.350982  -0.019056   0.000820   0.000019   0.000892  -0.018316
    17  C   -0.006570  -0.000331  -0.000002   0.000000  -0.000001   0.000044
    18  H    0.000210   0.000006   0.000000   0.000000   0.000000  -0.000001
    19  H    0.000037   0.000005   0.000000   0.000000   0.000000   0.000001
    20  H   -0.000320   0.000067  -0.000002   0.000000  -0.000001   0.000019
    21  C   -0.006528  -0.000333  -0.000001   0.000000  -0.000001   0.000044
    22  H    0.000209   0.000006   0.000000   0.000000   0.000000  -0.000001
    23  H   -0.000283   0.000058  -0.000001   0.000000   0.000000   0.000018
    24  H    0.000000   0.000007   0.000000   0.000000   0.000000   0.000001
    25  C   -0.006209   0.000076  -0.000001   0.000000   0.000004  -0.001146
    26  H    0.000184  -0.000001   0.000000   0.000000   0.000000   0.000027
    27  H   -0.000176   0.000000   0.000000   0.000000  -0.000001  -0.000147
    28  H   -0.000175   0.000000   0.000000   0.000000  -0.000001  -0.000148
               7          8          9         10         11         12
     1  C   -0.029086   0.000045   0.001523  -0.028315   0.000525   0.000022
     2  C    0.388926   0.001463   0.000061   0.001657  -0.019605  -0.003487
     3  C   -0.027946  -0.026997   0.001497   0.000046   0.321406  -0.009172
     4  C    0.001439   0.388737  -0.026429   0.001492  -0.026885   0.000300
     5  C    0.000044  -0.024921   0.389284  -0.026846   0.000612  -0.000003
     6  C    0.001654   0.001477  -0.025675   0.390063   0.000017   0.000000
     7  H    0.577155  -0.000042   0.000003  -0.000038  -0.002957  -0.000441
     8  H   -0.000042   0.555700  -0.004016  -0.000040  -0.001596   0.000003
     9  H    0.000003  -0.004016   0.561116  -0.003597  -0.000012   0.000000
    10  H   -0.000038  -0.000040  -0.003597   0.568837   0.000000   0.000000
    11  S   -0.002957  -0.001596  -0.000012   0.000000  15.557796   0.290030
    12  C   -0.000441   0.000003   0.000000   0.000000   0.290030   4.878180
    13  H    0.000232   0.000001   0.000000   0.000000  -0.017593   0.371177
    14  H   -0.000010  -0.000001   0.000000   0.000000  -0.017457   0.372439
    15  H    0.000233   0.000001   0.000000   0.000000  -0.017590   0.371177
    16  Si  -0.004066   0.000001  -0.000023  -0.004272  -0.000005   0.000000
    17  C    0.000181   0.000000   0.000000   0.000017   0.000000   0.000000
    18  H   -0.000007   0.000000   0.000000  -0.000001   0.000000   0.000000
    19  H    0.000117   0.000000   0.000000   0.000000   0.000000   0.000000
    20  H    0.000015   0.000000   0.000000   0.000003   0.000000   0.000000
    21  C    0.000172   0.000000   0.000000   0.000017   0.000000   0.000000
    22  H   -0.000008   0.000000   0.000000  -0.000001   0.000000   0.000000
    23  H    0.000011   0.000000   0.000000   0.000002   0.000000   0.000000
    24  H    0.000147   0.000000   0.000000   0.000000   0.000000   0.000000
    25  C    0.000005   0.000000   0.000000   0.000319   0.000000   0.000000
    26  H    0.000000   0.000000   0.000000  -0.000024   0.000000   0.000000
    27  H    0.000000   0.000000   0.000000   0.000301   0.000000   0.000000
    28  H    0.000000   0.000000   0.000000   0.000302   0.000000   0.000000
              13         14         15         16         17         18
     1  C   -0.000003   0.000000  -0.000003   0.350982  -0.006570   0.000210
     2  C   -0.000042   0.000072  -0.000044  -0.019056  -0.000331   0.000006
     3  C   -0.000971   0.000555  -0.000972   0.000820  -0.000002   0.000000
     4  C    0.000005  -0.000006   0.000005   0.000019   0.000000   0.000000
     5  C    0.000000   0.000000   0.000000   0.000892  -0.000001   0.000000
     6  C    0.000000   0.000000   0.000000  -0.018316   0.000044  -0.000001
     7  H    0.000232  -0.000010   0.000233  -0.004066   0.000181  -0.000007
     8  H    0.000001  -0.000001   0.000001   0.000001   0.000000   0.000000
     9  H    0.000000   0.000000   0.000000  -0.000023   0.000000   0.000000
    10  H    0.000000   0.000000   0.000000  -0.004272   0.000017  -0.000001
    11  S   -0.017593  -0.017457  -0.017590  -0.000005   0.000000   0.000000
    12  C    0.371177   0.372439   0.371177   0.000000   0.000000   0.000000
    13  H    0.576901  -0.020589  -0.024351   0.000001   0.000000   0.000000
    14  H   -0.020589   0.562880  -0.020586   0.000000   0.000000   0.000000
    15  H   -0.024351  -0.020586   0.576874   0.000001   0.000000   0.000000
    16  Si   0.000001   0.000000   0.000001  12.175137   0.340026  -0.014768
    17  C    0.000000   0.000000   0.000000   0.340026   5.003022   0.375258
    18  H    0.000000   0.000000   0.000000  -0.014768   0.375258   0.582629
    19  H    0.000000   0.000000   0.000002  -0.015168   0.375327  -0.021681
    20  H    0.000000   0.000000   0.000000  -0.014859   0.375748  -0.021413
    21  C    0.000000   0.000000   0.000000   0.340210  -0.007148   0.000099
    22  H    0.000000   0.000000   0.000000  -0.014757   0.000074  -0.000002
    23  H    0.000000   0.000000   0.000000  -0.014859   0.000221  -0.000003
    24  H    0.000003   0.000000   0.000000  -0.015149  -0.000515   0.000015
    25  C    0.000000   0.000000   0.000000   0.342600  -0.006839  -0.000491
    26  H    0.000000   0.000000   0.000000  -0.014700  -0.000213   0.000181
    27  H    0.000000   0.000000   0.000000  -0.015020  -0.000162   0.000037
    28  H    0.000000   0.000000   0.000000  -0.015024   0.000219   0.000004
              19         20         21         22         23         24
     1  C    0.000037  -0.000320  -0.006528   0.000209  -0.000283   0.000000
     2  C    0.000005   0.000067  -0.000333   0.000006   0.000058   0.000007
     3  C    0.000000  -0.000002  -0.000001   0.000000  -0.000001   0.000000
     4  C    0.000000   0.000000   0.000000   0.000000   0.000000   0.000000
     5  C    0.000000  -0.000001  -0.000001   0.000000   0.000000   0.000000
     6  C    0.000001   0.000019   0.000044  -0.000001   0.000018   0.000001
     7  H    0.000117   0.000015   0.000172  -0.000008   0.000011   0.000147
     8  H    0.000000   0.000000   0.000000   0.000000   0.000000   0.000000
     9  H    0.000000   0.000000   0.000000   0.000000   0.000000   0.000000
    10  H    0.000000   0.000003   0.000017  -0.000001   0.000002   0.000000
    11  S    0.000000   0.000000   0.000000   0.000000   0.000000   0.000000
    12  C    0.000000   0.000000   0.000000   0.000000   0.000000   0.000000
    13  H    0.000000   0.000000   0.000000   0.000000   0.000000   0.000003
    14  H    0.000000   0.000000   0.000000   0.000000   0.000000   0.000000
    15  H    0.000002   0.000000   0.000000   0.000000   0.000000   0.000000
    16  Si  -0.015168  -0.014859   0.340210  -0.014757  -0.014859  -0.015149
    17  C    0.375327   0.375748  -0.007148   0.000074   0.000221  -0.000515
    18  H   -0.021681  -0.021413   0.000099  -0.000002  -0.000003   0.000015
    19  H    0.586266  -0.021562  -0.000564   0.000019   0.000004   0.000328
    20  H   -0.021562   0.576785   0.000221  -0.000003  -0.000007   0.000003
    21  C   -0.000564   0.000221   5.002130   0.375205   0.375776   0.375308
    22  H    0.000019  -0.000003   0.375205   0.583004  -0.021471  -0.021713
    23  H    0.000004  -0.000007   0.375776  -0.021471   0.577189  -0.021587
    24  H    0.000328   0.000003   0.375308  -0.021713  -0.021587   0.586502
    25  C    0.000219   0.000035  -0.006822  -0.000432   0.000002   0.000218
    26  H   -0.000002   0.000011  -0.000207   0.000168   0.000012  -0.000002
    27  H    0.000000   0.000046   0.000218   0.000003  -0.000004  -0.000006
    28  H   -0.000006  -0.000005  -0.000166   0.000031   0.000056   0.000000
              25         26         27         28
     1  C   -0.006209   0.000184  -0.000176  -0.000175
     2  C    0.000076  -0.000001   0.000000   0.000000
     3  C   -0.000001   0.000000   0.000000   0.000000
     4  C    0.000000   0.000000   0.000000   0.000000
     5  C    0.000004   0.000000  -0.000001  -0.000001
     6  C   -0.001146   0.000027  -0.000147  -0.000148
     7  H    0.000005   0.000000   0.000000   0.000000
     8  H    0.000000   0.000000   0.000000   0.000000
     9  H    0.000000   0.000000   0.000000   0.000000
    10  H    0.000319  -0.000024   0.000301   0.000302
    11  S    0.000000   0.000000   0.000000   0.000000
    12  C    0.000000   0.000000   0.000000   0.000000
    13  H    0.000000   0.000000   0.000000   0.000000
    14  H    0.000000   0.000000   0.000000   0.000000
    15  H    0.000000   0.000000   0.000000   0.000000
    16  Si   0.342600  -0.014700  -0.015020  -0.015024
    17  C   -0.006839  -0.000213  -0.000162   0.000219
    18  H   -0.000491   0.000181   0.000037   0.000004
    19  H    0.000219  -0.000002   0.000000  -0.000006
    20  H    0.000035   0.000011   0.000046  -0.000005
    21  C   -0.006822  -0.000207   0.000218  -0.000166
    22  H   -0.000432   0.000168   0.000003   0.000031
    23  H    0.000002   0.000012  -0.000004   0.000056
    24  H    0.000218  -0.000002  -0.000006   0.000000
    25  C    5.001310   0.376059   0.375510   0.375497
    26  H    0.376059   0.580879  -0.021500  -0.021494
    27  H    0.375510  -0.021500   0.582072  -0.021972
    28  H    0.375497  -0.021494  -0.021972   0.582120
 MBS Mulliken charges:
               1
     1  C   -0.155656
     2  C   -0.124414
     3  C   -0.010281
     4  C   -0.108236
     5  C   -0.099169
     6  C   -0.117743
     7  H    0.094267
     8  H    0.110185
     9  H    0.106268
    10  H    0.100078
    11  S   -0.066688
    12  C   -0.270224
    13  H    0.115230
    14  H    0.122703
    15  H    0.115253
    16  Si   0.629352
    17  C   -0.448356
    18  H    0.099931
    19  H    0.096660
    20  H    0.105219
    21  C   -0.447628
    22  H    0.099667
    23  H    0.104868
    24  H    0.096442
    25  C   -0.449917
    26  H    0.100624
    27  H    0.100801
    28  H    0.100763
 Sum of MBS Mulliken charges =   0.00000
 MBS Mulliken charges with hydrogens summed into heavy atoms:
               1
     1  C   -0.155656
     2  C   -0.030147
     3  C   -0.010281
     4  C    0.001949
     5  C    0.007099
     6  C   -0.017665
    11  S   -0.066688
    12  C    0.082963
    16  Si   0.629352
    17  C   -0.146546
    21  C   -0.146650
    25  C   -0.147729
 Breneman (CHELPG) radii used.
 Generate Potential Derived Charges using the Breneman model, NDens= 1.
 Grid spacing= 0.300 Box extension= 2.800
 NStep X,Y,Z=   49     41     36   Total possible points=       72324
 Number of Points to Fit=   17730

 **********************************************************************

            Electrostatic Properties Using The SCF Density

 **********************************************************************

       Atomic Center    1 is at   0.564975  0.551425 -0.000016
       Atomic Center    2 is at  -0.632017 -0.178725 -0.000028
       Atomic Center    3 is at  -1.869883  0.466379  0.000012
       Atomic Center    4 is at  -1.914066  1.869201  0.000060
       Atomic Center    5 is at  -0.731919  2.595281  0.000070
       Atomic Center    6 is at   0.503892  1.944707  0.000031
       Atomic Center    7 is at  -0.577676 -1.260590 -0.000073
       Atomic Center    8 is at  -2.869760  2.381691  0.000090
       Atomic Center    9 is at  -0.771915  3.679064  0.000104
       Atomic Center   10 is at   1.420545  2.524413  0.000035
       Atomic Center   11 is at  -3.443632 -0.373055  0.000006
       Atomic Center   12 is at  -2.995756 -2.137197  0.000119
       Atomic Center   13 is at  -2.436798 -2.409865  0.896251
       Atomic Center   14 is at  -3.944657 -2.674429 -0.000149
       Atomic Center   15 is at  -2.436290 -2.409855 -0.895700
       Atomic Center   16 is at   2.266196 -0.381017 -0.000045
       Atomic Center   17 is at   2.393681 -1.493799 -1.584048
       Atomic Center   18 is at   3.420390 -1.727740 -1.773895
       Atomic Center   19 is at   1.844369 -2.398892 -1.429245
       Atomic Center   20 is at   1.986599 -0.968517 -2.422655
       Atomic Center   21 is at   2.393742 -1.493789  1.583959
       Atomic Center   22 is at   3.413154 -1.780465  1.737309
       Atomic Center   23 is at   2.045744 -0.945221  2.434177
       Atomic Center   24 is at   1.792675 -2.369426  1.454044
       Atomic Center   25 is at   3.712384  0.912094 -0.000077
       Atomic Center   26 is at   4.650686  0.397809  0.000469
       Atomic Center   27 is at   3.642361  1.525477 -0.874010
       Atomic Center   28 is at   3.641746  1.526208  0.873292
   17730 points will be used for fitting atomic charges
 Fitting point charges to electrostatic potential
 Charges from ESP fit, RMS=   0.00376 RRMS=   0.40507:
 ESP charges:
               1
     1  C   -0.238752
     2  C   -0.076321
     3  C    0.145442
     4  C   -0.149060
     5  C   -0.091199
     6  C   -0.051312
     7  H    0.115278
     8  H    0.131099
     9  H    0.082076
    10  H    0.068864
    11  S   -0.249399
    12  C   -0.063708
    13  H    0.039699
    14  H    0.117249
    15  H    0.039756
    16  Si   0.736422
    17  C   -0.417821
    18  H    0.086470
    19  H    0.079259
    20  H    0.057715
    21  C   -0.438129
    22  H    0.092644
    23  H    0.063622
    24  H    0.084395
    25  C   -0.364243
    26  H    0.068797
    27  H    0.065033
    28  H    0.066124
 Sum of ESP charges =   0.00000
 ESP charges with hydrogens summed into heavy atoms:
               1
     1  C   -0.238752
     2  C    0.038957
     3  C    0.145442
     4  C   -0.017962
     5  C   -0.009122
     6  C    0.017552
    11  S   -0.249399
    12  C    0.132996
    16  Si   0.736422
    17  C   -0.194376
    21  C   -0.197469
    25  C   -0.164288
 Charge=   0.00000 Dipole=     0.8286    -1.0836     0.0038 Tot=     1.3641
 -----------------------------------------------------------------

              Electrostatic Properties (Atomic Units)

 -----------------------------------------------------------------
    Center     Electric         -------- Electric Field --------
               Potential          X             Y             Z
 -----------------------------------------------------------------
    1 Atom    -14.781965
    2 Atom    -14.770777
    3 Atom    -14.739216
    4 Atom    -14.771173
    5 Atom    -14.772881
    6 Atom    -14.777481
    7 Atom     -1.104685
    8 Atom     -1.103426
    9 Atom     -1.108025
   10 Atom     -1.112749
   11 Atom    -59.240191
   12 Atom    -14.741532
   13 Atom     -1.096897
   14 Atom     -1.089352
   15 Atom     -1.096895
   16 Atom    -49.291068
   17 Atom    -14.802615
   18 Atom     -1.118412
   19 Atom     -1.118519
   20 Atom     -1.120324
   21 Atom    -14.802492
   22 Atom     -1.118379
   23 Atom     -1.120280
   24 Atom     -1.118427
   25 Atom    -14.801025
   26 Atom     -1.116599
   27 Atom     -1.117839
   28 Atom     -1.117881
 -----------------------------------------------------------------
 ******************************Gaussian NBO Version 3.1******************************
             N A T U R A L   A T O M I C   O R B I T A L   A N D
          N A T U R A L   B O N D   O R B I T A L   A N A L Y S I S
 ******************************Gaussian NBO Version 3.1******************************
       /RESON  / : Allow strongly delocalized NBO set

 Analyzing the SCF density

 Job title: Title Card Required                                             

 Storage needed:    426884 in NPA ( 536866712 available)


 NATURAL POPULATIONS:  Natural atomic orbital occupancies 
                                                          
   NAO  Atom  No  lang   Type(AO)    Occupancy      Energy
 ----------------------------------------------------------
     1    C    1  S      Cor( 1S)     1.99905     -10.02117
     2    C    1  S      Val( 2S)     1.01400      -0.20964
     3    C    1  S      Ryd( 3S)     0.00675       0.84004
     4    C    1  S      Ryd( 4S)     0.00018       0.86601
     5    C    1  S      Ryd( 5S)     0.00001      23.37414
     6    C    1  px     Val( 2p)     1.24945      -0.11106
     7    C    1  px     Ryd( 4p)     0.01134       1.06839
     8    C    1  px     Ryd( 3p)     0.00023       0.85197
     9    C    1  px     Ryd( 5p)     0.00011       3.00594
    10    C    1  py     Val( 2p)     1.12865      -0.06979
    11    C    1  py     Ryd( 3p)     0.00748       0.86446
    12    C    1  py     Ryd( 4p)     0.00027       0.99817
    13    C    1  py     Ryd( 5p)     0.00013       3.08748
    14    C    1  pz     Val( 2p)     1.00126      -0.10791
    15    C    1  pz     Ryd( 3p)     0.00164       0.65677
    16    C    1  pz     Ryd( 4p)     0.00039       0.72276
    17    C    1  pz     Ryd( 5p)     0.00003       2.44847
    18    C    1  dxy    Ryd( 3d)     0.00088       2.28325
    19    C    1  dxz    Ryd( 3d)     0.00041       1.58908
    20    C    1  dyz    Ryd( 3d)     0.00056       1.64837
    21    C    1  dx2y2  Ryd( 3d)     0.00089       2.41552
    22    C    1  dz2    Ryd( 3d)     0.00051       2.03427

    23    C    2  S      Cor( 1S)     1.99896     -10.02552
    24    C    2  S      Val( 2S)     0.92441      -0.14265
    25    C    2  S      Ryd( 4S)     0.00195       0.86965
    26    C    2  S      Ryd( 3S)     0.00018       0.71223
    27    C    2  S      Ryd( 5S)     0.00001      23.29878
    28    C    2  px     Val( 2p)     1.08475      -0.06149
    29    C    2  px     Ryd( 4p)     0.00347       0.83373
    30    C    2  px     Ryd( 3p)     0.00026       0.62543
    31    C    2  px     Ryd( 5p)     0.00013       3.33399
    32    C    2  py     Val( 2p)     1.18073      -0.06474
    33    C    2  py     Ryd( 4p)     0.00675       1.02550
    34    C    2  py     Ryd( 3p)     0.00045       0.45965
    35    C    2  py     Ryd( 5p)     0.00006       3.24620
    36    C    2  pz     Val( 2p)     1.02713      -0.11186
    37    C    2  pz     Ryd( 4p)     0.00160       0.52520
    38    C    2  pz     Ryd( 3p)     0.00050       0.40833
    39    C    2  pz     Ryd( 5p)     0.00002       2.75086
    40    C    2  dxy    Ryd( 3d)     0.00063       2.57324
    41    C    2  dxz    Ryd( 3d)     0.00052       1.67340
    42    C    2  dyz    Ryd( 3d)     0.00034       1.61134
    43    C    2  dx2y2  Ryd( 3d)     0.00086       2.47583
    44    C    2  dz2    Ryd( 3d)     0.00042       2.02808

    45    C    3  S      Cor( 1S)     1.99883     -10.07602
    46    C    3  S      Val( 2S)     0.95551      -0.20816
    47    C    3  S      Ryd( 4S)     0.00160       0.80703
    48    C    3  S      Ryd( 3S)     0.00035       0.70644
    49    C    3  S      Ryd( 5S)     0.00001      23.38793
    50    C    3  px     Val( 2p)     1.06595      -0.12495
    51    C    3  px     Ryd( 4p)     0.00655       0.98325
    52    C    3  px     Ryd( 3p)     0.00046       0.70054
    53    C    3  px     Ryd( 5p)     0.00029       3.15391
    54    C    3  py     Val( 2p)     1.08313      -0.09192
    55    C    3  py     Ryd( 4p)     0.00506       0.80863
    56    C    3  py     Ryd( 3p)     0.00026       0.61739
    57    C    3  py     Ryd( 5p)     0.00020       3.25920
    58    C    3  pz     Val( 2p)     1.04517      -0.13062
    59    C    3  pz     Ryd( 4p)     0.00135       0.56144
    60    C    3  pz     Ryd( 3p)     0.00042       0.39314
    61    C    3  pz     Ryd( 5p)     0.00001       2.67733
    62    C    3  dxy    Ryd( 3d)     0.00139       2.22122
    63    C    3  dxz    Ryd( 3d)     0.00104       1.54825
    64    C    3  dyz    Ryd( 3d)     0.00069       1.60346
    65    C    3  dx2y2  Ryd( 3d)     0.00127       2.41788
    66    C    3  dz2    Ryd( 3d)     0.00079       1.99429

    67    C    4  S      Cor( 1S)     1.99903     -10.02917
    68    C    4  S      Val( 2S)     0.93978      -0.15573
    69    C    4  S      Ryd( 4S)     0.00156       0.82246
    70    C    4  S      Ryd( 3S)     0.00021       0.72597
    71    C    4  S      Ryd( 5S)     0.00001      23.11714
    72    C    4  px     Val( 2p)     1.15994      -0.06064
    73    C    4  px     Ryd( 4p)     0.00697       1.00180
    74    C    4  px     Ryd( 3p)     0.00031       0.37928
    75    C    4  px     Ryd( 5p)     0.00008       3.18745
    76    C    4  py     Val( 2p)     1.08867      -0.06004
    77    C    4  py     Ryd( 4p)     0.00456       0.81964
    78    C    4  py     Ryd( 3p)     0.00037       0.37013
[...]
 ,-0.00000116,0.00001924,-0.00000208,0.00001014,-0.00000549,0.00000917,
 -0.00003266,0.00000006,0.00004668,-0.01749016,-0.04356774,-0.10817002,
 -0.00377757,-0.00945627,-0.01137849,-0.00047235,-0.00016221,0.00099773
 ,0.00030505,-0.00046395,0.00101948,0.00095018,0.00259736,-0.00303368,-
 0.01952065,-0.05889209,0.42160778,-0.00008726,-0.00040765,-0.00132576,
 -0.00005978,-0.00012030,0.00014365,0.00015151,-0.00005976,0.00017037,0
 .00009095,0.00000190,-0.00003191,-0.00007782,0.00005997,0.00014611,0.0
 0018510,-0.00021312,0.00009506,0.00018292,0.00004937,-0.00026897,0.000
 00625,0.00001507,-0.00002910,0.00000925,-0.00002144,-0.00001532,0.0000
 0833,-0.00001818,-0.00006162,-0.00000645,-0.00000831,0.00000795,-0.000
 01165,-0.00003978,-0.00004334,0.00003523,0.00001760,0.00002641,-0.0000
 1226,0.00001603,0.00001225,0.00000657,0.00000685,-0.00000274,0.0014355
 4,-0.00447457,-0.00019367,-0.00013556,0.00018699,0.00047085,0.00015025
 ,0.00000806,0.00007543,-0.00002634,0.00007727,0.00001673,-0.00001504,-
 0.00015470,0.00013166,-0.11928997,0.11755778,0.00399879,0.13129485,-0.
 00083112,-0.00077266,-0.00225850,-0.00029754,-0.00014025,-0.00002250,-
 0.00019085,-0.00000631,0.00017213,0.00007788,-0.00009419,-0.00004015,-
 0.00001851,-0.00009570,0.00025552,0.00061071,0.00002571,-0.00018636,0.
 00005395,0.00005655,-0.00006072,0.00000870,-0.00000861,-0.00002541,0.0
 0002883,-0.00006793,0.00001874,-0.00005388,-0.00005038,-0.00010213,0.0
 0009657,-0.00000346,0.00000042,0.00002771,-0.00004109,-0.00000271,-0.0
 0001426,0.00000984,0.00000006,0.00001112,0.00001065,0.00000092,-0.0000
 1238,0.00001100,0.00000370,0.00730625,-0.00962842,0.00242558,-0.000348
 22,0.00048281,0.00016237,0.00000829,0.00037483,-0.00038009,-0.00007950
 ,-0.00002433,0.00012351,-0.00017679,0.00005295,0.00006699,0.12535438,-
 0.22871432,-0.00065358,-0.13370806,0.24352110,-0.00163763,-0.00206067,
 -0.00312801,-0.00016032,-0.00020860,0.00012782,-0.00023032,0.00010846,
 0.00011126,0.00004915,-0.00018418,-0.00003453,-0.00006326,-0.00024749,
 0.00033648,0.00091616,-0.00037007,-0.00006755,-0.00003930,0.00014042,0
 .00000848,0.00000655,-0.00001121,-0.00002252,0.00005047,-0.00010476,0.
 00002267,-0.00006169,-0.00005973,-0.00016843,0.00011086,-0.00001412,-0
 .00000854,0.00002988,-0.00004901,-0.00000356,-0.00000906,0.00001693,-0
 .00000650,0.00000977,0.00001068,0.00000261,-0.00001225,0.00001109,0.00
 000776,0.01156137,-0.01416659,0.00047728,-0.00022975,0.00120486,0.0009
 9860,-0.00007447,0.00037943,-0.00082858,-0.00008501,-0.00010567,0.0000
 4785,-0.00031959,0.00003722,0.00037275,0.01151506,-0.01174649,-0.03814
 033,-0.00394940,0.00218467,0.04011385,-0.00001103,0.00007708,0.0002906
 8,-0.00021291,-0.00011891,-0.00005352,-0.00000076,0.00014116,-0.000038
 37,-0.00006460,0.00000496,-0.00000928,0.00003145,-0.00001760,-0.000017
 96,0.00002240,0.00008672,-0.00002454,0.00009225,-0.00001659,0.00005043
 ,-0.00000046,0.00000623,0.00001084,0.00000057,0.00000175,0.00000176,-0
 .00001110,-0.00002129,0.00001203,-0.00001011,0.00000739,-0.00000756,-0
 .00001217,0.00000346,0.00001569,0.00000210,-0.00002213,0.00002604,-0.0
 0000228,0.00000269,-0.00000248,0.00000891,-0.00000465,-0.00002664,-0.0
 0068629,0.00301443,-0.00366289,0.00007550,-0.00078574,-0.00094758,-0.0
 0001514,-0.00017652,0.00031938,0.00016022,0.00006268,-0.00023865,0.000
 37190,0.00011815,-0.00032395,-0.05157592,-0.02389218,0.04123548,0.0030
 1727,0.00845579,-0.01614810,0.05459141,-0.00013613,0.00033965,0.000964
 91,0.00005257,0.00012133,0.00006836,0.00011353,0.00002259,-0.00006915,
 -0.00008289,0.00001398,0.00000477,0.00002080,-0.00006981,-0.00009657,-
 0.00008935,-0.00003034,0.00011176,-0.00005788,0.00000444,0.00000117,-0
 .00000747,0.00000412,0.00000977,0.00000102,0.00001408,-0.00000688,-0.0
 0001940,-0.00000903,0.00000844,-0.00006486,0.00000132,-0.00000106,-0.0
 0001458,0.00002402,-0.00000542,0.00001094,-0.00000993,0.00000973,-0.00
 000637,-0.00000575,0.00000248,0.00000322,-0.00001163,-0.00000593,0.003
 30371,0.00622918,-0.00999852,-0.00085492,-0.00178522,-0.00259833,-0.00
 015472,0.00005300,-0.00003766,0.00004182,-0.00015214,0.00020675,0.0001
 1901,0.00071406,-0.00091390,-0.02394471,-0.10653282,0.10960606,-0.0061
 2679,-0.01386213,0.02274534,0.02894581,0.12030646,-0.00047978,-0.00016
 265,0.00119591,0.00024175,0.00011701,0.00018715,0.00004930,0.00005511,
 -0.00013493,-0.00007126,-0.00004208,-0.00000013,-0.00001297,-0.0001157
 6,-0.00009969,0.00005641,-0.00024206,0.00016502,-0.00012100,0.00001182
 ,0.00001845,-0.00000878,-0.00000169,0.00001931,0.00000868,-0.00000748,
 -0.00001283,-0.00003014,-0.00001957,-0.00000778,-0.00005438,-0.0000083
 5,-0.00000204,-0.00000841,0.00003228,-0.00001720,0.00000755,0.00000119
 ,-0.00000734,-0.00000134,-0.00000936,0.00000189,-0.00000399,-0.0000109
 3,0.00001504,0.00472005,0.01177381,-0.01327924,-0.00126087,-0.00325711
 ,-0.00303437,-0.00013208,-0.00006692,0.00037262,0.00004547,-0.00014436
 ,0.00037989,0.00032529,0.00091357,-0.00111714,0.04669251,0.12349554,-0
 .23036321,-0.00088531,-0.00174407,0.00085734,-0.04815937,-0.12805588,0
 .24242400,0.00012951,-0.00019585,-0.00046653,-0.00017785,-0.00011000,0
 .00016615,0.00009526,-0.00000180,0.00005319,0.00005269,0.00000209,-0.0
 0002299,-0.00000325,0.00004845,0.00003819,0.00004539,-0.00004977,0.000
 03031,0.00009590,0.00023649,0.00003085,0.00000950,0.00000856,-0.000003
 92,0.00000493,-0.00000954,-0.00000489,0.00001695,0.00004652,-0.0000171
 6,0.00003192,-0.00000099,0.00000574,0.00000809,-0.00002952,-0.00001258
 ,-0.00000985,0.00002074,0.00002076,-0.00000075,0.00000450,0.00000043,-
 0.00000056,0.00000159,-0.00000749,-0.00452754,0.00036880,0.00185683,0.
 00030142,0.00003906,-0.00030627,-0.00002619,-0.00007937,0.00008535,0.0
 0021405,0.00011362,-0.00031530,0.00016005,0.00004208,-0.00004584,-0.28
 729415,-0.06827698,-0.00610800,-0.01682276,-0.00542846,-0.00095038,-0.
 00577458,-0.00138352,-0.00054004,0.31282013,0.00055311,0.00067975,0.00
 017210,-0.00013802,-0.00030639,0.00023019,0.00040120,-0.00016734,0.000
 09197,0.00011690,0.00012687,-0.00000999,-0.00007770,0.00022614,-0.0000
 1596,-0.00017663,-0.00013898,0.00009992,0.00028710,-0.00007483,-0.0005
 6142,0.00001671,0.00003137,-0.00001987,-0.00000868,0.00002465,-0.00001
 226,0.00005276,0.00009249,0.00000546,-0.00001697,-0.00002017,0.0000199
 6,-0.00003255,-0.00006393,-0.00007467,0.00007230,0.00003732,0.00004179
 ,-0.00002591,0.00002501,0.00001984,0.00001363,0.00001183,-0.00000390,-
 0.01138105,-0.00387396,0.00210407,0.00066698,0.00016922,0.00046474,0.0
 0007700,-0.00002435,0.00010595,0.00011387,0.00030957,-0.00026277,0.000
 06251,-0.00015203,0.00014449,-0.07592595,-0.06160514,0.00087736,0.0269
 0233,0.00806747,0.00099848,-0.01585044,-0.00553129,-0.00184910,0.07508
 833,0.06319664,0.00093017,0.00098961,0.00025984,-0.00017296,-0.0003306
 6,0.00003958,0.00033194,-0.00005041,0.00003716,0.00005848,0.00013283,0
 .00000528,-0.00003422,0.00019426,-0.00002274,-0.00029690,-0.00005594,0
 .00014497,0.00032230,-0.00021428,-0.00027082,0.00001459,0.00002672,-0.
 00001123,-0.00001655,0.00003036,-0.00001787,0.00003798,0.00009005,-0.0
 0001147,-0.00003126,0.00000493,-0.00000180,-0.00003450,-0.00000672,0.0
 0002361,0.00002839,-0.00001443,0.00005280,-0.00001773,0.00001348,0.000
 00067,0.00002568,-0.00000616,-0.00005530,-0.01792193,-0.00328903,0.000
 83694,0.00100826,0.00077221,0.00101941,-0.00001667,-0.00012396,0.00004
 850,0.00031616,0.00026270,-0.00061753,0.00023874,-0.00020638,0.0003797
 6,-0.01902541,-0.00248804,-0.03796052,0.00114719,0.00003784,-0.0016662
 3,0.02715560,0.00690494,0.00095613,0.00718526,0.00026592,0.04037991,-0
 .00662125,-0.00252945,-0.00000499,-0.00019078,0.00224114,-0.00000147,-
 0.00005040,-0.00001791,0.00000022,-0.00038531,0.00000005,-0.00000025,0
 .00015115,-0.00026643,0.00000044,-0.00073288,-0.00015008,0.00000013,0.
 00006457,-0.00006266,0.00000004,-0.00003889,0.00004543,-0.00000008,-0.
 00001796,0.00014378,-0.00000006,-0.00022057,-0.00006331,-0.00000047,-0
 .00034310,0.00009962,-0.00000007,-0.00005845,0.00005477,-0.00000002,0.
 00004017,-0.00002416,0.00002755,-0.00003085,-0.00001293,-0.00000003,0.
 00004022,-0.00002415,-0.00002753,-0.13678814,-0.02683570,-0.00005399,-
 0.00178515,-0.00063490,-0.00052865,0.00005330,-0.00027727,-0.00002671,
 0.00053528,-0.00007164,0.00025597,-0.00000943,0.00030386,0.00002899,-0
 .00176504,-0.00062903,0.00052416,0.00005221,-0.00027790,0.00002570,-0.
 00000968,0.00030265,-0.00003021,0.00053683,-0.00006874,-0.00025040,0.3
 8462081,0.01414260,0.00562176,0.00000770,0.00112255,-0.00424829,0.0000
 0216,0.00068281,0.00003017,-0.00000007,0.00054710,0.00000533,0.0000002
 9,0.00015928,0.00059871,-0.00000015,-0.00024158,0.00038027,-0.00000023
 ,0.00026326,0.00011539,0.00000022,0.00008050,-0.00003852,0.00000006,-0
 .00002285,-0.00009718,0.00000003,0.00070209,0.00058411,-0.00000001,0.0
 0066072,-0.00022879,0.00000024,0.00005278,-0.00018112,0.00000007,-0.00
 002716,0.00006053,0.00000333,0.00002048,0.00003960,0.,-0.00002716,0.00
 006056,-0.00000334,-0.02591029,-0.04752982,-0.00001591,-0.01064094,-0.
 00009643,0.00021392,0.00043286,0.00061396,-0.00121307,-0.00051196,-0.0
 0132575,0.00254907,0.00025850,0.00020246,0.00011396,-0.01064682,-0.000
 09544,-0.00022531,0.00043199,0.00061399,0.00121350,0.00025924,0.000203
 21,-0.00011235,-0.00050937,-0.00132847,-0.00255078,-0.02500337,0.49979
 452,-0.00000820,-0.00000222,0.00261563,-0.00000059,0.00000271,0.000653
 32,-0.00000005,-0.00000023,-0.00022648,-0.00000037,-0.00000003,0.00009
 704,0.00000035,-0.00000042,-0.00032787,-0.00000030,-0.00000071,-0.0005
 2944,-0.00000008,-0.00000010,-0.00012478,-0.00000005,0.00000004,0.0000
 4050,0.,0.00000009,-0.00002058,-0.00000057,0.00000012,0.00048478,-0.00
 000038,0.00000010,-0.00002618,0.,0.00000007,-0.00008252,0.00002276,0.0
 0000989,0.00001858,-0.00000003,-0.00000002,0.00001484,-0.00002272,-0.0
 0000995,0.00001851,-0.00005464,-0.00001609,-0.04140509,0.01591831,0.00
 426251,0.00245567,-0.00055356,-0.00033945,0.00068138,0.00096134,0.0027
 8154,-0.00384191,-0.00051809,-0.00103282,0.00119557,-0.01591862,-0.004
 25883,0.00243792,0.00055250,0.00033795,0.00068064,0.00051675,0.0010333
 4,0.00119688,-0.00095605,-0.00278310,-0.00384096,-0.00007305,-0.000011
 10,0.50883155,-0.00418006,-0.00231786,-0.00000226,-0.00031145,0.001588
 08,-0.00000083,-0.00023933,0.00001230,0.00000004,-0.00018944,-0.000047
 81,-0.00000007,0.00015031,-0.00005724,0.00000002,-0.00009104,-0.000670
 51,0.00000019,-0.00004127,-0.00003356,-0.00000011,-0.00000462,0.000019
 34,0.,-0.00000969,0.00005348,-0.00000003,0.00013196,-0.00013364,0.0000
 0033,-0.00022031,0.00008721,-0.00000006,-0.00002033,0.00005176,-0.0000
 0004,0.00001350,-0.00001839,0.00000413,-0.00001064,-0.00001028,0.,0.00
 001350,-0.00001840,-0.00000411,-0.00983009,0.02009764,-0.00001021,0.00
 142621,-0.00045840,-0.00015974,-0.00024980,-0.00073671,0.00066443,0.00
 026164,-0.00011115,-0.00039130,0.00003458,0.00002906,-0.00016371,0.001
 42575,-0.00045930,0.00016168,-0.00024894,-0.00073619,-0.00066416,0.000
 03439,0.00002902,0.00016361,0.00026085,-0.00011083,0.00039165,-0.12761
 756,0.13656218,-0.00008719,0.13143996,-0.00174785,-0.00040185,-0.00000
 078,-0.00016299,0.00051555,-0.00000017,-0.00019653,-0.00003201,-0.0000
 0004,0.00005456,-0.00001066,0.00000002,0.00018058,0.00017037,0.0000000
 8,-0.00049642,-0.00038857,0.00000001,0.00001516,0.00002284,-0.00000001
 ,0.00003162,0.00000296,0.,-0.00001837,0.00001782,-0.00000001,0.0002894
 4,0.00022210,-0.00000012,0.00001981,0.00003643,-0.00000003,0.00000839,
 -0.00001070,0.00000002,-0.00000338,0.00000287,-0.00000065,0.00000328,0
 .00000305,0.,-0.00000338,0.00000287,0.00000065,-0.00367949,0.00384885,
 -0.00000356,0.00070752,0.00010636,-0.00014103,-0.00007574,0.00001435,0
 .00008810,0.00007656,0.00012862,-0.00020761,-0.00001430,-0.00003183,0.
 00001750,0.00070777,0.00010621,0.00014182,-0.00007582,0.00001405,-0.00
 008833,-0.00001428,-0.00003184,-0.00001754,0.00007638,0.00012869,0.000
 20769,0.12122646,-0.21628287,0.00011846,-0.13647296,0.24069028,-0.0000
 0224,-0.00000116,0.00048367,-0.00000031,0.00000093,0.00017073,-0.00000
 005,-0.00000008,-0.00005030,-0.00000007,0.00000001,-0.00002574,-0.0000
 0013,-0.00000005,0.00008903,0.00000012,-0.00000018,0.00015289,-0.00000
 005,-0.00000002,0.00004760,-0.00000002,0.,-0.00001052,0.,0.00000003,0.
 00001594,0.00000016,-0.00000040,-0.00034697,-0.00000014,0.00000003,-0.
 00003978,-0.00000003,0.00000004,0.00001715,-0.00000049,0.00000140,-0.0
 0000199,0.,0.,-0.00000047,0.00000051,-0.00000142,-0.00000199,-0.000004
 25,0.00001125,-0.00156277,-0.00015630,-0.00005670,-0.00019771,0.000176
 41,0.00022946,-0.00001227,-0.00011518,0.00005964,0.00001903,0.00008203
 ,-0.00004090,0.00000506,0.00015818,0.00005570,-0.00019739,-0.00017667,
 -0.00023022,-0.00001316,-0.00008196,0.00004096,0.00000513,0.00011539,-
 0.00005981,0.00001959,-0.00008368,0.00012835,-0.04222848,0.00008865,-0
 .00013427,0.04351968,0.00062147,0.00037120,0.00098220,-0.00001997,-0.0
 0019055,0.00023907,-0.00004504,-0.00009904,-0.00010688,0.00019309,0.00
 005834,-0.00000854,0.00004352,0.00028959,-0.00001236,-0.00027303,-0.00
 002336,0.00010568,0.00008974,0.00002230,-0.00001396,0.00003650,-0.0000
 0084,0.00000488,-0.00001597,0.00000043,-0.00000551,0.00000622,0.000588
 72,-0.00036470,0.00012737,-0.00000005,-0.00002084,0.00001100,-0.000044
 74,-0.00001519,0.00000109,0.00001734,0.00000985,0.00000422,0.00001126,
 0.00000428,-0.00000938,0.00000905,-0.00000087,-0.00242515,-0.01097652,
 -0.01862830,0.00119231,0.00086960,0.00062008,-0.00000010,0.00012304,-0
 .00006308,0.00010140,0.00044442,-0.00012320,-0.00015595,-0.00033586,0.
 00075673,-0.00529813,-0.00091031,0.00086453,0.00016758,0.00001013,0.00
 029658,0.00013356,0.00033529,0.00024642,-0.00024731,-0.00105568,-0.001
 49683,-0.05464095,-0.04136377,-0.06441203,0.00402539,0.00978564,0.0162
 6184,0.05576735,0.00004129,-0.00001777,0.00022591,-0.00014851,0.000044
 29,0.00002990,0.00004002,-0.00008960,-0.00001192,0.00003499,0.00005613
 ,-0.00000279,-0.00011294,0.00002500,0.00002660,0.00029926,0.00003730,0
 .00007101,-0.00000044,-0.00000432,-0.00001842,-0.00001154,0.00000383,-
 0.00000925,0.00000601,0.00000002,0.00001045,0.00027115,-0.00032409,0.0
 0016224,-0.00002877,0.00000575,0.00000069,-0.00000713,0.00000301,-0.00
 000743,0.00000662,0.00000032,0.00000645,-0.00000324,-0.00000039,0.0000
 0037,0.00000238,-0.00000295,-0.00000171,0.00054153,-0.00409478,-0.0039
 6818,0.00030672,0.00006395,0.00031203,-0.00006412,-0.00001056,-0.00009
 150,0.00007013,0.00015425,0.00011078,-0.00024108,-0.00003447,0.0003866
 3,-0.00135783,0.00011531,0.00034599,0.00016149,0.00027918,0.00027453,-
 0.00002666,0.00001508,-0.00014596,-0.00009243,0.00000556,-0.00048607,-
 0.03367455,-0.11879404,-0.11599197,-0.00805479,-0.01442703,-0.02154558
 ,0.03680776,0.12715238,-0.00035953,-0.00011947,0.00007842,0.00000388,0
 .00019475,0.00000113,-0.00007457,-0.00000907,0.00000343,0.00004672,-0.
 00001512,-0.00002753,0.00021598,0.00016043,0.00006872,-0.00051060,-0.0
 0038421,0.00023358,0.00004689,0.00001189,-0.00000115,0.00003258,0.0000
 0233,-0.00001050,-0.00002296,0.00002006,0.00000544,0.00014496,0.000286
 17,-0.00022738,0.00004809,0.00001553,-0.00000327,0.00000450,-0.0000234
 7,0.00000258,-0.00000039,0.00000819,0.00000471,0.00000014,0.00000522,-
 0.00000040,-0.00000032,0.00000547,-0.00000443,0.00128985,0.00099626,-0
 .00076391,-0.00050778,-0.00005828,0.00013904,0.00004549,0.00005804,-0.
 00002472,-0.00007371,-0.00009090,0.00011925,0.00005038,0.00000359,0.00
 005246,0.00010917,0.00013057,0.00049320,0.00003436,-0.00002612,-0.0000
 5270,0.00015859,0.00007429,0.00022954,0.00009533,-0.00008082,0.0001528
 1,-0.05189821,-0.11290718,-0.21440105,0.00052865,0.00060110,0.00008792
 ,0.05772434,0.12573322,0.23436170,0.00062158,0.00037054,-0.00098195,-0
 .00001964,-0.00019050,-0.00023886,-0.00004528,-0.00009885,0.00010692,0
 .00019309,0.00005828,0.00000873,0.00004398,0.00028984,0.00001216,-0.00
 027389,-0.00002408,-0.00010631,0.00008985,0.00002232,0.00001403,0.0000
 3656,-0.00000084,-0.00000483,-0.00001601,0.00000047,0.00000549,0.00000
 604,0.00059002,0.00036454,0.00012745,0.,0.00002086,0.00001099,-0.00004
 477,0.00001525,-0.00000938,0.00000905,0.00000087,0.00000423,0.00001127
 ,-0.00000428,0.00000110,0.00001735,-0.00000985,-0.00244726,-0.01096625
 ,0.01863114,-0.00529684,-0.00091129,-0.00087147,0.00016812,0.00001030,
 -0.00029659,-0.00024886,-0.00105502,0.00149683,0.00013389,0.00033522,-
 0.00024639,0.00119289,0.00086918,-0.00061869,0.00000002,0.00012335,0.0
 0006313,-0.00015490,-0.00033582,-0.00075713,0.00010132,0.00044442,0.00
 012299,-0.05478815,-0.04147367,0.06463456,0.00404653,0.00977834,-0.016
 26172,0.00060917,0.00523467,-0.00713181,0.05591340,0.00004145,-0.00001
 786,-0.00022556,-0.00014847,0.00004414,-0.00003001,0.00004005,-0.00008
 956,0.00001202,0.00003494,0.00005611,0.00000280,-0.00011296,0.00002493
 ,-0.00002679,0.00029955,0.00003729,-0.00007067,-0.00000046,-0.00000432
 ,0.00001842,-0.00001156,0.00000384,0.00000925,0.00000603,0.,-0.0000104
 4,0.00027164,-0.00032493,-0.00016190,-0.00002879,0.00000574,-0.0000007
 3,-0.00000714,0.00000302,0.00000743,0.00000238,-0.00000296,0.00000171,
 -0.00000324,-0.00000040,-0.00000037,0.00000663,0.00000032,-0.00000644,
 0.00053542,-0.00409396,0.00397051,-0.00135761,0.00011452,-0.00034730,0
 .00016169,0.00027932,-0.00027461,-0.00009322,0.00000588,0.00048610,-0.
 00002705,0.00001507,0.00014611,0.00030764,0.00006374,-0.00031125,-0.00
 006423,-0.00001038,0.00009132,-0.00024054,-0.00003457,-0.00038712,0.00
 007040,0.00015430,-0.00011068,-0.03379358,-0.11867785,0.11590023,-0.00
 808206,-0.01441692,0.02154298,0.00525663,0.00983865,-0.01459247,0.0369
 3647,0.12702683,0.00036032,0.00011993,0.00007758,-0.00000393,-0.000195
 03,0.00000099,0.00007452,0.00000893,0.00000360,-0.00004645,0.00001521,
 -0.00002758,-0.00021612,-0.00016007,0.00006864,0.00051014,0.00038460,0
 .00023342,-0.00004678,-0.00001186,-0.00000116,-0.00003253,-0.00000234,
 -0.00001053,0.00002294,-0.00002006,0.00000548,-0.00014505,-0.00028561,
 -0.00022648,-0.00004792,-0.00001554,-0.00000325,-0.00000449,0.00002341
 ,0.00000257,0.00000031,-0.00000545,-0.00000443,-0.00000014,-0.00000520
 ,-0.00000040,0.00000039,-0.00000817,0.00000470,-0.00129280,-0.00100844
 ,-0.00074367,-0.00011569,-0.00013154,0.00049238,-0.00003429,0.00002587
 ,-0.00005297,-0.00009585,0.00007944,0.00015426,-0.00015869,-0.00007382
 ,0.00022889,0.00050898,0.00005911,0.00013928,-0.00004549,-0.00005783,-
 0.00002474,-0.00005042,-0.00000376,0.00005161,0.00007366,0.00009142,0.
 00011951,0.05211668,0.11280663,-0.21436746,-0.00051957,-0.00058130,0.0
 0005611,0.00715584,0.01458399,-0.02051690,-0.05796759,-0.12563251,0.23
 434056\\-0.00000209,0.00000363,0.00000049,-0.00000082,-0.00000153,-0.0
 0000020,-0.00000115,-0.00000344,0.00000020,-0.00000645,-0.00000110,0.0
 0000019,-0.00000206,-0.00000189,0.00000015,-0.00000167,0.00000239,0.00
 000016,-0.00000132,-0.00000289,0.00000004,-0.00000344,-0.00000194,0.00
 000036,-0.00000387,0.00000048,-0.00000013,-0.00000156,0.00000147,-0.00
 000006,-0.00000158,-0.00000165,-0.00000074,0.00000386,-0.00000479,0.00
 000029,0.00000024,-0.00000429,0.00000006,0.00000047,-0.00000368,-0.000
 00026,0.00000161,-0.00000400,-0.00000009,-0.00000173,-0.00000199,0.000
 00075,0.00000174,0.00000233,-0.00000130,0.00000130,0.00000339,-0.00000
 083,0.00000556,0.00000080,0.00000030,0.00000112,-0.00000054,-0.0000023
 0,-0.00000127,0.00000484,0.00000086,0.00000280,0.00000364,0.00000187,0
 .00000108,-0.00000129,0.00000235,0.00000646,-0.00000170,-0.00000155,0.
 00000208,0.00000153,-0.00000126,0.00000088,0.00000744,0.00000022,-0.00
 000005,0.00000225,-0.00000262,-0.00000013,0.00000253,0.00000306\\\@


 IN SO FAR AS QUANTUM MECHANICS IS CORRECT, CHEMICAL 
 QUESTIONS ARE PROBLEMS IN APPLIED MATHEMATICS.

                    -- EYRING, WALTER, & KIMBALL, 1944
 Job cpu time:       0 days  2 hours  7 minutes 10.3 seconds.
 File lengths (MBytes):  RWF=    455 Int=      0 D2E=      0 Chk=     12 Scr=      1
 Normal termination of Gaussian 09 at Wed Dec 21 11:43:37 2022.
