 Entering Gaussian System, Link 0=g09
 Initial command:
 /cm/shared/apps/gaussian/g09revD.01/g09/l1.exe "//home/sweav003/CHB/validation/G09-substitutedquinolines8_Marder.com.o9822819.tmp/Gau-92953.inp" -scrdir="//home/sweav003/CHB/validation/G09-substitutedquinolines8_Marder.com.o9822819.tmp/"
 Entering Link 1 = /cm/shared/apps/gaussian/g09revD.01/g09/l1.exe PID=     92954.
  
 Copyright (c) 1988,1990,1992,1993,1995,1998,2003,2009,2013,
            Gaussian, Inc.  All Rights Reserved.
  
 This is part of the Gaussian(R) 09 program.  It is based on
 the Gaussian(R) 03 system (copyright 2003, Gaussian, Inc.),
 the Gaussian(R) 98 system (copyright 1998, Gaussian, Inc.),
 the Gaussian(R) 94 system (copyright 1995, Gaussian, Inc.),
 the Gaussian 92(TM) system (copyright 1992, Gaussian, Inc.),
 the Gaussian 90(TM) system (copyright 1990, Gaussian, Inc.),
 the Gaussian 88(TM) system (copyright 1988, Gaussian, Inc.),
 the Gaussian 86(TM) system (copyright 1986, Carnegie Mellon
 University), and the Gaussian 82(TM) system (copyright 1983,
 Carnegie Mellon University). Gaussian is a federally registered
 trademark of Gaussian, Inc.
  
 This software contains proprietary and confidential information,
 including trade secrets, belonging to Gaussian, Inc.
  
 This software is provided under written license and may be
 used, copied, transmitted, or stored only in accord with that
 written license.
  
 The following legend is applicable only to US Government
 contracts under FAR:
  
                    RESTRICTED RIGHTS LEGEND
  
 Use, reproduction and disclosure by the US Government is
 subject to restrictions as set forth in subparagraphs (a)
 and (c) of the Commercial Computer Software - Restricted
 Rights clause in FAR 52.227-19.
  
 Gaussian, Inc.
 340 Quinnipiac St., Bldg. 40, Wallingford CT 06492
  
  
 ---------------------------------------------------------------
 Warning -- This program may not be used in any manner that
 competes with the business of Gaussian, Inc. or will provide
 assistance to any competitor of Gaussian, Inc.  The licensee
 of this program is prohibited from giving any competitor of
 Gaussian, Inc. access to this program.  By using this program,
 the user acknowledges that Gaussian, Inc. is engaged in the
 business of creating and licensing software in the field of
 computational chemistry and represents and warrants to the
 licensee that it is not a competitor of Gaussian, Inc. and that
 it will not use this program in any manner prohibited above.
 ---------------------------------------------------------------
  

 Cite this work as:
 Gaussian 09, Revision D.01,
 M. J. Frisch, G. W. Trucks, H. B. Schlegel, G. E. Scuseria, 
 M. A. Robb, J. R. Cheeseman, G. Scalmani, V. Barone, B. Mennucci, 
 G. A. Petersson, H. Nakatsuji, M. Caricato, X. Li, H. P. Hratchian, 
 A. F. Izmaylov, J. Bloino, G. Zheng, J. L. Sonnenberg, M. Hada, 
 M. Ehara, K. Toyota, R. Fukuda, J. Hasegawa, M. Ishida, T. Nakajima, 
 Y. Honda, O. Kitao, H. Nakai, T. Vreven, J. A. Montgomery, Jr., 
 J. E. Peralta, F. Ogliaro, M. Bearpark, J. J. Heyd, E. Brothers, 
 K. N. Kudin, V. N. Staroverov, T. Keith, R. Kobayashi, J. Normand, 
 K. Raghavachari, A. Rendell, J. C. Burant, S. S. Iyengar, J. Tomasi, 
 M. Cossi, N. Rega, J. M. Millam, M. Klene, J. E. Knox, J. B. Cross, 
 V. Bakken, C. Adamo, J. Jaramillo, R. Gomperts, R. E. Stratmann, 
 O. Yazyev, A. J. Austin, R. Cammi, C. Pomelli, J. W. Ochterski, 
 R. L. Martin, K. Morokuma, V. G. Zakrzewski, G. A. Voth, 
 P. Salvador, J. J. Dannenberg, S. Dapprich, A. D. Daniels, 
 O. Farkas, J. B. Foresman, J. V. Ortiz, J. Cioslowski, 
 and D. J. Fox, Gaussian, Inc., Wallingford CT, 2013.
 
 ******************************************
 Gaussian 09:  ES64L-G09RevD.01 24-Apr-2013
                 9-Jan-2023 
 ******************************************
 %nprocshared=20
 Will use up to   20 processors via shared memory.
 %mem=4GB
 %chk=substitutedquinolines8_Marder.chk
 -------------------------------------------------------
 # opt freq=noraman b3lyp/6-311+g(d,p) geom=connectivity
 -------------------------------------------------------
 1/14=-1,18=20,19=15,26=3,38=1,57=2/1,3;
 2/9=110,12=2,17=6,18=5,40=1/2;
 3/5=4,6=6,7=111,11=2,16=1,25=1,30=1,71=1,74=-5/1,2,3;
 4//1;
 5/5=2,38=5/2;
 6/7=2,8=2,9=2,10=2,28=1/1;
 7//1,2,3,16;
 1/14=-1,18=20,19=15,26=3/3(2);
 2/9=110/2;
 99//99;
 2/9=110/2;
 3/5=4,6=6,7=111,11=2,16=1,25=1,30=1,71=1,74=-5/1,2,3;
 4/5=5,16=3,69=1/1;
 5/5=2,38=5/2;
 7//1,2,3,16;
 1/14=-1,18=20,19=15,26=3/3(-5);
 2/9=110/2;
 6/7=2,8=2,9=2,10=2,19=2,28=1/1;
 99/9=1/99;
 -------------------
 Title Card Required
 -------------------
 Symbolic Z-matrix:
 Charge =  0 Multiplicity = 1
 C                    -0.27169  -1.84979  -0.19026 
 C                     1.1223   -1.99048  -0.22059 
 C                     1.94385  -0.89073   0.06138 
 C                     1.37141   0.34973   0.37366 
 C                    -0.02257   0.49042   0.40397 
 C                    -0.84413  -0.60934   0.12202 
 H                    -0.89896  -2.68948  -0.40556 
 H                     1.55936  -2.93759  -0.45902 
 H                     3.00819  -0.99815   0.03824 
 Br                   -0.80277   2.18108   0.82956 
 O                    -2.26657  -0.46579   0.15299 
 O                     2.20973   1.47193   0.66137 
 C                    -2.86304  -1.7093    0.53092 
 O                    -2.24267  -2.50041   1.28779 
 C                     3.43763   1.34723  -0.06084 
 O                     3.8965    0.20671  -0.32956 
 C                    -4.26459  -2.08031   0.0117 
 C                     4.19843   2.60869  -0.50975 
 C                     3.93202   3.75111   0.48799 
 H                     4.26731   3.4599    1.46148 
 H                     4.46062   4.62758   0.17608 
 H                     2.88301   3.95962   0.51964 
 C                     3.71585   3.02782  -1.91083 
 H                     4.24446   3.90429  -2.22274 
 H                     3.90095   2.23406  -2.60407 
 H                     2.66684   3.23634  -1.87917 
 C                     5.70822   2.30859  -0.55531 
 H                     6.04351   2.01739   0.41817 
 H                     5.89333   1.51482  -1.24854 
 H                     6.23682   3.18506  -0.86723 
 C                    -5.33006  -1.56497   0.99698 
 H                    -5.25158  -0.50133   1.08298 
 H                    -6.30386  -1.82276   0.63622 
 H                    -5.17502  -2.01278   1.95632 
 C                    -4.48774  -1.43582  -1.36904 
 H                    -5.46155  -1.69359  -1.72979 
 H                    -4.40925  -0.37217  -1.28303 
 H                    -3.74745  -1.79389  -2.05363 
 C                    -4.37754  -3.61117  -0.11206 
 H                    -3.63724  -3.96924  -0.79664 
 H                    -4.2225   -4.05895   0.84729 
 H                    -5.35134  -3.86895  -0.47281 
 

 GradGradGradGradGradGradGradGradGradGradGradGradGradGradGradGradGradGrad
 Berny optimization.
 Initialization pass.
                           ----------------------------
                           !    Initial Parameters    !
                           ! (Angstroms and Degrees)  !
 --------------------------                            --------------------------
 ! Name  Definition              Value          Derivative Info.                !
 --------------------------------------------------------------------------------
 ! R1    R(1,2)                  1.4014         estimate D2E/DX2                !
 ! R2    R(1,6)                  1.4014         estimate D2E/DX2                !
 ! R3    R(1,7)                  1.07           estimate D2E/DX2                !
 ! R4    R(2,3)                  1.4014         estimate D2E/DX2                !
 ! R5    R(2,8)                  1.07           estimate D2E/DX2                !
 ! R6    R(3,4)                  1.4014         estimate D2E/DX2                !
 ! R7    R(3,9)                  1.07           estimate D2E/DX2                !
 ! R8    R(4,5)                  1.4014         estimate D2E/DX2                !
 ! R9    R(4,12)                 1.43           estimate D2E/DX2                !
 ! R10   R(5,6)                  1.4014         estimate D2E/DX2                !
 ! R11   R(5,10)                 1.91           estimate D2E/DX2                !
 ! R12   R(6,11)                 1.43           estimate D2E/DX2                !
 ! R13   R(11,13)                1.43           estimate D2E/DX2                !
 ! R14   R(12,15)                1.43           estimate D2E/DX2                !
 ! R15   R(13,14)                1.2584         estimate D2E/DX2                !
 ! R16   R(13,17)                1.54           estimate D2E/DX2                !
 ! R17   R(15,16)                1.2584         estimate D2E/DX2                !
 ! R18   R(15,18)                1.54           estimate D2E/DX2                !
 ! R19   R(17,31)                1.54           estimate D2E/DX2                !
 ! R20   R(17,35)                1.54           estimate D2E/DX2                !
 ! R21   R(17,39)                1.54           estimate D2E/DX2                !
 ! R22   R(18,19)                1.54           estimate D2E/DX2                !
 ! R23   R(18,23)                1.54           estimate D2E/DX2                !
 ! R24   R(18,27)                1.54           estimate D2E/DX2                !
 ! R25   R(19,20)                1.07           estimate D2E/DX2                !
 ! R26   R(19,21)                1.07           estimate D2E/DX2                !
 ! R27   R(19,22)                1.07           estimate D2E/DX2                !
 ! R28   R(23,24)                1.07           estimate D2E/DX2                !
 ! R29   R(23,25)                1.07           estimate D2E/DX2                !
 ! R30   R(23,26)                1.07           estimate D2E/DX2                !
 ! R31   R(27,28)                1.07           estimate D2E/DX2                !
 ! R32   R(27,29)                1.07           estimate D2E/DX2                !
 ! R33   R(27,30)                1.07           estimate D2E/DX2                !
 ! R34   R(31,32)                1.07           estimate D2E/DX2                !
 ! R35   R(31,33)                1.07           estimate D2E/DX2                !
 ! R36   R(31,34)                1.07           estimate D2E/DX2                !
 ! R37   R(35,36)                1.07           estimate D2E/DX2                !
 ! R38   R(35,37)                1.07           estimate D2E/DX2                !
 ! R39   R(35,38)                1.07           estimate D2E/DX2                !
 ! R40   R(39,40)                1.07           estimate D2E/DX2                !
 ! R41   R(39,41)                1.07           estimate D2E/DX2                !
 ! R42   R(39,42)                1.07           estimate D2E/DX2                !
 ! A1    A(2,1,6)              119.9999         estimate D2E/DX2                !
 ! A2    A(2,1,7)              120.0001         estimate D2E/DX2                !
 ! A3    A(6,1,7)              120.0            estimate D2E/DX2                !
 ! A4    A(1,2,3)              120.0002         estimate D2E/DX2                !
 ! A5    A(1,2,8)              119.9997         estimate D2E/DX2                !
 ! A6    A(3,2,8)              120.0001         estimate D2E/DX2                !
 ! A7    A(2,3,4)              119.9999         estimate D2E/DX2                !
 ! A8    A(2,3,9)              120.0            estimate D2E/DX2                !
 ! A9    A(4,3,9)              120.0001         estimate D2E/DX2                !
 ! A10   A(3,4,5)              120.0            estimate D2E/DX2                !
 ! A11   A(3,4,12)             120.0002         estimate D2E/DX2                !
 ! A12   A(5,4,12)             119.9998         estimate D2E/DX2                !
 ! A13   A(4,5,6)              119.9999         estimate D2E/DX2                !
 ! A14   A(4,5,10)             120.0            estimate D2E/DX2                !
 ! A15   A(6,5,10)             120.0001         estimate D2E/DX2                !
 ! A16   A(1,6,5)              120.0            estimate D2E/DX2                !
 ! A17   A(1,6,11)             119.9999         estimate D2E/DX2                !
 ! A18   A(5,6,11)             120.0001         estimate D2E/DX2                !
 ! A19   A(6,11,13)            109.4713         estimate D2E/DX2                !
 ! A20   A(4,12,15)            109.4715         estimate D2E/DX2                !
 ! A21   A(11,13,14)           120.0002         estimate D2E/DX2                !
 ! A22   A(11,13,17)           120.0004         estimate D2E/DX2                !
 ! A23   A(14,13,17)           119.9994         estimate D2E/DX2                !
 ! A24   A(12,15,16)           119.9996         estimate D2E/DX2                !
 ! A25   A(12,15,18)           119.9998         estimate D2E/DX2                !
 ! A26   A(16,15,18)           120.0006         estimate D2E/DX2                !
 ! A27   A(13,17,31)           109.4712         estimate D2E/DX2                !
 ! A28   A(13,17,35)           109.4714         estimate D2E/DX2                !
 ! A29   A(13,17,39)           109.4712         estimate D2E/DX2                !
 ! A30   A(31,17,35)           109.4712         estimate D2E/DX2                !
 ! A31   A(31,17,39)           109.4706         estimate D2E/DX2                !
 ! A32   A(35,17,39)           109.4718         estimate D2E/DX2                !
 ! A33   A(15,18,19)           109.4712         estimate D2E/DX2                !
 ! A34   A(15,18,23)           109.4714         estimate D2E/DX2                !
 ! A35   A(15,18,27)           109.4713         estimate D2E/DX2                !
 ! A36   A(19,18,23)           109.471          estimate D2E/DX2                !
 ! A37   A(19,18,27)           109.4711         estimate D2E/DX2                !
 ! A38   A(23,18,27)           109.4713         estimate D2E/DX2                !
 ! A39   A(18,19,20)           109.4713         estimate D2E/DX2                !
 ! A40   A(18,19,21)           109.4712         estimate D2E/DX2                !
 ! A41   A(18,19,22)           109.4711         estimate D2E/DX2                !
 ! A42   A(20,19,21)           109.4713         estimate D2E/DX2                !
 ! A43   A(20,19,22)           109.4712         estimate D2E/DX2                !
 ! A44   A(21,19,22)           109.4713         estimate D2E/DX2                !
 ! A45   A(18,23,24)           109.4713         estimate D2E/DX2                !
 ! A46   A(18,23,25)           109.4711         estimate D2E/DX2                !
 ! A47   A(18,23,26)           109.4713         estimate D2E/DX2                !
 ! A48   A(24,23,25)           109.4714         estimate D2E/DX2                !
 ! A49   A(24,23,26)           109.471          estimate D2E/DX2                !
 ! A50   A(25,23,26)           109.4713         estimate D2E/DX2                !
 ! A51   A(18,27,28)           109.471          estimate D2E/DX2                !
 ! A52   A(18,27,29)           109.4715         estimate D2E/DX2                !
 ! A53   A(18,27,30)           109.4711         estimate D2E/DX2                !
 ! A54   A(28,27,29)           109.4711         estimate D2E/DX2                !
 ! A55   A(28,27,30)           109.4713         estimate D2E/DX2                !
 ! A56   A(29,27,30)           109.4714         estimate D2E/DX2                !
 ! A57   A(17,31,32)           109.4712         estimate D2E/DX2                !
 ! A58   A(17,31,33)           109.4709         estimate D2E/DX2                !
 ! A59   A(17,31,34)           109.4713         estimate D2E/DX2                !
 ! A60   A(32,31,33)           109.4715         estimate D2E/DX2                !
 ! A61   A(32,31,34)           109.4712         estimate D2E/DX2                !
 ! A62   A(33,31,34)           109.4712         estimate D2E/DX2                !
 ! A63   A(17,35,36)           109.4714         estimate D2E/DX2                !
 ! A64   A(17,35,37)           109.4709         estimate D2E/DX2                !
 ! A65   A(17,35,38)           109.4714         estimate D2E/DX2                !
 ! A66   A(36,35,37)           109.4711         estimate D2E/DX2                !
 ! A67   A(36,35,38)           109.4711         estimate D2E/DX2                !
 ! A68   A(37,35,38)           109.4714         estimate D2E/DX2                !
 ! A69   A(17,39,40)           109.4713         estimate D2E/DX2                !
 ! A70   A(17,39,41)           109.4709         estimate D2E/DX2                !
 ! A71   A(17,39,42)           109.4713         estimate D2E/DX2                !
 ! A72   A(40,39,41)           109.4715         estimate D2E/DX2                !
 ! A73   A(40,39,42)           109.4712         estimate D2E/DX2                !
 ! A74   A(41,39,42)           109.4711         estimate D2E/DX2                !
 ! D1    D(6,1,2,3)              0.0002         estimate D2E/DX2                !
 ! D2    D(6,1,2,8)            179.9999         estimate D2E/DX2                !
 ! D3    D(7,1,2,3)            179.9996         estimate D2E/DX2                !
 ! D4    D(7,1,2,8)             -0.0007         estimate D2E/DX2                !
 ! D5    D(2,1,6,5)              0.001          estimate D2E/DX2                !
 ! D6    D(2,1,6,11)          -179.9988         estimate D2E/DX2                !
 ! D7    D(7,1,6,5)           -179.9984         estimate D2E/DX2                !
 ! D8    D(7,1,6,11)             0.0018         estimate D2E/DX2                !
 ! D9    D(1,2,3,4)             -0.0009         estimate D2E/DX2                !
 ! D10   D(1,2,3,9)            179.9994         estimate D2E/DX2                !
 ! D11   D(8,2,3,4)            179.9995         estimate D2E/DX2                !
 ! D12   D(8,2,3,9)             -0.0002         estimate D2E/DX2                !
 ! D13   D(2,3,4,5)              0.0004         estimate D2E/DX2                !
 ! D14   D(2,3,4,12)          -179.9997         estimate D2E/DX2                !
 ! D15   D(9,3,4,5)           -180.0            estimate D2E/DX2                !
 ! D16   D(9,3,4,12)            -0.0001         estimate D2E/DX2                !
 ! D17   D(3,4,5,6)              0.0008         estimate D2E/DX2                !
 ! D18   D(3,4,5,10)          -179.9993         estimate D2E/DX2                !
 ! D19   D(12,4,5,6)          -179.9991         estimate D2E/DX2                !
 ! D20   D(12,4,5,10)            0.0008         estimate D2E/DX2                !
 ! D21   D(3,4,12,15)           29.9944         estimate D2E/DX2                !
 ! D22   D(5,4,12,15)         -150.0057         estimate D2E/DX2                !
 ! D23   D(4,5,6,1)             -0.0015         estimate D2E/DX2                !
 ! D24   D(4,5,6,11)           179.9983         estimate D2E/DX2                !
 ! D25   D(10,5,6,1)           179.9986         estimate D2E/DX2                !
 ! D26   D(10,5,6,11)           -0.0016         estimate D2E/DX2                !
 ! D27   D(1,6,11,13)           30.0004         estimate D2E/DX2                !
 ! D28   D(5,6,11,13)         -149.9994         estimate D2E/DX2                !
 ! D29   D(6,11,13,14)          29.9964         estimate D2E/DX2                !
 ! D30   D(6,11,13,17)        -150.0041         estimate D2E/DX2                !
 ! D31   D(4,12,15,16)         -29.9989         estimate D2E/DX2                !
 ! D32   D(4,12,15,18)         150.0008         estimate D2E/DX2                !
 ! D33   D(11,13,17,31)        -90.0007         estimate D2E/DX2                !
 ! D34   D(11,13,17,35)         29.9993         estimate D2E/DX2                !
 ! D35   D(11,13,17,39)        150.0001         estimate D2E/DX2                !
 ! D36   D(14,13,17,31)         89.9988         estimate D2E/DX2                !
 ! D37   D(14,13,17,35)       -150.0011         estimate D2E/DX2                !
 ! D38   D(14,13,17,39)        -30.0004         estimate D2E/DX2                !
 ! D39   D(12,15,18,19)         29.9992         estimate D2E/DX2                !
 ! D40   D(12,15,18,23)        -90.0006         estimate D2E/DX2                !
 ! D41   D(12,15,18,27)        149.9991         estimate D2E/DX2                !
 ! D42   D(16,15,18,19)       -150.0011         estimate D2E/DX2                !
 ! D43   D(16,15,18,23)         89.9991         estimate D2E/DX2                !
 ! D44   D(16,15,18,27)        -30.0012         estimate D2E/DX2                !
 ! D45   D(13,17,31,32)         59.9997         estimate D2E/DX2                !
 ! D46   D(13,17,31,33)        179.9998         estimate D2E/DX2                !
 ! D47   D(13,17,31,34)        -60.0004         estimate D2E/DX2                !
 ! D48   D(35,17,31,32)        -60.0005         estimate D2E/DX2                !
 ! D49   D(35,17,31,33)         59.9996         estimate D2E/DX2                !
 ! D50   D(35,17,31,34)        179.9995         estimate D2E/DX2                !
 ! D51   D(39,17,31,32)        179.9993         estimate D2E/DX2                !
 ! D52   D(39,17,31,33)        -60.0007         estimate D2E/DX2                !
 ! D53   D(39,17,31,34)         59.9992         estimate D2E/DX2                !
 ! D54   D(13,17,35,36)       -179.999          estimate D2E/DX2                !
 ! D55   D(13,17,35,37)        -59.9993         estimate D2E/DX2                !
 ! D56   D(13,17,35,38)         60.0009         estimate D2E/DX2                !
 ! D57   D(31,17,35,36)        -59.999          estimate D2E/DX2                !
 ! D58   D(31,17,35,37)         60.0008         estimate D2E/DX2                !
 ! D59   D(31,17,35,38)       -179.9991         estimate D2E/DX2                !
 ! D60   D(39,17,35,36)         60.0006         estimate D2E/DX2                !
 ! D61   D(39,17,35,37)       -179.9997         estimate D2E/DX2                !
 ! D62   D(39,17,35,38)        -59.9995         estimate D2E/DX2                !
 ! D63   D(13,17,39,40)        -60.0004         estimate D2E/DX2                !
 ! D64   D(13,17,39,41)         59.9998         estimate D2E/DX2                !
 ! D65   D(13,17,39,42)        179.9995         estimate D2E/DX2                !
 ! D66   D(31,17,39,40)       -180.0            estimate D2E/DX2                !
 ! D67   D(31,17,39,41)        -59.9998         estimate D2E/DX2                !
 ! D68   D(31,17,39,42)         59.9999         estimate D2E/DX2                !
 ! D69   D(35,17,39,40)         60.0001         estimate D2E/DX2                !
 ! D70   D(35,17,39,41)       -179.9997         estimate D2E/DX2                !
 ! D71   D(35,17,39,42)        -60.0            estimate D2E/DX2                !
 ! D72   D(15,18,19,20)         59.9997         estimate D2E/DX2                !
 ! D73   D(15,18,19,21)        179.9999         estimate D2E/DX2                !
 ! D74   D(15,18,19,22)        -60.0002         estimate D2E/DX2                !
 ! D75   D(23,18,19,20)        179.9998         estimate D2E/DX2                !
 ! D76   D(23,18,19,21)        -60.0001         estimate D2E/DX2                !
 ! D77   D(23,18,19,22)         59.9999         estimate D2E/DX2                !
 ! D78   D(27,18,19,20)        -60.0003         estimate D2E/DX2                !
 ! D79   D(27,18,19,21)         59.9998         estimate D2E/DX2                !
 ! D80   D(27,18,19,22)        179.9997         estimate D2E/DX2                !
 ! D81   D(15,18,23,24)       -179.9998         estimate D2E/DX2                !
 ! D82   D(15,18,23,25)        -59.9997         estimate D2E/DX2                !
 ! D83   D(15,18,23,26)         60.0003         estimate D2E/DX2                !
 ! D84   D(19,18,23,24)         60.0002         estimate D2E/DX2                !
 ! D85   D(19,18,23,25)       -179.9997         estimate D2E/DX2                !
 ! D86   D(19,18,23,26)        -59.9996         estimate D2E/DX2                !
 ! D87   D(27,18,23,24)        -59.9995         estimate D2E/DX2                !
 ! D88   D(27,18,23,25)         60.0006         estimate D2E/DX2                !
 ! D89   D(27,18,23,26)       -179.9994         estimate D2E/DX2                !
 ! D90   D(15,18,27,28)        -60.0006         estimate D2E/DX2                !
 ! D91   D(15,18,27,29)         59.9992         estimate D2E/DX2                !
 ! D92   D(15,18,27,30)        179.9995         estimate D2E/DX2                !
 ! D93   D(19,18,27,28)         59.9994         estimate D2E/DX2                !
 ! D94   D(19,18,27,29)        179.9992         estimate D2E/DX2                !
 ! D95   D(19,18,27,30)        -60.0005         estimate D2E/DX2                !
 ! D96   D(23,18,27,28)        179.9991         estimate D2E/DX2                !
 ! D97   D(23,18,27,29)        -60.0011         estimate D2E/DX2                !
 ! D98   D(23,18,27,30)         59.9992         estimate D2E/DX2                !
 --------------------------------------------------------------------------------
 Trust Radius=3.00D-01 FncErr=1.00D-07 GrdErr=1.00D-06
 Number of steps in this run=    224 maximum allowed number of steps=    252.
 GradGradGradGradGradGradGradGradGradGradGradGradGradGradGradGradGradGrad

                          Input orientation:                          
 ---------------------------------------------------------------------
 Center     Atomic      Atomic             Coordinates (Angstroms)
 Number     Number       Type             X           Y           Z
 ---------------------------------------------------------------------
      1          6           0       -0.271690   -1.849794   -0.190263
      2          6           0        1.122297   -1.990481   -0.220586
      3          6           0        1.943851   -0.890725    0.061382
      4          6           0        1.371414    0.349728    0.373655
      5          6           0       -0.022575    0.490422    0.403968
      6          6           0       -0.844128   -0.609343    0.122025
      7          1           0       -0.898964   -2.689482   -0.405558
      8          1           0        1.559362   -2.937590   -0.459021
      9          1           0        3.008191   -0.998149    0.038238
     10         35           0       -0.802765    2.181076    0.829556
     11          8           0       -2.266569   -0.465791    0.152991
     12          8           0        2.209729    1.471933    0.661373
     13          6           0       -2.863039   -1.709297    0.530920
     14          8           0       -2.242668   -2.500411    1.287785
     15          6           0        3.437634    1.347234   -0.060840
     16          8           0        3.896502    0.206708   -0.329564
     17          6           0       -4.264592   -2.080313    0.011697
     18          6           0        4.198430    2.608689   -0.509751
     19          6           0        3.932016    3.751110    0.487989
     20          1           0        4.267311    3.459895    1.461476
     21          1           0        4.460624    4.627576    0.176084
     22          1           0        2.883008    3.959622    0.519644
     23          6           0        3.715851    3.027825   -1.910833
     24          1           0        4.244460    3.904290   -2.222738
     25          1           0        3.900951    2.234062   -2.604069
     26          1           0        2.666845    3.236344   -1.879172
     27          6           0        5.708217    2.308593   -0.555315
     28          1           0        6.043512    2.017392    0.418168
     29          1           0        5.893328    1.514823   -1.248540
     30          1           0        6.236817    3.185060   -0.867229
     31          6           0       -5.330060   -1.564975    0.996981
     32          1           0       -5.251585   -0.501329    1.082985
     33          1           0       -6.303864   -1.822758    0.636215
     34          1           0       -5.175024   -2.012781    1.956322
     35          6           0       -4.487736   -1.435817   -1.369037
     36          1           0       -5.461547   -1.693587   -1.729787
     37          1           0       -4.409252   -0.372171   -1.283035
     38          1           0       -3.747450   -1.793889   -2.053629
     39          6           0       -4.377537   -3.611169   -0.112060
     40          1           0       -3.637242   -3.969243   -0.796643
     41          1           0       -4.222498   -4.058954    0.847291
     42          1           0       -5.351343   -3.868955   -0.472810
 ---------------------------------------------------------------------
                    Distance matrix (angstroms):
                    1          2          3          4          5
     1  C    0.000000
     2  C    1.401397   0.000000
     3  C    2.427295   1.401400   0.000000
     4  C    2.802801   2.427295   1.401400   0.000000
     5  C    2.427299   2.802799   2.427296   1.401399   0.000000
     6  C    1.401401   2.427293   2.802799   2.427295   1.401401
     7  H    1.070000   2.146698   3.396345   3.872801   3.396348
     8  H    2.146691   1.069996   2.146697   3.396341   3.872795
     9  H    3.396341   2.146697   1.069998   2.146699   3.396343
    10  Br   4.191656   4.712807   4.191653   2.879016   1.910008
    11  O    2.452107   3.734790   4.232801   3.734794   2.452110
    12  O    4.232800   3.734792   2.452108   1.429999   2.452101
    13  C    2.693499   4.065308   4.898645   4.711148   3.594874
    14  O    2.548075   3.722661   4.649957   4.692602   3.828189
    15  C    4.898656   4.065298   2.693471   2.335181   3.594888
    16  O    4.649993   3.540584   2.273774   2.625080   3.997215
    17  C    4.004646   5.392643   6.321578   6.148225   4.975667
    18  C    6.321559   5.540630   4.201811   3.724960   4.810282
    19  C    7.035716   6.431367   5.067685   4.259009   5.126201
    20  H    7.177992   6.513605   5.127049   4.386652   5.323459
    21  H    8.030275   7.422968   6.066213   5.280363   6.104674
    22  H    6.648714   6.249142   4.961641   3.916320   4.526714
    23  C    6.530851   5.896343   4.731242   4.229358   5.076667
    24  H    7.591841   6.964542   5.788106   5.256478   6.063140
    25  H    6.317853   5.590051   4.549633   4.337754   5.242387
    26  H    6.111971   5.697038   4.617485   3.884060   4.470547
    27  C    7.292786   6.294819   4.978594   4.848504   6.088345
    28  H    7.430148   6.378825   5.039014   4.961006   6.255338
    29  H    7.102678   6.008875   4.806342   4.943346   6.227205
    30  H    8.256434   7.304977   5.991987   5.766372   6.932316
    31  C    5.203630   6.580002   7.364763   6.997454   5.722387
    32  H    5.314025   6.674072   7.278021   6.715025   5.365368
    33  H    6.088589   7.477306   8.320091   7.981135   6.697711
    34  H    5.355098   6.663008   7.451724   7.137376   5.934944
    35  C    4.397263   5.753178   6.611243   6.368264   5.176061
    36  H    5.415640   6.761127   7.661123   7.435655   6.237406
    37  H    4.527354   5.860525   6.514466   6.056555   4.778387
    38  H    3.944130   5.207027   6.138394   6.057192   5.013238
    39  C    4.468393   5.734682   6.884100   6.998218   6.004583
    40  H    4.023270   5.186574   6.431336   6.716379   5.864802
    41  H    4.643898   5.829732   6.977047   7.138113   6.207472
    42  H    5.473547   6.745391   7.897789   7.981807   6.940366
                    6          7          8          9         10
     6  C    0.000000
     7  H    2.146701   0.000000
     8  H    3.396337   2.471393   0.000000
     9  H    3.872796   4.280587   2.471397   0.000000
    10  Br   2.879019   5.025643   5.782803   5.025638   0.000000
    11  O    1.430002   2.669667   4.595878   5.302798   3.099413
    12  O    3.734789   5.302800   4.595884   2.669671   3.099402
    13  C    2.335187   2.386492   4.695351   5.934628   4.412359
    14  O    2.625081   2.169954   4.206886   5.602650   4.919310
    15  C    4.711170   5.934643   4.695335   2.386433   4.412379
    16  O    4.831506   5.602695   3.919898   1.541446   5.227313
    17  C    3.724983   3.445669   5.905500   7.352901   5.550907
    18  C    6.015169   7.352883   6.142350   3.837478   5.195050
    19  C    6.477580   8.100496   7.159961   4.859135   4.999983
    20  H    6.669306   8.245669   7.207574   4.846148   5.266913
    21  H    7.454437   9.088609   8.127264   5.811828   5.840861
    22  H    5.909745   7.705186   7.090935   4.982662   4.104168
    23  C    6.176966   7.499998   6.507256   4.528590   5.352065
    24  H    7.194757   8.557732   7.558556   5.538437   6.144953
    25  H    6.167034   7.218997   6.068793   4.269191   5.823875
    26  H    5.578622   7.071205   6.431237   4.660891   4.526476
    27  C    7.204607   8.286013   6.689149   4.310103   6.657853
    28  H    7.377467   8.427999   6.740097   4.295464   6.860579
    29  H    7.196099   8.032560   6.263432   4.036686   7.042729
    30  H    8.094190   9.254337   7.715703   5.361263   7.310457
    31  C    4.669300   4.781865   7.174130   8.412307   5.878547
    32  H    4.512293   5.094024   7.396089   8.340397   5.201107
    33  H    5.616537   5.572202   8.017026   9.367600   6.806626
    34  H    4.908253   4.931642   7.213952   8.466023   6.162361
    35  C    4.022710   3.921638   6.296891   7.639430   5.612016
    36  H    5.091695   4.854128   7.242621   8.680208   6.577804
    37  H    3.839343   4.296744   6.548642   7.560163   4.897842
    38  H    3.816529   3.410586   5.658010   7.116726   5.725754
    39  C    4.642276   3.610556   5.985052   7.835779   6.871370
    40  H    4.464792   3.047770   5.308765   7.327087   6.964568
    41  H    4.882541   3.806699   6.032728   7.893412   7.115677
    42  H    5.594093   4.606447   6.973196   8.853502   7.680403
                   11         12         13         14         15
    11  O    0.000000
    12  O    4.904128   0.000000
    13  C    1.430005   5.989175   0.000000
    14  O    2.329809   5.999646   1.258399   0.000000
    15  C    5.989217   1.429998   7.027877   6.992067   0.000000
    16  O    6.218405   2.329797   7.078341   6.901719   1.258400
    17  C    2.572691   7.413323   1.539998   2.427562   8.430755
    18  C    7.189427   2.572679   8.342203   8.415568   1.540000
    19  C    7.504462   2.861990   8.717263   8.823147   2.514806
    20  H    7.733999   2.970825   8.855980   8.828094   2.732974
    21  H    8.437893   3.906420   9.691125   9.847751   3.444312
    22  H    6.799769   2.581083   8.071792   8.282187   2.732973
    23  C    7.228698   3.362357   8.466657   8.734787   2.514809
    24  H    8.193607   4.286559   9.466337   9.768664   3.444315
    25  H    7.275224   3.755553   8.433848   8.677892   2.732972
    26  H    6.494156   3.126734   7.800482   8.187997   2.732980
    27  C    8.473259   3.797334   9.528367   9.473126   2.514808
    28  H    8.677210   3.880022   9.655443   9.477740   2.732976
    29  H    8.512992   4.149519   9.499231   9.420694   2.732974
    30  H    9.310056   4.635609  10.426742  10.434095   3.444313
    31  C    3.362365   8.135346   2.514802   3.239073   9.299054
    32  H    3.126734   7.729341   2.732968   3.618266   8.957011
    33  H    4.286562   9.128904   3.444304   4.168581  10.267985
    34  H    3.755568   8.267691   2.732974   3.046873   9.462375
    35  C    2.862010   7.578496   2.514809   3.637636   8.501073
    36  H    3.906434   8.636356   3.444312   4.485297   9.551304
    37  H    2.581090   7.140893   2.732967   3.979021   8.125499
    38  H    2.970863   7.316065   2.732989   3.732103   8.090939
    39  C    3.797346   8.356326   2.514804   2.784064   9.255554
    40  H    3.880042   8.119069   2.732978   2.906397   8.880327
    41  H    4.149522   8.485211   2.732966   2.557893   9.419618
    42  H    4.635621   9.326374   3.444306   3.825763  10.228610
                   16         17         18         19         20
    16  O    0.000000
    17  C    8.482357   0.000000
    18  C    2.427579   9.689241   0.000000
    19  C    3.637642  10.070588   1.539996   0.000000
    20  H    3.732097  10.275657   2.148263   1.070002   0.000000
    21  H    4.485307  11.006915   2.148259   1.070001   1.747306
    22  H    3.979031   9.371606   2.148257   1.069999   1.747303
    23  C    3.239096   9.668333   1.539996   2.514800   3.444308
    24  H    4.168608  10.640119   2.148261   2.732971   3.710990
    25  H    3.046892   9.598549   2.148257   3.444303   4.262105
    26  H    3.618291   8.937955   2.148259   2.732965   3.710983
    27  C    2.784096  10.910587   1.539997   2.514801   2.732975
    28  H    2.906429  11.100154   2.148254   2.732960   2.514796
    29  H    2.557927  10.848803   2.148263   3.444308   3.710987
    30  H    3.825799  11.780333   2.148259   2.732972   3.062247
    31  C    9.488310   1.539993  10.511033  10.691393  10.843182
    32  H    9.283539   2.148256  10.075306  10.137839  10.317166
    33  H   10.445044   2.148252  11.456401  11.656038  11.846401
    34  H    9.614781   2.148258  10.737837  10.877345  10.924869
    35  C    8.606616   1.539999   9.620076  10.062057  10.422602
    36  H    9.651157   2.148262  10.644868  11.081620  11.462688
    37  H    8.380320   2.148257   9.141973   9.471786   9.874200
    38  H    8.087323   2.148266   9.214296   9.807194  10.207576
    39  C    9.114999   1.539997  10.601509  11.118088  11.278712
    40  H    8.626357   2.148264  10.234708  10.887967  11.080305
    41  H    9.246568   2.148257  10.826405  11.297004  11.357252
    42  H   10.107136   2.148258  11.539471  12.048622  12.246306
                   21         22         23         24         25
    21  H    0.000000
    22  H    1.747303   0.000000
    23  C    2.732968   2.732964   0.000000
    24  H    2.514800   3.062234   1.070002   0.000000
    25  H    3.710983   3.710977   1.069999   1.747305   0.000000
    26  H    3.062229   2.514792   1.069999   1.747301   1.747301
    27  C    2.732967   3.444305   2.514805   2.732971   2.732976
    28  H    3.062221   3.710976   3.444303   3.710978   3.710987
    29  H    3.710987   4.262106   2.732986   3.062251   2.514822
    30  H    2.514799   3.710984   2.732966   2.514792   3.062235
    31  C   11.613743   9.909768  10.553563  11.486987  10.611870
    32  H   11.020668   9.294570  10.091222  10.977802  10.239415
    33  H   12.557576  10.855787  11.419733  12.338551  11.449693
    34  H   11.836778  10.132400  10.927500  11.882885  11.009367
    35  C   10.919032   9.327686   9.355024  10.271163   9.239230
    36  H   11.918008  10.327164  10.322265  11.215427  10.190543
    37  H   10.285971   8.671282   8.830142   9.698345   8.808919
    38  H   10.657359   9.148092   8.886516   9.816744   8.661721
    39  C   12.086067  10.508636  10.621428  11.630817  10.436004
    40  H   11.850187  10.349549  10.211188  11.231540   9.928350
    41  H   12.300525  10.718821  10.993046  12.021968  10.839942
    42  H   12.995645  11.405091  11.482486  12.472571  11.286896
                   26         27         28         29         30
    26  H    0.000000
    27  C    3.444309   0.000000
    28  H    4.262100   1.069995   0.000000
    29  H    3.711000   1.070000   1.747297   0.000000
    30  H    3.710978   1.070002   1.747301   1.747306   0.000000
    31  C    9.760911  11.800750  11.938447  11.852929  12.642418
    32  H    9.243705  11.432276  11.591598  11.563302  12.221954
    33  H   10.601665  12.758444  12.932594  12.785274  13.587026
    34  H   10.186228  11.976123  12.019309  12.050873  12.853798
    35  C    8.560218  10.892208  11.226127  10.792927  11.688471
    36  H    9.507749  11.923106  12.278089  11.809262  12.704209
    37  H    7.965419  10.491865  10.856536  10.474019  11.232345
    38  H    8.153334  10.415610  10.793451  10.224497  11.219762
    39  C    9.981704  11.703097  11.855804  11.535078  12.626302
    40  H    9.635033  11.260864  11.446946  11.005042  12.193690
    41  H   10.397981  11.879901  11.937214  11.738374  12.837935
    42  H   10.805297  12.668179  12.856346  12.491174  13.572035
                   31         32         33         34         35
    31  C    0.000000
    32  H    1.069999   0.000000
    33  H    1.069999   1.747304   0.000000
    34  H    1.070001   1.747303   1.747303   0.000000
    35  C    2.514802   2.732973   2.732962   3.444309   0.000000
    36  H    2.732964   3.062230   2.514787   3.710981   1.069998
    37  H    2.732972   2.514807   3.062234   3.710989   1.069999
    38  H    3.444310   3.710994   3.710976   4.262111   1.070002
    39  C    2.514792   3.444299   2.732959   2.732953   2.514814
    40  H    3.444303   4.262104   3.710977   3.710975   2.732988
    41  H    2.732953   3.710966   3.062223   2.514772   3.444315
    42  H    2.732958   3.710977   2.514787   3.062213   2.732984
                   36         37         38         39         40
    36  H    0.000000
    37  H    1.747299   0.000000
    38  H    1.747302   1.747305   0.000000
    39  C    2.732991   3.444313   2.732985   0.000000
    40  H    3.062264   3.710998   2.514822   1.070004   0.000000
    41  H    3.711002   4.262104   3.711001   1.070001   1.747310
    42  H    2.514829   3.710996   3.062248   1.069997   1.747303
                   41         42
    41  H    0.000000
    42  H    1.747300   0.000000
 Stoichiometry    C16H21BrO4
 Framework group  C1[X(C16H21BrO4)]
 Deg. of freedom   120
 Full point group                 C1      NOp   1
 Largest Abelian subgroup         C1      NOp   1
 Largest concise Abelian subgroup C1      NOp   1
                         Standard orientation:                         
 ---------------------------------------------------------------------
 Center     Atomic      Atomic             Coordinates (Angstroms)
 Number     Number       Type             X           Y           Z
 ---------------------------------------------------------------------
      1          6           0        1.270608   -1.793012    0.008529
      2          6           0        0.116075   -2.561845   -0.191128
      3          6           0       -1.115484   -1.931607   -0.414697
      4          6           0       -1.192512   -0.532529   -0.438591
      5          6           0       -0.037982    0.236308   -0.238925
      6          6           0        1.193582   -0.393933   -0.015380
      7          1           0        2.210929   -2.274214    0.179234
      8          1           0        0.174888   -3.630068   -0.172875
      9          1           0       -1.996992   -2.518632   -0.567147
     10         35           0       -0.142970    2.143151   -0.271472
     11          8           0        2.371685    0.390593    0.188326
     12          8           0       -2.449203    0.110576   -0.666717
     13          6           0        3.511837   -0.328896   -0.288440
     14          8           0        3.390536   -1.138215   -1.244398
     15          6           0       -3.504423   -0.713090   -0.163748
     16          8           0       -3.373524   -1.964585   -0.149716
     17          6           0        4.888142   -0.113302    0.367988
     18          6           0       -4.800993   -0.068562    0.360740
     19          6           0       -5.060818    1.248851   -0.393251
     20          1           0       -5.160507    1.047393   -1.439378
     21          1           0       -5.961684    1.696671   -0.028835
     22          1           0       -4.240790    1.917836   -0.235419
     23          6           0       -4.657511    0.221395    1.866372
     24          1           0       -5.558379    0.669214    2.230788
     25          1           0       -4.476977   -0.693950    2.390250
     26          1           0       -3.837488    0.890386    2.024199
     27          6           0       -5.981222   -1.031396    0.133585
     28          1           0       -6.080919   -1.232844   -0.912535
     29          1           0       -5.800694   -1.946751    0.657451
     30          1           0       -6.882083   -0.583573    0.498013
     31          6           0        5.628220    1.027875   -0.354216
     32          1           0        5.053659    1.927617   -0.281824
     33          1           0        6.584482    1.177668    0.101880
     34          1           0        5.760733    0.771230   -1.384496
     35          6           0        4.697436    0.256069    1.850821
     36          1           0        5.653698    0.405881    2.306906
     37          1           0        4.122867    1.155807    1.923213
     38          1           0        4.183236   -0.536836    2.352623
     39          6           0        5.715081   -1.408254    0.263774
     40          1           0        5.200876   -2.201164    0.765566
     41          1           0        5.847580   -1.664879   -0.766512
     42          1           0        6.671347   -1.258458    0.719855
 ---------------------------------------------------------------------
 Rotational constants (GHZ):      0.5491180      0.1192304      0.1049942
 Standard basis: 6-311+G(d,p) (5D, 7F)
 There are   637 symmetry adapted cartesian basis functions of A   symmetry.
 There are   614 symmetry adapted basis functions of A   symmetry.
   614 basis functions,   982 primitive gaussians,   637 cartesian basis functions
    92 alpha electrons       92 beta electrons
       nuclear repulsion energy      2164.5852891662 Hartrees.
 NAtoms=   42 NActive=   42 NUniq=   42 SFac= 1.00D+00 NAtFMM=   60 NAOKFM=F Big=F
 Integral buffers will be    131072 words long.
 Raffenetti 2 integral format.
 Two-electron integral symmetry is turned on.
 One-electron integrals computed using PRISM.
 NBasis=   614 RedAO= T EigKep=  1.05D-06  NBF=   614
 NBsUse=   613 1.00D-06 EigRej=  5.60D-07 NBFU=   613
 ExpMin= 3.50D-02 ExpMax= 4.40D+05 ExpMxC= 1.51D+04 IAcc=3 IRadAn=         5 AccDes= 0.00D+00
 Harris functional with IExCor=  402 and IRadAn=       5 diagonalized for initial guess.
 HarFok:  IExCor=  402 AccDes= 0.00D+00 IRadAn=         5 IDoV= 1 UseB2=F ITyADJ=14
 ICtDFT=  3500011 ScaDFX=  1.000000  1.000000  1.000000  1.000000
 FoFCou: FMM=F IPFlag=           0 FMFlag=      100000 FMFlg1=           0
         NFxFlg=           0 DoJE=T BraDBF=F KetDBF=T FulRan=T
         wScrn=  0.000000 ICntrl=     500 IOpCl=  0 I1Cent=   200000004 NGrid=           0
         NMat0=    1 NMatS0=      1 NMatT0=    0 NMatD0=    1 NMtDS0=    0 NMtDT0=    0
 Petite list used in FoFCou.
 Requested convergence on RMS density matrix=1.00D-08 within 128 cycles.
 Requested convergence on MAX density matrix=1.00D-06.
 Requested convergence on             energy=1.00D-06.
 No special actions if energy rises.
 SCF Done:  E(RB3LYP) =  -3497.58978719     A.U. after   16 cycles
            NFock= 16  Conv=0.76D-08     -V/T= 2.0019

 **********************************************************************

            Population analysis using the SCF density.

 **********************************************************************

 Orbital symmetries:
       Occupied  (A) (A) (A) (A) (A) (A) (A) (A) (A) (A) (A) (A)
                 (A) (A) (A) (A) (A) (A) (A) (A) (A) (A) (A) (A)
                 (A) (A) (A) (A) (A) (A) (A) (A) (A) (A) (A) (A)
                 (A) (A) (A) (A) (A) (A) (A) (A) (A) (A) (A) (A)
                 (A) (A) (A) (A) (A) (A) (A) (A) (A) (A) (A) (A)
                 (A) (A) (A) (A) (A) (A) (A) (A) (A) (A) (A) (A)
                 (A) (A) (A) (A) (A) (A) (A) (A) (A) (A) (A) (A)
                 (A) (A) (A) (A) (A) (A) (A) (A)
       Virtual   (A) (A) (A) (A) (A) (A) (A) (A) (A) (A) (A) (A)
                 (A) (A) (A) (A) (A) (A) (A) (A) (A) (A) (A) (A)
                 (A) (A) (A) (A) (A) (A) (A) (A) (A) (A) (A) (A)
                 (A) (A) (A) (A) (A) (A) (A) (A) (A) (A) (A) (A)
                 (A) (A) (A) (A) (A) (A) (A) (A) (A) (A) (A) (A)
                 (A) (A) (A) (A) (A) (A) (A) (A) (A) (A) (A) (A)
                 (A) (A) (A) (A) (A) (A) (A) (A) (A) (A) (A) (A)
                 (A) (A) (A) (A) (A) (A) (A) (A) (A) (A) (A) (A)
                 (A) (A) (A) (A) (A) (A) (A) (A) (A) (A) (A) (A)
                 (A) (A) (A) (A) (A) (A) (A) (A) (A) (A) (A) (A)
                 (A) (A) (A) (A) (A) (A) (A) (A) (A) (A) (A) (A)
                 (A) (A) (A) (A) (A) (A) (A) (A) (A) (A) (A) (A)
                 (A) (A) (A) (A) (A) (A) (A) (A) (A) (A) (A) (A)
                 (A) (A) (A) (A) (A) (A) (A) (A) (A) (A) (A) (A)
                 (A) (A) (A) (A) (A) (A) (A) (A) (A) (A) (A) (A)
                 (A) (A) (A) (A) (A) (A) (A) (A) (A) (A) (A) (A)
                 (A) (A) (A) (A) (A) (A) (A) (A) (A) (A) (A) (A)
                 (A) (A) (A) (A) (A) (A) (A) (A) (A) (A) (A) (A)
                 (A) (A) (A) (A) (A) (A) (A) (A) (A) (A) (A) (A)
                 (A) (A) (A) (A) (A) (A) (A) (A) (A) (A) (A) (A)
                 (A) (A) (A) (A) (A) (A) (A) (A) (A) (A) (A) (A)
                 (A) (A) (A) (A) (A) (A) (A) (A) (A) (A) (A) (A)
                 (A) (A) (A) (A) (A) (A) (A) (A) (A) (A) (A) (A)
                 (A) (A) (A) (A) (A) (A) (A) (A) (A) (A) (A) (A)
                 (A) (A) (A) (A) (A) (A) (A) (A) (A) (A) (A) (A)
                 (A) (A) (A) (A) (A) (A) (A) (A) (A) (A) (A) (A)
                 (A) (A) (A) (A) (A) (A) (A) (A) (A) (A) (A) (A)
                 (A) (A) (A) (A) (A) (A) (A) (A) (A) (A) (A) (A)
                 (A) (A) (A) (A) (A) (A) (A) (A) (A) (A) (A) (A)
                 (A) (A) (A) (A) (A) (A) (A) (A) (A) (A) (A) (A)
                 (A) (A) (A) (A) (A) (A) (A) (A) (A) (A) (A) (A)
                 (A) (A) (A) (A) (A) (A) (A) (A) (A) (A) (A) (A)
                 (A) (A) (A) (A) (A) (A) (A) (A) (A) (A) (A) (A)
                 (A) (A) (A) (A) (A) (A) (A) (A) (A) (A) (A) (A)
                 (A) (A) (A) (A) (A) (A) (A) (A) (A) (A) (A) (A)
                 (A) (A) (A) (A) (A) (A) (A) (A) (A) (A) (A) (A)
                 (A) (A) (A) (A) (A) (A) (A) (A) (A) (A) (A) (A)
                 (A) (A) (A) (A) (A) (A) (A) (A) (A) (A) (A) (A)
                 (A) (A) (A) (A) (A) (A) (A) (A) (A) (A) (A) (A)
                 (A) (A) (A) (A) (A) (A) (A) (A) (A) (A) (A) (A)
                 (A) (A) (A) (A) (A) (A) (A) (A) (A) (A) (A) (A)
                 (A) (A) (A) (A) (A) (A) (A) (A) (A) (A) (A) (A)
                 (A) (A) (A) (A) (A) (A) (A) (A) (A) (A) (A) (A)
                 (A) (A) (A) (A) (A)
 The electronic state is 1-A.
 Alpha  occ. eigenvalues -- -482.83366 -62.48635 -56.30688 -56.30284 -56.30258
 Alpha  occ. eigenvalues --  -19.20226 -19.19406 -19.13353 -19.12888 -10.33417
 Alpha  occ. eigenvalues --  -10.32499 -10.25909 -10.25819 -10.24425 -10.21722
 Alpha  occ. eigenvalues --  -10.21459 -10.18513 -10.18205 -10.17298 -10.16956
 Alpha  occ. eigenvalues --  -10.16529 -10.16514 -10.16443 -10.16411 -10.16409
 Alpha  occ. eigenvalues --   -8.69600  -6.52791  -6.51445  -6.51372  -2.63874
 Alpha  occ. eigenvalues --   -2.63500  -2.63446  -2.62374  -2.62374  -1.11519
 Alpha  occ. eigenvalues --   -1.10584  -1.03390  -1.02142  -0.87896  -0.84383
 Alpha  occ. eigenvalues --   -0.83979  -0.81209  -0.76271  -0.73720  -0.71196
 Alpha  occ. eigenvalues --   -0.70973  -0.70710  -0.70609  -0.67081  -0.66482
 Alpha  occ. eigenvalues --   -0.62232  -0.61232  -0.58002  -0.54693  -0.52249
 Alpha  occ. eigenvalues --   -0.51590  -0.50620  -0.50093  -0.48881  -0.48370
 Alpha  occ. eigenvalues --   -0.47832  -0.46319  -0.45811  -0.45400  -0.45093
 Alpha  occ. eigenvalues --   -0.43905  -0.43692  -0.42517  -0.41860  -0.41611
 Alpha  occ. eigenvalues --   -0.41136  -0.40978  -0.40438  -0.38897  -0.38826
 Alpha  occ. eigenvalues --   -0.38642  -0.38490  -0.38196  -0.37794  -0.37097
 Alpha  occ. eigenvalues --   -0.35623  -0.34780  -0.34685  -0.34482  -0.34172
 Alpha  occ. eigenvalues --   -0.32888  -0.31843  -0.29356  -0.28753  -0.26722
 Alpha  occ. eigenvalues --   -0.24693  -0.24327
 Alpha virt. eigenvalues --   -0.05229  -0.05041  -0.02356  -0.02096  -0.00671
 Alpha virt. eigenvalues --   -0.00281   0.00013   0.01479   0.02050   0.02388
 Alpha virt. eigenvalues --    0.02628   0.02791   0.03041   0.03553   0.04306
 Alpha virt. eigenvalues --    0.04879   0.04938   0.05070   0.05391   0.05603
 Alpha virt. eigenvalues --    0.05785   0.05955   0.06312   0.06785   0.07172
 Alpha virt. eigenvalues --    0.07722   0.08037   0.08237   0.08680   0.09020
 Alpha virt. eigenvalues --    0.09230   0.09763   0.10139   0.10278   0.10406
 Alpha virt. eigenvalues --    0.10577   0.11035   0.11230   0.11443   0.11599
 Alpha virt. eigenvalues --    0.12221   0.12479   0.12925   0.13452   0.13780
 Alpha virt. eigenvalues --    0.13977   0.14349   0.14789   0.15187   0.15437
 Alpha virt. eigenvalues --    0.15871   0.15982   0.16838   0.17051   0.17428
 Alpha virt. eigenvalues --    0.17720   0.17839   0.18316   0.18873   0.19100
 Alpha virt. eigenvalues --    0.19202   0.19397   0.19529   0.20087   0.20369
 Alpha virt. eigenvalues --    0.20652   0.20929   0.21202   0.21328   0.21640
 Alpha virt. eigenvalues --    0.22154   0.22264   0.22468   0.22664   0.23024
 Alpha virt. eigenvalues --    0.23260   0.23527   0.23679   0.23943   0.24552
 Alpha virt. eigenvalues --    0.24749   0.24905   0.25060   0.25275   0.25489
 Alpha virt. eigenvalues --    0.25569   0.25878   0.26287   0.26724   0.26819
 Alpha virt. eigenvalues --    0.27515   0.27814   0.27867   0.28535   0.29204
 Alpha virt. eigenvalues --    0.29339   0.29658   0.29775   0.30106   0.30427
 Alpha virt. eigenvalues --    0.30771   0.31218   0.31319   0.32148   0.32531
 Alpha virt. eigenvalues --    0.32742   0.32970   0.33597   0.34590   0.34695
 Alpha virt. eigenvalues --    0.35206   0.35812   0.36001   0.36261   0.36546
 Alpha virt. eigenvalues --    0.37610   0.37957   0.38931   0.39107   0.40086
 Alpha virt. eigenvalues --    0.40375   0.40810   0.41175   0.41789   0.42003
 Alpha virt. eigenvalues --    0.42307   0.43086   0.43320   0.44511   0.44879
 Alpha virt. eigenvalues --    0.45275   0.46147   0.46366   0.46978   0.48443
 Alpha virt. eigenvalues --    0.49350   0.49758   0.50128   0.51770   0.52065
 Alpha virt. eigenvalues --    0.52842   0.53026   0.53201   0.53586   0.54654
 Alpha virt. eigenvalues --    0.55249   0.55614   0.56997   0.57035   0.57963
 Alpha virt. eigenvalues --    0.58310   0.58849   0.59192   0.60397   0.61086
 Alpha virt. eigenvalues --    0.61617   0.62286   0.62626   0.63712   0.64162
 Alpha virt. eigenvalues --    0.64662   0.65155   0.65484   0.65543   0.65658
 Alpha virt. eigenvalues --    0.66384   0.66795   0.67358   0.67591   0.67968
 Alpha virt. eigenvalues --    0.68379   0.68840   0.69364   0.69736   0.69997
 Alpha virt. eigenvalues --    0.70883   0.71412   0.71726   0.71937   0.72285
 Alpha virt. eigenvalues --    0.72559   0.73576   0.73833   0.74264   0.74674
 Alpha virt. eigenvalues --    0.75290   0.75975   0.76449   0.76949   0.77102
 Alpha virt. eigenvalues --    0.77998   0.78073   0.78659   0.79821   0.80428
 Alpha virt. eigenvalues --    0.80915   0.81732   0.81946   0.83543   0.85473
 Alpha virt. eigenvalues --    0.86109   0.86840   0.87929   0.88703   0.89101
 Alpha virt. eigenvalues --    0.90593   0.91418   0.91923   0.93486   0.94606
 Alpha virt. eigenvalues --    0.97340   0.97814   0.98669   0.99428   1.00020
 Alpha virt. eigenvalues --    1.01150   1.02144   1.02894   1.03705   1.04206
 Alpha virt. eigenvalues --    1.05777   1.07293   1.07930   1.08170   1.08626
 Alpha virt. eigenvalues --    1.09398   1.10250   1.10978   1.12014   1.13266
 Alpha virt. eigenvalues --    1.14474   1.16258   1.18296   1.19674   1.20017
 Alpha virt. eigenvalues --    1.20750   1.22591   1.23230   1.24106   1.24949
 Alpha virt. eigenvalues --    1.26613   1.26854   1.27654   1.30384   1.31339
 Alpha virt. eigenvalues --    1.32641   1.33285   1.35460   1.36603   1.39186
 Alpha virt. eigenvalues --    1.40670   1.40908   1.42043   1.42660   1.43469
 Alpha virt. eigenvalues --    1.44433   1.45775   1.46441   1.46610   1.47009
 Alpha virt. eigenvalues --    1.47719   1.47776   1.48316   1.48765   1.48991
 Alpha virt. eigenvalues --    1.49609   1.50333   1.52611   1.52675   1.53243
 Alpha virt. eigenvalues --    1.55010   1.55202   1.55805   1.56212   1.57002
 Alpha virt. eigenvalues --    1.57058   1.57478   1.58260   1.59300   1.60162
 Alpha virt. eigenvalues --    1.61610   1.61942   1.63343   1.63816   1.64141
 Alpha virt. eigenvalues --    1.65176   1.66251   1.66634   1.67123   1.67949
 Alpha virt. eigenvalues --    1.68455   1.69206   1.70524   1.71089   1.71689
 Alpha virt. eigenvalues --    1.72896   1.73793   1.74120   1.75100   1.76131
 Alpha virt. eigenvalues --    1.76259   1.77336   1.78038   1.78986   1.79741
 Alpha virt. eigenvalues --    1.80494   1.80751   1.81314   1.82247   1.84471
 Alpha virt. eigenvalues --    1.84675   1.85392   1.86013   1.86869   1.88471
 Alpha virt. eigenvalues --    1.89868   1.91404   1.93777   1.94047   1.95320
 Alpha virt. eigenvalues --    1.97186   1.98970   2.00001   2.00191   2.00848
 Alpha virt. eigenvalues --    2.01035   2.01945   2.02079   2.02812   2.03693
 Alpha virt. eigenvalues --    2.05193   2.05616   2.06573   2.07513   2.09976
 Alpha virt. eigenvalues --    2.10897   2.11207   2.11920   2.12639   2.13604
 Alpha virt. eigenvalues --    2.17264   2.19810   2.20182   2.20834   2.22156
 Alpha virt. eigenvalues --    2.22353   2.23144   2.26578   2.30576   2.31602
 Alpha virt. eigenvalues --    2.32138   2.32754   2.33190   2.35205   2.36174
 Alpha virt. eigenvalues --    2.38532   2.43774   2.44521   2.45512   2.46038
 Alpha virt. eigenvalues --    2.46648   2.50590   2.51089   2.52676   2.53102
 Alpha virt. eigenvalues --    2.53515   2.54108   2.54211   2.56314   2.56514
 Alpha virt. eigenvalues --    2.56662   2.56811   2.57361   2.57516   2.57721
 Alpha virt. eigenvalues --    2.58026   2.58285   2.59075   2.60046   2.60331
 Alpha virt. eigenvalues --    2.60644   2.60785   2.64099   2.64933   2.66091
 Alpha virt. eigenvalues --    2.66697   2.68008   2.68543   2.71226   2.72040
 Alpha virt. eigenvalues --    2.72627   2.73133   2.73780   2.74241   2.75314
 Alpha virt. eigenvalues --    2.75915   2.76334   2.76948   2.77722   2.77934
 Alpha virt. eigenvalues --    2.78795   2.79709   2.81125   2.83274   2.85118
 Alpha virt. eigenvalues --    2.87220   2.88183   2.90133   2.92283   2.93571
 Alpha virt. eigenvalues --    2.94475   2.96092   2.98539   2.99776   3.00286
 Alpha virt. eigenvalues --    3.00580   3.01084   3.02251   3.03350   3.04869
 Alpha virt. eigenvalues --    3.06853   3.08503   3.09373   3.10081   3.11993
 Alpha virt. eigenvalues --    3.13019   3.14509   3.15165   3.17913   3.18448
 Alpha virt. eigenvalues --    3.20141   3.21172   3.22881   3.23051   3.29201
 Alpha virt. eigenvalues --    3.29569   3.32612   3.38233   3.38468   3.40276
 Alpha virt. eigenvalues --    3.46325   3.47522   3.51489   3.54508   3.56501
 Alpha virt. eigenvalues --    3.63205   3.64903   3.72520   3.73705   3.81009
 Alpha virt. eigenvalues --    3.81167   3.82871   3.82987   3.83694   3.83931
 Alpha virt. eigenvalues --    3.88019   3.88056   3.88186   3.88414   3.90472
 Alpha virt. eigenvalues --    3.91856   3.92415   4.05482   4.07193   4.08616
 Alpha virt. eigenvalues --    4.14073   4.16072   4.17953   4.20055   4.22557
 Alpha virt. eigenvalues --    4.23306   4.24047   4.24922   4.29391   4.29673
 Alpha virt. eigenvalues --    4.29760   4.30551   4.42168   4.60138   4.84391
 Alpha virt. eigenvalues --    5.05344   5.08335   5.09097   5.11162   5.22107
 Alpha virt. eigenvalues --    5.27381   5.36030   5.37258   5.58590   5.64513
 Alpha virt. eigenvalues --    5.80972   5.84249   6.79150   7.58649   7.73579
 Alpha virt. eigenvalues --    7.76956  23.52426  23.70636  23.72232  23.77229
 Alpha virt. eigenvalues --   23.77444  23.89812  23.91347  24.00215  24.00723
 Alpha virt. eigenvalues --   24.01000  24.01677  24.01933  24.02262  24.02604
 Alpha virt. eigenvalues --   24.05864  24.16007  48.04140  49.90260  49.92514
 Alpha virt. eigenvalues --   49.96452  49.96488 289.78358 289.93424 289.99158
 Alpha virt. eigenvalues -- 1020.85819
          Condensed to atoms (all electrons):
               1          2          3          4          5          6
     1  C   19.384947  -0.798914   0.011455  -5.095739  -8.282125   0.515173
     2  C   -0.798914  13.628259  -0.455280  -3.476918   0.715563  -3.056511
     3  C    0.011455  -0.455280  22.355946  -1.247189 -13.182423  -4.123615
     4  C   -5.095739  -3.476918  -1.247189  24.345367  -1.001831  -6.293664
     5  C   -8.282125   0.715563 -13.182423  -1.001831  28.996730   0.885907
     6  C    0.515173  -3.056511  -4.123615  -6.293664   0.885907  19.473355
     7  H    0.564609  -0.177128   0.018436  -0.004462  -0.062101  -0.043545
     8  H    0.008742   0.301512  -0.000698   0.014618  -0.033606   0.046133
     9  H    0.038704  -0.045075   0.643775  -0.195538  -0.112897  -0.000778
    10  Br  -0.006741   0.099245  -0.038775   0.160569  -0.030985   0.019190
    11  O    0.328155   0.159057   0.076799  -0.026856  -0.606931   0.168467
    12  O    0.029074   0.074403   0.435105   0.723902  -1.036935  -0.154730
    13  C   -1.332553  -0.802494   0.040251   0.096502   0.515620   0.153135
    14  O    0.273644  -0.022665  -0.024384  -0.028981  -0.145726  -0.126631
    15  C   -0.092443   0.287935   1.215828  -1.534691  -0.746633  -0.484525
    16  O   -0.007560  -0.022051   0.290163  -0.365655  -0.207333  -0.007032
    17  C    0.165554   0.070908   0.006780   0.031052  -0.060344   0.037821
    18  C   -0.039971  -0.284838  -0.344106   0.188739  -0.051171  -0.049831
    19  C   -0.001148  -0.061632  -0.392120   0.130802   0.355863   0.048211
    20  H    0.000070  -0.000794  -0.001805   0.016239  -0.002458   0.000665
    21  H    0.000045   0.000585   0.007937  -0.004702  -0.004561  -0.000393
    22  H   -0.000183  -0.000388   0.006731   0.014465  -0.029587  -0.000996
    23  C    0.004410   0.035187   0.212868  -0.097573  -0.168140  -0.017237
    24  H    0.000018  -0.000094  -0.001523  -0.002370  -0.000556   0.000336
    25  H   -0.000708  -0.003377  -0.016820   0.024764   0.007061  -0.000002
    26  H   -0.000752   0.000801   0.005826  -0.007261  -0.002642  -0.003418
    27  C    0.007564   0.094415   0.326926  -0.375410  -0.157841  -0.016854
    28  H    0.000164   0.001262   0.011671  -0.010388  -0.003215  -0.000234
    29  H   -0.000155  -0.001280  -0.013352   0.012386   0.001001  -0.000049
    30  H    0.000006  -0.000219  -0.001823   0.006967   0.000343   0.000021
    31  C   -0.227508  -0.071994  -0.010443   0.025083   0.061665   0.209242
    32  H    0.004235   0.000903   0.000058  -0.000270  -0.000887  -0.004868
    33  H    0.001545   0.000055  -0.000014  -0.000191  -0.001087   0.001572
    34  H    0.002638   0.000446   0.000128   0.000084   0.000649  -0.002317
    35  C    0.061573   0.007664   0.020436  -0.016632   0.048316  -0.439296
    36  H   -0.006542  -0.000777  -0.000152   0.000073  -0.000340   0.005238
    37  H    0.004478   0.001221  -0.000019   0.000474  -0.000850   0.012685
    38  H    0.028368   0.008162   0.000848  -0.000995  -0.008428  -0.021458
    39  C   -0.018466   0.054292  -0.008746   0.018167   0.031907   0.051066
    40  H   -0.001701  -0.004196   0.000012  -0.000312  -0.002022  -0.007040
    41  H   -0.006487  -0.002602  -0.000202   0.000221   0.002029   0.008333
    42  H    0.005178   0.000919   0.000061  -0.000127  -0.001481  -0.003967
               7          8          9         10         11         12
     1  C    0.564609   0.008742   0.038704  -0.006741   0.328155   0.029074
     2  C   -0.177128   0.301512  -0.045075   0.099245   0.159057   0.074403
     3  C    0.018436  -0.000698   0.643775  -0.038775   0.076799   0.435105
     4  C   -0.004462   0.014618  -0.195538   0.160569  -0.026856   0.723902
     5  C   -0.062101  -0.033606  -0.112897  -0.030985  -0.606931  -1.036935
     6  C   -0.043545   0.046133  -0.000778   0.019190   0.168467  -0.154730
     7  H    0.529375  -0.005146  -0.000404  -0.001014  -0.015188   0.000254
     8  H   -0.005146   0.532991  -0.007994  -0.000297  -0.000435  -0.000596
     9  H   -0.000404  -0.007994   0.504617   0.000877   0.000235  -0.003938
    10  Br  -0.001014  -0.000297   0.000877  35.075064  -0.034710  -0.043601
    11  O   -0.015188  -0.000435   0.000235  -0.034710   8.218947  -0.000525
    12  O    0.000254  -0.000596  -0.003938  -0.043601  -0.000525   8.097774
    13  C    0.098467   0.006555   0.000724  -0.076083  -0.147123   0.004227
    14  O   -0.030689  -0.000076   0.000048  -0.001091  -0.118836  -0.000025
    15  C    0.000955   0.006897   0.052746  -0.057755   0.007171   0.210895
    16  O    0.000091   0.001806  -0.074983  -0.002322  -0.000100  -0.065814
    17  C   -0.030562  -0.000750  -0.000101  -0.006935  -0.090168  -0.000575
    18  C   -0.000038   0.000796   0.021308   0.030141   0.000060  -0.246250
    19  C   -0.000007  -0.000048   0.000357  -0.013325   0.000102   0.023639
    20  H    0.000000   0.000000   0.000006   0.000083   0.000000  -0.000935
    21  H    0.000000   0.000000  -0.000005  -0.000121   0.000000   0.001661
    22  H    0.000000   0.000000   0.000017   0.001948   0.000002  -0.006678
    23  C    0.000034  -0.000039  -0.001868   0.001693   0.000044  -0.032346
    24  H    0.000000   0.000000  -0.000002  -0.000032   0.000000  -0.001622
    25  H    0.000000  -0.000001   0.000054  -0.000066   0.000001   0.000203
    26  H    0.000000   0.000000  -0.000024   0.001009   0.000007   0.004871
    27  C   -0.000001   0.000074   0.002618  -0.000640   0.000036   0.008866
    28  H    0.000000   0.000000  -0.000056   0.000006   0.000000   0.001466
    29  H    0.000000   0.000000  -0.000147   0.000021   0.000000  -0.000726
    30  H    0.000000   0.000000   0.000029   0.000012   0.000000   0.000123
    31  C    0.001505  -0.000020   0.000000   0.002076  -0.078247   0.000033
    32  H    0.000007   0.000000   0.000000   0.000242   0.002635   0.000000
    33  H   -0.000004   0.000000   0.000000  -0.000002  -0.000930   0.000000
    34  H    0.000011   0.000000   0.000000   0.000009   0.000273   0.000000
    35  C    0.010872   0.000365   0.000021  -0.003351   0.000127   0.000229
    36  H   -0.000018   0.000000   0.000000   0.000019   0.000661   0.000000
    37  H    0.000024   0.000000   0.000000   0.000254  -0.002366   0.000000
    38  H   -0.000371  -0.000001   0.000000   0.000339   0.000163   0.000000
    39  C   -0.003349  -0.000162  -0.000001  -0.000184   0.047055   0.000008
    40  H    0.001007   0.000000   0.000000  -0.000026   0.000634   0.000000
    41  H    0.000124   0.000000   0.000000  -0.000018  -0.000187   0.000000
    42  H   -0.000045   0.000000   0.000000   0.000024  -0.000206   0.000000
              13         14         15         16         17         18
     1  C   -1.332553   0.273644  -0.092443  -0.007560   0.165554  -0.039971
     2  C   -0.802494  -0.022665   0.287935  -0.022051   0.070908  -0.284838
     3  C    0.040251  -0.024384   1.215828   0.290163   0.006780  -0.344106
     4  C    0.096502  -0.028981  -1.534691  -0.365655   0.031052   0.188739
     5  C    0.515620  -0.145726  -0.746633  -0.207333  -0.060344  -0.051171
     6  C    0.153135  -0.126631  -0.484525  -0.007032   0.037821  -0.049831
     7  H    0.098467  -0.030689   0.000955   0.000091  -0.030562  -0.000038
     8  H    0.006555  -0.000076   0.006897   0.001806  -0.000750   0.000796
     9  H    0.000724   0.000048   0.052746  -0.074983  -0.000101   0.021308
    10  Br  -0.076083  -0.001091  -0.057755  -0.002322  -0.006935   0.030141
    11  O   -0.147123  -0.118836   0.007171  -0.000100  -0.090168   0.000060
    12  O    0.004227  -0.000025   0.210895  -0.065814  -0.000575  -0.246250
    13  C    8.878974   0.443572  -0.026272   0.000687  -1.808069  -0.006509
    14  O    0.443572   7.989660  -0.000140  -0.000032  -0.052166   0.000062
    15  C   -0.026272  -0.000140   8.550392   0.525648   0.006143  -1.792641
    16  O    0.000687  -0.000032   0.525648   8.132418   0.000000  -0.035023
    17  C   -1.808069  -0.052166   0.006143   0.000000   7.591728   0.000304
    18  C   -0.006509   0.000062  -1.792641  -0.035023   0.000304   8.275326
    19  C   -0.001122   0.000007  -0.017039   0.004767  -0.000027   0.125291
    20  H    0.000006   0.000000  -0.021821   0.001586   0.000000   0.003536
    21  H    0.000002   0.000000   0.080884  -0.000629   0.000000  -0.124737
    22  H    0.000038   0.000000  -0.053927  -0.000226  -0.000001   0.063621
    23  C    0.001347  -0.000020  -0.164084  -0.018483   0.000122   0.327668
    24  H    0.000002   0.000000   0.028447  -0.000687   0.000000  -0.049629
    25  H   -0.000010   0.000000  -0.034477   0.003633   0.000000  -0.001648
    26  H   -0.000044   0.000000  -0.024346  -0.001015   0.000003   0.004191
    27  C    0.000318  -0.000001   0.299688  -0.025601  -0.000015  -0.101865
    28  H   -0.000001   0.000000  -0.020456  -0.003922   0.000000   0.032426
    29  H   -0.000001   0.000000  -0.043843  -0.005980   0.000000   0.045668
    30  H    0.000000   0.000000   0.080745   0.003877   0.000000  -0.150779
    31  C    0.051591  -0.048647  -0.000116   0.000003  -0.044919  -0.000021
    32  H   -0.048286  -0.000879   0.000001   0.000000   0.026939   0.000000
    33  H    0.060010  -0.000376  -0.000001   0.000000  -0.060456   0.000000
    34  H   -0.032037   0.003334   0.000001   0.000000  -0.009058   0.000000
    35  C    0.421850   0.004436  -0.002158   0.000019  -0.070845  -0.000202
    36  H    0.035695  -0.000500   0.000002   0.000000  -0.102627   0.000000
    37  H   -0.042343   0.000228   0.000039   0.000000   0.032234   0.000001
    38  H   -0.030788   0.001848   0.000018   0.000000   0.018577   0.000001
    39  C   -0.183039   0.025966   0.000968  -0.000009   0.178345   0.000026
    40  H   -0.011456  -0.006543   0.000001   0.000000   0.029389   0.000000
    41  H   -0.009114  -0.003422   0.000001   0.000000  -0.003802   0.000000
    42  H    0.041364   0.003827   0.000000   0.000000  -0.102798   0.000000
              19         20         21         22         23         24
     1  C   -0.001148   0.000070   0.000045  -0.000183   0.004410   0.000018
     2  C   -0.061632  -0.000794   0.000585  -0.000388   0.035187  -0.000094
     3  C   -0.392120  -0.001805   0.007937   0.006731   0.212868  -0.001523
     4  C    0.130802   0.016239  -0.004702   0.014465  -0.097573  -0.002370
     5  C    0.355863  -0.002458  -0.004561  -0.029587  -0.168140  -0.000556
     6  C    0.048211   0.000665  -0.000393  -0.000996  -0.017237   0.000336
     7  H   -0.000007   0.000000   0.000000   0.000000   0.000034   0.000000
     8  H   -0.000048   0.000000   0.000000   0.000000  -0.000039   0.000000
     9  H    0.000357   0.000006  -0.000005   0.000017  -0.001868  -0.000002
    10  Br  -0.013325   0.000083  -0.000121   0.001948   0.001693  -0.000032
    11  O    0.000102   0.000000   0.000000   0.000002   0.000044   0.000000
    12  O    0.023639  -0.000935   0.001661  -0.006678  -0.032346  -0.001622
    13  C   -0.001122   0.000006   0.000002   0.000038   0.001347   0.000002
    14  O    0.000007   0.000000   0.000000   0.000000  -0.000020   0.000000
    15  C   -0.017039  -0.021821   0.080884  -0.053927  -0.164084   0.028447
    16  O    0.004767   0.001586  -0.000629  -0.000226  -0.018483  -0.000687
    17  C   -0.000027   0.000000   0.000000  -0.000001   0.000122   0.000000
    18  C    0.125291   0.003536  -0.124737   0.063621   0.327668  -0.049629
    19  C    5.624258   0.376337   0.429438   0.373822  -0.344708  -0.024762
    20  H    0.376337   0.524999  -0.025751  -0.022398   0.022841   0.000209
    21  H    0.429438  -0.025751   0.534144  -0.024425  -0.008628   0.003269
    22  H    0.373822  -0.022398  -0.024425   0.500096  -0.009350  -0.000460
    23  C   -0.344708   0.022841  -0.008628  -0.009350   5.624255   0.425166
    24  H   -0.024762   0.000209   0.003269  -0.000460   0.425166   0.519151
    25  H    0.021674  -0.000560   0.000027  -0.000057   0.380443  -0.024145
    26  H    0.009374  -0.000041  -0.000777   0.002689   0.379564  -0.025264
    27  C   -0.191983  -0.016728  -0.007514   0.019834  -0.163309   0.003999
    28  H   -0.016664   0.002428  -0.000433   0.000068   0.022690   0.000059
    29  H    0.019428   0.000022   0.000140  -0.000492  -0.025989  -0.000510
    30  H   -0.006191  -0.000223   0.001624   0.000246  -0.007687   0.001376
    31  C   -0.000013   0.000000   0.000000   0.000000   0.000002   0.000000
    32  H    0.000000   0.000000   0.000000   0.000000   0.000000   0.000000
    33  H    0.000000   0.000000   0.000000   0.000000   0.000000   0.000000
    34  H    0.000000   0.000000   0.000000   0.000000   0.000000   0.000000
    35  C   -0.000010   0.000000   0.000000   0.000001  -0.000003   0.000000
    36  H    0.000000   0.000000   0.000000   0.000000   0.000000   0.000000
    37  H    0.000000   0.000000   0.000000   0.000000   0.000000   0.000000
    38  H    0.000000   0.000000   0.000000   0.000000   0.000000   0.000000
    39  C    0.000008   0.000000   0.000000   0.000000   0.000002   0.000000
    40  H    0.000000   0.000000   0.000000   0.000000   0.000000   0.000000
    41  H    0.000000   0.000000   0.000000   0.000000   0.000000   0.000000
    42  H    0.000000   0.000000   0.000000   0.000000   0.000000   0.000000
              25         26         27         28         29         30
     1  C   -0.000708  -0.000752   0.007564   0.000164  -0.000155   0.000006
     2  C   -0.003377   0.000801   0.094415   0.001262  -0.001280  -0.000219
     3  C   -0.016820   0.005826   0.326926   0.011671  -0.013352  -0.001823
     4  C    0.024764  -0.007261  -0.375410  -0.010388   0.012386   0.006967
     5  C    0.007061  -0.002642  -0.157841  -0.003215   0.001001   0.000343
     6  C   -0.000002  -0.003418  -0.016854  -0.000234  -0.000049   0.000021
     7  H    0.000000   0.000000  -0.000001   0.000000   0.000000   0.000000
     8  H   -0.000001   0.000000   0.000074   0.000000   0.000000   0.000000
     9  H    0.000054  -0.000024   0.002618  -0.000056  -0.000147   0.000029
    10  Br  -0.000066   0.001009  -0.000640   0.000006   0.000021   0.000012
    11  O    0.000001   0.000007   0.000036   0.000000   0.000000   0.000000
    12  O    0.000203   0.004871   0.008866   0.001466  -0.000726   0.000123
    13  C   -0.000010  -0.000044   0.000318  -0.000001  -0.000001   0.000000
    14  O    0.000000   0.000000  -0.000001   0.000000   0.000000   0.000000
    15  C   -0.034477  -0.024346   0.299688  -0.020456  -0.043843   0.080745
    16  O    0.003633  -0.001015  -0.025601  -0.003922  -0.005980   0.003877
    17  C    0.000000   0.000003  -0.000015   0.000000   0.000000   0.000000
    18  C   -0.001648   0.004191  -0.101865   0.032426   0.045668  -0.150779
    19  C    0.021674   0.009374  -0.191983  -0.016664   0.019428  -0.006191
    20  H   -0.000560  -0.000041  -0.016728   0.002428   0.000022  -0.000223
    21  H    0.000027  -0.000777  -0.007514  -0.000433   0.000140   0.001624
    22  H   -0.000057   0.002689   0.019834   0.000068  -0.000492   0.000246
    23  C    0.380443   0.379564  -0.163309   0.022690  -0.025989  -0.007687
    24  H   -0.024145  -0.025264   0.003999   0.000059  -0.000510   0.001376
    25  H    0.514471  -0.023583  -0.007958   0.000016   0.003486  -0.000366
    26  H   -0.023583   0.518028   0.007608  -0.000517   0.000051   0.000264
    27  C   -0.007958   0.007608   5.582814   0.363299   0.394704   0.440542
    28  H    0.000016  -0.000517   0.363299   0.524074  -0.022666  -0.025744
    29  H    0.003486   0.000051   0.394704  -0.022666   0.499659  -0.026648
    30  H   -0.000366   0.000264   0.440542  -0.025744  -0.026648   0.542990
    31  C    0.000000   0.000000   0.000001   0.000000   0.000000   0.000000
    32  H    0.000000   0.000000   0.000000   0.000000   0.000000   0.000000
    33  H    0.000000   0.000000   0.000000   0.000000   0.000000   0.000000
    34  H    0.000000   0.000000   0.000000   0.000000   0.000000   0.000000
    35  C    0.000000  -0.000002   0.000013   0.000000   0.000000   0.000000
    36  H    0.000000   0.000000   0.000000   0.000000   0.000000   0.000000
    37  H    0.000000   0.000000   0.000000   0.000000   0.000000   0.000000
    38  H    0.000000   0.000000   0.000000   0.000000   0.000000   0.000000
    39  C    0.000000   0.000000  -0.000001   0.000000   0.000000   0.000000
    40  H    0.000000   0.000000   0.000000   0.000000   0.000000   0.000000
    41  H    0.000000   0.000000   0.000000   0.000000   0.000000   0.000000
    42  H    0.000000   0.000000   0.000000   0.000000   0.000000   0.000000
              31         32         33         34         35         36
     1  C   -0.227508   0.004235   0.001545   0.002638   0.061573  -0.006542
     2  C   -0.071994   0.000903   0.000055   0.000446   0.007664  -0.000777
     3  C   -0.010443   0.000058  -0.000014   0.000128   0.020436  -0.000152
     4  C    0.025083  -0.000270  -0.000191   0.000084  -0.016632   0.000073
     5  C    0.061665  -0.000887  -0.001087   0.000649   0.048316  -0.000340
     6  C    0.209242  -0.004868   0.001572  -0.002317  -0.439296   0.005238
     7  H    0.001505   0.000007  -0.000004   0.000011   0.010872  -0.000018
     8  H   -0.000020   0.000000   0.000000   0.000000   0.000365   0.000000
     9  H    0.000000   0.000000   0.000000   0.000000   0.000021   0.000000
    10  Br   0.002076   0.000242  -0.000002   0.000009  -0.003351   0.000019
    11  O   -0.078247   0.002635  -0.000930   0.000273   0.000127   0.000661
    12  O    0.000033   0.000000   0.000000   0.000000   0.000229   0.000000
    13  C    0.051591  -0.048286   0.060010  -0.032037   0.421850   0.035695
    14  O   -0.048647  -0.000879  -0.000376   0.003334   0.004436  -0.000500
    15  C   -0.000116   0.000001  -0.000001   0.000001  -0.002158   0.000002
    16  O    0.000003   0.000000   0.000000   0.000000   0.000019   0.000000
    17  C   -0.044919   0.026939  -0.060456  -0.009058  -0.070845  -0.102627
    18  C   -0.000021   0.000000   0.000000   0.000000  -0.000202   0.000000
    19  C   -0.000013   0.000000   0.000000   0.000000  -0.000010   0.000000
    20  H    0.000000   0.000000   0.000000   0.000000   0.000000   0.000000
    21  H    0.000000   0.000000   0.000000   0.000000   0.000000   0.000000
    22  H    0.000000   0.000000   0.000000   0.000000   0.000001   0.000000
    23  C    0.000002   0.000000   0.000000   0.000000  -0.000003   0.000000
    24  H    0.000000   0.000000   0.000000   0.000000   0.000000   0.000000
    25  H    0.000000   0.000000   0.000000   0.000000   0.000000   0.000000
    26  H    0.000000   0.000000   0.000000   0.000000  -0.000002   0.000000
    27  C    0.000001   0.000000   0.000000   0.000000   0.000013   0.000000
    28  H    0.000000   0.000000   0.000000   0.000000   0.000000   0.000000
    29  H    0.000000   0.000000   0.000000   0.000000   0.000000   0.000000
    30  H    0.000000   0.000000   0.000000   0.000000   0.000000   0.000000
    31  C    5.860079   0.373456   0.403747   0.394113  -0.299109  -0.002466
    32  H    0.373456   0.520405  -0.024997  -0.024478  -0.000490  -0.000473
    33  H    0.403747  -0.024997   0.529276  -0.024677  -0.025116   0.002601
    34  H    0.394113  -0.024478  -0.024677   0.511930   0.015919   0.000150
    35  C   -0.299109  -0.000490  -0.025116   0.015919   5.866505   0.460726
    36  H   -0.002466  -0.000473   0.002601   0.000150   0.460726   0.531861
    37  H   -0.018880   0.003229  -0.000636   0.000080   0.362197  -0.025412
    38  H    0.020658   0.000002   0.000115  -0.000509   0.363307  -0.027217
    39  C   -0.205213   0.018239  -0.006011  -0.001408  -0.274964  -0.017283
    40  H    0.023569  -0.000548   0.000061   0.000005   0.002694  -0.000364
    41  H   -0.026494  -0.000015  -0.000552   0.003585   0.019060   0.000233
[...]
 .00001321,-0.00019648,-0.00002023,0.00000363,-0.00001489,-0.00000591,0
 .00005860,0.00000717,0.00000010,0.00000673,-0.00000061,-0.00000066,0.0
 0000090,0.00000454,0.00000137,0.00000466,0.00028039,0.00004499,-0.0001
 5499,0.00001566,0.00000815,-0.00000679,0.00038431,-0.00070496,0.001832
 44,0.00016436,0.00026388,-0.00024708,-0.00001251,-0.00000600,0.0000120
 6,0.00000668,-0.00000138,-0.00000507,0.00661831,-0.02406323,0.00667926
 ,-0.00000022,0.00000020,-0.00000025,-0.00000089,0.00000051,-0.00000013
 ,0.00000035,-0.00000053,0.00000011,0.00000030,0.00000063,0.00000020,0.
 00000003,-0.00000028,-0.00000058,0.00000011,0.00000054,-0.00000061,0.0
 0000062,0.00000071,0.00000030,-0.00000018,-0.00000068,0.00000059,0.000
 00014,-0.00000086,-0.00000063,-0.00000061,0.00000083,-0.00000015,0.000
 00046,-0.00000054,0.00000018,-0.00000031,-0.00000008,0.00000027,0.0000
 0031,0.00000052,0.00000002,-0.00035134,-0.00282653,-0.00435101,-0.0002
 1274,-0.00011438,0.00000260,0.00018476,0.00009309,-0.00012651,0.000370
 11,-0.00160729,0.00067532,-0.01736682,0.06792326,-0.06755753,-0.001865
 89,0.01071128,-0.00389095,-0.00741497,0.02080615,-0.00599245,0.0197187
 1,-0.07055983,0.07170247,-0.00029224,-0.00004983,-0.00006311,0.0000376
 1,0.00005124,-0.00005196,-0.00005525,-0.00001743,-0.00001208,0.0000985
 5,-0.00001808,-0.00002831,-0.00044299,0.00036463,-0.00007663,0.0004710
 1,-0.00047243,0.00098636,0.00000705,0.00000133,0.00002774,-0.00003716,
 0.00000599,-0.00000632,-0.00000439,-0.00000695,0.00000307,0.00006655,-
 0.00011941,0.00004108,-0.00676906,-0.00046733,-0.00126193,-0.00015992,
 -0.00014614,0.00003707,-0.03110052,-0.01025270,0.01957881,-0.00058691,
 -0.00084019,0.00401443,0.00010295,0.00006588,-0.00010954,-0.00003266,-
 0.00001737,0.00005467,-0.11626679,-0.01854623,0.04178594,-0.00000177,0
 .00000371,0.00000454,-0.00000042,-0.00000815,0.00000234,0.00000308,0.0
 0000147,0.00000048,-0.00000393,-0.00000460,-0.00000178,0.00000085,0.00
 000403,0.00000484,-0.00000950,-0.00000202,-0.00000414,-0.00000104,-0.0
 0000613,-0.00000046,0.00000128,0.00000184,0.00000146,-0.00000015,0.000
 00510,0.00000240,-0.00000034,-0.00000712,-0.00000690,0.00000170,0.0000
 0112,0.00000013,0.00000058,0.00000140,0.00000105,-0.00000350,-0.000003
 91,0.00000102,0.00516910,-0.00147955,-0.00281887,-0.00006806,0.0026088
 2,-0.00147677,0.00037952,0.00100724,-0.00088837,-0.00010596,0.00028778
 ,-0.00013402,0.00001098,0.00230312,0.00439066,0.00041687,-0.00038966,-
 0.00147440,0.00039996,-0.00046144,-0.00160016,-0.00019346,-0.00036357,
 -0.00024164,0.52374894,0.00000941,0.00001183,0.00001932,-0.00002351,0.
 00001177,-0.00000179,0.00000626,-0.00000225,0.00000096,-0.00003081,0.0
 0005843,-0.00000365,0.00021288,-0.00022367,0.00004129,-0.00017014,0.00
 049613,-0.00008685,0.00000513,0.00002182,-0.00004680,0.00001021,-0.000
 00099,-0.00000314,-0.00000166,0.00000650,0.00000019,-0.00003835,0.0000
 6867,-0.00001479,0.00132353,0.00108968,0.00021432,0.00003295,0.0000433
 7,-0.00000928,-0.00402198,-0.00105036,-0.00096619,0.00124912,-0.001556
 64,0.00056217,-0.00000916,-0.00001442,0.00001422,0.00000574,0.00000812
 ,-0.00000590,-0.01886039,-0.08524939,0.02044080,0.00000241,-0.00000199
 ,-0.00000148,-0.00000147,0.00000216,0.00000146,-0.00000117,0.00000007,
 -0.00000113,0.00000080,0.00000072,0.00000038,0.00000019,-0.00000070,-0
 .00000083,0.00000188,-0.00000113,0.00000223,-0.00000233,0.00000080,0.0
 0000020,0.00000159,0.00000094,-0.00000435,0.00000162,0.00000044,0.0000
 0378,-0.00000069,0.00000233,0.00000139,-0.00000126,0.,-0.00000013,0.00
 000032,-0.00000070,-0.00000135,0.00000094,0.00000079,0.00000010,-0.021
 08868,-0.01632308,0.02608277,0.00120288,-0.00572777,0.00199809,-0.0008
 5593,0.00134218,-0.00059061,-0.00060937,0.00123726,0.00029082,0.013354
 57,0.00629034,-0.01506458,0.00038564,0.00036752,0.00041796,0.00039056,
 -0.00259234,-0.00430412,0.00054964,0.00048641,-0.00063473,-0.02466765,
 0.56759401,-0.00033576,-0.00007308,-0.00008437,0.00004265,0.00006010,-
 0.00004204,-0.00007961,-0.00002287,-0.00002577,0.00014109,0.00004567,-
 0.00003093,-0.00040976,0.00034332,-0.00009816,0.00024936,-0.00026987,0
 .00099751,-0.00000029,-0.00001412,0.00002145,-0.00004395,0.00000894,-0
 .00001070,-0.00000704,-0.00000558,0.00000422,0.00006059,-0.00011715,0.
 00003711,-0.00677357,-0.00020161,-0.00001864,-0.00022676,-0.00020200,0
 .00005880,0.00163342,-0.00346652,0.01059654,-0.00303118,-0.00033631,-0
 .00198725,0.00016437,0.00010489,-0.00015402,-0.00005290,-0.00002759,0.
 00007473,0.04265514,0.02038609,-0.12503878,0.00000062,0.00000322,0.000
 00568,-0.00000196,-0.00001191,0.00000568,0.00000418,0.00000294,0.,-0.0
 0000645,-0.00000779,-0.00000289,0.00000189,0.00000658,0.00000740,-0.00
 001348,-0.00000456,-0.00000385,-0.00000485,-0.00001048,-0.00000092,0.0
 0000333,0.00000514,-0.00000208,0.00000123,0.00000986,0.00000801,-0.000
 00105,-0.00001022,-0.00001007,0.00000186,0.00000251,0.00000050,0.00000
 168,0.00000306,0.00000042,-0.00000551,-0.00000702,0.00000097,0.0075331
 8,0.00962386,-0.01059501,-0.00059728,0.00096119,0.00013297,0.00053904,
 -0.00067146,0.00011408,-0.00022411,-0.00165824,0.00094220,0.01994204,0
 .00458966,-0.02770770,0.00075567,0.00099683,0.00106851,-0.00016237,-0.
 00299955,-0.00349347,-0.00022044,0.00120058,0.00158436,0.05511316,0.02
 588897,0.52396942,0.00001704,-0.00001933,-0.00000862,-0.00002127,0.000
 01369,-0.00000882,0.00000670,0.00001134,0.00000305,-0.00002575,-0.0000
 2524,-0.00000118,0.00005708,-0.00007823,0.00001168,-0.00016402,0.00003
 939,-0.00004963,-0.00002442,0.00001909,0.00002304,0.00000102,-0.000001
 45,0.00000308,0.00000212,0.00000435,0.00000132,-0.00001269,0.00003584,
 -0.00000402,0.00044805,0.00025899,-0.00032635,0.00005820,0.00006403,-0
 .00002037,0.00060424,-0.00170419,0.00135367,-0.00038814,0.00042933,-0.
 00069062,-0.00004892,-0.00003080,0.00004546,0.00001645,0.00000728,-0.0
 0002292,0.00419220,-0.02069392,0.00586216,0.00000042,-0.00000109,-0.00
 000107,-0.00000076,0.00000286,-0.00000052,-0.00000120,-0.00000110,-0.0
 0000017,0.00000170,0.00000260,0.00000080,-0.00000008,-0.00000179,-0.00
 000251,0.00000309,0.00000028,0.00000210,0.00000081,0.00000286,0.000000
 45,-0.00000069,-0.00000104,-0.00000051,0.00000031,-0.00000216,-0.00000
 160,0.,0.00000250,0.00000264,-0.00000048,-0.00000102,-0.00000014,-0.00
 000057,-0.00000093,-0.00000054,0.00000155,0.00000224,0.,-0.00308883,-0
 .00077663,0.00267619,0.00059833,-0.00121218,0.00063094,0.00027643,-0.0
 0003170,0.00029466,-0.00014038,0.00015429,-0.00006236,0.00057171,-0.00
 048614,-0.00082848,-0.00004460,0.00020422,0.00003629,-0.00008539,-0.00
 006454,-0.00022103,0.00019823,0.00029035,0.00001067,-0.05969106,0.0556
 2932,-0.01702918,0.06275143,-0.00000704,-0.00001455,-0.00001048,-0.000
 01471,0.00001875,-0.00001049,-0.00001088,0.00000118,-0.00000363,0.0000
 0697,0.00001123,0.00000229,0.00002562,-0.00011286,0.00001626,-0.000088
 71,-0.00002907,0.00000258,-0.00001330,0.00001538,0.00002191,-0.0000064
 4,0.00000150,0.00000319,-0.00000165,0.00000484,0.00000197,-0.00002807,
 0.00005650,-0.00000534,-0.00006196,0.00013052,-0.00066207,-0.00000728,
 0.00002377,-0.00000260,0.00122121,-0.00071600,0.00271579,0.00033477,0.
 00123591,-0.00164990,0.00000695,-0.00000274,-0.00000058,-0.00000490,0.
 00000482,-0.00000143,0.00165358,-0.00907027,0.00160518,0.00000379,-0.0
 0000274,0.00000055,-0.00000044,0.00000048,0.00000129,-0.00000221,0.000
 00137,0.00000014,0.00000030,-0.00000043,-0.00000026,0.00000145,-0.0000
 0104,0.00000027,0.00000129,-0.00000028,0.00000037,-0.00000190,-0.00000
 057,-0.00000027,0.00000105,0.00000179,-0.00000416,0.00000171,0.0000000
 9,0.00000414,-0.00000058,0.00000134,0.00000011,-0.00000158,0.00000097,
 0.00000053,0.00000049,-0.00000001,-0.00000138,0.00000043,-0.00000062,-
 0.00000018,-0.00240819,0.00036782,0.00166570,0.00029271,-0.00050277,0.
 00041472,0.00010111,0.00018489,-0.00017469,0.00008921,0.00041194,-0.00
 009240,0.00035905,0.00046606,-0.00087358,-0.00008011,-0.00001315,0.000
 01983,-0.00016147,0.00023447,-0.00004368,-0.00008362,0.00076114,0.0004
 3560,0.05294948,-0.27472196,0.07294474,-0.05869457,0.29744007,0.000039
 57,0.00003098,0.00000230,0.00000440,-0.00002037,0.00000139,0.00000755,
 0.00000219,-0.00000009,-0.00001448,-0.00002086,-0.00000175,-0.00000284
 ,0.00004619,0.00000930,-0.00007270,-0.00002480,-0.00003077,0.00001537,
 -0.00000432,0.00000743,0.00000503,0.,0.00000402,0.00000041,-0.00000330
 ,0.00000062,0.00001448,-0.00002596,0.00000392,0.00017400,-0.00004311,-
 0.00016932,0.00002684,0.00000784,-0.00001035,-0.00099592,-0.00003703,0
 .00005504,0.00004502,-0.00021600,0.00038968,-0.00002608,-0.00000975,0.
 00002420,0.00000964,-0.00000182,-0.00001230,-0.00595132,0.02078670,-0.
 00757955,-0.00000141,0.00000095,-0.00000019,-0.00000037,0.00000059,-0.
 00000070,0.00000032,-0.00000088,0.00000022,0.00000053,0.00000116,0.000
 00035,-0.00000021,-0.00000046,-0.00000116,0.00000013,0.00000065,0.0000
 0017,0.00000196,0.00000138,0.00000042,-0.00000118,-0.00000155,0.000001
 95,-0.00000061,-0.00000164,-0.00000311,0.00000003,0.00000027,0.0000007
 4,0.00000067,-0.00000073,-0.00000008,-0.00000068,-0.00000023,0.0000002
 2,0.00000049,0.00000100,0.00000013,0.00362390,0.00056109,-0.00312578,-
 0.00016168,0.00154537,-0.00007842,0.00011017,-0.00038243,0.00013410,0.
 00007466,0.00022829,0.00018705,-0.00088711,0.00118977,0.00105007,-0.00
 001821,0.00001871,-0.00014080,0.00003229,-0.00028083,0.00032285,0.0003
 6380,-0.00064984,-0.00028349,-0.01615286,0.07196437,-0.07010559,0.0157
 7228,-0.08150351,0.07498703,0.00004543,0.00001862,-0.00000034,-0.00001
 369,-0.00000823,-0.00000474,0.00000921,0.00001202,0.00000400,-0.000031
 03,-0.00004139,-0.00000091,0.00001470,-0.00002719,0.00001773,-0.000200
 16,-0.00001109,-0.00008876,0.00000004,0.00000789,0.00001886,0.00000530
 ,-0.00000114,0.00000473,0.00000165,0.00000012,0.00000160,0.00000444,0.
 00000374,-0.00000799,0.00055466,0.00013993,-0.00064854,0.00006771,0.00
 005934,-0.00002799,0.00040087,0.00047998,0.00270420,-0.00039297,-0.000
 08104,-0.00123099,-0.00006581,-0.00003395,0.00006155,0.00002150,0.0000
 0442,-0.00003205,-0.00009170,0.01387378,0.01681786,-0.00000014,-0.0000
 0078,-0.00000138,-0.00000132,0.00000266,-0.00000036,-0.00000088,-0.000
 00143,-0.00000006,0.00000192,0.00000316,0.00000088,-0.00000017,-0.0000
 0188,-0.00000329,0.00000227,0.00000054,0.00000314,0.00000267,0.0000036
 2,0.00000069,-0.00000149,-0.00000224,0.00000031,0.00000001,-0.00000351
 ,-0.00000356,0.00000004,0.00000204,0.00000310,-0.00000007,-0.00000120,
 -0.00000033,-0.00000090,-0.00000103,-0.00000072,0.00000184,0.00000262,
 0.00000012,0.00041547,0.00085739,-0.00058621,-0.00013646,0.00010817,-0
 .00015033,-0.00000823,-0.00017330,-0.00010193,0.00024455,-0.00032378,-
 0.00006873,-0.00316874,-0.00185515,0.00236753,0.00030385,-0.00006377,0
 .00022626,0.00037216,0.00068061,0.00131245,-0.00004742,-0.00019109,-0.
 00021245,-0.04682419,-0.00693851,-0.00809464,-0.00053064,0.00448064,0.
 00600297,0.04880973,-0.00000660,-0.00001989,0.00000234,0.00000461,0.00
 000246,0.00000682,0.00000404,0.00000126,0.00000382,-0.00000376,-0.0000
 0843,-0.00000322,-0.00001016,0.00003936,-0.00001613,0.00009345,-0.0000
 1409,-0.00000450,-0.00000632,-0.00000432,-0.00000846,-0.00000051,-0.00
 000144,-0.00000350,0.00000199,-0.00000043,-0.00000200,0.00000345,-0.00
 001358,0.00000002,0.00004198,-0.00022386,0.00050569,0.00000324,-0.0000
 0120,0.00000683,-0.00034298,0.00075733,-0.00173108,-0.00062040,-0.0000
 8863,0.00117505,-0.00000131,-0.00000476,-0.00000766,0.00000155,0.00000
 334,0.00000680,0.00137771,0.00539332,0.00914508,-0.00000163,0.00000111
 ,0.00000003,0.00000116,0.00000049,-0.00000135,0.00000052,-0.00000038,-
 0.00000006,0.00000037,0.00000044,0.00000015,-0.00000106,-0.00000008,0.
 00000002,0.00000038,0.00000056,-0.00000045,0.00000089,0.00000068,-0.00
 000008,-0.00000031,-0.00000090,0.00000193,-0.00000109,-0.00000051,-0.0
 0000156,0.00000037,-0.00000010,0.00000008,0.00000005,-0.00000025,-0.00
 000036,-0.00000008,-0.00000034,0.00000098,0.00000005,0.00000054,0.0000
 0001,0.00013925,0.00113133,0.00059543,0.00005612,0.00014477,-0.0001373
 4,0.00006955,-0.00006455,0.00001946,-0.00023726,0.00006597,0.00004049,
 -0.00097730,-0.00019967,0.00128111,-0.00005548,-0.00014950,0.00006108,
 -0.00019906,0.00068011,0.00033424,-0.00024000,0.00032416,0.00019381,-0
 .00512176,-0.14408164,-0.12818394,-0.00156616,-0.01751398,-0.02423664,
 0.00787086,0.15351059,0.00001788,-0.00002004,0.00002044,-0.00000558,0.
 00001093,0.00000494,0.00000325,-0.00000388,0.00000013,-0.00001587,0.00
 000942,-0.00000577,0.00007667,-0.00007002,0.00002206,-0.00009697,0.000
 02068,-0.00005108,-0.00000606,0.00001163,-0.00002032,0.00000082,-0.000
 00021,-0.00000106,0.00000066,0.00000327,-0.00000149,-0.00001849,0.0000
 3605,0.00000006,0.00020351,-0.00002350,0.00031330,0.00001098,0.0000264
 2,0.00000428,-0.00140926,0.00018249,-0.00152542,-0.00050020,0.00004102
 ,0.00152434,-0.00000250,-0.00001754,-0.00001124,0.00000195,0.00001326,
 0.00001018,-0.00127965,-0.01330134,-0.01779225,0.00000116,-0.00000118,
 0.00000067,0.00000051,0.00000207,-0.00000096,-0.00000156,0.00000042,0.
 ,0.00000123,0.00000085,0.00000036,-0.00000007,-0.00000148,0.00000005,0
 .00000292,0.00000133,-0.00000129,-0.00000009,0.00000143,0.00000008,0.0
 0000057,-0.00000019,-0.00000105,0.00000022,-0.00000162,0.00000162,-0.0
 0000067,0.00000188,0.00000030,-0.00000162,0.00000021,0.00000002,0.0000
 0037,-0.00000116,0.00000005,0.00000097,0.00000095,0.00000015,-0.000643
 11,-0.00147751,0.00059149,0.00005365,0.00016170,0.00044815,0.00004534,
 0.00004277,-0.00009375,0.00011590,0.00106755,0.00013644,0.00369171,0.0
 0267790,-0.00246760,-0.00002377,0.00021058,0.00041977,0.00010166,-0.00
 105874,-0.00106050,0.00002543,-0.00009916,0.00017580,-0.00579545,-0.12
 699629,-0.21503255,0.00035048,0.00600911,0.00871238,0.00523034,0.13886
 308,0.23458129,-0.00015778,-0.00002403,-0.00002607,0.00003271,0.000015
 60,-0.00000253,-0.00003885,-0.00002460,-0.00001593,0.00008539,0.000066
 41,0.00000176,-0.00020502,0.00017261,-0.00003895,0.00052283,-0.0001333
 6,0.00040601,0.00001647,-0.00002264,-0.00000784,-0.00001972,0.00000495
 ,-0.00000793,-0.00000586,-0.00000460,0.00000021,0.00002647,-0.00005694
 ,0.00001530,-0.00250632,-0.00029469,0.00011425,-0.00017040,-0.00015713
 ,0.00005277,0.00022098,-0.00075908,0.00237160,-0.00023826,-0.00022939,
 0.00053322,0.00013990,0.00008639,-0.00012687,-0.00004732,-0.00002044,0
 .00006262,-0.02104714,0.00022907,-0.00828120,0.00000129,0.00000172,0.0
 0000336,0.00000054,-0.00000825,0.00000302,0.00000274,0.00000294,0.0000
 0035,-0.00000501,-0.00000719,-0.00000249,0.00000103,0.00000492,0.00000
 694,-0.00000838,-0.00000226,-0.00000502,-0.00000450,-0.00000868,-0.000
 00146,0.00000277,0.00000472,-0.00000103,0.00000031,0.00000742,0.000007
 24,-0.00000069,-0.00000681,-0.00000780,0.00000093,0.00000268,0.0000006
 7,0.00000186,0.00000272,0.00000100,-0.00000452,-0.00000641,-0.00000008
 ,0.00045215,0.00117670,-0.00122761,0.00039539,0.00010983,0.00022209,0.
 00077773,-0.00069588,0.00048836,-0.00000718,-0.00004048,0.00007707,0.0
 0044786,-0.00008072,-0.00162938,0.00060183,0.00030768,0.00076130,0.000
 46471,-0.00010545,0.00014038,-0.00002412,-0.00003235,0.00007419,-0.268
 26532,0.00294550,-0.09152236,-0.00553723,0.00014781,-0.00203886,0.0002
 3599,-0.00027834,-0.00013726,0.29386172,-0.00005962,-0.00001825,-0.000
 02350,0.00000872,0.00001416,-0.00000811,-0.00000828,-0.00000431,-0.000
 00342,0.00001147,-0.00000343,-0.00000135,-0.00005689,0.00006552,-0.000
 01262,0.00004033,-0.00000982,0.00015295,-0.00000474,0.00000025,0.00001
 530,-0.00000728,0.00000089,0.00000048,-0.00000008,-0.00000093,0.000000
 88,0.00000904,-0.00002350,0.00000781,-0.00097001,0.00001373,-0.0001664
 4,-0.00001970,-0.00002077,0.00000409,-0.00041201,-0.00056487,0.0019853
 5,0.00005965,0.00063791,-0.00021136,0.00001263,0.00001167,-0.00001123,
 -0.00000382,-0.00000523,0.00000490,-0.00974853,-0.00153555,-0.00400318
 ,-0.00000054,0.00000091,0.00000059,-0.00000019,-0.00000148,0.00000031,
 0.00000079,-0.00000012,0.00000015,-0.00000081,-0.00000067,-0.00000027,
 0.00000007,0.00000083,0.00000060,-0.00000152,-0.00000051,-0.00000095,-
 0.00000030,-0.00000103,-0.00000007,-0.00000006,0.00000038,0.00000091,-
 0.00000010,0.00000115,-0.00000017,0.00000007,-0.00000132,-0.00000102,0
 .00000067,-0.00000006,0.00000008,-0.00000004,0.00000049,0.00000034,-0.
 00000071,-0.00000062,0.00000007,-0.00084810,0.00040882,-0.00074539,0.0
 0024390,0.00006822,-0.00007762,0.00012636,-0.00007509,0.00050667,-0.00
 009870,-0.00007381,-0.00003563,0.00059291,-0.00006200,-0.00032742,0.00
 015386,0.00031738,-0.00020165,-0.00006373,-0.00015463,-0.00002749,0.00
 016084,0.00000140,0.00006468,0.00380544,-0.04759324,0.00111371,0.02821
 937,0.00132621,0.01107856,-0.01885042,0.00033469,-0.00632310,-0.002289
 94,0.04694662,0.00006994,0.00002065,0.00002736,0.00000737,-0.00002133,
 0.00001995,0.00001193,-0.00000773,0.00000244,-0.00001366,0.00003847,0.
 00000857,0.00011684,-0.00007724,0.00002215,0.00015591,0.00014535,-0.00
 022710,0.00000756,-0.00001020,-0.00002075,0.00001058,-0.00000102,0.000
 00035,-0.00000022,0.00000035,-0.00000208,-0.00001599,0.00002390,-0.000
 00687,0.00195145,0.00000936,0.00065493,0.00000437,-0.00000268,0.000004
 96,0.00109545,0.00184197,-0.00538099,-0.00072889,-0.00040220,0.0015309
 1,0.00001207,0.00000728,-0.00000282,-0.00000478,-0.00000106,0.00000146
 ,0.02260794,-0.00010736,0.00716015,0.00000008,-0.00000038,-0.00000128,
 0.00000113,0.00000011,-0.00000061,0.,0.00000050,0.,-0.00000035,-0.0000
 0097,-0.00000012,-0.00000013,0.00000035,0.00000075,0.00000079,0.000000
 40,-0.00000064,-0.00000121,-0.00000088,-0.00000045,0.00000042,0.000000
 86,-0.00000019,-0.00000001,0.00000077,0.00000105,0.00000035,0.00000046
 ,0.00000014,-0.00000019,0.00000044,0.00000014,0.00000028,0.00000036,0.
 00000017,-0.00000030,-0.00000082,-0.00000051,0.00032513,-0.00076968,0.
 00091828,-0.00001974,-0.00028807,0.00007123,-0.00026887,0.00013438,0.0
 0000999,-0.00015419,0.00007348,-0.00006924,0.00058791,0.00013724,0.001
 31745,-0.00013493,-0.00009410,-0.00034223,-0.00018776,0.00011858,0.000
 24516,-0.00001536,-0.00007362,-0.00010689,-0.09384556,0.00079220,-0.08
 518578,-0.00780033,-0.00082567,-0.00435216,-0.02351203,0.00209398,-0.0
 0890204,0.09973699,-0.00275644,0.09260513\\-0.00000244,0.00000032,-0.0
 0000138,0.00000125,0.00000042,0.00000040,0.00000130,-0.00000020,0.0000
 0070,-0.00000325,-0.00000312,-0.00000026,-0.00000051,0.00000201,0.0000
 0008,0.00000497,0.00000005,0.00000041,0.00000046,-0.00000006,-0.000001
 29,-0.00000029,-0.00000015,-0.00000003,-0.00000049,0.00000050,0.000001
 40,0.00000039,-0.00000029,0.00000008,-0.00000461,-0.00000133,0.0000011
 0,0.00000323,0.00000294,-0.00000004,0.00000378,0.00000048,-0.00000947,
 -0.00000009,-0.00000084,0.00000114,-0.00000302,-0.00000139,0.00000728,
 0.00000148,-0.00000039,0.00000001,-0.00000109,0.00000018,-0.00000095,0
 .00000018,0.00000164,0.00000132,-0.00000170,-0.00000051,0.00000310,-0.
 00000056,-0.00000004,0.00000344,-0.00000094,-0.00000012,0.00000385,-0.
 00000171,-0.00000046,0.00000293,-0.00000043,0.00000044,0.00000301,-0.0
 0000055,-0.00000005,0.00000318,0.00000050,0.00000034,0.00000233,-0.000
 00052,-0.00000004,0.00000213,0.00000043,0.00000024,0.00000526,0.000000
 30,0.00000123,0.00000328,0.00000080,0.00000110,0.00000295,0.00000022,0
 .00000074,0.00000387,0.00000075,-0.00000134,-0.00000358,0.00000031,0.0
 0000005,-0.00000222,0.00000035,0.00000045,-0.00000313,-0.00000029,-0.0
 0000050,-0.00000198,0.00000108,0.00000033,-0.00000400,0.00000113,0.000
 00014,-0.00000349,0.00000129,0.00000055,-0.00000258,0.00000078,0.,-0.0
 0000305,-0.00000045,-0.00000091,-0.00000494,-0.00000075,-0.00000054,-0
 .00000349,-0.00000083,-0.00000113,-0.00000330,-0.00000045,-0.00000072,
 -0.00000407\\\@


 GROWING OLD ISN'T SO BAD -- WHEN YOU CONSIDER THE ALTERNATIVE.

                     -- MAURICE CHEVALIER
 Job cpu time:       0 days 14 hours  5 minutes  8.8 seconds.
 File lengths (MBytes):  RWF=   1494 Int=      0 D2E=      0 Chk=     30 Scr=      1
 Normal termination of Gaussian 09 at Mon Jan  9 17:42:05 2023.
