 Entering Gaussian System, Link 0=g09
 Initial command:
 /cm/shared/apps/gaussian/g09revD.01/g09/l1.exe "//home/sweav003/CHB/CHActivation_Mkhalid/OtherCharges/G09-Chart8_1.com.o9447090.tmp/Gau-59501.inp" -scrdir="//home/sweav003/CHB/CHActivation_Mkhalid/OtherCharges/G09-Chart8_1.com.o9447090.tmp/"
 Entering Link 1 = /cm/shared/apps/gaussian/g09revD.01/g09/l1.exe PID=     59502.
  
 Copyright (c) 1988,1990,1992,1993,1995,1998,2003,2009,2013,
            Gaussian, Inc.  All Rights Reserved.
  
 This is part of the Gaussian(R) 09 program.  It is based on
 the Gaussian(R) 03 system (copyright 2003, Gaussian, Inc.),
 the Gaussian(R) 98 system (copyright 1998, Gaussian, Inc.),
 the Gaussian(R) 94 system (copyright 1995, Gaussian, Inc.),
 the Gaussian 92(TM) system (copyright 1992, Gaussian, Inc.),
 the Gaussian 90(TM) system (copyright 1990, Gaussian, Inc.),
 the Gaussian 88(TM) system (copyright 1988, Gaussian, Inc.),
 the Gaussian 86(TM) system (copyright 1986, Carnegie Mellon
 University), and the Gaussian 82(TM) system (copyright 1983,
 Carnegie Mellon University). Gaussian is a federally registered
 trademark of Gaussian, Inc.
  
 This software contains proprietary and confidential information,
 including trade secrets, belonging to Gaussian, Inc.
  
 This software is provided under written license and may be
 used, copied, transmitted, or stored only in accord with that
 written license.
  
 The following legend is applicable only to US Government
 contracts under FAR:
  
                    RESTRICTED RIGHTS LEGEND
  
 Use, reproduction and disclosure by the US Government is
 subject to restrictions as set forth in subparagraphs (a)
 and (c) of the Commercial Computer Software - Restricted
 Rights clause in FAR 52.227-19.
  
 Gaussian, Inc.
 340 Quinnipiac St., Bldg. 40, Wallingford CT 06492
  
  
 ---------------------------------------------------------------
 Warning -- This program may not be used in any manner that
 competes with the business of Gaussian, Inc. or will provide
 assistance to any competitor of Gaussian, Inc.  The licensee
 of this program is prohibited from giving any competitor of
 Gaussian, Inc. access to this program.  By using this program,
 the user acknowledges that Gaussian, Inc. is engaged in the
 business of creating and licensing software in the field of
 computational chemistry and represents and warrants to the
 licensee that it is not a competitor of Gaussian, Inc. and that
 it will not use this program in any manner prohibited above.
 ---------------------------------------------------------------
  

 Cite this work as:
 Gaussian 09, Revision D.01,
 M. J. Frisch, G. W. Trucks, H. B. Schlegel, G. E. Scuseria, 
 M. A. Robb, J. R. Cheeseman, G. Scalmani, V. Barone, B. Mennucci, 
 G. A. Petersson, H. Nakatsuji, M. Caricato, X. Li, H. P. Hratchian, 
 A. F. Izmaylov, J. Bloino, G. Zheng, J. L. Sonnenberg, M. Hada, 
 M. Ehara, K. Toyota, R. Fukuda, J. Hasegawa, M. Ishida, T. Nakajima, 
 Y. Honda, O. Kitao, H. Nakai, T. Vreven, J. A. Montgomery, Jr., 
 J. E. Peralta, F. Ogliaro, M. Bearpark, J. J. Heyd, E. Brothers, 
 K. N. Kudin, V. N. Staroverov, T. Keith, R. Kobayashi, J. Normand, 
 K. Raghavachari, A. Rendell, J. C. Burant, S. S. Iyengar, J. Tomasi, 
 M. Cossi, N. Rega, J. M. Millam, M. Klene, J. E. Knox, J. B. Cross, 
 V. Bakken, C. Adamo, J. Jaramillo, R. Gomperts, R. E. Stratmann, 
 O. Yazyev, A. J. Austin, R. Cammi, C. Pomelli, J. W. Ochterski, 
 R. L. Martin, K. Morokuma, V. G. Zakrzewski, G. A. Voth, 
 P. Salvador, J. J. Dannenberg, S. Dapprich, A. D. Daniels, 
 O. Farkas, J. B. Foresman, J. V. Ortiz, J. Cioslowski, 
 and D. J. Fox, Gaussian, Inc., Wallingford CT, 2013.
 
 ******************************************
 Gaussian 09:  ES64L-G09RevD.01 24-Apr-2013
                23-Jul-2021 
 ******************************************
 %mem=100MW
 %nprocshared=20
 Will use up to   20 processors via shared memory.
 ---------------------------------------------------------------------
 # b3lyp/6-311+g(d,p) geom=connectivity pop=(hirshfeld,chelpg,mbs,npa)
 ---------------------------------------------------------------------
 1/38=1,57=2/1;
 2/12=2,17=6,18=5,40=1/2;
 3/5=4,6=6,7=111,11=2,16=1,25=1,30=1,74=-5/1,2,3;
 4//1;
 5/5=2,38=5/2;
 6/7=2,8=2,9=2,10=2,15=8,20=3,27=100,28=1,40=-1,79=1/1,2,7;
 99/5=1,9=1/99;
 --------
 Chart8_1
 --------
 Symbolic Z-matrix:
 Charge =  0 Multiplicity = 1
 6                     2.65958  -1.45548   0.40179 
 6                     1.35803  -1.52774  -0.08837 
 6                     0.66086  -0.3841   -0.5036 
 6                     1.34834   0.8243   -0.39379 
 6                     2.64335   0.93257   0.08618 
 6                     3.30635  -0.22369   0.49103 
 1                     3.16888  -2.3609    0.71078 
 1                     0.86344  -2.49102  -0.15778 
 1                     4.3198   -0.15978   0.8691 
 6                    -0.75221  -0.4453   -1.01631 
 1                    -0.89958  -1.37297  -1.57888 
 1                    -0.94336   0.38042  -1.70732 
 14                   -2.08949  -0.39101   0.34864 
 1                    -1.91517  -1.60914   1.19321 
 6                    -3.7923   -0.44536  -0.46386 
 1                    -3.9094   -1.33628  -1.0877 
 1                    -4.5848   -0.46294   0.29016 
 1                    -3.95688   0.43129  -1.09793 
 6                    -1.90564   1.13843   1.43194 
 1                    -0.92358   1.17089   1.91098 
 1                    -2.02301   2.05622   0.84876 
 1                    -2.66205   1.14227   2.22251 
 9                     0.71655   1.96623  -0.78899 
 1                     3.11142   1.90817   0.13406 
 
                          Input orientation:                          
 ---------------------------------------------------------------------
 Center     Atomic      Atomic             Coordinates (Angstroms)
 Number     Number       Type             X           Y           Z
 ---------------------------------------------------------------------
      1          6           0        2.659579   -1.455483    0.401785
      2          6           0        1.358034   -1.527741   -0.088373
      3          6           0        0.660855   -0.384101   -0.503603
      4          6           0        1.348335    0.824299   -0.393791
      5          6           0        2.643354    0.932567    0.086181
      6          6           0        3.306350   -0.223687    0.491033
      7          1           0        3.168877   -2.360897    0.710778
      8          1           0        0.863435   -2.491021   -0.157775
      9          1           0        4.319795   -0.159779    0.869100
     10          6           0       -0.752206   -0.445298   -1.016309
     11          1           0       -0.899583   -1.372971   -1.578875
     12          1           0       -0.943358    0.380421   -1.707322
     13         14           0       -2.089487   -0.391006    0.348642
     14          1           0       -1.915171   -1.609142    1.193205
     15          6           0       -3.792297   -0.445356   -0.463860
     16          1           0       -3.909400   -1.336282   -1.087701
     17          1           0       -4.584800   -0.462939    0.290164
     18          1           0       -3.956881    0.431291   -1.097926
     19          6           0       -1.905640    1.138431    1.431936
     20          1           0       -0.923579    1.170893    1.910977
     21          1           0       -2.023008    2.056216    0.848755
     22          1           0       -2.662047    1.142274    2.222509
     23          9           0        0.716548    1.966229   -0.788992
     24          1           0        3.111421    1.908169    0.134064
 ---------------------------------------------------------------------
                    Distance matrix (angstroms):
                    1          2          3          4          5
     1  C    0.000000
     2  C    1.392658   0.000000
     3  C    2.441820   1.402279   0.000000
     4  C    2.747673   2.371807   1.394603   0.000000
     5  C    2.408869   2.781300   2.451889   1.385341   0.000000
     6  C    1.394130   2.414996   2.830844   2.390609   1.392980
     7  H    1.083806   2.147544   3.416521   3.831438   3.393111
     8  H    2.147459   1.085059   2.144702   3.358895   3.866339
     9  H    2.157209   3.400015   3.914393   3.375334   2.148636
    10  C    3.830371   2.546735   1.504445   2.532129   3.826725
    11  H    4.073998   2.709683   2.137531   3.359398   4.543162
    12  H    4.560705   3.399777   2.146377   2.678479   4.047965
    13  Si   4.867193   3.656303   2.879366   3.721128   4.921434
    14  H    4.645244   3.516097   3.319005   4.369286   5.335348
    15  C    6.587595   5.276216   4.453751   5.295567   6.604455
    16  H    6.736784   5.364809   4.704790   5.726552   7.033083
    17  H    7.312908   6.049328   5.305957   6.109572   7.364459
    18  H    7.041775   5.753723   4.726687   5.366151   6.724321
    19  C    5.350778   4.480109   3.556868   3.744371   4.748345
    20  H    4.691965   4.060269   3.280036   3.254793   4.013688
    21  H    5.870131   5.015416   3.871323   3.798354   4.859942
    22  H    6.195408   5.350720   4.561051   4.798885   5.723212
    23  F    4.111135   3.620801   2.368248   1.363577   2.355200
    24  H    3.404408   3.863848   3.415610   2.135855   1.083134
                    6          7          8          9         10
     6  C    0.000000
     7  H    2.152871   0.000000
     8  H    3.395525   2.467059   0.000000
     9  H    1.083554   2.488895   4.293668   0.000000
    10  C    4.335097   4.693319   2.744514   5.418624   0.000000
    11  H    4.826515   4.771884   2.525429   5.891207   1.094887
    12  H    4.822627   5.502046   3.729715   5.884772   1.093549
    13  Si   5.400308   5.626900   3.658725   6.434535   1.911638
    14  H    5.447643   5.161920   3.213022   6.409407   2.754809
    15  C    7.166013   7.314849   5.094534   8.225836   3.089879
    16  H    7.469760   7.374711   4.997813   8.540075   3.281284
    17  H    7.897331   7.993664   5.830697   8.928543   4.049192
    18  H    7.463800   7.864105   5.714826   8.527715   3.323404
    19  C    5.468592   6.206133   4.834033   6.384213   3.135684
    20  H    4.674761   5.537347   4.569767   5.509008   3.348200
    21  H    5.807579   6.818035   5.479235   6.718794   3.369121
    22  H    6.362831   6.968301   5.594248   7.230019   4.081399
    23  F    3.625089   5.194925   4.504119   4.500285   2.832733
    24  H    2.170307   4.308228   4.948887   2.505365   4.667952
                   11         12         13         14         15
    11  H    0.000000
    12  H    1.758635   0.000000
    13  Si   2.468896   2.477034   0.000000
    14  H    2.961693   3.649087   1.492491   0.000000
    15  C    3.235973   3.216296   1.887505   2.761135   0.000000
    16  H    3.049852   3.482586   2.503739   3.042028   1.093910
    17  H    4.231110   4.238078   2.497034   3.042398   1.094039
    18  H    3.582422   3.074943   2.501178   3.685272   1.094366
    19  C    4.047749   3.369793   1.883216   2.757941   3.108359
    20  H    4.318667   3.703691   2.497951   3.037605   4.059760
    21  H    4.349114   3.241522   2.498685   3.683086   3.333347
    22  H    4.887050   4.356361   2.488001   3.031102   3.318827
    23  F    3.792895   2.472530   3.837265   4.861926   5.123586
    24  H    5.457856   4.708073   5.690491   6.225744   7.318327
                   16         17         18         19         20
    16  H    0.000000
    17  H    1.765617   0.000000
    18  H    1.768240   1.766557   0.000000
    19  C    4.060521   3.323541   3.332842   0.000000
    20  H    4.918651   4.324463   4.336062   1.093150   0.000000
    21  H    4.337900   3.636062   3.189014   1.093711   1.766595
    22  H    4.319331   3.163486   3.634196   1.094154   1.766392
    23  F    5.691678   5.930407   4.928733   3.534634   3.257669
    24  H    7.830140   8.054709   7.325289   5.239071   4.470148
                   21         22         23         24
    21  H    0.000000
    22  H    1.769424   0.000000
    23  F    3.193036   4.600320   0.000000
    24  H    5.186045   6.187175   2.567259   0.000000
 Stoichiometry    C9H13FSi
 Framework group  C1[X(C9H13FSi)]
 Deg. of freedom    66
 Full point group                 C1      NOp   1
 Largest Abelian subgroup         C1      NOp   1
 Largest concise Abelian subgroup C1      NOp   1
                         Standard orientation:                         
 ---------------------------------------------------------------------
 Center     Atomic      Atomic             Coordinates (Angstroms)
 Number     Number       Type             X           Y           Z
 ---------------------------------------------------------------------
      1          6           0        2.659579   -1.455483    0.401785
      2          6           0        1.358034   -1.527741   -0.088373
      3          6           0        0.660855   -0.384101   -0.503603
      4          6           0        1.348335    0.824299   -0.393791
      5          6           0        2.643354    0.932567    0.086181
      6          6           0        3.306350   -0.223687    0.491033
      7          1           0        3.168877   -2.360897    0.710778
      8          1           0        0.863435   -2.491021   -0.157775
      9          1           0        4.319795   -0.159778    0.869100
     10          6           0       -0.752206   -0.445298   -1.016309
     11          1           0       -0.899583   -1.372971   -1.578875
     12          1           0       -0.943358    0.380421   -1.707322
     13         14           0       -2.089487   -0.391006    0.348642
     14          1           0       -1.915171   -1.609142    1.193205
     15          6           0       -3.792297   -0.445356   -0.463860
     16          1           0       -3.909400   -1.336282   -1.087701
     17          1           0       -4.584800   -0.462939    0.290164
     18          1           0       -3.956881    0.431291   -1.097926
     19          6           0       -1.905640    1.138431    1.431936
     20          1           0       -0.923579    1.170893    1.910977
     21          1           0       -2.023008    2.056216    0.848755
     22          1           0       -2.662047    1.142274    2.222509
     23          9           0        0.716548    1.966229   -0.788992
     24          1           0        3.111421    1.908169    0.134064
 ---------------------------------------------------------------------
 Rotational constants (GHZ):      1.7648858      0.5634827      0.4980499
 Standard basis: 6-311+G(d,p) (5D, 7F)
 There are   339 symmetry adapted cartesian basis functions of A   symmetry.
 There are   328 symmetry adapted basis functions of A   symmetry.
   328 basis functions,   514 primitive gaussians,   339 cartesian basis functions
    45 alpha electrons       45 beta electrons
       nuclear repulsion energy       682.4131071864 Hartrees.
 NAtoms=   24 NActive=   24 NUniq=   24 SFac= 1.00D+00 NAtFMM=   60 NAOKFM=F Big=F
 Integral buffers will be    131072 words long.
 Raffenetti 2 integral format.
 Two-electron integral symmetry is turned on.
 One-electron integrals computed using PRISM.
 NBasis=   328 RedAO= T EigKep=  2.02D-06  NBF=   328
 NBsUse=   328 1.00D-06 EigRej= -1.00D+00 NBFU=   328
 ExpMin= 3.31D-02 ExpMax= 6.94D+04 ExpMxC= 2.33D+03 IAcc=3 IRadAn=         5 AccDes= 0.00D+00
 Harris functional with IExCor=  402 and IRadAn=       5 diagonalized for initial guess.
 HarFok:  IExCor=  402 AccDes= 0.00D+00 IRadAn=         5 IDoV= 1 UseB2=F ITyADJ=14
 ICtDFT=  3500011 ScaDFX=  1.000000  1.000000  1.000000  1.000000
 FoFCou: FMM=F IPFlag=           0 FMFlag=      100000 FMFlg1=           0
         NFxFlg=           0 DoJE=T BraDBF=F KetDBF=T FulRan=T
         wScrn=  0.000000 ICntrl=     500 IOpCl=  0 I1Cent=   200000004 NGrid=           0
         NMat0=    1 NMatS0=      1 NMatT0=    0 NMatD0=    1 NMtDS0=    0 NMtDT0=    0
 Petite list used in FoFCou.
 Requested convergence on RMS density matrix=1.00D-08 within 128 cycles.
 Requested convergence on MAX density matrix=1.00D-06.
 Requested convergence on             energy=1.00D-06.
 No special actions if energy rises.
 SCF Done:  E(RB3LYP) =  -740.307302383     A.U. after   14 cycles
            NFock= 14  Conv=0.67D-08     -V/T= 2.0034

 **********************************************************************

            Population analysis using the SCF density.

 **********************************************************************

 Orbital symmetries:
       Occupied  (A) (A) (A) (A) (A) (A) (A) (A) (A) (A) (A) (A)
                 (A) (A) (A) (A) (A) (A) (A) (A) (A) (A) (A) (A)
                 (A) (A) (A) (A) (A) (A) (A) (A) (A) (A) (A) (A)
                 (A) (A) (A) (A) (A) (A) (A) (A) (A)
       Virtual   (A) (A) (A) (A) (A) (A) (A) (A) (A) (A) (A) (A)
                 (A) (A) (A) (A) (A) (A) (A) (A) (A) (A) (A) (A)
                 (A) (A) (A) (A) (A) (A) (A) (A) (A) (A) (A) (A)
                 (A) (A) (A) (A) (A) (A) (A) (A) (A) (A) (A) (A)
                 (A) (A) (A) (A) (A) (A) (A) (A) (A) (A) (A) (A)
                 (A) (A) (A) (A) (A) (A) (A) (A) (A) (A) (A) (A)
                 (A) (A) (A) (A) (A) (A) (A) (A) (A) (A) (A) (A)
                 (A) (A) (A) (A) (A) (A) (A) (A) (A) (A) (A) (A)
                 (A) (A) (A) (A) (A) (A) (A) (A) (A) (A) (A) (A)
                 (A) (A) (A) (A) (A) (A) (A) (A) (A) (A) (A) (A)
                 (A) (A) (A) (A) (A) (A) (A) (A) (A) (A) (A) (A)
                 (A) (A) (A) (A) (A) (A) (A) (A) (A) (A) (A) (A)
                 (A) (A) (A) (A) (A) (A) (A) (A) (A) (A) (A) (A)
                 (A) (A) (A) (A) (A) (A) (A) (A) (A) (A) (A) (A)
                 (A) (A) (A) (A) (A) (A) (A) (A) (A) (A) (A) (A)
                 (A) (A) (A) (A) (A) (A) (A) (A) (A) (A) (A) (A)
                 (A) (A) (A) (A) (A) (A) (A) (A) (A) (A) (A) (A)
                 (A) (A) (A) (A) (A) (A) (A) (A) (A) (A) (A) (A)
                 (A) (A) (A) (A) (A) (A) (A) (A) (A) (A) (A) (A)
                 (A) (A) (A) (A) (A) (A) (A) (A) (A) (A) (A) (A)
                 (A) (A) (A) (A) (A) (A) (A) (A) (A) (A) (A) (A)
                 (A) (A) (A) (A) (A) (A) (A) (A) (A) (A) (A) (A)
                 (A) (A) (A) (A) (A) (A) (A) (A) (A) (A) (A) (A)
                 (A) (A) (A) (A) (A) (A) (A)
 The electronic state is 1-A.
 Alpha  occ. eigenvalues --  -66.08759 -24.68798 -10.25814 -10.19746 -10.18477
 Alpha  occ. eigenvalues --  -10.18390 -10.18324 -10.18031 -10.16783 -10.15258
 Alpha  occ. eigenvalues --  -10.14853  -5.26085  -3.61922  -3.61886  -3.61848
 Alpha  occ. eigenvalues --   -1.22493  -0.87188  -0.78662  -0.75493  -0.71498
 Alpha  occ. eigenvalues --   -0.68783  -0.68454  -0.62542  -0.60509  -0.54406
 Alpha  occ. eigenvalues --   -0.50334  -0.49397  -0.48530  -0.46914  -0.44783
 Alpha  occ. eigenvalues --   -0.43108  -0.42088  -0.41444  -0.41109  -0.40096
 Alpha  occ. eigenvalues --   -0.39678  -0.39306  -0.37427  -0.36853  -0.35439
 Alpha  occ. eigenvalues --   -0.32532  -0.31742  -0.31179  -0.25937  -0.24357
 Alpha virt. eigenvalues --   -0.02463  -0.01253  -0.00450   0.00464   0.01054
 Alpha virt. eigenvalues --    0.01943   0.02266   0.03446   0.04662   0.04981
 Alpha virt. eigenvalues --    0.05306   0.05429   0.05921   0.06468   0.07262
 Alpha virt. eigenvalues --    0.07744   0.08277   0.08470   0.09207   0.09611
 Alpha virt. eigenvalues --    0.09999   0.10081   0.10969   0.11127   0.11234
 Alpha virt. eigenvalues --    0.11803   0.12487   0.12749   0.13603   0.13783
 Alpha virt. eigenvalues --    0.14482   0.14883   0.15393   0.15733   0.16246
 Alpha virt. eigenvalues --    0.16729   0.17158   0.17237   0.18237   0.18388
 Alpha virt. eigenvalues --    0.19297   0.19474   0.20047   0.20859   0.21148
 Alpha virt. eigenvalues --    0.21630   0.22046   0.22772   0.22904   0.23318
 Alpha virt. eigenvalues --    0.24111   0.24469   0.24887   0.25694   0.26667
 Alpha virt. eigenvalues --    0.27110   0.27510   0.29098   0.29472   0.30508
 Alpha virt. eigenvalues --    0.30806   0.31893   0.32178   0.33139   0.33577
 Alpha virt. eigenvalues --    0.34401   0.35172   0.36446   0.38017   0.38683
 Alpha virt. eigenvalues --    0.39761   0.41879   0.42751   0.45993   0.46388
 Alpha virt. eigenvalues --    0.48208   0.50032   0.50907   0.51436   0.52540
 Alpha virt. eigenvalues --    0.52807   0.53100   0.54634   0.55141   0.55862
 Alpha virt. eigenvalues --    0.56319   0.57476   0.59200   0.59861   0.60325
 Alpha virt. eigenvalues --    0.61284   0.61960   0.63260   0.63776   0.65089
 Alpha virt. eigenvalues --    0.66303   0.67390   0.68228   0.68426   0.69260
 Alpha virt. eigenvalues --    0.69928   0.70029   0.71740   0.72232   0.73825
 Alpha virt. eigenvalues --    0.74350   0.74899   0.75959   0.77579   0.78877
 Alpha virt. eigenvalues --    0.79795   0.81458   0.83028   0.83472   0.83673
 Alpha virt. eigenvalues --    0.84369   0.84950   0.86626   0.88276   0.88819
 Alpha virt. eigenvalues --    0.92912   0.94452   0.94910   0.97006   0.99590
 Alpha virt. eigenvalues --    1.00761   1.01678   1.03275   1.05666   1.07898
 Alpha virt. eigenvalues --    1.08327   1.09476   1.10131   1.12430   1.14981
 Alpha virt. eigenvalues --    1.17704   1.18751   1.20408   1.29839   1.36507
 Alpha virt. eigenvalues --    1.36995   1.39421   1.40546   1.43011   1.44736
 Alpha virt. eigenvalues --    1.45679   1.46563   1.47441   1.48372   1.49919
 Alpha virt. eigenvalues --    1.51051   1.52541   1.54888   1.56070   1.56334
 Alpha virt. eigenvalues --    1.57572   1.57986   1.58933   1.60057   1.61467
 Alpha virt. eigenvalues --    1.62175   1.63212   1.63711   1.64264   1.65271
 Alpha virt. eigenvalues --    1.65686   1.69534   1.71809   1.71944   1.73747
 Alpha virt. eigenvalues --    1.74584   1.76764   1.78298   1.78876   1.80032
 Alpha virt. eigenvalues --    1.81146   1.82863   1.84297   1.89361   1.90074
 Alpha virt. eigenvalues --    1.91194   1.92083   1.93432   1.94038   1.95941
 Alpha virt. eigenvalues --    1.99127   2.00673   2.02388   2.03737   2.06339
 Alpha virt. eigenvalues --    2.08315   2.09237   2.10956   2.14321   2.19149
 Alpha virt. eigenvalues --    2.19886   2.21875   2.23065   2.23463   2.25494
 Alpha virt. eigenvalues --    2.31288   2.32071   2.34319   2.38676   2.39110
 Alpha virt. eigenvalues --    2.44684   2.46889   2.49003   2.49808   2.51148
 Alpha virt. eigenvalues --    2.51954   2.53410   2.54293   2.54861   2.56696
 Alpha virt. eigenvalues --    2.56867   2.60362   2.63375   2.66324   2.66916
 Alpha virt. eigenvalues --    2.69051   2.69133   2.71687   2.72424   2.74955
 Alpha virt. eigenvalues --    2.75857   2.77790   2.78853   2.79152   2.81661
 Alpha virt. eigenvalues --    2.82526   2.84337   2.88379   2.89678   2.91781
 Alpha virt. eigenvalues --    2.94737   2.97414   3.08373   3.12308   3.15058
 Alpha virt. eigenvalues --    3.18453   3.21171   3.28409   3.28846   3.34838
 Alpha virt. eigenvalues --    3.38270   3.51865   3.54575   3.65664   3.74004
 Alpha virt. eigenvalues --    3.74445   3.75201   3.77059   3.77263   3.79643
 Alpha virt. eigenvalues --    3.80235   3.87985   3.97797   4.03118   4.06609
 Alpha virt. eigenvalues --    4.11488   4.15409   4.29971   4.83231   4.88063
 Alpha virt. eigenvalues --    5.78437   6.35650   6.48949   6.74415  11.47407
 Alpha virt. eigenvalues --   11.51995  11.55477  23.54466  23.89582  23.91298
 Alpha virt. eigenvalues --   23.94433  23.95549  23.97269  24.05894  24.08855
 Alpha virt. eigenvalues --   24.18536  66.82226 141.22749
          Condensed to atoms (all electrons):
               1          2          3          4          5          6
     1  C    6.023212  -0.479207   1.022436  -1.163343   0.924619   0.010163
     2  C   -0.479207   9.278870  -1.620070  -0.648556  -1.079677   0.525360
     3  C    1.022436  -1.620070  13.948471  -2.728446  -0.618825  -1.021157
     4  C   -1.163343  -0.648556  -2.728446  12.381863  -3.188090   0.763776
     5  C    0.924619  -1.079677  -0.618825  -3.188090  10.675010  -0.331350
     6  C    0.010163   0.525360  -1.021157   0.763776  -0.331350   5.651885
     7  H    0.373315  -0.038968   0.007438  -0.001834  -0.011134   0.005338
     8  H   -0.005243   0.298775  -0.023528   0.004715   0.003653  -0.004749
     9  H    0.009253  -0.032775   0.034156  -0.024888  -0.002332   0.364328
    10  C   -0.559284   0.436495  -3.874883   0.705750  -0.676006   0.236874
    11  H    0.020013   0.081316  -0.097209  -0.090756   0.012738  -0.002296
    12  H    0.001291  -0.113718  -0.220624   0.210919   0.031977   0.000167
    13  Si   0.021952   0.032147   0.294640  -0.043606  -0.119336   0.003855
    14  H   -0.004355  -0.051681  -0.080356   0.051297  -0.001431  -0.000874
    15  C   -0.004213  -0.012515  -0.260175   0.062666   0.007417  -0.000382
    16  H   -0.000360   0.003178   0.000952  -0.001089   0.000378   0.000041
    17  H    0.000152  -0.000370   0.011268  -0.000874   0.000149  -0.000040
    18  H    0.000082   0.000120  -0.014819   0.000019  -0.001463   0.000060
    19  C    0.009846  -0.026419  -0.025325  -0.052023   0.095732  -0.003744
    20  H    0.006909  -0.011840   0.032953  -0.007412   0.002102  -0.003851
    21  H    0.000770  -0.000148  -0.025246  -0.003680  -0.004687  -0.001032
    22  H   -0.001185   0.001408   0.006956   0.005920  -0.001083   0.000519
    23  F   -0.032907   0.039974  -0.332175   0.722883  -0.326001   0.034310
    24  H   -0.009159   0.001580   0.007908  -0.058080   0.394101   0.007692
               7          8          9         10         11         12
     1  C    0.373315  -0.005243   0.009253  -0.559284   0.020013   0.001291
     2  C   -0.038968   0.298775  -0.032775   0.436495   0.081316  -0.113718
     3  C    0.007438  -0.023528   0.034156  -3.874883  -0.097209  -0.220624
     4  C   -0.001834   0.004715  -0.024888   0.705750  -0.090756   0.210919
     5  C   -0.011134   0.003653  -0.002332  -0.676006   0.012738   0.031977
     6  C    0.005338  -0.004749   0.364328   0.236874  -0.002296   0.000167
     7  H    0.541159  -0.007862  -0.007613   0.015211  -0.000036   0.000011
     8  H   -0.007862   0.537411  -0.000311   0.073734   0.001325   0.000373
     9  H   -0.007613  -0.000311   0.534236   0.003541   0.000001  -0.000001
    10  C    0.015211   0.073734   0.003541   9.710660   0.411282   0.427369
    11  H   -0.000036   0.001325   0.000001   0.411282   0.515823  -0.018706
    12  H    0.000011   0.000373  -0.000001   0.427369  -0.018706   0.497078
    13  Si  -0.000317  -0.003545  -0.000357   0.071029  -0.023288  -0.013467
    14  H    0.000005   0.000362   0.000000   0.018990  -0.002341   0.003120
    15  C    0.000014   0.000494   0.000004   0.095994   0.002262   0.005556
    16  H    0.000000   0.000004   0.000000  -0.004628   0.001825  -0.000180
    17  H    0.000000  -0.000002   0.000000   0.006374  -0.000159  -0.000169
    18  H    0.000000   0.000002   0.000000  -0.004562  -0.000133   0.001394
    19  C   -0.000039   0.000458   0.000032  -0.108611   0.008182  -0.001804
    20  H   -0.000001   0.000010  -0.000001  -0.022501  -0.000047   0.000196
    21  H    0.000000   0.000005   0.000000   0.019634  -0.000102   0.001202
    22  H    0.000000  -0.000003   0.000000   0.003906  -0.000122  -0.000175
    23  F    0.000089  -0.000334  -0.000456  -0.053679   0.001830   0.000427
    24  H   -0.000204   0.000049  -0.007237   0.013039   0.000012  -0.000011
              13         14         15         16         17         18
     1  C    0.021952  -0.004355  -0.004213  -0.000360   0.000152   0.000082
     2  C    0.032147  -0.051681  -0.012515   0.003178  -0.000370   0.000120
     3  C    0.294640  -0.080356  -0.260175   0.000952   0.011268  -0.014819
     4  C   -0.043606   0.051297   0.062666  -0.001089  -0.000874   0.000019
     5  C   -0.119336  -0.001431   0.007417   0.000378   0.000149  -0.001463
     6  C    0.003855  -0.000874  -0.000382   0.000041  -0.000040   0.000060
     7  H   -0.000317   0.000005   0.000014   0.000000   0.000000   0.000000
     8  H   -0.003545   0.000362   0.000494   0.000004  -0.000002   0.000002
     9  H   -0.000357   0.000000   0.000004   0.000000   0.000000   0.000000
    10  C    0.071029   0.018990   0.095994  -0.004628   0.006374  -0.004562
    11  H   -0.023288  -0.002341   0.002262   0.001825  -0.000159  -0.000133
    12  H   -0.013467   0.003120   0.005556  -0.000180  -0.000169   0.001394
    13  Si  11.857143   0.447155   0.235045  -0.024695  -0.021967   0.005767
    14  H    0.447155   0.836227  -0.029838  -0.001917  -0.001576   0.002752
    15  C    0.235045  -0.029838   5.710033   0.365157   0.370136   0.388732
    16  H   -0.024695  -0.001917   0.365157   0.527018  -0.017236  -0.023475
    17  H   -0.021967  -0.001576   0.370136  -0.017236   0.517845  -0.022870
    18  H    0.005767   0.002752   0.388732  -0.023475  -0.022870   0.514870
    19  C    0.230865  -0.042942  -0.148035   0.015817  -0.003767  -0.013648
    20  H   -0.014198  -0.000607   0.012261  -0.000149  -0.000078  -0.000082
    21  H   -0.016281   0.003015  -0.000249  -0.000212  -0.000048   0.001651
    22  H   -0.015053  -0.001717  -0.006630  -0.000060   0.001235   0.000133
    23  F   -0.007868  -0.000141   0.001529  -0.000001  -0.000001   0.000043
    24  H   -0.000993   0.000001   0.000000   0.000000   0.000000   0.000000
              19         20         21         22         23         24
     1  C    0.009846   0.006909   0.000770  -0.001185  -0.032907  -0.009159
     2  C   -0.026419  -0.011840  -0.000148   0.001408   0.039974   0.001580
     3  C   -0.025325   0.032953  -0.025246   0.006956  -0.332175   0.007908
     4  C   -0.052023  -0.007412  -0.003680   0.005920   0.722883  -0.058080
     5  C    0.095732   0.002102  -0.004687  -0.001083  -0.326001   0.394101
     6  C   -0.003744  -0.003851  -0.001032   0.000519   0.034310   0.007692
     7  H   -0.000039  -0.000001   0.000000   0.000000   0.000089  -0.000204
     8  H    0.000458   0.000010   0.000005  -0.000003  -0.000334   0.000049
     9  H    0.000032  -0.000001   0.000000   0.000000  -0.000456  -0.007237
    10  C   -0.108611  -0.022501   0.019634   0.003906  -0.053679   0.013039
    11  H    0.008182  -0.000047  -0.000102  -0.000122   0.001830   0.000012
    12  H   -0.001804   0.000196   0.001202  -0.000175   0.000427  -0.000011
    13  Si   0.230865  -0.014198  -0.016281  -0.015053  -0.007868  -0.000993
    14  H   -0.042942  -0.000607   0.003015  -0.001717  -0.000141   0.000001
    15  C   -0.148035   0.012261  -0.000249  -0.006630   0.001529   0.000000
    16  H    0.015817  -0.000149  -0.000212  -0.000060  -0.000001   0.000000
    17  H   -0.003767  -0.000078  -0.000048   0.001235  -0.000001   0.000000
    18  H   -0.013648  -0.000082   0.001651   0.000133   0.000043   0.000000
    19  C    5.806732   0.359005   0.383727   0.359802   0.000572   0.000359
    20  H    0.359005   0.505107  -0.017924  -0.016618  -0.001744  -0.000017
    21  H    0.383727  -0.017924   0.502336  -0.021194  -0.001232   0.000002
    22  H    0.359802  -0.016618  -0.021194   0.522044   0.000222   0.000000
    23  F    0.000572  -0.001744  -0.001232   0.000222   9.134047  -0.006990
    24  H    0.000359  -0.000017   0.000002   0.000000  -0.006990   0.524541
 Mulliken charges:
               1
     1  C   -0.164756
     2  C   -0.583280
     3  C    1.575660
     4  C   -0.897131
     5  C    0.213540
     6  C   -0.234895
     7  H    0.125428
     8  H    0.124209
     9  H    0.130422
    10  C   -0.945727
    11  H    0.178587
    12  H    0.187775
    13  Si   1.105372
    14  H   -0.143148
    15  C   -0.795265
    16  H    0.159634
    17  H    0.161998
    18  H    0.165426
    19  C   -0.844773
    20  H    0.178526
    21  H    0.179693
    22  H    0.161697
    23  F   -0.172398
    24  H    0.133408
 Sum of Mulliken charges =   0.00000
 Mulliken charges with hydrogens summed into heavy atoms:
               1
     1  C   -0.039328
     2  C   -0.459071
     3  C    1.575660
     4  C   -0.897131
     5  C    0.346947
     6  C   -0.104474
    10  C   -0.579365
    13  Si   0.962223
    15  C   -0.308208
    19  C   -0.324856
    23  F   -0.172398
 Electronic spatial extent (au):  <R**2>=           2398.3069
 Charge=              0.0000 electrons
 Dipole moment (field-independent basis, Debye):
    X=             -0.1199    Y=             -0.8785    Z=              0.1495  Tot=              0.8992
 Quadrupole moment (field-independent basis, Debye-Ang):
   XX=            -68.8657   YY=            -74.7126   ZZ=            -77.0091
   XY=             -0.5304   XZ=              2.8800   YZ=              1.4919
 Traceless Quadrupole moment (field-independent basis, Debye-Ang):
   XX=              4.6634   YY=             -1.1835   ZZ=             -3.4799
   XY=             -0.5304   XZ=              2.8800   YZ=              1.4919
 Octapole moment (field-independent basis, Debye-Ang**2):
  XXX=             24.8723  YYY=              5.2145  ZZZ=             -8.8476  XYY=              8.2038
  XXY=             10.9366  XXZ=             11.1515  XZZ=             -5.2618  YZZ=              6.1473
  YYZ=             -2.7334  XYZ=             -2.6569
 Hexadecapole moment (field-independent basis, Debye-Ang**3):
 XXXX=          -2340.8565 YYYY=           -591.2495 ZZZZ=           -350.9349 XXXY=             13.2656
 XXXZ=             20.0207 YYYX=             -0.7680 YYYZ=             -5.3789 ZZZX=             -5.4543
 ZZZY=             -9.6129 XXYY=           -479.3056 XXZZ=           -466.8882 YYZZ=           -166.3267
 XXYZ=            -11.1623 YYXZ=             18.8115 ZZXY=              2.5491
 N-N= 6.824131071864D+02 E-N=-3.106103546978D+03  KE= 7.378150636722D+02
 There are a total of      197950 grid points.
 ElSum from          density=       90.0003893162
 ElSum from atomic densities=       90.0008817058

 Hirshfeld populations at iteration   1 (CX, CA, CB, DipXYZ):
               1          2          3          4          5          6
     1  C    0.000000   3.026657   3.026657   0.030075  -0.051368   0.018748
     2  C    0.000000   3.023124   3.023124  -0.034756  -0.047166  -0.004223
     3  C    0.000000   3.001992   3.001992  -0.062605  -0.005715  -0.016073
     4  C    0.000000   2.966079   2.966079  -0.074578   0.111684  -0.040065
     5  C    0.000000   3.029358   3.029358   0.035508   0.055997   0.006308
     6  C    0.000000   3.024197   3.024197   0.060996   0.005342   0.022790
     7  H    0.000002   0.476090   0.476090   0.075840  -0.134974   0.046264
     8  H    0.000001   0.475767   0.475767  -0.066639  -0.142685  -0.009715
     9  H    0.000002   0.475205   0.475205   0.152232   0.009465   0.056660
    10  C    0.000000   3.078523   3.078523   0.081504  -0.007287  -0.064546
    11  H    0.000001   0.477246   0.477246  -0.023668  -0.133150  -0.080847
    12  H    0.000001   0.478057   0.478057  -0.037446   0.107936  -0.103026
    13  Si   0.000000   6.816058   6.816058  -0.035747   0.045864  -0.024641
    14  H    0.000001   0.546867   0.546867   0.008924  -0.088854   0.063609
    15  C    0.000000   3.104213   3.104213  -0.085301  -0.001904  -0.039425
    16  H    0.000001   0.479528   0.479528  -0.012422  -0.129498  -0.087342
    17  H    0.000001   0.478865   0.478865  -0.110075  -0.002619   0.112938
    18  H    0.000001   0.479425   0.479425  -0.019148   0.127370  -0.088939
    19  C    0.000000   3.104765   3.104765   0.002957   0.078109   0.059868
    20  H    0.000001   0.479198   0.479198   0.132803   0.002764   0.075185
    21  H    0.000001   0.478971   0.478971  -0.022178   0.129634  -0.084488
    22  H    0.000001   0.479238   0.479238  -0.109959  -0.004246   0.112168
    23  F    0.000003   4.548981   4.548981   0.049145  -0.126767   0.042057
    24  H    0.000002   0.471791   0.471791   0.079471   0.145834   0.010780
       Tot   0.000017  45.000195  45.000195   0.014934  -0.056232  -0.015955

 Dip from Atomic Chgs             -0.061305  -0.289557   0.074375
         Total Dipole             -0.046371  -0.345789   0.058420

 Hirshfeld charges, spin densities, dipoles, and CM5 charges using IRadAn=      4:
              Q-H        S-H        Dx         Dy         Dz        Q-CM5   
     1  C   -0.053314   0.000000   0.030075  -0.051368   0.018748  -0.108979
     2  C   -0.046248   0.000000  -0.034756  -0.047166  -0.004223  -0.099994
     3  C   -0.003984   0.000000  -0.062605  -0.005715  -0.016073  -0.019851
     4  C    0.067842   0.000000  -0.074578   0.111684  -0.040065   0.044369
     5  C   -0.058715   0.000000   0.035508   0.055997   0.006308  -0.112624
     6  C   -0.048393   0.000000   0.060996   0.005342   0.022790  -0.103931
     7  H    0.047820   0.000000   0.075840  -0.134974   0.046264   0.103638
     8  H    0.048466   0.000000  -0.066639  -0.142685  -0.009715   0.104648
     9  H    0.049589   0.000000   0.152232   0.009465   0.056660   0.105384
    10  C   -0.157046   0.000000   0.081504  -0.007287  -0.064546  -0.287081
    11  H    0.045507   0.000000  -0.023668  -0.133150  -0.080847   0.090614
    12  H    0.043886   0.000000  -0.037446   0.107936  -0.103026   0.088001
    13  Si   0.367885   0.000000  -0.035747   0.045864  -0.024641   0.231790
    14  H   -0.093734   0.000000   0.008924  -0.088854   0.063609  -0.013025
    15  C   -0.208425   0.000000  -0.085301  -0.001904  -0.039425  -0.317356
    16  H    0.040945   0.000000  -0.012422  -0.129498  -0.087342   0.094907
    17  H    0.042270   0.000000  -0.110075  -0.002619   0.112938   0.096298
    18  H    0.041150   0.000000  -0.019148   0.127370  -0.088939   0.095230
    19  C   -0.209531   0.000000   0.002957   0.078109   0.059868  -0.318050
    20  H    0.041604   0.000000   0.132803   0.002764   0.075185   0.096013
    21  H    0.042057   0.000000  -0.022178   0.129634  -0.084488   0.096098
    22  H    0.041524   0.000000  -0.109959  -0.004246   0.112168   0.095692
    23  F   -0.097962   0.000000   0.049145  -0.126767   0.042057  -0.075620
    24  H    0.056418   0.000000   0.079471   0.145834   0.010780   0.113438
       Tot  -0.000389   0.000000   0.014934  -0.056232  -0.015955  -0.000389
 Hirshfeld charges with hydrogens summed into heavy atoms:
              Q-H       Q-CM5   
     1  C   -0.005494  -0.005341
     2  C    0.002218   0.004654
     3  C   -0.003984  -0.019851
     4  C    0.067842   0.044369
     5  C   -0.002297   0.000814
     6  C    0.001196   0.001453
    10  C   -0.067652  -0.108465
    13  Si   0.274151   0.218765
    15  C   -0.084061  -0.030920
    19  C   -0.084346  -0.030247
    23  F   -0.097962  -0.075620
 
 EQQ= 0.000000000000E+00 EQD= 0.000000000000E+00 EDD= 0.786859686872E-02
 EQQ+QD+DD= 0.786859686872E-02
 
          MBS Condensed to atoms (all electrons):
               1          2          3          4          5          6
     1  C    4.825747   0.509570  -0.028553  -0.012755  -0.032219   0.505752
     2  C    0.509570   4.842113   0.497541  -0.031422  -0.010861  -0.032334
     3  C   -0.028553   0.497541   4.806953   0.491934  -0.032378  -0.009400
     4  C   -0.012755  -0.031422   0.491934   4.679383   0.501951  -0.029544
     5  C   -0.032219  -0.010861  -0.032378   0.501951   4.847374   0.502863
     6  C    0.505752  -0.032334  -0.009400  -0.029544   0.502863   4.823033
     7  H    0.390822  -0.025679   0.001451   0.000072   0.001542  -0.025558
     8  H   -0.025440   0.388615  -0.027264   0.001493   0.000029   0.001562
     9  H   -0.024955   0.001533   0.000015   0.001466  -0.025643   0.390847
    10  C    0.000800  -0.025659   0.383613  -0.026825   0.000697   0.000030
    11  H    0.000033  -0.004030  -0.022152   0.001268  -0.000021   0.000001
    12  H   -0.000026   0.001266  -0.021653  -0.004493   0.000061   0.000000
    13  Si  -0.000006  -0.001053  -0.012712  -0.000700  -0.000010   0.000003
    14  H   -0.000002   0.000146  -0.000291   0.000005   0.000000   0.000000
    15  C    0.000000   0.000001   0.000102   0.000000   0.000000   0.000000
    16  H    0.000000   0.000000   0.000001   0.000000   0.000000   0.000000
    17  H    0.000000   0.000000  -0.000002   0.000000   0.000000   0.000000
    18  H    0.000000   0.000000   0.000000   0.000000   0.000000   0.000000
    19  C    0.000000   0.000000  -0.000467  -0.000048  -0.000004   0.000000
    20  H   -0.000001   0.000008   0.000226   0.000330   0.000011  -0.000001
    21  H    0.000000   0.000001   0.000008   0.000007   0.000001   0.000000
    22  H    0.000000   0.000000   0.000007  -0.000001   0.000000   0.000000
    23  F    0.000004   0.000237  -0.019734   0.236235  -0.020293   0.000243
    24  H    0.001462   0.000060   0.001272  -0.025747   0.387855  -0.021544
               7          8          9         10         11         12
     1  C    0.390822  -0.025440  -0.024955   0.000800   0.000033  -0.000026
     2  C   -0.025679   0.388615   0.001533  -0.025659  -0.004030   0.001266
     3  C    0.001451  -0.027264   0.000015   0.383613  -0.022152  -0.021653
     4  C    0.000072   0.001493   0.001466  -0.026825   0.001268  -0.004493
     5  C    0.001542   0.000029  -0.025643   0.000697  -0.000021   0.000061
     6  C   -0.025558   0.001562   0.390847   0.000030   0.000001   0.000000
     7  H    0.556790  -0.003933  -0.003641  -0.000016  -0.000002   0.000000
     8  H   -0.003933   0.560436  -0.000044  -0.003526   0.001056   0.000028
     9  H   -0.003641  -0.000044   0.553362   0.000000   0.000000   0.000000
    10  C   -0.000016  -0.003526   0.000000   4.946209   0.366236   0.366385
    11  H   -0.000002   0.001056   0.000000   0.366236   0.596792  -0.021608
    12  H    0.000000   0.000028   0.000000   0.366385  -0.021608   0.586981
    13  Si   0.000000   0.000185   0.000000   0.339009  -0.015788  -0.016303
    14  H    0.000000   0.000090   0.000000  -0.009168  -0.000423   0.000420
    15  C    0.000000  -0.000001   0.000000  -0.007363  -0.000254  -0.000337
    16  H    0.000000   0.000000   0.000000  -0.000298   0.000170   0.000029
    17  H    0.000000   0.000000   0.000000   0.000240  -0.000001   0.000000
    18  H    0.000000   0.000000   0.000000  -0.000295   0.000020   0.000204
    19  C    0.000000   0.000000   0.000000  -0.007019   0.000229  -0.000233
    20  H    0.000000   0.000000   0.000000  -0.000314   0.000002   0.000025
    21  H    0.000000   0.000000   0.000000  -0.000216   0.000000   0.000126
    22  H    0.000000   0.000000   0.000000   0.000229  -0.000006   0.000000
    23  F    0.000000  -0.000004  -0.000003  -0.001377   0.000025   0.001581
    24  H   -0.000038   0.000002  -0.003779  -0.000021   0.000001  -0.000002
              13         14         15         16         17         18
     1  C   -0.000006  -0.000002   0.000000   0.000000   0.000000   0.000000
     2  C   -0.001053   0.000146   0.000001   0.000000   0.000000   0.000000
     3  C   -0.012712  -0.000291   0.000102   0.000001  -0.000002   0.000000
     4  C   -0.000700   0.000005   0.000000   0.000000   0.000000   0.000000
     5  C   -0.000010   0.000000   0.000000   0.000000   0.000000   0.000000
     6  C    0.000003   0.000000   0.000000   0.000000   0.000000   0.000000
     7  H    0.000000   0.000000   0.000000   0.000000   0.000000   0.000000
     8  H    0.000185   0.000090  -0.000001   0.000000   0.000000   0.000000
     9  H    0.000000   0.000000   0.000000   0.000000   0.000000   0.000000
    10  C    0.339009  -0.009168  -0.007363  -0.000298   0.000240  -0.000295
    11  H   -0.015788  -0.000423  -0.000254   0.000170  -0.000001   0.000020
    12  H   -0.016303   0.000420  -0.000337   0.000029   0.000000   0.000204
    13  Si  12.115342   0.343788   0.359683  -0.015116  -0.014916  -0.015682
    14  H    0.343788   0.824556  -0.009020  -0.000222  -0.000233   0.000416
    15  C    0.359683  -0.009020   4.994671   0.369168   0.368981   0.368463
    16  H   -0.015116  -0.000222   0.369168   0.592747  -0.020924  -0.020912
    17  H   -0.014916  -0.000233   0.368981  -0.020924   0.590861  -0.020894
    18  H   -0.015682   0.000416   0.368463  -0.020912  -0.020894   0.594341
    19  C    0.362350  -0.009247  -0.007663   0.000245  -0.000220  -0.000255
    20  H   -0.015140  -0.000213   0.000248  -0.000007  -0.000001  -0.000001
    21  H   -0.015682   0.000419  -0.000259  -0.000001   0.000020   0.000159
    22  H   -0.015219  -0.000234  -0.000228  -0.000001   0.000110   0.000021
    23  F    0.000077   0.000000   0.000000   0.000000   0.000000   0.000000
    24  H    0.000000   0.000000   0.000000   0.000000   0.000000   0.000000
              19         20         21         22         23         24
     1  C    0.000000  -0.000001   0.000000   0.000000   0.000004   0.001462
     2  C    0.000000   0.000008   0.000001   0.000000   0.000237   0.000060
     3  C   -0.000467   0.000226   0.000008   0.000007  -0.019734   0.001272
     4  C   -0.000048   0.000330   0.000007  -0.000001   0.236235  -0.025747
     5  C   -0.000004   0.000011   0.000001   0.000000  -0.020293   0.387855
     6  C    0.000000  -0.000001   0.000000   0.000000   0.000243  -0.021544
     7  H    0.000000   0.000000   0.000000   0.000000   0.000000  -0.000038
     8  H    0.000000   0.000000   0.000000   0.000000  -0.000004   0.000002
     9  H    0.000000   0.000000   0.000000   0.000000  -0.000003  -0.003779
    10  C   -0.007019  -0.000314  -0.000216   0.000229  -0.001377  -0.000021
    11  H    0.000229   0.000002   0.000000  -0.000006   0.000025   0.000001
    12  H   -0.000233   0.000025   0.000126   0.000000   0.001581  -0.000002
    13  Si   0.362350  -0.015140  -0.015682  -0.015219   0.000077   0.000000
    14  H   -0.009247  -0.000213   0.000419  -0.000234   0.000000   0.000000
    15  C   -0.007663   0.000248  -0.000259  -0.000228   0.000000   0.000000
    16  H    0.000245  -0.000007  -0.000001  -0.000001   0.000000   0.000000
    17  H   -0.000220  -0.000001   0.000020   0.000110   0.000000   0.000000
    18  H   -0.000255  -0.000001   0.000159   0.000021   0.000000   0.000000
    19  C    4.992840   0.369231   0.368683   0.368329  -0.000042   0.000000
    20  H    0.369231   0.584514  -0.020678  -0.020729  -0.000007   0.000000
    21  H    0.368683  -0.020678   0.588642  -0.020599   0.000080   0.000000
    22  H    0.368329  -0.020729  -0.020599   0.593434   0.000001   0.000000
    23  F   -0.000042  -0.000007   0.000080   0.000001   9.086664  -0.000592
    24  H    0.000000   0.000000   0.000000   0.000000  -0.000592   0.537450
 MBS Mulliken charges:
               1
     1  C   -0.110234
     2  C   -0.110051
     3  C   -0.008516
     4  C    0.217393
     5  C   -0.120953
     6  C   -0.105952
     7  H    0.108188
     8  H    0.106717
     9  H    0.110842
    10  C   -0.321352
    11  H    0.098454
    12  H    0.107549
    13  Si   0.617888
    14  H   -0.140787
    15  C   -0.436192
    16  H    0.095119
    17  H    0.096979
    18  H    0.094414
    19  C   -0.436708
    20  H    0.102498
    21  H    0.099289
    22  H    0.094886
    23  F   -0.283094
    24  H    0.123621
 Sum of MBS Mulliken charges =   0.00000
 MBS Mulliken charges with hydrogens summed into heavy atoms:
               1
     1  C   -0.002046
     2  C   -0.003333
     3  C   -0.008516
     4  C    0.217393
     5  C    0.002668
     6  C    0.004891
    10  C   -0.115349
    13  Si   0.477102
    15  C   -0.149680
    19  C   -0.140035
    23  F   -0.283094
 Breneman (CHELPG) radii used.
 Generate Potential Derived Charges using the Breneman model, NDens= 1.
 Grid spacing= 0.300 Box extension= 2.800
 NStep X,Y,Z=   50     35     33   Total possible points=       57750
 Number of Points to Fit=   15986

 **********************************************************************

            Electrostatic Properties Using The SCF Density

 **********************************************************************

       Atomic Center    1 is at   2.659579 -1.455483  0.401785
       Atomic Center    2 is at   1.358034 -1.527741 -0.088373
       Atomic Center    3 is at   0.660855 -0.384101 -0.503603
       Atomic Center    4 is at   1.348335  0.824299 -0.393791
       Atomic Center    5 is at   2.643354  0.932567  0.086181
       Atomic Center    6 is at   3.306350 -0.223687  0.491033
       Atomic Center    7 is at   3.168877 -2.360897  0.710778
       Atomic Center    8 is at   0.863435 -2.491021 -0.157775
       Atomic Center    9 is at   4.319795 -0.159778  0.869100
       Atomic Center   10 is at  -0.752206 -0.445298 -1.016309
       Atomic Center   11 is at  -0.899583 -1.372971 -1.578875
       Atomic Center   12 is at  -0.943358  0.380421 -1.707322
       Atomic Center   13 is at  -2.089487 -0.391006  0.348642
       Atomic Center   14 is at  -1.915171 -1.609142  1.193205
       Atomic Center   15 is at  -3.792297 -0.445356 -0.463860
       Atomic Center   16 is at  -3.909400 -1.336282 -1.087701
       Atomic Center   17 is at  -4.584800 -0.462939  0.290164
       Atomic Center   18 is at  -3.956881  0.431291 -1.097926
       Atomic Center   19 is at  -1.905640  1.138431  1.431936
       Atomic Center   20 is at  -0.923579  1.170893  1.910977
       Atomic Center   21 is at  -2.023008  2.056216  0.848755
       Atomic Center   22 is at  -2.662047  1.142274  2.222509
       Atomic Center   23 is at   0.716548  1.966229 -0.788992
       Atomic Center   24 is at   3.111421  1.908169  0.134064
   15986 points will be used for fitting atomic charges
 Fitting point charges to electrostatic potential
 Charges from ESP fit, RMS=   0.00321 RRMS=   0.40062:
 ESP charges:
               1
     1  C   -0.135843
     2  C   -0.150127
     3  C    0.015826
     4  C    0.319357
     5  C   -0.231870
     6  C   -0.066852
     7  H    0.102097
     8  H    0.117803
     9  H    0.095559
    10  C   -0.238942
    11  H    0.048982
    12  H    0.059612
    13  Si   0.788179
    14  H   -0.243520
    15  C   -0.462755
    16  H    0.087380
    17  H    0.095359
    18  H    0.084848
    19  C   -0.380106
    20  H    0.048521
    21  H    0.085025
    22  H    0.070889
    23  F   -0.251104
    24  H    0.141685
 Sum of ESP charges =   0.00000
 ESP charges with hydrogens summed into heavy atoms:
               1
     1  C   -0.033746
     2  C   -0.032324
     3  C    0.015826
     4  C    0.319357
     5  C   -0.090185
     6  C    0.028707
    10  C   -0.130349
    13  Si   0.544659
    15  C   -0.195169
    19  C   -0.175671
    23  F   -0.251104
 Charge=   0.00000 Dipole=    -0.0047    -0.8790     0.0313 Tot=     0.8796
 -----------------------------------------------------------------

              Electrostatic Properties (Atomic Units)

 -----------------------------------------------------------------
    Center     Electric         -------- Electric Field --------
               Potential          X             Y             Z
 -----------------------------------------------------------------
    1 Atom    -14.770682
    2 Atom    -14.768057
    3 Atom    -14.752844
    4 Atom    -14.691846
    5 Atom    -14.766645
    6 Atom    -14.767078
    7 Atom     -1.104707
    8 Atom     -1.102639
    9 Atom     -1.102085
   10 Atom    -14.777927
   11 Atom     -1.105674
   12 Atom     -1.108244
   13 Atom    -49.297967
   14 Atom     -1.146465
   15 Atom    -14.793672
   16 Atom     -1.111512
   17 Atom     -1.111239
   18 Atom     -1.111264
   19 Atom    -14.797666
   20 Atom     -1.116188
   21 Atom     -1.115773
   22 Atom     -1.114404
   23 Atom    -26.593818
   24 Atom     -1.092719
 -----------------------------------------------------------------
 ******************************Gaussian NBO Version 3.1******************************
             N A T U R A L   A T O M I C   O R B I T A L   A N D
          N A T U R A L   B O N D   O R B I T A L   A N A L Y S I S
 ******************************Gaussian NBO Version 3.1******************************
       /RESON  / : Allow strongly delocalized NBO set

 Analyzing the SCF density

 Job title: Chart8_1                                                        

 Storage needed:    324832 in NPA ( 104854480 available)


 NATURAL POPULATIONS:  Natural atomic orbital occupancies 
                                                          
   NAO  Atom  No  lang   Type(AO)    Occupancy      Energy
 ----------------------------------------------------------
     1    C    1  S      Cor( 1S)     1.99916     -10.03352
     2    C    1  S      Val( 2S)     0.94837      -0.16335
     3    C    1  S      Ryd( 3S)     0.00163       0.73336
     4    C    1  S      Ryd( 4S)     0.00010       1.15707
     5    C    1  S      Ryd( 5S)     0.00000      22.69495
     6    C    1  px     Val( 2p)     1.07901      -0.05776
     7    C    1  px     Ryd( 4p)     0.00452       0.79860
     8    C    1  px     Ryd( 3p)     0.00042       0.36333
     9    C    1  px     Ryd( 5p)     0.00012       3.03775
    10    C    1  py     Val( 2p)     1.13943      -0.05669
    11    C    1  py     Ryd( 4p)     0.00619       0.96313
    12    C    1  py     Ryd( 3p)     0.00031       0.34878
    13    C    1  py     Ryd( 5p)     0.00009       3.12789
    14    C    1  pz     Val( 2p)     1.02706      -0.10342
    15    C    1  pz     Ryd( 4p)     0.00170       0.57480
    16    C    1  pz     Ryd( 3p)     0.00027       0.32468
    17    C    1  pz     Ryd( 5p)     0.00003       2.73239
    18    C    1  dxy    Ryd( 3d)     0.00071       2.39651
    19    C    1  dxz    Ryd( 3d)     0.00049       1.90746
    20    C    1  dyz    Ryd( 3d)     0.00047       1.75530
    21    C    1  dx2y2  Ryd( 3d)     0.00066       2.44723
    22    C    1  dz2    Ryd( 3d)     0.00043       1.91511

    23    C    2  S      Cor( 1S)     1.99908     -10.03432
    24    C    2  S      Val( 2S)     0.94032      -0.15863
    25    C    2  S      Ryd( 4S)     0.00135       0.88241
    26    C    2  S      Ryd( 3S)     0.00015       0.80871
    27    C    2  S      Ryd( 5S)     0.00001      22.95005
    28    C    2  px     Val( 2p)     1.08274      -0.06161
    29    C    2  px     Ryd( 4p)     0.00446       0.86158
    30    C    2  px     Ryd( 3p)     0.00041       0.42748
    31    C    2  px     Ryd( 5p)     0.00012       3.13617
    32    C    2  py     Val( 2p)     1.13898      -0.05750
    33    C    2  py     Ryd( 4p)     0.00542       0.98640
    34    C    2  py     Ryd( 3p)     0.00034       0.33087
    35    C    2  py     Ryd( 5p)     0.00007       3.18919
    36    C    2  pz     Val( 2p)     1.01287      -0.10471
    37    C    2  pz     Ryd( 4p)     0.00129       0.56929
    38    C    2  pz     Ryd( 3p)     0.00038       0.35341
    39    C    2  pz     Ryd( 5p)     0.00004       2.75745
    40    C    2  dxy    Ryd( 3d)     0.00071       2.39152
    41    C    2  dxz    Ryd( 3d)     0.00047       1.92132
    42    C    2  dyz    Ryd( 3d)     0.00047       1.77661
    43    C    2  dx2y2  Ryd( 3d)     0.00064       2.42067
    44    C    2  dz2    Ryd( 3d)     0.00045       1.90350

    45    C    3  S      Cor( 1S)     1.99894     -10.04871
    46    C    3  S      Val( 2S)     0.88774      -0.14606
    47    C    3  S      Ryd( 3S)     0.00080       0.72446
    48    C    3  S      Ryd( 4S)     0.00020       1.06693
    49    C    3  S      Ryd( 5S)     0.00001      23.06025
    50    C    3  px     Val( 2p)     1.06963      -0.08160
    51    C    3  px     Ryd( 4p)     0.00541       1.08653
    52    C    3  px     Ryd( 3p)     0.00039       0.90344
    53    C    3  px     Ryd( 5p)     0.00013       2.95895
    54    C    3  py     Val( 2p)     1.08521      -0.06923
    55    C    3  py     Ryd( 3p)     0.00449       0.90234
    56    C    3  py     Ryd( 4p)     0.00036       0.94582
    57    C    3  py     Ryd( 5p)     0.00015       2.93040
    58    C    3  pz     Val( 2p)     1.02506      -0.10815
    59    C    3  pz     Ryd( 3p)     0.00357       0.68333
    60    C    3  pz     Ryd( 4p)     0.00034       0.84310
    61    C    3  pz     Ryd( 5p)     0.00005       2.46058
    62    C    3  dxy    Ryd( 3d)     0.00094       2.52328
    63    C    3  dxz    Ryd( 3d)     0.00068       1.91113
    64    C    3  dyz    Ryd( 3d)     0.00066       1.80640
    65    C    3  dx2y2  Ryd( 3d)     0.00067       2.35490
    66    C    3  dz2    Ryd( 3d)     0.00052       1.96647

    67    C    4  S      Cor( 1S)     1.99834     -10.12884
    68    C    4  S      Val( 2S)     0.83024      -0.14545
    69    C    4  S      Ryd( 4S)     0.00094       1.10583
    70    C    4  S      Ryd( 3S)     0.00023       0.72605
    71    C    4  S      Ryd( 5S)     0.00002      22.48850
    72    C    4  px     Val( 2p)     0.98369      -0.07530
    73    C    4  px     Ryd( 4p)     0.00456       1.21502
    74    C    4  px     Ryd( 3p)     0.00037       0.50701
    75    C    4  px     Ryd( 5p)     0.00018       2.71103
    76    C    4  py     Val( 2p)     0.77231      -0.05957
    77    C    4  py     Ryd( 4p)     0.00850       1.15065
    78    C    4  py     Ryd( 3p)     0.00061       0.52660
    79    C    4  py     Ryd( 5p)     0.00024       2.77458
    80    C    4  pz     Val( 2p)     0.98893      -0.12157
    81    C    4  pz     Ryd( 4p)     0.00170       0.76174
    82    C    4  pz     Ryd( 3p)     0.00057       0.43483
    83    C    4  pz     Ryd( 5p)     0.00010       2.61292
    84    C    4  dxy    Ryd( 3d)     0.00212       2.38533
    85    C    4  dxz    Ryd( 3d)     0.00095       1.88266
    86    C    4  dyz    Ryd( 3d)     0.00179       1.71832
    87    C    4  dx2y2  Ryd( 3d)     0.00178       2.44201
    88    C    4  dz2    Ryd( 3d)     0.00096       1.88154

    89    C    5  S      Cor( 1S)     1.99904     -10.03744
    90    C    5  S      Val( 2S)     0.95846      -0.17213
    91    C    5  S      Ryd( 3S)     0.00187       0.73545
    92    C    5  S      Ryd( 4S)     0.00010       0.94866
    93    C    5  S      Ryd( 5S)     0.00001      22.89456
    94    C    5  px     Val( 2p)     1.07927      -0.07348
    95    C    5  px     Ryd( 4p)     0.00420       0.83036
    96    C    5  px     Ryd( 3p)     0.00034       0.38262
    97    C    5  px     Ryd( 5p)     0.00016       3.02001
    98    C    5  py     Val( 2p)     1.17048      -0.07063
    99    C    5  py     Ryd( 4p)     0.00576       1.09512
   100    C    5  py     Ryd( 3p)     0.00026       0.42231
   101    C    5  py     Ryd( 5p)     0.00009       3.02875
   102    C    5  pz     Val( 2p)     1.03545      -0.11146
   103    C    5  pz     Ryd( 4p)     0.00188       0.57260
   104    C    5  pz     Ryd( 3p)     0.00031       0.31226
   105    C    5  pz     Ryd( 5p)     0.00005       2.74223
   106    C    5  dxy    Ryd( 3d)     0.00051       2.40926
   107    C    5  dxz    Ryd( 3d)     0.00058       1.93399
   108    C    5  dyz    Ryd( 3d)     0.00047       1.77559
   109    C    5  dx2y2  Ryd( 3d)     0.00085       2.46964
   110    C    5  dz2    Ryd( 3d)     0.00051       1.92990

   111    C    6  S      Cor( 1S)     1.99918     -10.03820
   112    C    6  S      Val( 2S)     0.95134      -0.16802
   113    C    6  S      Ryd( 3S)     0.00145       0.84592
   114    C    6  S      Ryd( 4S)     0.00011       1.30211
   115    C    6  S      Ryd( 5S)     0.00001      22.48419
   116    C    6  px     Val( 2p)     1.15087      -0.06568
   117    C    6  px     Ryd( 4p)     0.00557       1.00232
   118    C    6  px     Ryd( 3p)     0.00031       0.30104
   119    C    6  px     Ryd( 5p)     0.00006       3.10828
   120    C    6  py     Val( 2p)     1.05472      -0.05166
   121    C    6  py     Ryd( 4p)     0.00463       0.76105
   122    C    6  py     Ryd( 3p)     0.00047       0.39481
   123    C    6  py     Ryd( 5p)     0.00015       3.05991
   124    C    6  pz     Val( 2p)     1.02773      -0.10625
   125    C    6  pz     Ryd( 4p)     0.00187       0.59147
   126    C    6  pz     Ryd( 3p)     0.00026       0.32177
   127    C    6  pz     Ryd( 5p)     0.00003       2.72615
   128    C    6  dxy    Ryd( 3d)     0.00062       2.46566
   129    C    6  dxz    Ryd( 3d)     0.00046       1.83596
   130    C    6  dyz    Ryd( 3d)     0.00052       1.81517
   131    C    6  dx2y2  Ryd( 3d)     0.00072       2.38311
   132    C    6  dz2    Ryd( 3d)     0.00041       1.90930

   133    H    7  S      Val( 1S)     0.79022       0.04547
   134    H    7  S      Ryd( 2S)     0.00058       0.61051
   135    H    7  S      Ryd( 3S)     0.00017       2.13732
   136    H    7  px     Ryd( 2p)     0.00020       2.08994
   137    H    7  py     Ryd( 2p)     0.00033       2.47841
   138    H    7  pz     Ryd( 2p)     0.00023       1.70772

   139    H    8  S      Val( 1S)     0.79120       0.04301
   140    H    8  S      Ryd( 2S)     0.00069       0.90079
   141    H    8  S      Ryd( 3S)     0.00016       1.87276
   142    H    8  px     Ryd( 2p)     0.00020       2.09266
   143    H    8  py     Ryd( 2p)     0.00038       2.56234
   144    H    8  pz     Ryd( 2p)     0.00019       1.66534

   145    H    9  S      Val( 1S)     0.78978       0.04421
   146    H    9  S      Ryd( 2S)     0.00054       0.62277
   147    H    9  S      Ryd( 3S)     0.00017       2.12021
   148    H    9  px     Ryd( 2p)     0.00039       2.56069
   149    H    9  py     Ryd( 2p)     0.00013       1.96630
   150    H    9  pz     Ryd( 2p)     0.00023       1.73433

   151    C   10  S      Cor( 1S)     1.99924     -10.02420
   152    C   10  S      Val( 2S)     1.11876      -0.29865
   153    C   10  S      Ryd( 4S)     0.00329       1.03919
   154    C   10  S      Ryd( 3S)     0.00044       0.55857
   155    C   10  S      Ryd( 5S)     0.00000      23.45493
   156    C   10  px     Val( 2p)     1.16622      -0.12824
   157    C   10  px     Ryd( 4p)     0.00194       0.60594
   158    C   10  px     Ryd( 3p)     0.00052       0.40449
   159    C   10  px     Ryd( 5p)     0.00011       3.12131
   160    C   10  py     Val( 2p)     1.24423      -0.10899
   161    C   10  py     Ryd( 4p)     0.00429       0.73819
   162    C   10  py     Ryd( 3p)     0.00027       0.38824
   163    C   10  py     Ryd( 5p)     0.00004       3.12743
   164    C   10  pz     Val( 2p)     1.29119      -0.13972
   165    C   10  pz     Ryd( 4p)     0.00394       0.57650
   166    C   10  pz     Ryd( 3p)     0.00027       0.37465
   167    C   10  pz     Ryd( 5p)     0.00006       2.97321
   168    C   10  dxy    Ryd( 3d)     0.00019       1.87265
   169    C   10  dxz    Ryd( 3d)     0.00091       1.91137
   170    C   10  dyz    Ryd( 3d)     0.00097       2.20864
   171    C   10  dx2y2  Ryd( 3d)     0.00104       2.24478
   172    C   10  dz2    Ryd( 3d)     0.00030       1.74667

   173    H   11  S      Val( 1S)     0.76461       0.03605
   174    H   11  S      Ryd( 2S)     0.00073       0.88739
   175    H   11  S      Ryd( 3S)     0.00009       2.00334
   176    H   11  px     Ryd( 2p)     0.00014       1.82066
   177    H   11  py     Ryd( 2p)     0.00021       2.42794
   178    H   11  pz     Ryd( 2p)     0.00017       1.99831

   179    H   12  S      Val( 1S)     0.75509       0.04572
   180    H   12  S      Ryd( 2S)     0.00098       1.00256
   181    H   12  S      Ryd( 3S)     0.00010       1.89679
   182    H   12  px     Ryd( 2p)     0.00015       1.82272
   183    H   12  py     Ryd( 2p)     0.00022       2.30240
   184    H   12  pz     Ryd( 2p)     0.00018       2.13268

   185   Si   13  S      Cor( 1S)     2.00000     -65.31527
   186   Si   13  S      Cor( 2S)     1.99914      -5.89590
   187   Si   13  S      Val( 3S)     0.87907      -0.18668
   188   Si   13  S      Ryd( 4S)     0.00154       0.59058
   189   Si   13  S      Ryd( 5S)     0.00033       0.72420
   190   Si   13  S      Ryd( 6S)     0.00001       9.49331
   191   Si   13  S      Ryd( 7S)     0.00000     136.57864
   192   Si   13  px     Cor( 2p)     1.99984      -3.61013
   193   Si   13  px     Val( 3p)     0.51862       0.02981
   194   Si   13  px     Ryd( 5p)     0.00135       0.93508
   195   Si   13  px     Ryd( 4p)     0.00037       0.49314
   196   Si   13  px     Ryd( 6p)     0.00011       0.94132
   197   Si   13  px     Ryd( 7p)     0.00000      11.02907
   198   Si   13  py     Cor( 2p)     1.99982      -3.61049
   199   Si   13  py     Val( 3p)     0.63351       0.02579
   200   Si   13  py     Ryd( 6p)     0.00087       0.90912
   201   Si   13  py     Ryd( 4p)     0.00025       0.47368
   202   Si   13  py     Ryd( 5p)     0.00007       0.77495
   203   Si   13  py     Ryd( 7p)     0.00000      11.01794
   204   Si   13  pz     Cor( 2p)     1.99979      -3.61033
   205   Si   13  pz     Val( 3p)     0.56998       0.03389
   206   Si   13  pz     Ryd( 6p)     0.00116       0.87399
   207   Si   13  pz     Ryd( 4p)     0.00028       0.45271
   208   Si   13  pz     Ryd( 5p)     0.00005       0.83970
   209   Si   13  pz     Ryd( 7p)     0.00000      11.01996
   210   Si   13  dxy    Ryd( 3d)     0.00199       0.93957
   211   Si   13  dxz    Ryd( 3d)     0.00595       1.21582
   212   Si   13  dyz    Ryd( 3d)     0.00709       1.16935
   213   Si   13  dx2y2  Ryd( 3d)     0.00670       1.20500
   214   Si   13  dz2    Ryd( 3d)     0.00201       0.91285

   215    H   14  S      Val( 1S)     1.18616      -0.14734
   216    H   14  S      Ryd( 2S)     0.00126       0.49501
   217    H   14  S      Ryd( 3S)     0.00003       2.39732
   218    H   14  px     Ryd( 2p)     0.00013       1.56727
   219    H   14  py     Ryd( 2p)     0.00175       1.89247
   220    H   14  pz     Ryd( 2p)     0.00088       1.72492

   221    C   15  S      Cor( 1S)     1.99936     -10.01188
   222    C   15  S      Val( 2S)     1.20512      -0.34304
   223    C   15  S      Ryd( 4S)     0.00221       0.96802
   224    C   15  S      Ryd( 3S)     0.00014       0.39653
   225    C   15  S      Ryd( 5S)     0.00000      23.47043
   226    C   15  px     Val( 2p)     1.34673      -0.15440
   227    C   15  px     Ryd( 4p)     0.00271       0.69439
   228    C   15  px     Ryd( 3p)     0.00025       0.22704
   229    C   15  px     Ryd( 5p)     0.00003       2.84638
   230    C   15  py     Val( 2p)     1.24071      -0.10836
   231    C   15  py     Ryd( 4p)     0.00032       0.68672
   232    C   15  py     Ryd( 3p)     0.00008       0.23801
   233    C   15  py     Ryd( 5p)     0.00002       2.98189
   234    C   15  pz     Val( 2p)     1.26471      -0.11903
   235    C   15  pz     Ryd( 4p)     0.00078       0.67778
   236    C   15  pz     Ryd( 3p)     0.00011       0.23737
   237    C   15  pz     Ryd( 5p)     0.00003       2.95208
   238    C   15  dxy    Ryd( 3d)     0.00004       1.72311
   239    C   15  dxz    Ryd( 3d)     0.00094       2.04000
   240    C   15  dyz    Ryd( 3d)     0.00095       2.19452
   241    C   15  dx2y2  Ryd( 3d)     0.00106       2.05755
   242    C   15  dz2    Ryd( 3d)     0.00012       1.71339

   243    H   16  S      Val( 1S)     0.77046       0.04094
   244    H   16  S      Ryd( 2S)     0.00033       0.81260
   245    H   16  S      Ryd( 3S)     0.00008       1.97059
   246    H   16  px     Ryd( 2p)     0.00011       1.69191
   247    H   16  py     Ryd( 2p)     0.00022       2.34507
   248    H   16  pz     Ryd( 2p)     0.00016       2.01477

   249    H   17  S      Val( 1S)     0.76861       0.04146
   250    H   17  S      Ryd( 2S)     0.00030       0.85492
   251    H   17  S      Ryd( 3S)     0.00008       1.92016
   252    H   17  px     Ryd( 2p)     0.00023       2.16725
   253    H   17  py     Ryd( 2p)     0.00008       1.74406
   254    H   17  pz     Ryd( 2p)     0.00019       2.14497

   255    H   18  S      Val( 1S)     0.77121       0.03980
   256    H   18  S      Ryd( 2S)     0.00053       0.78163
   257    H   18  S      Ryd( 3S)     0.00009       1.99915
   258    H   18  px     Ryd( 2p)     0.00012       1.71177
   259    H   18  py     Ryd( 2p)     0.00022       2.32503
   260    H   18  pz     Ryd( 2p)     0.00016       2.02985

   261    C   19  S      Cor( 1S)     1.99936     -10.00745
   262    C   19  S      Val( 2S)     1.20454      -0.33983
   263    C   19  S      Ryd( 4S)     0.00219       0.98833
   264    C   19  S      Ryd( 3S)     0.00017       0.41072
   265    C   19  S      Ryd( 5S)     0.00000      23.48123
   266    C   19  px     Val( 2p)     1.24568      -0.10523
   267    C   19  px     Ryd( 4p)     0.00055       0.67196
   268    C   19  px     Ryd( 3p)     0.00018       0.34377
   269    C   19  px     Ryd( 5p)     0.00003       2.99645
   270    C   19  py     Val( 2p)     1.32471      -0.14146
   271    C   19  py     Ryd( 4p)     0.00200       0.68206
   272    C   19  py     Ryd( 3p)     0.00017       0.27668
   273    C   19  py     Ryd( 5p)     0.00004       2.84747
   274    C   19  pz     Val( 2p)     1.28500      -0.12406
   275    C   19  pz     Ryd( 4p)     0.00136       0.68477
   276    C   19  pz     Ryd( 3p)     0.00021       0.31414
   277    C   19  pz     Ryd( 5p)     0.00003       2.92143
   278    C   19  dxy    Ryd( 3d)     0.00007       1.70497
   279    C   19  dxz    Ryd( 3d)     0.00088       2.18457
   280    C   19  dyz    Ryd( 3d)     0.00106       2.00483
   281    C   19  dx2y2  Ryd( 3d)     0.00103       2.13156
   282    C   19  dz2    Ryd( 3d)     0.00010       1.74114

   283    H   20  S      Val( 1S)     0.76353       0.05026
   284    H   20  S      Ryd( 2S)     0.00045       0.83130
   285    H   20  S      Ryd( 3S)     0.00009       2.00561
   286    H   20  px     Ryd( 2p)     0.00025       2.47981
   287    H   20  py     Ryd( 2p)     0.00010       1.68436
   288    H   20  pz     Ryd( 2p)     0.00014       1.91333

   289    H   21  S      Val( 1S)     0.76689       0.04757
   290    H   21  S      Ryd( 2S)     0.00056       0.85694
   291    H   21  S      Ryd( 3S)     0.00009       1.97775
   292    H   21  px     Ryd( 2p)     0.00007       1.75260
   293    H   21  py     Ryd( 2p)     0.00026       2.36221
   294    H   21  pz     Ryd( 2p)     0.00015       1.97065

   295    H   22  S      Val( 1S)     0.77046       0.04321
   296    H   22  S      Ryd( 2S)     0.00032       0.85399
   297    H   22  S      Ryd( 3S)     0.00008       1.94983
   298    H   22  px     Ryd( 2p)     0.00017       2.17609
   299    H   22  py     Ryd( 2p)     0.00011       1.68380
   300    H   22  pz     Ryd( 2p)     0.00021       2.20457

   301    F   23  S      Cor( 1S)     1.99993     -24.42648
   302    F   23  S      Val( 2S)     1.83232      -1.27142
   303    F   23  S      Ryd( 3S)     0.00091       1.17058
   304    F   23  S      Ryd( 4S)     0.00021       1.98516
   305    F   23  S      Ryd( 5S)     0.00000      66.57191
   306    F   23  px     Val( 2p)     1.89156      -0.41887
   307    F   23  px     Ryd( 3p)     0.00159       0.55331
   308    F   23  px     Ryd( 4p)     0.00012       1.50901
   309    F   23  px     Ryd( 5p)     0.00001       6.33396
   310    F   23  py     Val( 2p)     1.72545      -0.42424
   311    F   23  py     Ryd( 3p)     0.00100       0.50426
   312    F   23  py     Ryd( 4p)     0.00015       1.38850
   313    F   23  py     Ryd( 5p)     0.00004       6.35613
   314    F   23  pz     Val( 2p)     1.90708      -0.41752
   315    F   23  pz     Ryd( 3p)     0.00155       0.46957
   316    F   23  pz     Ryd( 4p)     0.00008       1.29707
   317    F   23  pz     Ryd( 5p)     0.00001       6.27736
   318    F   23  dxy    Ryd( 3d)     0.00074       4.07526
   319    F   23  dxz    Ryd( 3d)     0.00018       3.84218
   320    F   23  dyz    Ryd( 3d)     0.00050       3.92513
   321    F   23  dx2y2  Ryd( 3d)     0.00057       3.99491
   322    F   23  dz2    Ryd( 3d)     0.00028       3.88203

   323    H   24  S      Val( 1S)     0.77521       0.03977
   324    H   24  S      Ryd( 2S)     0.00082       0.80853
   325    H   24  S      Ryd( 3S)     0.00018       1.86148
   326    H   24  px     Ryd( 2p)     0.00014       2.07320
   327    H   24  py     Ryd( 2p)     0.00037       2.58007
   328    H   24  pz     Ryd( 2p)     0.00015       1.65454

 WARNING:  1 low occupancy (<1.9990e) core orbital  found on  C    3
           1 low occupancy (<1.9990e) core orbital  found on  C    4

 WARNING:  Population inversion found on atom  C    1
           Population inversion found on atom  C    2
           Population inversion found on atom  C    3
           Population inversion found on atom  C    4
           Population inversion found on atom  C    5
           Population inversion found on atom  C    6
           Population inversion found on atom  C   10
           Population inversion found on atom Si   13
           Population inversion found on atom  C   15
           Population inversion found on atom  C   19


 Summary of Natural Population Analysis:                  
                                                          
                                       Natural Population 
                Natural  -----------------------------------------------
    Atom  No    Charge         Core      Valence    Rydberg      Total
 -----------------------------------------------------------------------
      C    1   -0.21116      1.99916     4.19387    0.01813     6.21116
      C    2   -0.19075      1.99908     4.17490    0.01677     6.19075
      C    3   -0.08594      1.99894     4.06765    0.01935     6.08594
      C    4    0.40086      1.99834     3.57517    0.02562     5.59914
      C    5   -0.26066      1.99904     4.24366    0.01796     6.26066
      C    6   -0.20151      1.99918     4.18466    0.01766     6.20151
      H    7    0.20828      0.00000     0.79022    0.00150     0.79172
      H    8    0.20719      0.00000     0.79120    0.00160     0.79281
      H    9    0.20876      0.00000     0.78978    0.00146     0.79124
      C   10   -0.83824      1.99924     4.82041    0.01860     6.83824
      H   11    0.23404      0.00000     0.76461    0.00135     0.76596
      H   12    0.24329      0.00000     0.75509    0.00162     0.75671
     Si   13    1.37009      9.99859     2.60118    0.03015    12.62991
      H   14   -0.19021      0.00000     1.18616    0.00405     1.19021
      C   15   -1.06643      1.99936     5.05727    0.00979     7.06643
      H   16    0.22864      0.00000     0.77046    0.00091     0.77136
      H   17    0.23052      0.00000     0.76861    0.00088     0.76948
      H   18    0.22768      0.00000     0.77121    0.00111     0.77232
      C   19   -1.06936      1.99936     5.05993    0.01007     7.06936
      H   20    0.23545      0.00000     0.76353    0.00102     0.76455
      H   21    0.23197      0.00000     0.76689    0.00114     0.76803
      H   22    0.22864      0.00000     0.77046    0.00090     0.77136
      F   23   -0.36427      1.99993     7.35641    0.00794     9.36427
      H   24    0.22313      0.00000     0.77521    0.00167     0.77687
 =======================================================================
   * Total *    0.00000     29.99022    59.79853    0.21124    90.00000

                                 Natural Population      
 --------------------------------------------------------
   Core                      29.99022 ( 99.9674% of  30)
   Valence                   59.79853 ( 99.6642% of  60)
   Natural Minimal Basis     89.78876 ( 99.7653% of  90)
   Natural Rydberg Basis      0.21124 (  0.2347% of  90)
 --------------------------------------------------------

    Atom  No          Natural Electron Configuration
 ----------------------------------------------------------------------------
      C    1      [core]2S( 0.95)2p( 3.25)4p( 0.01)
      C    2      [core]2S( 0.94)2p( 3.23)4p( 0.01)
      C    3      [core]2S( 0.89)2p( 3.18)3p( 0.01)4p( 0.01)
      C    4      [core]2S( 0.83)2p( 2.74)3d( 0.01)4p( 0.01)
      C    5      [core]2S( 0.96)2p( 3.29)4p( 0.01)
      C    6      [core]2S( 0.95)2p( 3.23)4p( 0.01)
      H    7            1S( 0.79)
      H    8            1S( 0.79)
      H    9            1S( 0.79)
      C   10      [core]2S( 1.12)2p( 3.70)4p( 0.01)
      H   11            1S( 0.76)
      H   12            1S( 0.76)
     Si   13      [core]3S( 0.88)3p( 1.72)3d( 0.02)
      H   14            1S( 1.19)
      C   15      [core]2S( 1.21)2p( 3.85)
      H   16            1S( 0.77)
      H   17            1S( 0.77)
      H   18            1S( 0.77)
      C   19      [core]2S( 1.20)2p( 3.86)
      H   20            1S( 0.76)
      H   21            1S( 0.77)
      H   22            1S( 0.77)
      F   23      [core]2S( 1.83)2p( 5.52)
      H   24            1S( 0.78)


 NBO analysis skipped by request.
 1\1\GINC-COREV3-23-050\SP\RB3LYP\6-311+G(d,p)\C9H13F1Si1\ROOT\23-Jul-2
 021\0\\# b3lyp/6-311+g(d,p) geom=connectivity pop=(hirshfeld,chelpg,mb
 s,npa)\\Chart8_1\\0,1\C,0,2.659579,-1.455483,0.401785\C,0,1.358034,-1.
 527741,-0.088373\C,0,0.660855,-0.384101,-0.503603\C,0,1.348335,0.82429
 9,-0.393791\C,0,2.643354,0.932567,0.086181\C,0,3.30635,-0.223687,0.491
 033\H,0,3.168877,-2.360897,0.710778\H,0,0.863435,-2.491021,-0.157775\H
 ,0,4.319795,-0.159779,0.8691\C,0,-0.752206,-0.445298,-1.016309\H,0,-0.
 899583,-1.372971,-1.578875\H,0,-0.943358,0.380421,-1.707322\Si,0,-2.08
 9487,-0.391006,0.348642\H,0,-1.915171,-1.609142,1.193205\C,0,-3.792297
 ,-0.445356,-0.46386\H,0,-3.9094,-1.336282,-1.087701\H,0,-4.5848,-0.462
 939,0.290164\H,0,-3.956881,0.431291,-1.097926\C,0,-1.90564,1.138431,1.
 431936\H,0,-0.923579,1.170893,1.910977\H,0,-2.023008,2.056216,0.848755
 \H,0,-2.662047,1.142274,2.222509\F,0,0.716548,1.966229,-0.788992\H,0,3
 .111421,1.908169,0.134064\\Version=ES64L-G09RevD.01\State=1-A\HF=-740.
 3073024\RMSD=6.727e-09\Dipole=-0.0471848,-0.345648,0.0588161\Quadrupol
 e=3.4671183,-0.8798713,-2.587247,-0.3943685,2.1412202,1.1091613\PG=C01
  [X(C9H13F1Si1)]\\@


 WAR ES EIN GOTT DER DIESE ZEICHEN SCHRIEB?
          - LUDWIG BOLTZMANN, QUOTING GOETHE, ABOUT MAXWELL'S EQUATIONS.
 Job cpu time:       0 days  0 hours 11 minutes 25.3 seconds.
 File lengths (MBytes):  RWF=    112 Int=      0 D2E=      0 Chk=      5 Scr=      1
 Normal termination of Gaussian 09 at Fri Jul 23 17:27:54 2021.
