 Entering Gaussian System, Link 0=g09
 Initial command:
 /cm/shared/apps/gaussian/g09revD.01/g09/l1.exe "//home/sweav003/CHB/validation/G09-methylchlorosilanes2_Suginome.com.o9822881.tmp/Gau-214144.inp" -scrdir="//home/sweav003/CHB/validation/G09-methylchlorosilanes2_Suginome.com.o9822881.tmp/"
 Entering Link 1 = /cm/shared/apps/gaussian/g09revD.01/g09/l1.exe PID=    214145.
  
 Copyright (c) 1988,1990,1992,1993,1995,1998,2003,2009,2013,
            Gaussian, Inc.  All Rights Reserved.
  
 This is part of the Gaussian(R) 09 program.  It is based on
 the Gaussian(R) 03 system (copyright 2003, Gaussian, Inc.),
 the Gaussian(R) 98 system (copyright 1998, Gaussian, Inc.),
 the Gaussian(R) 94 system (copyright 1995, Gaussian, Inc.),
 the Gaussian 92(TM) system (copyright 1992, Gaussian, Inc.),
 the Gaussian 90(TM) system (copyright 1990, Gaussian, Inc.),
 the Gaussian 88(TM) system (copyright 1988, Gaussian, Inc.),
 the Gaussian 86(TM) system (copyright 1986, Carnegie Mellon
 University), and the Gaussian 82(TM) system (copyright 1983,
 Carnegie Mellon University). Gaussian is a federally registered
 trademark of Gaussian, Inc.
  
 This software contains proprietary and confidential information,
 including trade secrets, belonging to Gaussian, Inc.
  
 This software is provided under written license and may be
 used, copied, transmitted, or stored only in accord with that
 written license.
  
 The following legend is applicable only to US Government
 contracts under FAR:
  
                    RESTRICTED RIGHTS LEGEND
  
 Use, reproduction and disclosure by the US Government is
 subject to restrictions as set forth in subparagraphs (a)
 and (c) of the Commercial Computer Software - Restricted
 Rights clause in FAR 52.227-19.
  
 Gaussian, Inc.
 340 Quinnipiac St., Bldg. 40, Wallingford CT 06492
  
  
 ---------------------------------------------------------------
 Warning -- This program may not be used in any manner that
 competes with the business of Gaussian, Inc. or will provide
 assistance to any competitor of Gaussian, Inc.  The licensee
 of this program is prohibited from giving any competitor of
 Gaussian, Inc. access to this program.  By using this program,
 the user acknowledges that Gaussian, Inc. is engaged in the
 business of creating and licensing software in the field of
 computational chemistry and represents and warrants to the
 licensee that it is not a competitor of Gaussian, Inc. and that
 it will not use this program in any manner prohibited above.
 ---------------------------------------------------------------
  

 Cite this work as:
 Gaussian 09, Revision D.01,
 M. J. Frisch, G. W. Trucks, H. B. Schlegel, G. E. Scuseria, 
 M. A. Robb, J. R. Cheeseman, G. Scalmani, V. Barone, B. Mennucci, 
 G. A. Petersson, H. Nakatsuji, M. Caricato, X. Li, H. P. Hratchian, 
 A. F. Izmaylov, J. Bloino, G. Zheng, J. L. Sonnenberg, M. Hada, 
 M. Ehara, K. Toyota, R. Fukuda, J. Hasegawa, M. Ishida, T. Nakajima, 
 Y. Honda, O. Kitao, H. Nakai, T. Vreven, J. A. Montgomery, Jr., 
 J. E. Peralta, F. Ogliaro, M. Bearpark, J. J. Heyd, E. Brothers, 
 K. N. Kudin, V. N. Staroverov, T. Keith, R. Kobayashi, J. Normand, 
 K. Raghavachari, A. Rendell, J. C. Burant, S. S. Iyengar, J. Tomasi, 
 M. Cossi, N. Rega, J. M. Millam, M. Klene, J. E. Knox, J. B. Cross, 
 V. Bakken, C. Adamo, J. Jaramillo, R. Gomperts, R. E. Stratmann, 
 O. Yazyev, A. J. Austin, R. Cammi, C. Pomelli, J. W. Ochterski, 
 R. L. Martin, K. Morokuma, V. G. Zakrzewski, G. A. Voth, 
 P. Salvador, J. J. Dannenberg, S. Dapprich, A. D. Daniels, 
 O. Farkas, J. B. Foresman, J. V. Ortiz, J. Cioslowski, 
 and D. J. Fox, Gaussian, Inc., Wallingford CT, 2013.
 
 ******************************************
 Gaussian 09:  ES64L-G09RevD.01 24-Apr-2013
                 9-Jan-2023 
 ******************************************
 %nprocshared=20
 Will use up to   20 processors via shared memory.
 %mem=4GB
 %chk=methylchlorosilanes2_Suginome.chk
 ----------------------------------------------------------------------
 # opt freq b3lyp/6-311+g(d,p) geom=connectivity pop=(hirshfeld,chelpg,
 mbs,npa)
 ----------------------------------------------------------------------
 1/14=-1,18=20,19=15,26=3,38=1,57=2/1,3;
 2/9=110,12=2,17=6,18=5,40=1/2;
 3/5=4,6=6,7=111,11=2,16=1,25=1,30=1,71=1,74=-5/1,2,3;
 4//1;
 5/5=2,38=5/2;
 6/7=2,8=2,9=2,10=2,15=8,20=3,27=100,28=1,40=-1,79=1/1,2,7;
 7//1,2,3,16;
 1/14=-1,18=20,19=15,26=3/3(2);
 2/9=110/2;
 99//99;
 2/9=110/2;
 3/5=4,6=6,7=111,11=2,16=1,25=1,30=1,71=1,74=-5/1,2,3;
 4/5=5,16=3,69=1/1;
 5/5=2,38=5/2;
 7//1,2,3,16;
 1/14=-1,18=20,19=15,26=3/3(-5);
 2/9=110/2;
 6/7=2,8=2,9=2,10=2,15=8,19=2,20=3,27=100,28=1,40=-1,79=1/1,2,7;
 99/9=1/99;
 -------------------
 Title Card Required
 -------------------
 Symbolic Z-matrix:
 Charge =  0 Multiplicity = 1
 Si                   -0.6307   -0.2887    0.00003 
 Cl                    0.08933   0.72976  -1.76346 
 C                     0.01597   0.6256    1.58416 
 H                    -0.34069   1.63441   1.58429 
 H                    -0.34071   0.12109   2.45774 
 H                     1.08597   0.62559   1.58417 
 C                    -2.5707   -0.28868   0.00001 
 H                    -2.92736  -0.79296  -0.87371 
 H                    -2.92735   0.72013   0.00014 
 C                     0.01595  -2.11776  -0.00021 
 H                     1.08595  -2.11777  -0.0002 
 H                    -0.34073  -2.62227   0.87337 
 H                    -0.34071  -2.62204  -0.87393 
 C                    -3.08405  -1.01481   1.25732 
 H                    -2.72739  -0.51052   2.13104 
 H                    -4.15405  -1.01479   1.2573 
 H                    -2.72739  -2.02361   1.25719 
 

 GradGradGradGradGradGradGradGradGradGradGradGradGradGradGradGradGradGrad
 Berny optimization.
 Initialization pass.
                           ----------------------------
                           !    Initial Parameters    !
                           ! (Angstroms and Degrees)  !
 --------------------------                            --------------------------
 ! Name  Definition              Value          Derivative Info.                !
 --------------------------------------------------------------------------------
 ! R1    R(1,2)                  2.16           estimate D2E/DX2                !
 ! R2    R(1,3)                  1.94           estimate D2E/DX2                !
 ! R3    R(1,7)                  1.94           estimate D2E/DX2                !
 ! R4    R(1,10)                 1.94           estimate D2E/DX2                !
 ! R5    R(3,4)                  1.07           estimate D2E/DX2                !
 ! R6    R(3,5)                  1.07           estimate D2E/DX2                !
 ! R7    R(3,6)                  1.07           estimate D2E/DX2                !
 ! R8    R(7,8)                  1.07           estimate D2E/DX2                !
 ! R9    R(7,9)                  1.07           estimate D2E/DX2                !
 ! R10   R(7,14)                 1.54           estimate D2E/DX2                !
 ! R11   R(10,11)                1.07           estimate D2E/DX2                !
 ! R12   R(10,12)                1.07           estimate D2E/DX2                !
 ! R13   R(10,13)                1.07           estimate D2E/DX2                !
 ! R14   R(14,15)                1.07           estimate D2E/DX2                !
 ! R15   R(14,16)                1.07           estimate D2E/DX2                !
 ! R16   R(14,17)                1.07           estimate D2E/DX2                !
 ! A1    A(2,1,3)              109.4712         estimate D2E/DX2                !
 ! A2    A(2,1,7)              109.4712         estimate D2E/DX2                !
 ! A3    A(2,1,10)             109.4712         estimate D2E/DX2                !
 ! A4    A(3,1,7)              109.4712         estimate D2E/DX2                !
 ! A5    A(3,1,10)             109.4712         estimate D2E/DX2                !
 ! A6    A(7,1,10)             109.4712         estimate D2E/DX2                !
 ! A7    A(1,3,4)              109.4712         estimate D2E/DX2                !
 ! A8    A(1,3,5)              109.4712         estimate D2E/DX2                !
 ! A9    A(1,3,6)              109.4712         estimate D2E/DX2                !
 ! A10   A(4,3,5)              109.4712         estimate D2E/DX2                !
 ! A11   A(4,3,6)              109.4712         estimate D2E/DX2                !
 ! A12   A(5,3,6)              109.4712         estimate D2E/DX2                !
 ! A13   A(1,7,8)              109.4712         estimate D2E/DX2                !
 ! A14   A(1,7,9)              109.4712         estimate D2E/DX2                !
 ! A15   A(1,7,14)             109.4712         estimate D2E/DX2                !
 ! A16   A(8,7,9)              109.4712         estimate D2E/DX2                !
 ! A17   A(8,7,14)             109.4712         estimate D2E/DX2                !
 ! A18   A(9,7,14)             109.4712         estimate D2E/DX2                !
 ! A19   A(1,10,11)            109.4712         estimate D2E/DX2                !
 ! A20   A(1,10,12)            109.4712         estimate D2E/DX2                !
 ! A21   A(1,10,13)            109.4712         estimate D2E/DX2                !
 ! A22   A(11,10,12)           109.4712         estimate D2E/DX2                !
 ! A23   A(11,10,13)           109.4712         estimate D2E/DX2                !
 ! A24   A(12,10,13)           109.4712         estimate D2E/DX2                !
 ! A25   A(7,14,15)            109.4712         estimate D2E/DX2                !
 ! A26   A(7,14,16)            109.4712         estimate D2E/DX2                !
 ! A27   A(7,14,17)            109.4712         estimate D2E/DX2                !
 ! A28   A(15,14,16)           109.4713         estimate D2E/DX2                !
 ! A29   A(15,14,17)           109.4712         estimate D2E/DX2                !
 ! A30   A(16,14,17)           109.4712         estimate D2E/DX2                !
 ! D1    D(2,1,3,4)             60.0            estimate D2E/DX2                !
 ! D2    D(2,1,3,5)            180.0            estimate D2E/DX2                !
 ! D3    D(2,1,3,6)            -60.0            estimate D2E/DX2                !
 ! D4    D(7,1,3,4)            -60.0            estimate D2E/DX2                !
 ! D5    D(7,1,3,5)             60.0            estimate D2E/DX2                !
 ! D6    D(7,1,3,6)            180.0            estimate D2E/DX2                !
 ! D7    D(10,1,3,4)           180.0            estimate D2E/DX2                !
 ! D8    D(10,1,3,5)           -60.0            estimate D2E/DX2                !
 ! D9    D(10,1,3,6)            60.0            estimate D2E/DX2                !
 ! D10   D(2,1,7,8)             60.0            estimate D2E/DX2                !
 ! D11   D(2,1,7,9)            -60.0            estimate D2E/DX2                !
 ! D12   D(2,1,7,14)          -180.0            estimate D2E/DX2                !
 ! D13   D(3,1,7,8)            180.0            estimate D2E/DX2                !
 ! D14   D(3,1,7,9)             60.0            estimate D2E/DX2                !
 ! D15   D(3,1,7,14)           -60.0            estimate D2E/DX2                !
 ! D16   D(10,1,7,8)           -60.0            estimate D2E/DX2                !
 ! D17   D(10,1,7,9)          -180.0            estimate D2E/DX2                !
 ! D18   D(10,1,7,14)           60.0            estimate D2E/DX2                !
 ! D19   D(2,1,10,11)           60.0            estimate D2E/DX2                !
 ! D20   D(2,1,10,12)          180.0            estimate D2E/DX2                !
 ! D21   D(2,1,10,13)          -60.0            estimate D2E/DX2                !
 ! D22   D(3,1,10,11)          -60.0            estimate D2E/DX2                !
 ! D23   D(3,1,10,12)           60.0            estimate D2E/DX2                !
 ! D24   D(3,1,10,13)          180.0            estimate D2E/DX2                !
 ! D25   D(7,1,10,11)         -180.0            estimate D2E/DX2                !
 ! D26   D(7,1,10,12)          -60.0            estimate D2E/DX2                !
 ! D27   D(7,1,10,13)           60.0            estimate D2E/DX2                !
 ! D28   D(1,7,14,15)           60.0001         estimate D2E/DX2                !
 ! D29   D(1,7,14,16)         -179.9999         estimate D2E/DX2                !
 ! D30   D(1,7,14,17)          -59.9999         estimate D2E/DX2                !
 ! D31   D(8,7,14,15)         -179.9999         estimate D2E/DX2                !
 ! D32   D(8,7,14,16)          -59.9999         estimate D2E/DX2                !
 ! D33   D(8,7,14,17)           60.0001         estimate D2E/DX2                !
 ! D34   D(9,7,14,15)          -59.9999         estimate D2E/DX2                !
 ! D35   D(9,7,14,16)           60.0001         estimate D2E/DX2                !
 ! D36   D(9,7,14,17)         -179.9999         estimate D2E/DX2                !
 --------------------------------------------------------------------------------
 Trust Radius=3.00D-01 FncErr=1.00D-07 GrdErr=1.00D-06
 Number of steps in this run=     92 maximum allowed number of steps=    102.
 GradGradGradGradGradGradGradGradGradGradGradGradGradGradGradGradGradGrad

                          Input orientation:                          
 ---------------------------------------------------------------------
 Center     Atomic      Atomic             Coordinates (Angstroms)
 Number     Number       Type             X           Y           Z
 ---------------------------------------------------------------------
      1         14           0       -0.630696   -0.288702    0.000032
      2         17           0        0.089333    0.729760   -1.763458
      3          6           0        0.015966    0.625604    1.584163
      4          1           0       -0.340689    1.634414    1.584295
      5          1           0       -0.340715    0.121089    2.457744
      6          1           0        1.085966    0.625592    1.584174
      7          6           0       -2.570696   -0.288680    0.000013
      8          1           0       -2.927359   -0.792962   -0.873709
      9          1           0       -2.927351    0.720129    0.000144
     10          6           0        0.015951   -2.117759   -0.000207
     11          1           0        1.085951   -2.117770   -0.000196
     12          1           0       -0.340730   -2.622274    0.873374
     13          1           0       -0.340713   -2.622041   -0.873929
     14          6           0       -3.084049   -1.014805    1.257316
     15          1           0       -2.727386   -0.510522    2.131038
     16          1           0       -4.154049   -1.014795    1.257304
     17          1           0       -2.727393   -2.023615    1.257185
 ---------------------------------------------------------------------
                    Distance matrix (angstroms):
                    1          2          3          4          5
     1  Si   0.000000
     2  Cl   2.160000   0.000000
     3  C    1.940000   3.350045   0.000000
     4  H    2.508459   3.494391   1.070000   0.000000
     5  H    2.508459   4.286487   1.070000   1.747303   0.000000
     6  H    2.508459   3.494391   1.070000   1.747303   1.747303
     7  C    1.940000   3.350045   3.168007   3.343825   3.343825
     8  H    2.508459   3.494391   4.088598   4.315646   4.315646
     9  H    2.508459   3.494391   3.343825   3.168007   3.617918
    10  C    1.940000   3.350045   3.168007   4.088598   3.343825
    11  H    2.508459   3.494391   3.343825   4.315646   3.617918
    12  H    2.508459   4.286487   3.343825   4.315646   3.168007
    13  H    2.508459   3.494391   4.088598   4.915309   4.315646
    14  C    2.850778   4.715817   3.522480   3.827702   3.202681
    15  H    2.997750   4.963799   3.019244   3.255150   2.490355
    16  H    3.810770   5.493156   4.492969   4.654776   4.156056
    17  H    2.997749   4.963799   3.827701   4.380014   3.425978
                    6          7          8          9         10
     6  H    0.000000
     7  C    4.088598   0.000000
     8  H    4.915309   1.070000   0.000000
     9  H    4.315646   1.070000   1.747303   0.000000
    10  C    3.343825   3.168007   3.343825   4.088598   0.000000
    11  H    3.168007   4.088598   4.315646   4.915309   1.070000
    12  H    3.617918   3.343825   3.617918   4.315646   1.070000
    13  H    4.315646   3.343825   3.168007   4.315646   1.070000
    14  C    4.492969   1.540000   2.148263   2.148263   3.522480
    15  H    4.016400   2.148263   3.024610   2.468845   3.827703
    16  H    5.500497   2.148263   2.468845   2.468846   4.492968
    17  H    4.654774   2.148263   2.468847   3.024610   3.019243
                   11         12         13         14         15
    11  H    0.000000
    12  H    1.747303   0.000000
    13  H    1.747303   1.747303   0.000000
    14  C    4.492969   3.202681   3.827702   0.000000
    15  H    4.654776   3.425980   4.380016   1.070000   0.000000
    16  H    5.500496   4.156055   4.654774   1.070000   1.747303
    17  H    4.016399   2.490354   3.255150   1.070000   1.747303
                   16         17
    16  H    0.000000
    17  H    1.747303   0.000000
 Stoichiometry    C4H11ClSi
 Framework group  C1[X(C4H11ClSi)]
 Deg. of freedom    45
 Full point group                 C1      NOp   1
 Largest Abelian subgroup         C1      NOp   1
 Largest concise Abelian subgroup C1      NOp   1
                         Standard orientation:                         
 ---------------------------------------------------------------------
 Center     Atomic      Atomic             Coordinates (Angstroms)
 Number     Number       Type             X           Y           Z
 ---------------------------------------------------------------------
      1         14           0       -0.101712    0.197408    0.000000
      2         17           0       -2.075574   -0.679787    0.000000
      3          6           0        0.117831    1.295741    1.584003
      4          1           0       -0.003257    0.689960    2.457655
      5          1           0        1.095624    1.730277    1.584003
      6          1           0       -0.617784    2.072767    1.584003
      7          6           0        1.232021   -1.211405    0.000000
      8          1           0        1.110933   -1.817186   -0.873651
      9          1           0        1.110933   -1.817186    0.873651
     10          6           0        0.117831    1.295741   -1.584003
     11          1           0       -0.617784    2.072767   -1.584003
     12          1           0        1.095624    1.730277   -1.584003
     13          1           0       -0.003257    0.689960   -2.457655
     14          6           0        2.639311   -0.585998    0.000000
     15          1           0        2.760400    0.019783    0.873652
     16          1           0        3.374926   -1.363024   -0.000001
     17          1           0        2.760399    0.019785   -0.873651
 ---------------------------------------------------------------------
 Rotational constants (GHZ):      2.6809990      1.3661399      1.3049850
 Standard basis: 6-311+G(d,p) (5D, 7F)
 There are   220 symmetry adapted cartesian basis functions of A   symmetry.
 There are   214 symmetry adapted basis functions of A   symmetry.
   214 basis functions,   335 primitive gaussians,   220 cartesian basis functions
    33 alpha electrons       33 beta electrons
       nuclear repulsion energy       372.9877084165 Hartrees.
 NAtoms=   17 NActive=   17 NUniq=   17 SFac= 1.00D+00 NAtFMM=   60 NAOKFM=F Big=F
 Integral buffers will be    131072 words long.
 Raffenetti 2 integral format.
 Two-electron integral symmetry is turned on.
 One-electron integrals computed using PRISM.
 NBasis=   214 RedAO= T EigKep=  7.26D-05  NBF=   214
 NBsUse=   214 1.00D-06 EigRej= -1.00D+00 NBFU=   214
 ExpMin= 3.31D-02 ExpMax= 1.06D+05 ExpMxC= 3.62D+03 IAcc=3 IRadAn=         5 AccDes= 0.00D+00
 Harris functional with IExCor=  402 and IRadAn=       5 diagonalized for initial guess.
 HarFok:  IExCor=  402 AccDes= 0.00D+00 IRadAn=         5 IDoV= 1 UseB2=F ITyADJ=14
 ICtDFT=  3500011 ScaDFX=  1.000000  1.000000  1.000000  1.000000
 FoFCou: FMM=F IPFlag=           0 FMFlag=      100000 FMFlg1=           0
         NFxFlg=           0 DoJE=T BraDBF=F KetDBF=T FulRan=T
         wScrn=  0.000000 ICntrl=     500 IOpCl=  0 I1Cent=   200000004 NGrid=           0
         NMat0=    1 NMatS0=      1 NMatT0=    0 NMatD0=    1 NMtDS0=    0 NMtDT0=    0
 Petite list used in FoFCou.
 Keep R1 ints in memory in canonical form, NReq=270193147.
 Requested convergence on RMS density matrix=1.00D-08 within 128 cycles.
 Requested convergence on MAX density matrix=1.00D-06.
 Requested convergence on             energy=1.00D-06.
 No special actions if energy rises.
 SCF Done:  E(RB3LYP) =  -908.927101642     A.U. after   11 cycles
            NFock= 11  Conv=0.86D-08     -V/T= 2.0026

 **********************************************************************

            Population analysis using the SCF density.

 **********************************************************************

 Orbital symmetries:
       Occupied  (A) (A) (A) (A) (A) (A) (A) (A) (A) (A) (A) (A)
                 (A) (A) (A) (A) (A) (A) (A) (A) (A) (A) (A) (A)
                 (A) (A) (A) (A) (A) (A) (A) (A) (A)
       Virtual   (A) (A) (A) (A) (A) (A) (A) (A) (A) (A) (A) (A)
                 (A) (A) (A) (A) (A) (A) (A) (A) (A) (A) (A) (A)
                 (A) (A) (A) (A) (A) (A) (A) (A) (A) (A) (A) (A)
                 (A) (A) (A) (A) (A) (A) (A) (A) (A) (A) (A) (A)
                 (A) (A) (A) (A) (A) (A) (A) (A) (A) (A) (A) (A)
                 (A) (A) (A) (A) (A) (A) (A) (A) (A) (A) (A) (A)
                 (A) (A) (A) (A) (A) (A) (A) (A) (A) (A) (A) (A)
                 (A) (A) (A) (A) (A) (A) (A) (A) (A) (A) (A) (A)
                 (A) (A) (A) (A) (A) (A) (A) (A) (A) (A) (A) (A)
                 (A) (A) (A) (A) (A) (A) (A) (A) (A) (A) (A) (A)
                 (A) (A) (A) (A) (A) (A) (A) (A) (A) (A) (A) (A)
                 (A) (A) (A) (A) (A) (A) (A) (A) (A) (A) (A) (A)
                 (A) (A) (A) (A) (A) (A) (A) (A) (A) (A) (A) (A)
                 (A) (A) (A) (A) (A) (A) (A) (A) (A) (A) (A) (A)
                 (A) (A) (A) (A) (A) (A) (A) (A) (A) (A) (A) (A)
                 (A)
 The electronic state is 1-A.
 Alpha  occ. eigenvalues -- -101.52851 -66.13528 -10.16705 -10.16376 -10.15800
 Alpha  occ. eigenvalues --  -10.15800  -9.44282  -7.20492  -7.19886  -7.19884
 Alpha  occ. eigenvalues --   -5.30258  -3.66363  -3.65953  -3.65929  -0.80750
 Alpha  occ. eigenvalues --   -0.77172  -0.71588  -0.69915  -0.62891  -0.48935
 Alpha  occ. eigenvalues --   -0.46502  -0.44632  -0.42816  -0.41728  -0.41179
 Alpha  occ. eigenvalues --   -0.41043  -0.38139  -0.36972  -0.35283  -0.33404
 Alpha  occ. eigenvalues --   -0.32821  -0.29626  -0.28739
 Alpha virt. eigenvalues --   -0.01275   0.00611   0.01353   0.01701   0.02814
 Alpha virt. eigenvalues --    0.04754   0.04891   0.05526   0.05771   0.06097
 Alpha virt. eigenvalues --    0.07106   0.08176   0.08344   0.08872   0.09045
 Alpha virt. eigenvalues --    0.09761   0.09927   0.10043   0.10709   0.11471
 Alpha virt. eigenvalues --    0.12416   0.12711   0.13599   0.14521   0.15109
 Alpha virt. eigenvalues --    0.15775   0.15968   0.16287   0.17212   0.17658
 Alpha virt. eigenvalues --    0.19399   0.20146   0.21102   0.22542   0.23244
 Alpha virt. eigenvalues --    0.23806   0.26452   0.27414   0.28736   0.31071
 Alpha virt. eigenvalues --    0.31963   0.33018   0.34916   0.35458   0.37150
 Alpha virt. eigenvalues --    0.40585   0.42925   0.44427   0.49073   0.49287
 Alpha virt. eigenvalues --    0.50864   0.50946   0.52200   0.52948   0.53379
 Alpha virt. eigenvalues --    0.53622   0.53864   0.58934   0.61605   0.61954
 Alpha virt. eigenvalues --    0.63803   0.64352   0.64575   0.65570   0.67213
 Alpha virt. eigenvalues --    0.68800   0.69933   0.70094   0.72143   0.74005
 Alpha virt. eigenvalues --    0.76601   0.76804   0.77099   0.80154   0.80332
 Alpha virt. eigenvalues --    0.86073   0.88875   0.89637   0.90107   0.91905
 Alpha virt. eigenvalues --    0.94221   0.94236   0.98102   1.01270   1.02049
 Alpha virt. eigenvalues --    1.05958   1.10103   1.13983   1.16867   1.19972
 Alpha virt. eigenvalues --    1.25109   1.26462   1.39604   1.42858   1.42883
 Alpha virt. eigenvalues --    1.45288   1.46442   1.47083   1.51861   1.52766
 Alpha virt. eigenvalues --    1.55181   1.55434   1.55985   1.59509   1.61036
 Alpha virt. eigenvalues --    1.61085   1.62850   1.63353   1.68920   1.71004
 Alpha virt. eigenvalues --    1.72151   1.73614   1.75130   1.77415   1.79007
 Alpha virt. eigenvalues --    1.79703   1.80146   1.88262   2.00285   2.03312
 Alpha virt. eigenvalues --    2.03425   2.05171   2.08528   2.17509   2.18469
 Alpha virt. eigenvalues --    2.19634   2.23746   2.24304   2.30333   2.31199
 Alpha virt. eigenvalues --    2.33230   2.35676   2.41696   2.44877   2.48118
 Alpha virt. eigenvalues --    2.49479   2.50307   2.51762   2.52944   2.55373
 Alpha virt. eigenvalues --    2.56086   2.57574   2.57708   2.59266   2.60003
 Alpha virt. eigenvalues --    2.60071   2.63082   2.63683   2.66463   2.67839
 Alpha virt. eigenvalues --    2.72094   2.76957   2.83898   2.89331   2.91997
 Alpha virt. eigenvalues --    3.02975   3.13854   3.19651   3.29413   3.77197
 Alpha virt. eigenvalues --    3.77725   3.79947   3.80465   3.82723   3.85996
 Alpha virt. eigenvalues --    3.86497   4.16148   5.65046   9.74553  11.43393
 Alpha virt. eigenvalues --   11.44214  11.44493  23.89435  23.98616  23.99533
 Alpha virt. eigenvalues --   24.02297  25.95052  25.95216  26.30726 141.05392
 Alpha virt. eigenvalues --  215.73958
          Condensed to atoms (all electrons):
               1          2          3          4          5          6
     1  Si  12.439888   0.482533   0.112940  -0.027303   0.037580  -0.017885
     2  Cl   0.482533  16.994362  -0.109930  -0.002244   0.005559  -0.002099
     3  C    0.112940  -0.109930   5.767525   0.384253   0.333736   0.379500
     4  H   -0.027303  -0.002244   0.384253   0.498365  -0.020667  -0.015767
     5  H    0.037580   0.005559   0.333736  -0.020667   0.524359  -0.018892
     6  H   -0.017885  -0.002099   0.379500  -0.015767  -0.018892   0.498475
     7  C    0.151915  -0.122667  -0.145787  -0.003211  -0.012981   0.015544
     8  H   -0.010157   0.004416   0.008656  -0.000071  -0.000099  -0.000097
     9  H   -0.010157   0.004416  -0.009440   0.001113   0.000289  -0.000174
    10  C    0.112940  -0.109930  -0.062959   0.012194  -0.008979  -0.008405
    11  H   -0.017885  -0.002099  -0.008405  -0.000080   0.000252   0.001098
    12  H    0.037580   0.005559  -0.008979  -0.000067   0.000199   0.000252
    13  H   -0.027303  -0.002244   0.012194  -0.000143  -0.000067  -0.000080
    14  C    0.019207   0.019534   0.049802   0.000216   0.001438  -0.003367
    15  H   -0.007242   0.000495   0.003776  -0.000250   0.001033   0.000072
    16  H    0.008379  -0.000222  -0.001181  -0.000048   0.000103   0.000015
    17  H   -0.007241   0.000495  -0.003617   0.000106  -0.000194  -0.000049
               7          8          9         10         11         12
     1  Si   0.151915  -0.010157  -0.010157   0.112940  -0.017885   0.037580
     2  Cl  -0.122667   0.004416   0.004416  -0.109930  -0.002099   0.005559
     3  C   -0.145787   0.008656  -0.009440  -0.062959  -0.008405  -0.008979
     4  H   -0.003211  -0.000071   0.001113   0.012194  -0.000080  -0.000067
     5  H   -0.012981  -0.000099   0.000289  -0.008979   0.000252   0.000199
     6  H    0.015544  -0.000097  -0.000174  -0.008405   0.001098   0.000252
     7  C    6.226940   0.381183   0.381183  -0.145787   0.015544  -0.012981
     8  H    0.381183   0.511073  -0.016898  -0.009440  -0.000174   0.000289
     9  H    0.381183  -0.016898   0.511073   0.008656  -0.000097  -0.000099
    10  C   -0.145787  -0.009440   0.008656   5.767524   0.379500   0.333736
    11  H    0.015544  -0.000174  -0.000097   0.379500   0.498475  -0.018892
    12  H   -0.012981   0.000289  -0.000099   0.333736  -0.018892   0.524359
    13  H   -0.003211   0.001113  -0.000071   0.384253  -0.015767  -0.020667
    14  C   -0.173580  -0.037841  -0.037841   0.049802  -0.003367   0.001438
    15  H   -0.047888   0.007798  -0.005555  -0.003617  -0.000049  -0.000194
    16  H   -0.030372  -0.009094  -0.009094  -0.001181   0.000015   0.000103
    17  H   -0.047888  -0.005555   0.007798   0.003776   0.000072   0.001033
              13         14         15         16         17
     1  Si  -0.027303   0.019207  -0.007242   0.008379  -0.007241
     2  Cl  -0.002244   0.019534   0.000495  -0.000222   0.000495
     3  C    0.012194   0.049802   0.003776  -0.001181  -0.003617
     4  H   -0.000143   0.000216  -0.000250  -0.000048   0.000106
     5  H   -0.000067   0.001438   0.001033   0.000103  -0.000194
     6  H   -0.000080  -0.003367   0.000072   0.000015  -0.000049
     7  C   -0.003211  -0.173580  -0.047888  -0.030372  -0.047888
     8  H    0.001113  -0.037841   0.007798  -0.009094  -0.005555
     9  H   -0.000071  -0.037841  -0.005555  -0.009094   0.007798
    10  C    0.384253   0.049802  -0.003617  -0.001181   0.003776
    11  H   -0.015767  -0.003367  -0.000049   0.000015   0.000072
    12  H   -0.020667   0.001438  -0.000194   0.000103   0.001033
    13  H    0.498365   0.000216   0.000106  -0.000048  -0.000250
    14  C    0.000216   5.366430   0.419840   0.413129   0.419840
    15  H    0.000106   0.419840   0.554415  -0.027166  -0.032811
    16  H   -0.000048   0.413129  -0.027166   0.534940  -0.027166
    17  H   -0.000250   0.419840  -0.032811  -0.027166   0.554415
 Mulliken charges:
               1
     1  Si   0.722210
     2  Cl  -0.165935
     3  C   -0.702083
     4  H    0.173602
     5  H    0.157331
     6  H    0.171858
     7  C   -0.425954
     8  H    0.174897
     9  H    0.174897
    10  C   -0.702082
    11  H    0.171858
    12  H    0.157331
    13  H    0.173602
    14  C   -0.504897
    15  H    0.137238
    16  H    0.148888
    17  H    0.137238
 Sum of Mulliken charges =   0.00000
 Mulliken charges with hydrogens summed into heavy atoms:
               1
     1  Si   0.722210
     2  Cl  -0.165935
     3  C   -0.199291
     7  C   -0.076161
    10  C   -0.199291
    14  C   -0.081532
 Electronic spatial extent (au):  <R**2>=           1106.8551
 Charge=              0.0000 electrons
 Dipole moment (field-independent basis, Debye):
    X=              2.4816    Y=              0.9201    Z=              0.0000  Tot=              2.6467
 Quadrupole moment (field-independent basis, Debye-Ang):
   XX=            -58.3886   YY=            -53.9556   ZZ=            -53.6081
   XY=             -2.2381   XZ=              0.0000   YZ=              0.0000
 Traceless Quadrupole moment (field-independent basis, Debye-Ang):
   XX=             -3.0712   YY=              1.3618   ZZ=              1.7094
   XY=             -2.2381   XZ=              0.0000   YZ=              0.0000
 Octapole moment (field-independent basis, Debye-Ang**2):
  XXX=              1.9910  YYY=             -1.2719  ZZZ=              0.0000  XYY=             -0.9484
  XXY=              1.7285  XXZ=              0.0000  XZZ=             -1.4133  YZZ=             -4.0962
  YYZ=              0.0000  XYZ=              0.0000
 Hexadecapole moment (field-independent basis, Debye-Ang**3):
 XXXX=           -841.8707 YYYY=           -380.3487 ZZZZ=           -344.5002 XXXY=              0.0176
 XXXZ=              0.0000 YYYX=             -2.6411 YYYZ=              0.0000 ZZZX=              0.0000
 ZZZY=              0.0000 XXYY=           -193.2266 XXZZ=           -195.6162 YYZZ=           -124.8804
 XXYZ=              0.0000 YYXZ=              0.0000 ZZXY=              0.0322
 N-N= 3.729877084165D+02 E-N=-2.897728618733D+03  KE= 9.065583484153D+02
 There are a total of      139534 grid points.
 ElSum from          density=       66.0001209360
 ElSum from atomic densities=       66.0001286665

 Hirshfeld populations at iteration   1 (CX, CA, CB, DipXYZ):
               1          2          3          4          5          6
     1  Si   0.000000   6.787607   6.787607  -0.019092   0.008173   0.000000
     2  Cl   0.000007   8.608661   8.608661  -0.013041  -0.008450   0.000000
     3  C    0.000000   3.100282   3.100282   0.019488   0.063296   0.084491
     4  H    0.000002   0.478779   0.478779  -0.015842  -0.091812   0.132965
     5  H    0.000001   0.478961   0.478961   0.143843   0.067727   0.001038
     6  H    0.000002   0.478548   0.478548  -0.109830   0.119955  -0.000788
     7  C    0.000000   3.077442   3.077442   0.107608  -0.073266   0.000000
     8  H    0.000002   0.480521   0.480521  -0.005792  -0.088976  -0.131746
     9  H    0.000002   0.480521   0.480521  -0.005792  -0.088976   0.131746
    10  C    0.000000   3.100282   3.100282   0.019488   0.063296  -0.084491
    11  H    0.000002   0.478548   0.478548  -0.109830   0.119955   0.000788
    12  H    0.000001   0.478961   0.478961   0.143843   0.067727  -0.001038
    13  H    0.000002   0.478779   0.478779  -0.015842  -0.091812  -0.132965
    14  C    0.000000   3.047702   3.047702  -0.003744  -0.015126   0.000000
    15  H    0.000000   0.482064   0.482064   0.017254   0.077347   0.122518
    16  H    0.000000   0.480340   0.480340   0.098992  -0.115385   0.000000
    17  H    0.000000   0.482064   0.482064   0.017254   0.077347  -0.122518
       Tot   0.000022  33.000060  33.000060   0.268964   0.091021   0.000000

 Dip from Atomic Chgs              0.707134   0.271440   0.000000
         Total Dipole              0.976097   0.362461   0.000000

 Hirshfeld charges, spin densities, dipoles, and CM5 charges using IRadAn=      4:
              Q-H        S-H        Dx         Dy         Dz        Q-CM5   
     1  Si   0.424786   0.000000  -0.019092   0.008173   0.000000   0.308733
     2  Cl  -0.217322   0.000000  -0.013041  -0.008450   0.000000  -0.251702
     3  C   -0.200563   0.000000   0.019488   0.063296   0.084491  -0.321839
     4  H    0.042442   0.000000  -0.015842  -0.091812   0.132965   0.099459
     5  H    0.042077   0.000000   0.143843   0.067727   0.001038   0.099250
     6  H    0.042904   0.000000  -0.109830   0.119955  -0.000788   0.099877
     7  C   -0.154885   0.000000   0.107608  -0.073266   0.000000  -0.236126
     8  H    0.038959   0.000000  -0.005792  -0.088976  -0.131746   0.099406
     9  H    0.038959   0.000000  -0.005792  -0.088976   0.131746   0.099406
    10  C   -0.200563   0.000000   0.019488   0.063296  -0.084491  -0.321839
    11  H    0.042904   0.000000  -0.109830   0.119955   0.000788   0.099877
    12  H    0.042077   0.000000   0.143843   0.067727  -0.001038   0.099250
    13  H    0.042442   0.000000  -0.015842  -0.091812  -0.132965   0.099459
    14  C   -0.095403   0.000000  -0.003744  -0.015126   0.000000  -0.250423
    15  H    0.035873   0.000000   0.017254   0.077347   0.122518   0.091906
    16  H    0.039320   0.000000   0.098992  -0.115385   0.000000   0.093279
    17  H    0.035873   0.000000   0.017254   0.077347  -0.122518   0.091906
       Tot  -0.000121   0.000000   0.268964   0.091021   0.000000  -0.000121
 Hirshfeld charges with hydrogens summed into heavy atoms:
              Q-H       Q-CM5   
     1  Si   0.424786   0.308733
     2  Cl  -0.217322  -0.251702
     3  C   -0.073140  -0.023253
     7  C   -0.076967  -0.037315
    10  C   -0.073140  -0.023253
    14  C    0.015662   0.026669
 
 EQQ= 0.000000000000E+00 EQD= 0.000000000000E+00 EDD= 0.411274148090E-02
 EQQ+QD+DD= 0.411274148090E-02
 
          MBS Condensed to atoms (all electrons):
               1          2          3          4          5          6
     1  Si  12.167407   0.225741   0.341746  -0.015206  -0.014045  -0.014982
     2  Cl   0.225741  17.181763  -0.005379   0.000016   0.000149   0.000007
     3  C    0.341746  -0.005379   4.993561   0.375638   0.374375   0.375844
     4  H   -0.015206   0.000016   0.375638   0.571699  -0.021337  -0.021105
     5  H   -0.014045   0.000149   0.374375  -0.021337   0.576724  -0.021185
     6  H   -0.014982   0.000007   0.375844  -0.021105  -0.021185   0.570183
     7  C    0.342981  -0.005366  -0.007085  -0.000224  -0.000133   0.000202
     8  H   -0.016906   0.000063   0.000201   0.000001   0.000001  -0.000005
     9  H   -0.016906   0.000063  -0.000189   0.000130   0.000027  -0.000002
    10  C    0.341746  -0.005379  -0.007425   0.000215  -0.000045  -0.000198
    11  H   -0.014982   0.000007  -0.000198  -0.000001   0.000019   0.000107
    12  H   -0.014045   0.000149  -0.000045  -0.000001   0.000014   0.000019
    13  H   -0.015206   0.000016   0.000215  -0.000006  -0.000001  -0.000001
    14  C   -0.014562   0.000053  -0.000614   0.000026  -0.000303   0.000015
    15  H   -0.003105   0.000002   0.000094   0.000037   0.000664  -0.000017
    16  H    0.001497  -0.000002   0.000001  -0.000003   0.000002   0.000000
    17  H   -0.003105   0.000002   0.000027   0.000003   0.000022  -0.000002
               7          8          9         10         11         12
     1  Si   0.342981  -0.016906  -0.016906   0.341746  -0.014982  -0.014045
     2  Cl  -0.005366   0.000063   0.000063  -0.005379   0.000007   0.000149
     3  C   -0.007085   0.000201  -0.000189  -0.007425  -0.000198  -0.000045
     4  H   -0.000224   0.000001   0.000130   0.000215  -0.000001  -0.000001
     5  H   -0.000133   0.000001   0.000027  -0.000045   0.000019   0.000014
     6  H    0.000202  -0.000005  -0.000002  -0.000198   0.000107   0.000019
     7  C    4.951361   0.375310   0.375310  -0.007085   0.000202  -0.000133
     8  H    0.375310   0.588669  -0.022787  -0.000189  -0.000002   0.000027
     9  H    0.375310  -0.022787   0.588669   0.000201  -0.000005   0.000001
    10  C   -0.007085  -0.000189   0.000201   4.993561   0.375844   0.374375
    11  H    0.000202  -0.000002  -0.000005   0.375844   0.570183  -0.021185
    12  H   -0.000133   0.000027   0.000001   0.374375  -0.021185   0.576724
    13  H   -0.000224   0.000130   0.000001   0.375638  -0.021105  -0.021337
    14  C    0.355285  -0.022457  -0.022457  -0.000614   0.000015  -0.000303
    15  H   -0.024025   0.002387  -0.002462   0.000027  -0.000002   0.000022
    16  H   -0.021337  -0.002788  -0.002788   0.000001   0.000000   0.000002
    17  H   -0.024025  -0.002462   0.002387   0.000094  -0.000017   0.000664
              13         14         15         16         17
     1  Si  -0.015206  -0.014562  -0.003105   0.001497  -0.003105
     2  Cl   0.000016   0.000053   0.000002  -0.000002   0.000002
     3  C    0.000215  -0.000614   0.000094   0.000001   0.000027
     4  H   -0.000006   0.000026   0.000037  -0.000003   0.000003
     5  H   -0.000001  -0.000303   0.000664   0.000002   0.000022
     6  H   -0.000001   0.000015  -0.000017   0.000000  -0.000002
     7  C   -0.000224   0.355285  -0.024025  -0.021337  -0.024025
     8  H    0.000130  -0.022457   0.002387  -0.002788  -0.002462
     9  H    0.000001  -0.022457  -0.002462  -0.002788   0.002387
    10  C    0.375638  -0.000614   0.000027   0.000001   0.000094
    11  H   -0.021105   0.000015  -0.000002   0.000000  -0.000017
    12  H   -0.021337  -0.000303   0.000022   0.000002   0.000664
    13  H    0.571699   0.000026   0.000003  -0.000003   0.000037
    14  C    0.000026   4.830620   0.383169   0.383693   0.383169
    15  H    0.000003   0.383169   0.598699  -0.023280  -0.023277
    16  H   -0.000003   0.383693  -0.023280   0.587329  -0.023280
    17  H    0.000037   0.383169  -0.023277  -0.023280   0.598699
 MBS Mulliken charges:
               1
     1  Si   0.721931
     2  Cl  -0.391902
     3  C   -0.440767
     4  H    0.110118
     5  H    0.105051
     6  H    0.111120
     7  C   -0.311012
     8  H    0.100807
     9  H    0.100807
    10  C   -0.440767
    11  H    0.111120
    12  H    0.105051
    13  H    0.110118
    14  C   -0.274759
    15  H    0.091064
    16  H    0.100954
    17  H    0.091064
 Sum of MBS Mulliken charges =   0.00000
 MBS Mulliken charges with hydrogens summed into heavy atoms:
               1
     1  Si   0.721931
     2  Cl  -0.391902
     3  C   -0.114478
     7  C   -0.109398
    10  C   -0.114478
    14  C    0.008324
 Breneman (CHELPG) radii used.
 Generate Potential Derived Charges using the Breneman model, NDens= 1.
 Grid spacing= 0.300 Box extension= 2.800
 NStep X,Y,Z=   38     32     37   Total possible points=       44992
 Number of Points to Fit=   11826

 **********************************************************************

            Electrostatic Properties Using The SCF Density

 **********************************************************************

       Atomic Center    1 is at  -0.101712  0.197408  0.000000
       Atomic Center    2 is at  -2.075574 -0.679787  0.000000
       Atomic Center    3 is at   0.117831  1.295741  1.584003
       Atomic Center    4 is at  -0.003257  0.689960  2.457655
       Atomic Center    5 is at   1.095624  1.730277  1.584003
       Atomic Center    6 is at  -0.617784  2.072767  1.584003
       Atomic Center    7 is at   1.232021 -1.211405  0.000000
       Atomic Center    8 is at   1.110933 -1.817186 -0.873651
       Atomic Center    9 is at   1.110933 -1.817186  0.873651
       Atomic Center   10 is at   0.117831  1.295741 -1.584003
       Atomic Center   11 is at  -0.617784  2.072767 -1.584003
       Atomic Center   12 is at   1.095624  1.730277 -1.584003
       Atomic Center   13 is at  -0.003257  0.689960 -2.457655
       Atomic Center   14 is at   2.639311 -0.585998  0.000000
       Atomic Center   15 is at   2.760400  0.019783  0.873652
       Atomic Center   16 is at   3.374926 -1.363024 -0.000001
       Atomic Center   17 is at   2.760399  0.019785 -0.873651
   11826 points will be used for fitting atomic charges
 Fitting point charges to electrostatic potential
 Charges from ESP fit, RMS=   0.00261 RRMS=   0.24831:
 ESP charges:
               1
     1  Si   0.610456
     2  Cl  -0.324506
     3  C   -0.340400
     4  H    0.074454
     5  H    0.077790
     6  H    0.078053
     7  C   -0.080875
     8  H    0.004055
     9  H    0.004055
    10  C   -0.340401
    11  H    0.078053
    12  H    0.077790
    13  H    0.074454
    14  C    0.012861
    15  H   -0.009024
    16  H    0.012210
    17  H   -0.009024
 Sum of ESP charges =   0.00000
 ESP charges with hydrogens summed into heavy atoms:
               1
     1  Si   0.610456
     2  Cl  -0.324506
     3  C   -0.110104
     7  C   -0.072766
    10  C   -0.110104
    14  C    0.007023
 Charge=   0.00000 Dipole=     2.5911     1.0239     0.0000 Tot=     2.7861
 -----------------------------------------------------------------

              Electrostatic Properties (Atomic Units)

 -----------------------------------------------------------------
    Center     Electric         -------- Electric Field --------
               Potential          X             Y             Z
 -----------------------------------------------------------------
    1 Atom    -49.250637
    2 Atom    -64.421912
    3 Atom    -14.788932
    4 Atom     -1.108270
    5 Atom     -1.103764
    6 Atom     -1.108002
    7 Atom    -14.782453
    8 Atom     -1.116924
    9 Atom     -1.116924
   10 Atom    -14.788932
   11 Atom     -1.108002
   12 Atom     -1.103764
   13 Atom     -1.108270
   14 Atom    -14.779368
   15 Atom     -1.119567
   16 Atom     -1.120603
   17 Atom     -1.119567
 -----------------------------------------------------------------
 ******************************Gaussian NBO Version 3.1******************************
             N A T U R A L   A T O M I C   O R B I T A L   A N D
          N A T U R A L   B O N D   O R B I T A L   A N A L Y S I S
 ******************************Gaussian NBO Version 3.1******************************
       /RESON  / : Allow strongly delocalized NBO set

 Analyzing the SCF density

 Job title: Title Card Required                                             

 Storage needed:    138486 in NPA ( 536869297 available)


 NATURAL POPULATIONS:  Natural atomic orbital occupancies 
                                                          
   NAO  Atom  No  lang   Type(AO)    Occupancy      Energy
 ----------------------------------------------------------
     1   Si    1  S      Cor( 1S)     2.00000     -65.37594
     2   Si    1  S      Cor( 2S)     1.99918      -5.94814
     3   Si    1  S      Val( 3S)     0.92081      -0.25116
     4   Si    1  S      Ryd( 4S)     0.00070       0.48525
     5   Si    1  S      Ryd( 5S)     0.00041       0.60228
     6   Si    1  S      Ryd( 6S)     0.00005       8.78858
     7   Si    1  S      Ryd( 7S)     0.00000     137.40575
     8   Si    1  px     Cor( 2p)     1.99966      -3.65732
     9   Si    1  px     Val( 3p)     0.45211      -0.02448
    10   Si    1  px     Ryd( 6p)     0.00342       0.94605
    11   Si    1  px     Ryd( 4p)     0.00095       0.42070
    12   Si    1  px     Ryd( 5p)     0.00055       0.88651
    13   Si    1  px     Ryd( 7p)     0.00001      11.00545
    14   Si    1  py     Cor( 2p)     1.99980      -3.65307
    15   Si    1  py     Val( 3p)     0.53484       0.00888
    16   Si    1  py     Ryd( 5p)     0.00368       0.88812
    17   Si    1  py     Ryd( 4p)     0.00048       0.39362
    18   Si    1  py     Ryd( 6p)     0.00035       0.92400
    19   Si    1  py     Ryd( 7p)     0.00001      10.97700
    20   Si    1  pz     Cor( 2p)     1.99986      -3.65251
    21   Si    1  pz     Val( 3p)     0.54831       0.01318
    22   Si    1  pz     Ryd( 5p)     0.00363       0.90130
    23   Si    1  pz     Ryd( 4p)     0.00037       0.39612
    24   Si    1  pz     Ryd( 6p)     0.00023       0.93828
    25   Si    1  pz     Ryd( 7p)     0.00001      10.97669
    26   Si    1  dxy    Ryd( 3d)     0.00838       1.07900
    27   Si    1  dxz    Ryd( 3d)     0.00354       0.83848
    28   Si    1  dyz    Ryd( 3d)     0.00686       1.17807
    29   Si    1  dx2y2  Ryd( 3d)     0.00602       0.88267
    30   Si    1  dz2    Ryd( 3d)     0.00670       1.05588

    31   Cl    2  S      Cor( 1S)     2.00000    -100.26414
    32   Cl    2  S      Cor( 2S)     1.99983     -10.37780
    33   Cl    2  S      Val( 3S)     1.89550      -1.04298
    34   Cl    2  S      Ryd( 5S)     0.00060       1.05266
    35   Cl    2  S      Ryd( 4S)     0.00009       0.95493
    36   Cl    2  S      Ryd( 6S)     0.00000      17.20922
    37   Cl    2  S      Ryd( 7S)     0.00000     207.63684
    38   Cl    2  px     Cor( 2p)     1.99993      -7.19805
    39   Cl    2  px     Val( 3p)     1.64593      -0.31008
    40   Cl    2  px     Ryd( 5p)     0.00048       0.49072
    41   Cl    2  px     Ryd( 4p)     0.00012       0.34258
    42   Cl    2  px     Ryd( 6p)     0.00010       3.77138
    43   Cl    2  px     Ryd( 7p)     0.00000      24.57758
    44   Cl    2  py     Cor( 2p)     1.99998      -7.19471
    45   Cl    2  py     Val( 3p)     1.89152      -0.31077
    46   Cl    2  py     Ryd( 5p)     0.00020       0.44962
    47   Cl    2  py     Ryd( 4p)     0.00010       0.36015
    48   Cl    2  py     Ryd( 6p)     0.00002       3.61016
    49   Cl    2  py     Ryd( 7p)     0.00000      24.49886
    50   Cl    2  pz     Cor( 2p)     2.00000      -7.19386
    51   Cl    2  pz     Val( 3p)     1.95335      -0.31089
    52   Cl    2  pz     Ryd( 5p)     0.00013       0.44903
    53   Cl    2  pz     Ryd( 4p)     0.00014       0.36778
    54   Cl    2  pz     Ryd( 6p)     0.00001       3.57365
    55   Cl    2  pz     Ryd( 7p)     0.00000      24.47873
    56   Cl    2  dxy    Ryd( 3d)     0.00270       0.96300
    57   Cl    2  dxz    Ryd( 3d)     0.00097       0.93603
    58   Cl    2  dyz    Ryd( 3d)     0.00023       0.89329
    59   Cl    2  dx2y2  Ryd( 3d)     0.00240       0.96385
    60   Cl    2  dz2    Ryd( 3d)     0.00132       0.92316

    61    C    3  S      Cor( 1S)     1.99931     -10.01270
    62    C    3  S      Val( 2S)     1.19207      -0.33353
    63    C    3  S      Ryd( 4S)     0.00351       0.95084
    64    C    3  S      Ryd( 3S)     0.00010       0.39352
    65    C    3  S      Ryd( 5S)     0.00000      23.45088
    66    C    3  px     Val( 2p)     1.24128      -0.10992
    67    C    3  px     Ryd( 4p)     0.00111       0.64446
    68    C    3  px     Ryd( 3p)     0.00012       0.36210
    69    C    3  px     Ryd( 5p)     0.00002       2.91986
    70    C    3  py     Val( 2p)     1.28118      -0.12853
    71    C    3  py     Ryd( 4p)     0.00193       0.64834
    72    C    3  py     Ryd( 3p)     0.00021       0.35468
    73    C    3  py     Ryd( 5p)     0.00004       2.85287
    74    C    3  pz     Val( 2p)     1.31922      -0.14946
    75    C    3  pz     Ryd( 4p)     0.00322       0.65328
    76    C    3  pz     Ryd( 3p)     0.00025       0.33671
    77    C    3  pz     Ryd( 5p)     0.00004       2.78174
    78    C    3  dxy    Ryd( 3d)     0.00086       2.18585
    79    C    3  dxz    Ryd( 3d)     0.00006       1.69880
    80    C    3  dyz    Ryd( 3d)     0.00106       1.99035
    81    C    3  dx2y2  Ryd( 3d)     0.00044       1.87547
    82    C    3  dz2    Ryd( 3d)     0.00078       2.00443

    83    H    4  S      Val( 1S)     0.77022       0.05103
    84    H    4  S      Ryd( 2S)     0.00045       1.05556
    85    H    4  S      Ryd( 3S)     0.00009       1.69725
    86    H    4  px     Ryd( 2p)     0.00007       1.75725
    87    H    4  py     Ryd( 2p)     0.00018       2.01008
    88    H    4  pz     Ryd( 2p)     0.00025       2.33596

    89    H    5  S      Val( 1S)     0.77441       0.04439
    90    H    5  S      Ryd( 2S)     0.00047       0.79952
    91    H    5  S      Ryd( 3S)     0.00011       1.96153
    92    H    5  px     Ryd( 2p)     0.00026       2.52929
    93    H    5  py     Ryd( 2p)     0.00014       1.88129
    94    H    5  pz     Ryd( 2p)     0.00010       1.68498

    95    H    6  S      Val( 1S)     0.76932       0.05161
    96    H    6  S      Ryd( 2S)     0.00044       0.96393
    97    H    6  S      Ryd( 3S)     0.00010       1.78538
    98    H    6  px     Ryd( 2p)     0.00018       2.18830
    99    H    6  py     Ryd( 2p)     0.00019       2.22048
   100    H    6  pz     Ryd( 2p)     0.00011       1.69339

   101    C    7  S      Cor( 1S)     1.99926     -10.02324
   102    C    7  S      Val( 2S)     1.13568      -0.30935
   103    C    7  S      Ryd( 4S)     0.00504       0.96272
   104    C    7  S      Ryd( 3S)     0.00076       0.50101
   105    C    7  S      Ryd( 5S)     0.00000      23.44698
   106    C    7  px     Val( 2p)     1.17094      -0.13169
   107    C    7  px     Ryd( 4p)     0.00291       0.63417
   108    C    7  px     Ryd( 3p)     0.00041       0.35589
   109    C    7  px     Ryd( 5p)     0.00011       2.95803
   110    C    7  py     Val( 2p)     1.26756      -0.13483
   111    C    7  py     Ryd( 4p)     0.00441       0.57529
   112    C    7  py     Ryd( 3p)     0.00027       0.37187
   113    C    7  py     Ryd( 5p)     0.00006       2.89495
   114    C    7  pz     Val( 2p)     1.23431      -0.09501
   115    C    7  pz     Ryd( 4p)     0.00112       0.66577
   116    C    7  pz     Ryd( 3p)     0.00032       0.38162
   117    C    7  pz     Ryd( 5p)     0.00007       2.99545
   118    C    7  dxy    Ryd( 3d)     0.00104       1.92476
   119    C    7  dxz    Ryd( 3d)     0.00019       1.74393
   120    C    7  dyz    Ryd( 3d)     0.00112       2.25768
   121    C    7  dx2y2  Ryd( 3d)     0.00032       1.89480
   122    C    7  dz2    Ryd( 3d)     0.00087       2.04433

   123    H    8  S      Val( 1S)     0.78034       0.05280
   124    H    8  S      Ryd( 2S)     0.00087       0.80439
   125    H    8  S      Ryd( 3S)     0.00013       2.04059
   126    H    8  px     Ryd( 2p)     0.00013       1.73456
   127    H    8  py     Ryd( 2p)     0.00017       2.06452
   128    H    8  pz     Ryd( 2p)     0.00024       2.38877

   129    H    9  S      Val( 1S)     0.78034       0.05280
   130    H    9  S      Ryd( 2S)     0.00087       0.80439
   131    H    9  S      Ryd( 3S)     0.00013       2.04059
   132    H    9  px     Ryd( 2p)     0.00013       1.73456
   133    H    9  py     Ryd( 2p)     0.00017       2.06452
   134    H    9  pz     Ryd( 2p)     0.00024       2.38877

   135    C   10  S      Cor( 1S)     1.99931     -10.01270
   136    C   10  S      Val( 2S)     1.19207      -0.33353
   137    C   10  S      Ryd( 4S)     0.00351       0.95084
   138    C   10  S      Ryd( 3S)     0.00010       0.39352
   139    C   10  S      Ryd( 5S)     0.00000      23.45088
   140    C   10  px     Val( 2p)     1.24128      -0.10992
   141    C   10  px     Ryd( 4p)     0.00111       0.64446
   142    C   10  px     Ryd( 3p)     0.00012       0.36210
   143    C   10  px     Ryd( 5p)     0.00002       2.91986
   144    C   10  py     Val( 2p)     1.28118      -0.12853
   145    C   10  py     Ryd( 4p)     0.00193       0.64834
   146    C   10  py     Ryd( 3p)     0.00021       0.35468
   147    C   10  py     Ryd( 5p)     0.00004       2.85287
   148    C   10  pz     Val( 2p)     1.31922      -0.14946
   149    C   10  pz     Ryd( 4p)     0.00322       0.65328
   150    C   10  pz     Ryd( 3p)     0.00025       0.33671
   151    C   10  pz     Ryd( 5p)     0.00004       2.78174
   152    C   10  dxy    Ryd( 3d)     0.00086       2.18585
   153    C   10  dxz    Ryd( 3d)     0.00006       1.69880
   154    C   10  dyz    Ryd( 3d)     0.00106       1.99035
   155    C   10  dx2y2  Ryd( 3d)     0.00044       1.87547
   156    C   10  dz2    Ryd( 3d)     0.00078       2.00443

   157    H   11  S      Val( 1S)     0.76932       0.05161
   158    H   11  S      Ryd( 2S)     0.00044       0.96393
   159    H   11  S      Ryd( 3S)     0.00010       1.78538
   160    H   11  px     Ryd( 2p)     0.00018       2.18830
   161    H   11  py     Ryd( 2p)     0.00019       2.22048
   162    H   11  pz     Ryd( 2p)     0.00011       1.69339

   163    H   12  S      Val( 1S)     0.77441       0.04439
   164    H   12  S      Ryd( 2S)     0.00047       0.79952
   165    H   12  S      Ryd( 3S)     0.00011       1.96153
   166    H   12  px     Ryd( 2p)     0.00026       2.52929
   167    H   12  py     Ryd( 2p)     0.00014       1.88129
   168    H   12  pz     Ryd( 2p)     0.00010       1.68498

   169    H   13  S      Val( 1S)     0.77022       0.05103
   170    H   13  S      Ryd( 2S)     0.00045       1.05556
   171    H   13  S      Ryd( 3S)     0.00009       1.69725
   172    H   13  px     Ryd( 2p)     0.00007       1.75725
   173    H   13  py     Ryd( 2p)     0.00018       2.01008
   174    H   13  pz     Ryd( 2p)     0.00025       2.33596

   175    C   14  S      Cor( 1S)     1.99936     -10.01996
   176    C   14  S      Val( 2S)     1.07215      -0.24282
   177    C   14  S      Ryd( 3S)     0.00091       0.67107
   178    C   14  S      Ryd( 4S)     0.00019       0.86299
   179    C   14  S      Ryd( 5S)     0.00000      23.25930
   180    C   14  px     Val( 2p)     1.09501      -0.09548
   181    C   14  px     Ryd( 4p)     0.00151       0.55943
   182    C   14  px     Ryd( 3p)     0.00044       0.18066
   183    C   14  px     Ryd( 5p)     0.00009       3.09513
   184    C   14  py     Val( 2p)     1.19029      -0.09373
   185    C   14  py     Ryd( 4p)     0.00246       0.54357
   186    C   14  py     Ryd( 3p)     0.00020       0.21102
   187    C   14  py     Ryd( 5p)     0.00005       3.15448
   188    C   14  pz     Val( 2p)     1.20535      -0.09193
   189    C   14  pz     Ryd( 4p)     0.00120       0.50162
   190    C   14  pz     Ryd( 3p)     0.00017       0.19628
   191    C   14  pz     Ryd( 5p)     0.00001       3.16278
   192    C   14  dxy    Ryd( 3d)     0.00085       2.21017
   193    C   14  dxz    Ryd( 3d)     0.00015       1.82742
   194    C   14  dyz    Ryd( 3d)     0.00106       2.25514
   195    C   14  dx2y2  Ryd( 3d)     0.00039       1.93443
   196    C   14  dz2    Ryd( 3d)     0.00066       2.14902

   197    H   15  S      Val( 1S)     0.80641       0.03707
   198    H   15  S      Ryd( 2S)     0.00072       0.78226
   199    H   15  S      Ryd( 3S)     0.00010       2.01729
   200    H   15  px     Ryd( 2p)     0.00014       1.75360
   201    H   15  py     Ryd( 2p)     0.00016       2.05210
   202    H   15  pz     Ryd( 2p)     0.00024       2.40730

   203    H   16  S      Val( 1S)     0.79581       0.04461
   204    H   16  S      Ryd( 2S)     0.00074       0.84561
   205    H   16  S      Ryd( 3S)     0.00010       1.87572
   206    H   16  px     Ryd( 2p)     0.00021       2.18352
   207    H   16  py     Ryd( 2p)     0.00024       2.24046
   208    H   16  pz     Ryd( 2p)     0.00008       1.76870

   209    H   17  S      Val( 1S)     0.80641       0.03707
   210    H   17  S      Ryd( 2S)     0.00072       0.78226
   211    H   17  S      Ryd( 3S)     0.00010       2.01729
   212    H   17  px     Ryd( 2p)     0.00014       1.75360
   213    H   17  py     Ryd( 2p)     0.00016       2.05210
   214    H   17  pz     Ryd( 2p)     0.00024       2.40730

 WARNING:  Population inversion found on atom Si    1
           Population inversion found on atom Cl    2
           Population inversion found on atom  C    3
           Population inversion found on atom  C    7
           Population inversion found on atom  C   10
           Population inversion found on atom  C   14


 Summary of Natural Population Analysis:                  
                                                          
                                       Natural Population 
                Natural  -----------------------------------------------
    Atom  No    Charge         Core      Valence    Rydberg      Total
 -----------------------------------------------------------------------
     Si    1    1.49909      9.99850     2.45607    0.04634    12.50091
     Cl    2   -0.39564      9.99974     7.38630    0.00960    17.39564
      C    3   -1.04682      1.99931     5.03374    0.01376     7.04682
      H    4    0.22875      0.00000     0.77022    0.00103     0.77125
      H    5    0.22451      0.00000     0.77441    0.00108     0.77549
      H    6    0.22967      0.00000     0.76932    0.00101     0.77033
      C    7   -0.82674      1.99926     4.80848    0.01900     6.82674
      H    8    0.21811      0.00000     0.78034    0.00154     0.78189
      H    9    0.21811      0.00000     0.78034    0.00154     0.78189
      C   10   -1.04682      1.99931     5.03374    0.01376     7.04682
      H   11    0.22967      0.00000     0.76932    0.00101     0.77033
      H   12    0.22451      0.00000     0.77441    0.00108     0.77549
      H   13    0.22875      0.00000     0.77022    0.00103     0.77125
      C   14   -0.57249      1.99936     4.56279    0.01034     6.57249
      H   15    0.19225      0.00000     0.80641    0.00134     0.80775
      H   16    0.20282      0.00000     0.79581    0.00137     0.79718
      H   17    0.19225      0.00000     0.80641    0.00134     0.80775
 =======================================================================
   * Total *    0.00000     27.99549    37.87834    0.12617    66.00000

                                 Natural Population      
 --------------------------------------------------------
   Core                      27.99549 ( 99.9839% of  28)
   Valence                   37.87834 ( 99.6799% of  38)
   Natural Minimal Basis     65.87383 ( 99.8088% of  66)
   Natural Rydberg Basis      0.12617 (  0.1912% of  66)
 --------------------------------------------------------

    Atom  No          Natural Electron Configuration
 ----------------------------------------------------------------------------
     Si    1      [core]3S( 0.92)3p( 1.54)3d( 0.03)5p( 0.01)
     Cl    2      [core]3S( 1.90)3p( 5.49)3d( 0.01)
      C    3      [core]2S( 1.19)2p( 3.84)4p( 0.01)
      H    4            1S( 0.77)
      H    5            1S( 0.77)
      H    6            1S( 0.77)
      C    7      [core]2S( 1.14)2p( 3.67)4S( 0.01)4p( 0.01)
      H    8            1S( 0.78)
      H    9            1S( 0.78)
      C   10      [core]2S( 1.19)2p( 3.84)4p( 0.01)
      H   11            1S( 0.77)
      H   12            1S( 0.77)
      H   13            1S( 0.77)
      C   14      [core]2S( 1.07)2p( 3.49)4p( 0.01)
      H   15            1S( 0.81)
      H   16            1S( 0.80)
      H   17            1S( 0.81)


 NBO analysis skipped by request.
 Calling FoFJK, ICntrl=      2127 FMM=F ISym2X=0 I1Cent= 0 IOpClX= 0 NMat=1 NMatS=1 NMatT=0.
 ***** Axes restored to original set *****
 -------------------------------------------------------------------
 Center     Atomic                   Forces (Hartrees/Bohr)
 Number     Number              X              Y              Z
 -------------------------------------------------------------------
      1       14          -0.003778732   -0.005142351    0.008904103
      2       17          -0.004499665   -0.007496386    0.012980162
      3        6          -0.009371223   -0.013218531   -0.032713539
      4        1          -0.003951704    0.014821567    0.001488353
      5        1          -0.004728905   -0.007449966    0.012562496
      6        1           0.015123174    0.001008588    0.001535887
      7        6           0.028424390   -0.007229058    0.012516915
      8        1          -0.005144355   -0.004213032   -0.015060800
      9        1          -0.005144258    0.015150624   -0.003877733
     10        6          -0.009370954    0.034941409   -0.004899800
     11        1           0.015123158   -0.001834509   -0.000106083
     12        1          -0.004728901   -0.007157818    0.012731214
     13        1          -0.003951836   -0.008696472   -0.012093984
     14        6           0.007783839    0.009918812   -0.017174655
     15        1           0.001809682    0.004092197    0.015584726
     16        1          -0.015403351   -0.001951071    0.003378493
     17        1           0.001809640   -0.015544002    0.004244246
 -------------------------------------------------------------------
 Cartesian Forces:  Max     0.034941409 RMS     0.011908254

 GradGradGradGradGradGradGradGradGradGradGradGradGradGradGradGradGradGrad
 Berny optimization.
 FormGI is forming the generalized inverse of G from B-inverse, IUseBI=4.
 Internal  Forces:  Max     0.017244419 RMS     0.007036493
 Search for a local minimum.
 Step number   1 out of a maximum of   92
 All quantities printed in internal units (Hartrees-Bohrs-Radians)
 Mixed Optimization -- RFO/linear search
 Second derivative matrix not updated -- first step.
 ITU=  0
     Eigenvalues ---    0.00237   0.00239   0.00239   0.00239   0.03841
     Eigenvalues ---    0.04741   0.04897   0.05720   0.05720   0.05721
     Eigenvalues ---    0.05721   0.05721   0.05721   0.06515   0.06515
     Eigenvalues ---    0.07655   0.11701   0.16000   0.16000   0.16000
     Eigenvalues ---    0.16000   0.16000   0.16000   0.16000   0.16000
     Eigenvalues ---    0.16000   0.17558   0.17558   0.17593   0.17593
     Eigenvalues ---    0.17593   0.21232   0.21948   0.28519   0.37230
     Eigenvalues ---    0.37230   0.37230   0.37230   0.37230   0.37230
     Eigenvalues ---    0.37230   0.37230   0.37230   0.37230   0.37230
 RFO step:  Lambda=-1.51060131D-02 EMin= 2.36824121D-03
 Linear search not attempted -- first point.
 Iteration  1 RMS(Cart)=  0.04971895 RMS(Int)=  0.00132489
 Iteration  2 RMS(Cart)=  0.00134620 RMS(Int)=  0.00027239
 Iteration  3 RMS(Cart)=  0.00000211 RMS(Int)=  0.00027239
 Iteration  4 RMS(Cart)=  0.00000000 RMS(Int)=  0.00027239
 Variable       Old X    -DE/DX   Delta X   Delta X   Delta X     New X
                                 (Linear)    (Quad)   (Total)
    R1        4.08181  -0.01563   0.00000  -0.06873  -0.06873   4.01308
    R2        3.66607  -0.01724   0.00000  -0.09027  -0.09027   3.57580
    R3        3.66607  -0.01414   0.00000  -0.07400  -0.07400   3.59207
    R4        3.66607  -0.01724   0.00000  -0.09027  -0.09027   3.57580
    R5        2.02201   0.01529   0.00000   0.03947   0.03947   2.06148
    R6        2.02201   0.01534   0.00000   0.03961   0.03961   2.06161
    R7        2.02201   0.01512   0.00000   0.03904   0.03904   2.06104
    R8        2.02201   0.01600   0.00000   0.04129   0.04129   2.06330
    R9        2.02201   0.01600   0.00000   0.04129   0.04129   2.06330
   R10        2.91018   0.00791   0.00000   0.02634   0.02634   2.93652
   R11        2.02201   0.01512   0.00000   0.03904   0.03904   2.06104
   R12        2.02201   0.01534   0.00000   0.03961   0.03961   2.06161
   R13        2.02201   0.01529   0.00000   0.03947   0.03947   2.06148
   R14        2.02201   0.01526   0.00000   0.03939   0.03939   2.06140
   R15        2.02201   0.01540   0.00000   0.03976   0.03976   2.06176
   R16        2.02201   0.01526   0.00000   0.03939   0.03939   2.06140
    A1        1.91063  -0.00161   0.00000  -0.02554  -0.02529   1.88534
    A2        1.91063  -0.00103   0.00000  -0.01690  -0.01649   1.89415
    A3        1.91063  -0.00161   0.00000  -0.02554  -0.02529   1.88534
    A4        1.91063   0.00168   0.00000   0.02520   0.02441   1.93505
    A5        1.91063   0.00089   0.00000   0.01758   0.01658   1.92721
    A6        1.91063   0.00168   0.00000   0.02520   0.02441   1.93505
    A7        1.91063   0.00243   0.00000   0.01497   0.01491   1.92555
    A8        1.91063  -0.00078   0.00000  -0.00538  -0.00536   1.90527
    A9        1.91063   0.00218   0.00000   0.01227   0.01221   1.92284
   A10        1.91063  -0.00077   0.00000  -0.00406  -0.00405   1.90658
   A11        1.91063  -0.00202   0.00000  -0.00973  -0.00986   1.90078
   A12        1.91063  -0.00103   0.00000  -0.00807  -0.00804   1.90259
   A13        1.91063  -0.00268   0.00000  -0.01460  -0.01515   1.89548
   A14        1.91063  -0.00268   0.00000  -0.01460  -0.01515   1.89548
   A15        1.91063   0.00675   0.00000   0.03692   0.03670   1.94734
   A16        1.91063  -0.00068   0.00000  -0.02912  -0.02946   1.88118
   A17        1.91063  -0.00036   0.00000   0.01069   0.01079   1.92143
   A18        1.91063  -0.00036   0.00000   0.01069   0.01079   1.92142
   A19        1.91063   0.00218   0.00000   0.01227   0.01221   1.92284
   A20        1.91063  -0.00078   0.00000  -0.00538  -0.00536   1.90527
   A21        1.91063   0.00243   0.00000   0.01497   0.01491   1.92555
   A22        1.91063  -0.00103   0.00000  -0.00807  -0.00804   1.90259
   A23        1.91063  -0.00202   0.00000  -0.00973  -0.00986   1.90078
   A24        1.91063  -0.00077   0.00000  -0.00406  -0.00405   1.90658
   A25        1.91063   0.00597   0.00000   0.03565   0.03507   1.94570
   A26        1.91063   0.00296   0.00000   0.01379   0.01362   1.92425
   A27        1.91063   0.00597   0.00000   0.03565   0.03507   1.94570
   A28        1.91063  -0.00494   0.00000  -0.03131  -0.03147   1.87916
   A29        1.91063  -0.00502   0.00000  -0.02247  -0.02339   1.88725
   A30        1.91063  -0.00494   0.00000  -0.03131  -0.03147   1.87916
    D1        1.04720   0.00054   0.00000   0.00928   0.00929   1.05649
    D2        3.14159   0.00061   0.00000   0.01018   0.01015  -3.13144
    D3       -1.04720   0.00020   0.00000   0.00451   0.00444  -1.04275
    D4       -1.04720   0.00176   0.00000   0.03018   0.03036  -1.01684
    D5        1.04720   0.00183   0.00000   0.03108   0.03122   1.07842
    D6        3.14159   0.00142   0.00000   0.02542   0.02551  -3.11608
    D7        3.14159  -0.00187   0.00000  -0.02688  -0.02695   3.11465
    D8       -1.04720  -0.00181   0.00000  -0.02598  -0.02609  -1.07329
    D9        1.04720  -0.00222   0.00000  -0.03165  -0.03179   1.01540
   D10        1.04720  -0.00206   0.00000  -0.02677  -0.02656   1.02064
   D11       -1.04720   0.00206   0.00000   0.02677   0.02656  -1.02064
   D12       -3.14159   0.00000   0.00000   0.00000   0.00000  -3.14159
   D13        3.14159  -0.00363   0.00000  -0.05296  -0.05295   3.08864
   D14        1.04720   0.00048   0.00000   0.00057   0.00016   1.04736
   D15       -1.04720  -0.00157   0.00000  -0.02620  -0.02639  -1.07359
   D16       -1.04720  -0.00048   0.00000  -0.00057  -0.00016  -1.04736
   D17        3.14159   0.00363   0.00000   0.05296   0.05295  -3.08864
   D18        1.04720   0.00157   0.00000   0.02620   0.02639   1.07359
   D19        1.04720  -0.00020   0.00000  -0.00451  -0.00444   1.04275
   D20        3.14159  -0.00061   0.00000  -0.01018  -0.01015   3.13144
   D21       -1.04720  -0.00054   0.00000  -0.00928  -0.00929  -1.05649
   D22       -1.04720   0.00222   0.00000   0.03165   0.03179  -1.01540
   D23        1.04720   0.00181   0.00000   0.02598   0.02609   1.07329
   D24        3.14159   0.00187   0.00000   0.02688   0.02695  -3.11465
   D25        3.14159  -0.00142   0.00000  -0.02542  -0.02551   3.11608
   D26       -1.04720  -0.00183   0.00000  -0.03108  -0.03122  -1.07842
   D27        1.04720  -0.00176   0.00000  -0.03018  -0.03036   1.01684
   D28        1.04720   0.00058   0.00000   0.00807   0.00826   1.05546
   D29       -3.14159   0.00000   0.00000   0.00000   0.00000  -3.14159
   D30       -1.04720  -0.00058   0.00000  -0.00807  -0.00826  -1.05546
   D31       -3.14159   0.00122   0.00000   0.01935   0.01971  -3.12188
   D32       -1.04720   0.00064   0.00000   0.01128   0.01145  -1.03575
   D33        1.04720   0.00005   0.00000   0.00321   0.00319   1.05039
   D34       -1.04720  -0.00005   0.00000  -0.00321  -0.00319  -1.05039
   D35        1.04720  -0.00064   0.00000  -0.01128  -0.01145   1.03575
   D36       -3.14159  -0.00122   0.00000  -0.01935  -0.01971   3.12189
         Item               Value     Threshold  Converged?
 Maximum Force            0.017244     0.000450     NO 
 RMS     Force            0.007036     0.000300     NO 
 Maximum Displacement     0.157879     0.001800     NO 
 RMS     Displacement     0.049995     0.001200     NO 
 Predicted change in Energy=-8.150305D-03
 GradGradGradGradGradGradGradGradGradGradGradGradGradGradGradGradGradGrad

                          Input orientation:                          
 ---------------------------------------------------------------------
 Center     Atomic      Atomic             Coordinates (Angstroms)
 Number     Number       Type             X           Y           Z
 ---------------------------------------------------------------------
      1         14           0       -0.636035   -0.308420    0.034174
      2         17           0        0.059963    0.694978   -1.703232
      3          6           0        0.029137    0.611982    1.547761
      4          1           0       -0.333352    1.640857    1.555130
      5          1           0       -0.309428    0.105068    2.452528
      6          1           0        1.119650    0.621594    1.532836
      7          6           0       -2.536769   -0.298375    0.016799
      8          1           0       -2.879352   -0.789851   -0.896015
      9          1           0       -2.879343    0.737895   -0.013698
     10          6           0        0.029122   -2.079421   -0.006600
     11          1           0        1.119635   -2.071306   -0.022390
     12          1           0       -0.309443   -2.609750    0.884644
     13          1           0       -0.333376   -2.600000   -0.894085
     14          6           0       -3.123388   -1.018018    1.262880
     15          1           0       -2.810932   -0.532601    2.188450
     16          1           0       -4.213809   -0.999660    1.231099
     17          1           0       -2.810939   -2.062308    1.305002
 ---------------------------------------------------------------------
                    Distance matrix (angstroms):
                    1          2          3          4          5
     1  Si   0.000000
     2  Cl   2.123629   0.000000
     3  C    1.892232   3.252199   0.000000
     4  H    2.490905   3.415598   1.090888   0.000000
     5  H    2.475092   4.213643   1.090959   1.778917   0.000000
     6  H    2.488643   3.405945   1.090658   1.774996   1.776203
     7  C    1.900840   3.269292   3.123535   3.313930   3.325145
     8  H    2.475782   3.390558   4.049257   4.289355   4.314873
     9  H    2.475782   3.390558   3.303523   3.123881   3.617625
    10  C    1.892232   3.252199   3.108004   4.051032   3.306648
    11  H    2.488643   3.405945   3.294631   4.287178   3.592220
    12  H    2.475092   4.213643   3.306648   4.303230   3.135043
    13  H    2.490905   3.415598   4.051032   4.897298   4.303230
    14  C    2.863594   4.676098   3.560403   3.865143   3.254990
    15  H    3.069420   4.989406   3.128345   3.356101   2.594973
    16  H    3.835480   5.454101   4.549753   4.704813   4.237512
    17  H    3.069419   4.989406   3.908553   4.462559   3.503126
                    6          7          8          9         10
     6  H    0.000000
     7  C    4.063756   0.000000
     8  H    4.887076   1.091852   0.000000
     9  H    4.289201   1.091852   1.764225   0.000000
    10  C    3.294631   3.123535   3.303523   4.049257   0.000000
    11  H    3.109732   4.063756   4.289201   4.887076   1.090658
    12  H    3.592220   3.325146   3.617625   4.314873   1.090959
    13  H    4.287178   3.313930   3.123881   4.289355   1.090888
    14  C    4.556816   1.553939   2.184592   2.184591   3.560403
    15  H    4.148671   2.201385   3.095930   2.543285   3.908555
    16  H    5.582588   2.186044   2.519804   2.519805   4.549752
    17  H    4.764952   2.201385   2.543286   3.095930   3.128344
                   11         12         13         14         15
    11  H    0.000000
    12  H    1.776203   0.000000
    13  H    1.774996   1.778917   0.000000
    14  C    4.556816   3.254990   3.865143   0.000000
    15  H    4.764954   3.503128   4.462561   1.090843   0.000000
    16  H    5.582588   4.237511   4.704812   1.091039   1.761456
    17  H    4.148670   2.594971   3.356101   1.090843   1.766489
                   16         17
    16  H    0.000000
    17  H    1.761456   0.000000
 Stoichiometry    C4H11ClSi
 Framework group  C1[X(C4H11ClSi)]
 Deg. of freedom    45
 Full point group                 C1      NOp   1
 Largest Abelian subgroup         C1      NOp   1
 Largest concise Abelian subgroup C1      NOp   1
                         Standard orientation:                         
 ---------------------------------------------------------------------
 Center     Atomic      Atomic             Coordinates (Angstroms)
 Number     Number       Type             X           Y           Z
 ---------------------------------------------------------------------
      1         14           0       -0.096555    0.207011    0.000000
      2         17           0       -2.005914   -0.722582    0.000000
      3          6           0        0.032717    1.278882    1.554002
      4          1           0       -0.069315    0.663062    2.448649
      5          1           0        1.004604    1.774304    1.567522
      6          1           0       -0.752139    2.036203    1.554866
      7          6           0        1.235439   -1.149081    0.000000
      8          1           0        1.093543   -1.776683   -0.882113
      9          1           0        1.093543   -1.776683    0.882112
     10          6           0        0.032716    1.278882   -1.554002
     11          1           0       -0.752139    2.036204   -1.554866
     12          1           0        1.004604    1.774305   -1.567522
     13          1           0       -0.069315    0.663063   -2.448649
     14          6           0        2.666777   -0.544104    0.000000
     15          1           0        2.839948    0.072199    0.883245
     16          1           0        3.413138   -1.339912   -0.000001
     17          1           0        2.839947    0.072201   -0.883244
 ---------------------------------------------------------------------
 Rotational constants (GHZ):      2.7423305      1.4031962      1.3354617
 Standard basis: 6-311+G(d,p) (5D, 7F)
 There are   220 symmetry adapted cartesian basis functions of A   symmetry.
 There are   214 symmetry adapted basis functions of A   symmetry.
   214 basis functions,   335 primitive gaussians,   220 cartesian basis functions
    33 alpha electrons       33 beta electrons
       nuclear repulsion energy       376.7229333462 Hartrees.
 NAtoms=   17 NActive=   17 NUniq=   17 SFac= 1.00D+00 NAtFMM=   60 NAOKFM=F Big=F
 Integral buffers will be    131072 words long.
 Raffenetti 2 integral format.
 Two-electron integral symmetry is turned on.
 One-electron integrals computed using PRISM.
 NBasis=   214 RedAO= T EigKep=  6.94D-05  NBF=   214
 NBsUse=   214 1.00D-06 EigRej= -1.00D+00 NBFU=   214
 Initial guess from the checkpoint file:  "methylchlorosilanes2_Suginome.chk"
 B after Tr=     0.000000    0.000000    0.000000
         Rot=    0.999893    0.000000    0.000000   -0.014633 Ang=  -1.68 deg.
 ExpMin= 3.31D-02 ExpMax= 1.06D+05 ExpMxC= 3.62D+03 IAcc=3 IRadAn=         5 AccDes= 0.00D+00
 Harris functional with IExCor=  402 and IRadAn=       5 diagonalized for initial guess.
 HarFok:  IExCor=  402 AccDes= 0.00D+00 IRadAn=         5 IDoV= 1 UseB2=F ITyADJ=14
 ICtDFT=  3500011 ScaDFX=  1.000000  1.000000  1.000000  1.000000
 FoFCou: FMM=F IPFlag=           0 FMFlag=      100000 FMFlg1=           0
         NFxFlg=           0 DoJE=T BraDBF=F KetDBF=T FulRan=T
         wScrn=  0.000000 ICntrl=     500 IOpCl=  0 I1Cent=   200000004 NGrid=           0
         NMat0=    1 NMatS0=      1 NMatT0=    0 NMatD0=    1 NMtDS0=    0 NMtDT0=    0
 Petite list used in FoFCou.
 Keep R1 ints in memory in canonical form, NReq=270193147.
 Requested convergence on RMS density matrix=1.00D-08 within 128 cycles.
 Requested convergence on MAX density matrix=1.00D-06.
 Requested convergence on             energy=1.00D-06.
 No special actions if energy rises.
 SCF Done:  E(RB3LYP) =  -908.936125062     A.U. after   10 cycles
            NFock= 10  Conv=0.29D-08     -V/T= 2.0028
 Calling FoFJK, ICntrl=      2127 FMM=F ISym2X=0 I1Cent= 0 IOpClX= 0 NMat=1 NMatS=1 NMatT=0.
 ***** Axes restored to original set *****
 -------------------------------------------------------------------
 Center     Atomic                   Forces (Hartrees/Bohr)
 Number     Number              X              Y              Z
 -------------------------------------------------------------------
      1       14          -0.001146321   -0.001610994    0.002789485
      2       17          -0.001698205   -0.002073510    0.003590333
      3        6          -0.002449824   -0.003077687   -0.009908228
      4        1           0.000420036    0.001254757    0.001672097
      5        1           0.000387962    0.000391337    0.002436969
      6        1           0.001150556    0.000785893    0.001493893
      7        6           0.007800422   -0.004012509    0.006947657
      8        1          -0.001462535    0.000627451   -0.001722325
      9        1          -0.001462534    0.001178240   -0.001404239
     10        6          -0.002449751    0.010120251   -0.002286043
     11        1           0.001150543   -0.001686722    0.000065886
     12        1           0.000387947   -0.002306384    0.000878959
     13        1           0.000420018   -0.002075394   -0.000251160
     14        6           0.000670016    0.004298242   -0.007442511
     15        1          -0.000086623    0.000272270    0.001574226
     16        1          -0.001545078   -0.000585640    0.001014084
     17        1          -0.000086626   -0.001499600    0.000550917
 -------------------------------------------------------------------
 Cartesian Forces:  Max     0.010120251 RMS     0.003157284

[...]
 ! D33   D(8,7,14,17)           61.5764         -DE/DX =    0.0                 !
 ! D34   D(9,7,14,15)          -61.5764         -DE/DX =    0.0                 !
 ! D35   D(9,7,14,16)           58.0847         -DE/DX =    0.0                 !
 ! D36   D(9,7,14,17)          177.7458         -DE/DX =    0.0                 !
 --------------------------------------------------------------------------------
 GradGradGradGradGradGradGradGradGradGradGradGradGradGradGradGradGradGrad

 1\1\GINC-COREV2-25-010\Freq\RB3LYP\6-311+G(d,p)\C4H11Cl1Si1\ROOT\09-Ja
 n-2023\0\\#N Geom=AllCheck Guess=TCheck SCRF=Check GenChk RB3LYP/6-311
 +G(d,p) Freq\\Title Card Required\\0,1\Si,-0.6370572127,-0.3323546161,
 0.0756172558\Cl,-0.0047122852,0.6759683456,-1.6703169769\C,0.058908643
 4,0.6138212941,1.539330894\H,-0.319722839,1.639032102,1.5628988529\H,-
 0.2168689108,0.1291977797,2.4815122949\H,1.1501166927,0.6590036863,1.4
 931288279\C,-2.5222537829,-0.3167919925,0.0486883149\H,-2.8498291592,-
 0.7863249995,-0.8856966111\H,-2.8498208103,0.7271944422,-0.0115962596\
 C,0.0588938339,-2.0730380742,-0.0124064854\H,1.15010173,-2.0556095062,
 -0.0746371739\H,-0.2168842105,-2.6469149386,0.8782285782\H,-0.31974623
 43,-2.6058168175,-0.888621618\C,-3.1906466,-1.0111108935,1.2509195356\
 H,-2.9142506215,-0.5392255569,2.1983294078\H,-4.2806282298,-0.96681280
 16,1.1742270781\H,-2.9142590838,-2.0675542202,1.3156762766\\Version=ES
 64L-G09RevD.01\State=1-A\HF=-908.9371843\RMSD=1.157e-09\RMSF=2.023e-05
 \ZeroPoint=0.141041\Thermal=0.1510144\Dipole=-0.3588007,-0.4847459,0.8
 39349\DipoleDeriv=1.4965628,0.1161104,-0.2010249,0.0860381,1.5102584,-
 0.2002379,-0.1488545,-0.2001914,1.741232,-0.4684935,-0.114246,0.197808
 8,-0.1143298,-0.538233,0.285909,0.1980302,0.2859446,-0.8682175,-0.3522
 619,-0.0535399,-0.0567101,-0.0418749,-0.3443464,-0.0930732,-0.08692,-0
 .1158077,-0.4312057,0.0693123,0.0450696,0.0024066,0.0589664,-0.0863145
 ,-0.0190057,0.016188,-0.0369419,0.0709395,0.0821491,-0.0098995,0.03061
 86,-0.0126403,0.0523452,0.0459343,0.0511306,0.0804175,-0.0982901,-0.10
 61715,-0.0140089,-0.005265,-0.0309756,0.078948,-0.0009187,-0.0311814,-
 0.0005662,0.0843658,-0.387884,-0.0035847,0.0061955,-0.0260796,-0.23393
 48,0.0240254,0.0453293,0.0240971,-0.2618023,0.018098,-0.0633282,-0.072
 4431,-0.0470875,0.0329479,-0.0583794,-0.0195955,-0.0399205,-0.0929639,
 0.0181215,0.094411,0.0186314,0.0403925,-0.1041371,0.0392202,0.0310086,
 0.0206834,0.0440366,-0.3523398,0.0758439,0.0181002,0.096036,-0.4999738
 ,-0.0258683,-0.0072813,-0.0033599,-0.2755248,-0.1061639,0.011576,0.009
 5076,0.0424915,0.0823671,-0.0025435,0.011245,-0.0028948,0.0809416,0.08
 21564,-0.0215764,0.0238647,-0.0379246,-0.0059679,0.1140128,0.0364476,0
 .0795776,-0.0399118,0.0693969,-0.024577,-0.0379099,-0.0434289,0.007466
 3,-0.0910975,-0.0428719,-0.0730625,-0.0229259,0.0247633,-0.0491994,0.0
 851507,0.0489362,0.1137274,-0.0077542,-0.0847323,-0.007734,0.1226799,0
 .0587727,-0.0369251,-0.0660481,-0.0298908,0.0121076,-0.0812275,-0.0140
 204,-0.0481833,-0.1168448,-0.204791,-0.0277783,0.048145,-0.0156921,0.0
 633867,0.0310204,0.0271824,0.0310235,0.0275842,0.0587726,0.0756528,-0.
 0010277,0.0270633,-0.1406473,0.0399836,0.0188958,0.0069185,0.0359073\P
 olar=85.8804446,2.8688776,82.6731185,-4.963029,-3.6132266,86.8400161\P
 G=C01 [X(C4H11Cl1Si1)]\NImag=0\\0.31873437,-0.00929728,0.31646262,0.01
 609830,0.02378433,0.28901561,-0.02988628,-0.01343845,0.02326913,0.0272
 5850,-0.01343761,-0.04292052,0.03686580,0.01929652,0.04599412,0.023267
 40,0.03686555,-0.08546364,-0.03341229,-0.05343307,0.10765541,-0.057612
 05,-0.02003132,-0.03291388,0.00251400,0.00023124,0.00619853,0.49477932
 ,-0.01989555,-0.06985378,-0.04494023,0.00068344,0.00273509,0.00980406,
 -0.02445350,0.48109425,-0.03305110,-0.04559506,-0.10399676,-0.00205329
 ,-0.00204905,-0.01301951,-0.03507033,-0.04711618,0.42668762,0.00198784
 ,-0.00852866,0.00065878,-0.00020839,0.00008842,0.00070167,-0.07150129,
 0.08247509,0.00379212,0.07829684,0.00478742,-0.01068756,0.00225666,-0.
 00023241,0.00089451,-0.00005300,0.09058406,-0.28099848,-0.00254560,-0.
 09636365,0.30059838,0.00802272,-0.01665208,0.00030762,-0.00018981,0.00
 108593,0.00065666,0.00792998,-0.01319003,-0.03821805,-0.00332462,0.003
 92877,0.04056382,0.00106114,0.00474395,-0.00609133,0.00036445,-0.00034
 726,-0.00208543,-0.05620882,-0.02534800,0.05285514,0.00182996,0.004033
 99,-0.01052698,0.06081601,0.00391547,0.00432623,-0.00851353,-0.0004366
 3,0.00025716,-0.00303932,-0.02592279,-0.08842843,0.09419557,-0.0084088
 5,-0.01246988,0.02681805,0.03151330,0.09866835,0.00604767,0.00974603,-
 0.01287165,-0.00071582,-0.00085988,-0.00312826,0.06164648,0.10732644,-
 0.24191763,-0.00108420,-0.00139011,0.00107913,-0.06465992,-0.11250285,
 0.25522143,-0.00857547,0.00080796,0.00235099,0.00085610,0.00021101,-0.
 00023844,-0.31187603,-0.00945808,0.01374856,-0.01033230,-0.00117047,-0
 .00001519,-0.00698019,-0.00037164,-0.00031051,0.33571661,-0.01165204,-
 0.00114105,0.00208779,0.00051234,-0.00012867,0.00064868,-0.01711136,-0
 .04143359,0.00333542,0.03118026,0.00213189,-0.00102722,-0.01424030,-0.
 00183841,-0.00064285,0.01111000,0.04294346,-0.01861346,0.00075516,0.00
 133367,0.00104810,0.00022168,0.00075414,0.00189238,0.00254899,-0.03729
 013,0.00100310,-0.00017230,-0.00157255,0.02882394,0.00066997,-0.000962
 03,-0.01405424,-0.00215361,0.04091381,-0.14259310,0.00205731,-0.003561
 66,-0.00223013,-0.00027700,0.00047949,-0.00261884,0.00090031,0.0013738
 4,0.00011837,-0.00013734,0.00019822,-0.00011805,0.00014588,-0.00035112
 ,0.00037994,-0.00035416,-0.00072802,0.38105876,0.00355182,-0.04026329,
 -0.00300491,-0.00816108,-0.00071819,0.00426359,-0.00964338,0.00341097,
 -0.00028338,0.00055629,0.00062841,0.00126581,-0.00008069,-0.00006382,-
 0.00057783,-0.00100350,-0.00112875,-0.00266295,-0.01488385,0.50717748,
 -0.00614932,-0.00300491,-0.03679562,0.01413128,0.00426384,-0.00563895,
 -0.01491302,-0.00037152,0.00384810,0.00052545,0.00015679,0.00053287,0.
 00084439,0.00097324,0.00055736,-0.00133265,-0.00224124,-0.00379119,0.0
 2577247,0.03582557,0.46583474,-0.00622043,-0.01151037,-0.02048005,0.00
 116322,0.00083302,0.00077368,-0.00552823,0.00064903,0.00106461,0.00025
 750,0.00011106,0.00037498,0.00016745,0.00024516,0.00008147,-0.00054848
 ,-0.00088602,-0.00158666,-0.06753502,-0.04119533,-0.07892765,0.0699967
 3,0.00155069,-0.00118442,0.00006231,-0.00012780,-0.00025700,0.00069250
 ,-0.00008057,0.00039244,0.00002358,0.00020217,0.00023308,0.00020861,-0
 .00009356,-0.00002919,-0.00009533,-0.00003890,0.00020020,-0.00009212,-
 0.03403942,-0.09313267,-0.09433119,0.03974090,0.10107232,-0.00042850,-
 0.00051516,-0.00225491,-0.00010957,0.00009158,0.00058149,0.00032885,0.
 00015832,0.00043772,0.00001761,-0.00001035,-0.00003314,0.00008514,-0.0
 0000377,0.00009281,0.00007159,-0.00001157,0.00011609,-0.06585530,-0.09
 555933,-0.22582515,0.07072963,0.10269290,0.24999664,-0.00622027,0.0234
 9165,-0.00026541,0.00116323,-0.00108636,-0.00033492,0.00136297,-0.0011
 2063,0.00024303,-0.00037547,-0.00059199,-0.00067613,0.00010003,0.00004
 314,0.00023954,0.00024914,-0.00010606,0.00042884,-0.06753380,0.0889505
 4,-0.00376360,0.00267900,-0.01097783,0.00036473,0.06999546,-0.00040367
 ,-0.00218383,0.00006134,0.00015866,0.00071124,-0.00046684,0.00035075,0
 .00016867,0.00007590,0.00004174,0.00017196,0.00010630,-0.00005392,-0.0
 0001122,-0.00005361,0.00004169,0.00012215,0.00007389,0.07405174,-0.274
 88388,0.00930886,0.00517021,-0.01440253,-0.00004633,-0.08112267,0.3017
 0883,-0.00155728,0.00063868,-0.00125578,0.00005594,0.00013372,-0.00038
 705,0.00023717,0.00001240,-0.00016962,-0.00014144,-0.00016445,-0.00002
 500,-0.00004680,0.00004194,0.00001036,0.00009485,-0.00009670,0.0000707
 9,-0.00342873,0.01053689,-0.04407547,0.00969063,-0.02591568,0.00057742
 ,0.00092632,-0.01307187,0.04936172,-0.05761130,0.03851909,0.00090106,0
 .00251388,-0.00548459,0.00289783,0.00596947,-0.00697918,-0.00097998,-0
 .00065460,-0.00138904,-0.00228748,-0.00012851,0.00005768,-0.00023527,0
 .00049782,0.00084622,0.00116506,-0.00261842,0.01773668,0.00089980,0.00
 136285,-0.00038085,-0.00018546,-0.00552831,-0.00024456,0.00023422,0.49
 477989,0.03857024,-0.13466081,-0.00820280,0.00143667,-0.00572807,0.002
 83427,0.00433627,-0.00526313,0.00030445,-0.00082926,-0.00030048,-0.001
 63185,0.00009687,-0.00004930,-0.00027085,-0.00002480,0.00033552,0.0007
 6733,-0.00163924,0.00345475,-0.00030921,0.00034939,-0.00004693,0.00020
 046,-0.00124670,0.00050566,-0.00004143,0.04259684,0.39948589,0.0007149
 2,-0.00754756,-0.03919059,-0.00161815,0.01468687,-0.00455644,0.0055552
 1,-0.01518299,0.00332091,-0.00198682,-0.00223854,-0.00360692,0.0005872
 0,0.00142449,0.00114759,-0.00006938,0.00063563,0.00044328,-0.00009268,
 -0.00039696,0.00380396,0.00109187,0.00013652,0.00004554,-0.00003019,0.
 00009320,0.00032511,0.00365327,-0.00002883,0.50829574,-0.00857535,-0.0
 0244031,0.00047503,0.00085611,0.00010094,-0.00030203,0.00049760,0.0000
 7298,-0.00001288,0.00014161,0.00001663,-0.00007733,-0.00002745,-0.0000
 5582,-0.00010694,0.00028639,0.00025688,0.00027709,0.00038000,0.0016553
 9,0.00020299,0.00024918,-0.00010291,0.00001152,-0.00054853,-0.00004225
 ,0.00006944,-0.31187570,-0.00717897,0.01506483,0.33571652,0.02194562,0
 .00194611,-0.00102625,-0.00116387,0.00091044,-0.00037784,-0.00143199,0
 .00102360,0.00037023,-0.00012308,0.00019887,0.00046361,0.00001427,0.00
 006531,0.00018652,-0.00036840,-0.00053506,-0.00065957,0.00080753,-0.00
 524906,-0.00028548,-0.00031845,0.00007373,0.00010177,0.00181713,0.0000
 9214,-0.00002981,0.00691486,-0.03577789,-0.00071458,0.00661833,0.03955
 614,0.00079016,0.00030650,-0.00175361,0.00008002,0.00004915,-0.0002849
 3,-0.00015067,0.00023849,-0.00024496,-0.00013111,0.00004821,0.00004886
 ,0.00009618,-0.00007616,0.00000098,-0.00008402,-0.00027772,0.00000575,
 -0.00005712,0.00013623,0.00032917,0.00030619,-0.00006876,0.00011920,-0
 .00002550,0.00005067,0.00022408,0.01576819,0.00007199,-0.04294607,-0.0
 1664827,-0.00019910,0.04430117,0.00106108,0.00290516,-0.00715313,0.000
 36447,0.00197987,-0.00074145,-0.00012847,-0.00055706,0.00020951,-0.000
 10994,-0.00007242,-0.00013989,0.00018781,0.00005346,0.00008143,-0.0000
 2748,-0.00009046,0.00003571,-0.00011811,-0.00069098,0.00049189,0.00010
 005,0.00006750,0.00002332,0.00016747,-0.00002705,0.00012359,-0.0562089
 4,-0.03311282,0.04837103,-0.00698020,-0.01784920,0.02673967,0.06081609
 ,-0.00719509,-0.00804239,0.01688295,0.00083823,-0.00397039,0.00157939,
 0.00017514,0.00134777,-0.00107714,0.00031565,0.00029906,0.00000075,-0.
 00009725,-0.00058903,-0.00085004,0.00012038,0.00006478,0.00018681,0.00
 023099,0.00057361,-0.00094543,-0.00022898,-0.00000007,-0.00006008,-0.0
 0019299,0.00001922,-0.00012340,-0.04044019,-0.11634584,0.12343466,0.00
 045467,-0.00116902,-0.00102924,0.04025627,0.11871847,-0.00036898,-0.00
 137687,-0.00050275,0.00002041,-0.00060012,0.00109965,-0.00016763,0.000
 61828,-0.00024983,0.00005775,0.00012534,0.00014138,-0.00000564,-0.0002
 3877,0.00003930,-0.00000492,-0.00007582,0.00000146,-0.00030155,0.00060
 552,-0.00007978,0.00008224,0.00003542,-0.00000088,-0.00017171,-0.00003
 173,0.00004421,0.05326231,0.11030375,-0.21400064,0.00016682,0.00028389
 ,-0.00163134,-0.05961068,-0.12407168,0.23517111,0.00198772,0.00369172,
 0.00771626,-0.00020829,-0.00065174,0.00027382,-0.00065445,0.00213523,-
 0.00027437,0.00051640,0.00042314,0.00048554,-0.00010991,-0.00020782,-0
 .00024464,0.00014139,0.00017503,0.00004106,0.00011806,-0.00073306,-0.0
 0021924,-0.00037537,0.00010171,-0.00010680,0.00025759,-0.00011640,-0.0
 0016634,-0.07150270,-0.04450415,-0.06954277,-0.01033274,-0.01645163,-0
 .02650567,0.00183006,0.00514166,0.00674156,0.07829851,-0.00934179,-0.0
 0867005,-0.01781618,0.00028063,0.00116334,0.00093068,0.00267555,-0.004
 45650,0.00076635,-0.00063201,-0.00069185,-0.00145797,0.00015739,0.0002
 3531,0.00003743,0.00005850,0.00030784,0.00040070,-0.00010329,0.0011725
 6,0.00095178,0.00088159,-0.00000091,0.00020618,-0.00038022,0.00011913,
 0.00027430,-0.05214043,-0.10566796,-0.11435328,0.00059808,-0.00116638,
 0.00087617,0.00710210,0.00870216,0.01460184,0.05103998,0.10891280,-0.0
 0013726,0.00109259,-0.00170997,0.00010655,-0.00020781,0.00038756,0.000
 06001,0.00015951,0.00054948,-0.00012378,0.00002531,0.00013477,-0.00000
 715,0.00016204,0.00020494,-0.00005335,-0.00001477,-0.00006017,0.000217
 51,-0.00015722,-0.00001145,0.00017505,-0.00006448,0.00014819,0.0000913
 5,0.00005529,0.00008069,-0.07449833,-0.10370916,-0.21354671,0.00100607
 ,0.00173100,0.00172599,-0.00875538,-0.01360627,-0.02009278,0.08180630,
 0.11452866,0.23224736,-0.01059345,-0.00894035,0.01548093,-0.00384657,-
 0.00146069,0.00252952,0.00105097,0.00083426,-0.00160257,-0.00002723,-0
 .00007220,0.00018057,-0.00046748,-0.00036829,-0.00010335,0.00018948,0.
 00023959,0.00034190,-0.09099406,-0.02734017,0.04734069,0.00397122,0.00
 464133,-0.00746168,0.00397115,0.00414293,-0.00774901,0.00105071,0.0009
 7055,-0.00152380,0.00018954,-0.00041587,-0.00003670,-0.00046748,0.0002
 7368,0.00026723,-0.00002694,-0.00012014,0.00015306,0.53023988,-0.00485
 847,-0.00046723,-0.00048012,0.00127997,0.00105711,-0.00069659,0.000795
 17,-0.00018691,-0.00009582,-0.00001343,-0.00000182,-0.00000647,-0.0002
 0129,0.00003489,-0.00017130,0.00012897,0.00021491,0.00008708,-0.016160
 90,-0.09631703,0.03390122,0.00675164,0.00681727,-0.01025259,-0.0161173
 5,-0.01361383,0.02649956,0.00030537,-0.00008973,-0.00011566,-0.0000187
 8,-0.00036350,0.00017338,0.00037191,-0.00029460,0.00041523,0.00001560,
 0.00011178,-0.00008733,-0.02185364,0.53513592,0.00841265,-0.00047998,0
 .00008666,-0.00221626,-0.00069653,0.00186096,-0.00081124,-0.00005997,0
 .00003216,-0.00001039,-0.00002145,0.00016587,-0.00031330,0.00022502,-0
 .00043509,-0.00005270,-0.00016032,-0.00051380,0.02798292,0.03390153,-0
 .13543912,0.01471215,0.01471071,-0.02298838,0.00150474,0.00153584,-0.0
 0255702,-0.00109433,-0.00015204,-0.00006508,-0.00013810,0.00042082,0.0
 0006467,0.00001783,0.00001888,-0.00010592,0.00000660,-0.00007194,0.000
 05249,0.03784016,0.03924738,0.48984457,0.00029485,0.00065310,0.0021134
 9,0.00002773,0.00000304,-0.00035066,0.00026401,-0.00012477,-0.00008956
 ,-0.00001903,-0.00000965,-0.00003793,-0.00048209,-0.00016008,-0.000290
 31,0.00008612,0.00014284,-0.00001657,0.00357041,0.00770946,0.01297199,
 -0.00080757,-0.00155671,0.00286917,0.00032686,0.00012630,-0.00089718,-
 0.00015879,-0.00011955,-0.00010687,-0.00002673,0.00003411,-0.00002968,
 -0.00001096,0.00006821,0.00000246,0.00007894,-0.00007784,-0.00005647,-
 0.06539212,-0.02985445,-0.05834701,0.06867168,-0.00021784,0.00041445,-
 0.00010606,0.00012098,-0.00001358,-0.00009945,0.00007743,0.00005730,-0
 .00015291,-0.00010126,-0.00016942,0.00001216,-0.00008508,0.00007525,0.
 00016649,0.00003349,-0.00006924,0.00008966,0.00459964,0.00749043,0.013
 97463,-0.00163604,-0.00075057,0.00330085,0.00060339,0.00066421,-0.0004
 2375,0.00015953,0.00008178,0.00002118,0.00003676,0.00002259,0.00000550
 ,-0.00004700,-0.00007548,-0.00008710,-0.00006732,0.00000047,0.00010596
 ,-0.02940394,-0.09842358,-0.09852144,0.03483519,0.10357519,-0.00158991
 ,-0.00080058,-0.00210182,0.00027692,0.00015951,0.00024236,-0.00004730,
 0.00013175,-0.00001342,0.00005925,0.00006551,-0.00002905,0.00019410,-0
 .00008049,0.00060849,-0.00005100,-0.00001409,0.00027989,-0.00459626,-0
 .01030035,-0.02047907,0.00285999,0.00313374,-0.00295701,-0.00052130,0.
 00026969,0.00070291,0.00043059,0.00010277,0.00017592,0.00005525,-0.000
 10696,0.00000646,0.00001507,-0.00006587,-0.00001276,-0.00009698,0.0001
 3114,0.00005242,-0.05828102,-0.09801759,-0.23556982,0.06169487,0.10622
 627,0.25949744,0.00246585,-0.00052619,0.00091090,-0.00072977,-0.000301
 04,0.00052114,-0.00015138,0.00003410,-0.00020286,0.00000079,-0.0000049
 3,0.00004415,0.00000659,-0.00000596,0.00006338,-0.00003630,-0.00003140
 ,-0.00001384,-0.01283630,-0.00133939,0.00231916,0.00074106,0.00038029,
 0.00020356,0.00074106,-0.00036634,-0.00022767,-0.00015134,0.00015878,-
 0.00013099,-0.00003638,0.00002768,0.00002035,0.00000664,-0.00005185,0.
 00003676,0.00000073,-0.00003577,0.00002641,-0.30345654,0.01397336,-0.0
 2419256,-0.00804088,0.00053343,-0.00144584,0.32951681,0.00049207,-0.00
 120873,0.00157378,-0.00074685,-0.00019099,0.00051362,-0.00009807,0.000
 18493,-0.00018730,0.00002301,0.00002104,0.00002620,-0.00002281,-0.0000
 8852,0.00000638,-0.00001005,-0.00001260,0.00001392,-0.01688045,-0.0002
 4912,0.00124363,0.00089327,0.00038874,-0.00058418,-0.00030352,0.000432
 68,-0.00075210,-0.00007962,0.00007154,-0.00002159,0.00000094,0.0001465
 7,-0.00012126,-0.00016372,0.00024916,-0.00017426,0.00000870,-0.0000413
 4,0.00000111,0.01369904,-0.04722005,-0.00033569,-0.01548367,0.00039989
 ,-0.00123832,-0.01343061,0.04832857,-0.00085208,0.00157372,-0.00302488
 ,0.00129322,0.00051360,-0.00078375,0.00014845,-0.00008686,0.00019219,-
 0.00002325,-0.00003500,-0.00005710,0.00020220,0.00002061,0.00034592,0.
 00000468,-0.00002943,0.00020851,0.02922892,0.00124338,-0.00168440,-0.0
 0016498,-0.00072674,0.00120376,-0.00085620,-0.00060943,0.00115977,0.00
 015921,-0.00012184,0.00030555,0.00001103,-0.00007792,0.00004934,0.0001
 2080,-0.00018846,0.00000835,-0.00003163,0.00006217,0.00000522,-0.02371
 760,-0.00033568,-0.04683240,-0.02812879,0.00257289,-0.00251797,0.02325
 255,-0.00346644,0.05232850,0.00029484,-0.00215700,0.00049060,0.0000277
 3,0.00030223,-0.00017786,-0.00015879,0.00015232,0.00005011,0.00007893,
 0.00008780,0.00003921,-0.00001095,-0.00003621,-0.00005788,-0.00002675,
 0.00000865,-0.00004437,0.00357029,-0.01508874,-0.00019461,0.00032685,0
 .00071397,-0.00055780,-0.00080758,-0.00170714,0.00278229,0.00026399,0.
 00013988,0.00006331,0.00008614,-0.00005704,-0.00013201,-0.00048209,0.0
 0033147,-0.00000644,-0.00001901,0.00003768,-0.00001059,-0.06539106,0.0
 6545631,-0.00330116,0.00161756,-0.00944136,0.00104358,-0.00804064,0.03
 210234,-0.00064652,0.06867052,0.00148600,-0.00186575,0.00051512,-0.000
 30034,0.00020441,0.00003378,-0.00045262,0.00020582,0.00003093,0.000117
 56,0.00014229,0.00004941,0.00001039,-0.00009469,-0.00005464,-0.0000661
 4,-0.00003339,-0.00007465,0.00168226,-0.01190242,0.00088941,0.00014993
 ,0.00062650,0.00029130,-0.00165952,0.00037940,0.00248171,0.00000218,-0
 .00000501,0.00016743,0.00002744,0.00022539,-0.00018406,-0.00012557,0.0
 0051259,-0.00033290,-0.00000064,-0.00003040,-0.00001446,0.06517393,-0.
 28639362,0.01043918,0.00381448,-0.01327970,0.00040388,0.00098583,-0.00
 121177,-0.00030857,-0.07084516,0.31252035,-0.00060592,0.00120963,0.000
 17842,0.00003363,-0.00022523,0.00002430,0.00007701,-0.00005046,0.00005
 171,0.00000988,0.00002420,-0.00008918,0.00004825,-0.00007603,0.0000063
 4,-0.00000426,0.00003781,0.00006249,-0.00628093,0.02516441,-0.00108598
 ,-0.00078314,-0.00040200,0.00074060,0.00284642,0.00264883,-0.00408710,
 -0.00009068,-0.00011702,0.00004887,-0.00005452,-0.00008034,-0.00001475
 ,0.00017070,-0.00008582,0.00017122,0.00011730,-0.00006802,-0.00016803,
 -0.00365832,0.00993530,-0.04760075,0.00869905,-0.02708487,0.00211502,-
 0.00118459,0.00350250,-0.00090661,0.00066015,-0.01433287,0.05055343\\0
 .00001255,0.00002346,-0.00004062,-0.00000399,-0.00000188,0.00000326,-0
 .00002812,-0.00001657,-0.00005252,0.00001578,-0.00000999,0.00002568,0.
 00002567,0.00002707,0.00000570,-0.00001195,0.00001451,0.00001797,-0.00
 000453,-0.00001644,0.00002846,-0.00001404,0.00001566,0.00001267,-0.000
 01404,-0.00001880,-0.00000723,-0.00002812,0.00005378,-0.00001190,-0.00
 001195,-0.00002282,-0.00000359,0.00002567,-0.00001846,-0.00002060,0.00
 001578,-0.00001725,0.00002149,-0.00000791,-0.00000131,0.00000228,-0.00
 000099,-0.00001998,-0.00000897,0.00003119,-0.00000872,0.00001511,-0.00
 000099,0.00001775,0.00001282\\\@


 I am not a vegetarian because I love animals;
 I am a vegetarian because I hate plants.
                               -- A. Whitney Brown
 Job cpu time:       0 days  0 hours 15 minutes 32.0 seconds.
 File lengths (MBytes):  RWF=    147 Int=      0 D2E=      0 Chk=      5 Scr=      1
 Normal termination of Gaussian 09 at Mon Jan  9 17:29:06 2023.
