 Entering Gaussian System, Link 0=g09
 Initial command:
 /cm/shared/apps/gaussian/g09revD.01/g09/l1.exe "//home/sweav003/CHB/validation/G09-substitutedquinolines2_Marder.com.o9822951.tmp/Gau-179056.inp" -scrdir="//home/sweav003/CHB/validation/G09-substitutedquinolines2_Marder.com.o9822951.tmp/"
 Entering Link 1 = /cm/shared/apps/gaussian/g09revD.01/g09/l1.exe PID=    179057.
  
 Copyright (c) 1988,1990,1992,1993,1995,1998,2003,2009,2013,
            Gaussian, Inc.  All Rights Reserved.
  
 This is part of the Gaussian(R) 09 program.  It is based on
 the Gaussian(R) 03 system (copyright 2003, Gaussian, Inc.),
 the Gaussian(R) 98 system (copyright 1998, Gaussian, Inc.),
 the Gaussian(R) 94 system (copyright 1995, Gaussian, Inc.),
 the Gaussian 92(TM) system (copyright 1992, Gaussian, Inc.),
 the Gaussian 90(TM) system (copyright 1990, Gaussian, Inc.),
 the Gaussian 88(TM) system (copyright 1988, Gaussian, Inc.),
 the Gaussian 86(TM) system (copyright 1986, Carnegie Mellon
 University), and the Gaussian 82(TM) system (copyright 1983,
 Carnegie Mellon University). Gaussian is a federally registered
 trademark of Gaussian, Inc.
  
 This software contains proprietary and confidential information,
 including trade secrets, belonging to Gaussian, Inc.
  
 This software is provided under written license and may be
 used, copied, transmitted, or stored only in accord with that
 written license.
  
 The following legend is applicable only to US Government
 contracts under FAR:
  
                    RESTRICTED RIGHTS LEGEND
  
 Use, reproduction and disclosure by the US Government is
 subject to restrictions as set forth in subparagraphs (a)
 and (c) of the Commercial Computer Software - Restricted
 Rights clause in FAR 52.227-19.
  
 Gaussian, Inc.
 340 Quinnipiac St., Bldg. 40, Wallingford CT 06492
  
  
 ---------------------------------------------------------------
 Warning -- This program may not be used in any manner that
 competes with the business of Gaussian, Inc. or will provide
 assistance to any competitor of Gaussian, Inc.  The licensee
 of this program is prohibited from giving any competitor of
 Gaussian, Inc. access to this program.  By using this program,
 the user acknowledges that Gaussian, Inc. is engaged in the
 business of creating and licensing software in the field of
 computational chemistry and represents and warrants to the
 licensee that it is not a competitor of Gaussian, Inc. and that
 it will not use this program in any manner prohibited above.
 ---------------------------------------------------------------
  

 Cite this work as:
 Gaussian 09, Revision D.01,
 M. J. Frisch, G. W. Trucks, H. B. Schlegel, G. E. Scuseria, 
 M. A. Robb, J. R. Cheeseman, G. Scalmani, V. Barone, B. Mennucci, 
 G. A. Petersson, H. Nakatsuji, M. Caricato, X. Li, H. P. Hratchian, 
 A. F. Izmaylov, J. Bloino, G. Zheng, J. L. Sonnenberg, M. Hada, 
 M. Ehara, K. Toyota, R. Fukuda, J. Hasegawa, M. Ishida, T. Nakajima, 
 Y. Honda, O. Kitao, H. Nakai, T. Vreven, J. A. Montgomery, Jr., 
 J. E. Peralta, F. Ogliaro, M. Bearpark, J. J. Heyd, E. Brothers, 
 K. N. Kudin, V. N. Staroverov, T. Keith, R. Kobayashi, J. Normand, 
 K. Raghavachari, A. Rendell, J. C. Burant, S. S. Iyengar, J. Tomasi, 
 M. Cossi, N. Rega, J. M. Millam, M. Klene, J. E. Knox, J. B. Cross, 
 V. Bakken, C. Adamo, J. Jaramillo, R. Gomperts, R. E. Stratmann, 
 O. Yazyev, A. J. Austin, R. Cammi, C. Pomelli, J. W. Ochterski, 
 R. L. Martin, K. Morokuma, V. G. Zakrzewski, G. A. Voth, 
 P. Salvador, J. J. Dannenberg, S. Dapprich, A. D. Daniels, 
 O. Farkas, J. B. Foresman, J. V. Ortiz, J. Cioslowski, 
 and D. J. Fox, Gaussian, Inc., Wallingford CT, 2013.
 
 ******************************************
 Gaussian 09:  ES64L-G09RevD.01 24-Apr-2013
                10-Jan-2023 
 ******************************************
 %nprocshared=20
 Will use up to   20 processors via shared memory.
 %mem=4GB
 %chk=substitutedquinolines2_Marder.chk
 ----------------------------------------------------------------------
 # opt=rcfc geom=allcheck guess=read freq=noraman b3lyp/6-311+g(d,p) po
 p=(npa,hirshfeld,chelpg,mbs)
 ----------------------------------------------------------------------
 1/10=5,14=-1,18=20,19=15,26=3,29=7,38=1/1,3;
 2/9=110,12=2,40=1/2;
 3/5=4,6=6,7=111,11=2,14=-4,16=1,25=1,30=1,71=1,74=-5,116=-2/1,2,3;
 4/5=1/1;
 5/5=2,38=6/2;
 6/7=2,8=2,9=2,10=2,15=8,20=3,27=100,28=1,40=-1,79=1/1,2,7;
 7//1,2,3,16;
 1/14=-1,18=20,19=15,26=3/3(2);
 2/9=110/2;
 99//99;
 2/9=110/2;
 3/5=4,6=6,7=111,11=2,14=-2,16=1,25=1,30=1,71=1,74=-5/1,2,3;
 4/5=5,16=3,69=1/1;
 5/5=2,38=5/2;
 7//1,2,3,16;
 1/14=-1,18=20,19=15,26=3/3(-5);
 2/9=110/2;
 6/7=2,8=2,9=2,10=2,15=8,19=2,20=3,27=100,28=1,40=-1,79=1/1,2,7;
 99/9=1/99;
 Structure from the checkpoint file:  "substitutedquinolines2_Marder.chk"
 -------------------
 Title Card Required
 -------------------
 Charge =  0 Multiplicity = 1
 Redundant internal coordinates found in file.
 C,0,-1.5290767028,-0.724762558,-0.5115784653
 C,0,-0.3547654974,-1.4244141027,-0.3432609423
 C,0,0.8793981325,-0.7546182905,-0.1826093511
 C,0,0.8815251606,0.6735054818,-0.1987200399
 C,0,-0.3286627915,1.3762056465,-0.3719092188
 C,0,-1.5192107189,0.6926550254,-0.5264359919
 H,0,-2.4570428512,-1.2676383216,-0.6322434499
 H,0,-0.3496427812,-2.5078136417,-0.330056331
 C,0,2.1401227219,1.311856254,-0.0343398559
 H,0,-0.3376557934,2.4602910142,-0.3855485631
 C,0,3.2648013757,0.5507523133,0.1280114127
 C,0,3.1647735531,-0.8734321131,0.1309120472
 H,0,2.1954308321,2.3957885214,-0.0394113898
 H,0,4.235952604,1.016479091,0.2550854041
 N,0,2.0151647281,-1.495540761,-0.0187143923
 C,0,4.4042171007,-1.7123612253,0.3096162883
 H,0,5.1311559885,-1.5130844378,-0.4846227565
 H,0,4.8961723521,-1.4885063895,1.2618514417
 H,0,4.14107939,-2.769227842,0.2889087792
 O,0,-2.6415603045,1.4548400478,-0.6881934427
 C,0,-3.8973354061,0.809168988,-0.8518221385
 H,0,-4.1549392046,0.202935574,0.0232538598
 H,0,-4.6280648974,1.6088933825,-0.9610826133
 H,0,-3.9131644802,0.1817056433,-1.7494676407
 Recover connectivity data from disk.

 GradGradGradGradGradGradGradGradGradGradGradGradGradGradGradGradGradGrad
 Berny optimization.
 Initialization pass.
 Cartesian force constants read from checkpoint file:
 "substitutedquinolines2_Marder.chk"
 FormGI is forming the generalized inverse of G from B-inverse, IUseBI=4.
                           ----------------------------
                           !    Initial Parameters    !
                           ! (Angstroms and Degrees)  !
 --------------------------                            --------------------------
 ! Name  Definition              Value          Derivative Info.                !
 --------------------------------------------------------------------------------
 ! R1    R(1,2)                  1.3773         D2E/DX2 =    0.4249             !
 ! R2    R(1,6)                  1.4175         D2E/DX2 =    0.3437             !
 ! R3    R(1,7)                  1.0818         D2E/DX2 =    0.3624             !
 ! R4    R(2,3)                  1.4134         D2E/DX2 =    0.3601             !
 ! R5    R(2,8)                  1.0835         D2E/DX2 =    0.3586             !
 ! R6    R(3,4)                  1.4282         D2E/DX2 =    0.2772             !
 ! R7    R(3,15)                 1.3659         D2E/DX2 =    0.3699             !
 ! R8    R(4,5)                  1.4101         D2E/DX2 =    0.3652             !
 ! R9    R(4,9)                  1.4208         D2E/DX2 =    0.356              !
 ! R10   R(5,6)                  1.3815         D2E/DX2 =    0.417              !
 ! R11   R(5,10)                 1.0842         D2E/DX2 =    0.3562             !
 ! R12   R(6,20)                 1.3663         D2E/DX2 =    0.3943             !
 ! R13   R(9,11)                 1.3677         D2E/DX2 =    0.4525             !
 ! R14   R(9,13)                 1.0854         D2E/DX2 =    0.3532             !
 ! R15   R(11,12)                1.4277         D2E/DX2 =    0.3215             !
 ! R16   R(11,14)                1.0845         D2E/DX2 =    0.3546             !
 ! R17   R(12,15)                1.3157         D2E/DX2 =    0.4788             !
 ! R18   R(12,16)                1.5073         D2E/DX2 =    0.2964             !
 ! R19   R(16,17)                1.095          D2E/DX2 =    0.3307             !
 ! R20   R(16,18)                1.0949         D2E/DX2 =    0.3308             !
 ! R21   R(16,19)                1.0893         D2E/DX2 =    0.3448             !
 ! R22   R(20,21)                1.4215         D2E/DX2 =    0.3307             !
 ! R23   R(21,22)                1.0953         D2E/DX2 =    0.3279             !
 ! R24   R(21,23)                1.0888         D2E/DX2 =    0.3453             !
 ! R25   R(21,24)                1.0953         D2E/DX2 =    0.3278             !
 ! A1    A(2,1,6)              120.2191         D2E/DX2 =    0.079              !
 ! A2    A(2,1,7)              119.3456         D2E/DX2 =    0.083              !
 ! A3    A(6,1,7)              120.4353         D2E/DX2 =    0.0804             !
 ! A4    A(1,2,3)              121.177          D2E/DX2 =    0.0817             !
 ! A5    A(1,2,8)              120.8959         D2E/DX2 =    0.0778             !
 ! A6    A(3,2,8)              117.9271         D2E/DX2 =    0.0792             !
 ! A7    A(2,3,4)              118.2871         D2E/DX2 =    0.082              !
 ! A8    A(2,3,15)             118.8585         D2E/DX2 =    0.1138             !
 ! A9    A(4,3,15)             122.8544         D2E/DX2 =    0.0959             !
 ! A10   A(3,4,5)              119.8951         D2E/DX2 =    0.0787             !
 ! A11   A(3,4,9)              116.6978         D2E/DX2 =    0.0811             !
 ! A12   A(5,4,9)              123.407          D2E/DX2 =    0.0983             !
 ! A13   A(4,5,6)              120.4496         D2E/DX2 =    0.0817             !
 ! A14   A(4,5,10)             120.4606         D2E/DX2 =    0.0783             !
 ! A15   A(6,5,10)             119.0898         D2E/DX2 =    0.0778             !
 ! A16   A(1,6,5)              119.9721         D2E/DX2 =    0.0882             !
 ! A17   A(1,6,20)             123.5956         D2E/DX2 =    0.1704             !
 ! A18   A(5,6,20)             116.4323         D2E/DX2 =    0.159              !
 ! A19   A(4,9,11)             119.4831         D2E/DX2 =    0.0828             !
 ! A20   A(4,9,13)             119.5585         D2E/DX2 =    0.0811             !
 ! A21   A(11,9,13)            120.9584         D2E/DX2 =    0.0806             !
 ! A22   A(9,11,12)            119.8514         D2E/DX2 =    0.0838             !
 ! A23   A(9,11,14)            120.7505         D2E/DX2 =    0.0814             !
 ! A24   A(12,11,14)           119.3981         D2E/DX2 =    0.081              !
 ! A25   A(11,12,15)           122.1859         D2E/DX2 =    0.1035             !
 ! A26   A(11,12,16)           119.857          D2E/DX2 =    0.1246             !
 ! A27   A(15,12,16)           117.9571         D2E/DX2 =    0.1401             !
 ! A28   A(3,15,12)            118.9274         D2E/DX2 =    0.1153             !
 ! A29   A(12,16,17)           111.0155         D2E/DX2 =    0.1017             !
 ! A30   A(12,16,18)           111.025          D2E/DX2 =    0.1018             !
 ! A31   A(12,16,19)           109.8223         D2E/DX2 =    0.1024             !
 ! A32   A(17,16,18)           107.177          D2E/DX2 =    0.0548             !
 ! A33   A(17,16,19)           108.8535         D2E/DX2 =    0.0543             !
 ! A34   A(18,16,19)           108.8698         D2E/DX2 =    0.0543             !
 ! A35   A(6,20,21)            119.0736         D2E/DX2 =    0.3237             !
 ! A36   A(20,21,22)           111.5441         D2E/DX2 =    0.1382             !
 ! A37   A(20,21,23)           105.7131         D2E/DX2 =    0.1416             !
 ! A38   A(20,21,24)           111.5496         D2E/DX2 =    0.1382             !
 ! A39   A(22,21,23)           109.2005         D2E/DX2 =    0.0703             !
 ! A40   A(22,21,24)           109.5293         D2E/DX2 =    0.0719             !
 ! A41   A(23,21,24)           109.1978         D2E/DX2 =    0.0703             !
 ! D1    D(6,1,2,3)             -0.0085         D2E/DX2 =    0.0085             !
 ! D2    D(6,1,2,8)            179.9927         D2E/DX2 =    0.0079             !
 ! D3    D(7,1,2,3)            179.9804         D2E/DX2 =    0.0083             !
 ! D4    D(7,1,2,8)             -0.0184         D2E/DX2 =    0.0088             !
 ! D5    D(2,1,6,5)              0.0092         D2E/DX2 =    0.0073             !
 ! D6    D(2,1,6,20)          -179.991          D2E/DX2 =    0.0088             !
 ! D7    D(7,1,6,5)           -179.9796         D2E/DX2 =    0.0072             !
 ! D8    D(7,1,6,20)             0.0202         D2E/DX2 =    0.0087             !
 ! D9    D(1,2,3,4)              0.005          D2E/DX2 =    0.0076             !
 ! D10   D(1,2,3,15)           179.9829         D2E/DX2 =    0.0065             !
 ! D11   D(8,2,3,4)           -179.9962         D2E/DX2 =    0.007              !
 ! D12   D(8,2,3,15)            -0.0182         D2E/DX2 =    0.0081             !
 ! D13   D(2,3,4,5)             -0.0021         D2E/DX2 =    0.006              !
 ! D14   D(2,3,4,9)            179.9985         D2E/DX2 =    0.0053             !
 ! D15   D(15,3,4,5)          -179.9792         D2E/DX2 =    0.0053             !
 ! D16   D(15,3,4,9)             0.0214         D2E/DX2 =    0.0059             !
 ! D17   D(2,3,15,12)          179.998          D2E/DX2 =    0.0069             !
 ! D18   D(4,3,15,12)           -0.0251         D2E/DX2 =    0.0074             !
 ! D19   D(3,4,5,6)              0.003          D2E/DX2 =    0.0065             !
 ! D20   D(3,4,5,10)           179.9977         D2E/DX2 =    0.0065             !
 ! D21   D(9,4,5,6)           -179.9976         D2E/DX2 =    0.0061             !
 ! D22   D(9,4,5,10)            -0.0029         D2E/DX2 =    0.0068             !
 ! D23   D(3,4,9,11)            -0.0081         D2E/DX2 =    0.0066             !
 ! D24   D(3,4,9,13)           179.9898         D2E/DX2 =    0.0064             !
 ! D25   D(5,4,9,11)           179.9925         D2E/DX2 =    0.0062             !
 ! D26   D(5,4,9,13)            -0.0096         D2E/DX2 =    0.0072             !
 ! D27   D(4,5,6,1)             -0.0064         D2E/DX2 =    0.0069             !
 ! D28   D(4,5,6,20)           179.9937         D2E/DX2 =    0.0083             !
 ! D29   D(10,5,6,1)           179.9988         D2E/DX2 =    0.0066             !
 ! D30   D(10,5,6,20)           -0.0011         D2E/DX2 =    0.0091             !
 ! D31   D(1,6,20,21)            0.0105         D2E/DX2 =    0.0061             !
 ! D32   D(5,6,20,21)         -179.9897         D2E/DX2 =    0.0082             !
 ! D33   D(4,9,11,12)           -0.0008         D2E/DX2 =    0.008              !
 ! D34   D(4,9,11,14)          179.9954         D2E/DX2 =    0.0089             !
 ! D35   D(13,9,11,12)        -179.9987         D2E/DX2 =    0.0078             !
 ! D36   D(13,9,11,14)          -0.0025         D2E/DX2 =    0.0093             !
 ! D37   D(9,11,12,15)          -0.0026         D2E/DX2 =    0.0075             !
 ! D38   D(9,11,12,16)         179.9906         D2E/DX2 =    0.0078             !
 ! D39   D(14,11,12,15)       -179.9988         D2E/DX2 =    0.0067             !
 ! D40   D(14,11,12,16)         -0.0056         D2E/DX2 =    0.0075             !
 ! D41   D(11,12,15,3)           0.0152         D2E/DX2 =    0.0075             !
 ! D42   D(16,12,15,3)        -179.9782         D2E/DX2 =    0.009              !
 ! D43   D(11,12,16,17)        -59.732          D2E/DX2 =    0.0131             !
 ! D44   D(11,12,16,18)         59.3851         D2E/DX2 =    0.0131             !
 ! D45   D(11,12,16,19)        179.8398         D2E/DX2 =    0.0132             !
 ! D46   D(15,12,16,17)        120.2615         D2E/DX2 =    0.0121             !
 ! D47   D(15,12,16,18)       -120.6214         D2E/DX2 =    0.0121             !
 ! D48   D(15,12,16,19)         -0.1667         D2E/DX2 =    0.0138             !
 ! D49   D(6,20,21,22)          61.444          D2E/DX2 =    0.0288             !
 ! D50   D(6,20,21,23)        -179.9768         D2E/DX2 =    0.0252             !
 ! D51   D(6,20,21,24)         -61.3978         D2E/DX2 =    0.0288             !
 --------------------------------------------------------------------------------
 Trust Radius=3.00D-01 FncErr=1.00D-07 GrdErr=1.00D-06
 Number of steps in this run=    127 maximum allowed number of steps=    144.
 GradGradGradGradGradGradGradGradGradGradGradGradGradGradGradGradGradGrad

                          Input orientation:                          
 ---------------------------------------------------------------------
 Center     Atomic      Atomic             Coordinates (Angstroms)
 Number     Number       Type             X           Y           Z
 ---------------------------------------------------------------------
      1          6           0       -1.529077   -0.724763   -0.511578
      2          6           0       -0.354765   -1.424414   -0.343261
      3          6           0        0.879398   -0.754618   -0.182609
      4          6           0        0.881525    0.673505   -0.198720
      5          6           0       -0.328663    1.376206   -0.371909
      6          6           0       -1.519211    0.692655   -0.526436
      7          1           0       -2.457043   -1.267638   -0.632243
      8          1           0       -0.349643   -2.507814   -0.330056
      9          6           0        2.140123    1.311856   -0.034340
     10          1           0       -0.337656    2.460291   -0.385549
     11          6           0        3.264801    0.550752    0.128011
     12          6           0        3.164774   -0.873432    0.130912
     13          1           0        2.195431    2.395789   -0.039411
     14          1           0        4.235953    1.016479    0.255085
     15          7           0        2.015165   -1.495541   -0.018714
     16          6           0        4.404217   -1.712361    0.309616
     17          1           0        5.131156   -1.513084   -0.484623
     18          1           0        4.896172   -1.488506    1.261851
     19          1           0        4.141079   -2.769228    0.288909
     20          8           0       -2.641560    1.454840   -0.688193
     21          6           0       -3.897335    0.809169   -0.851822
     22          1           0       -4.154939    0.202936    0.023254
     23          1           0       -4.628065    1.608893   -0.961083
     24          1           0       -3.913164    0.181706   -1.749468
 ---------------------------------------------------------------------
                    Distance matrix (angstroms):
                    1          2          3          4          5
     1  C    0.000000
     2  C    1.377262   0.000000
     3  C    2.431021   1.413363   0.000000
     4  C    2.804289   2.439380   1.428216   0.000000
     5  C    2.423751   2.800888   2.456757   1.410084   0.000000
     6  C    1.417530   2.423111   2.822435   2.423076   1.381494
     7  H    1.081848   2.127830   3.405466   3.886132   3.404069
     8  H    2.145527   1.083492   2.146154   3.413768   3.884301
     9  C    4.223576   3.715787   2.425227   1.420768   2.492588
    10  H    3.402930   3.884973   3.443551   2.171154   1.084208
    11  C    5.001728   4.150258   2.736901   2.408698   3.720790
    12  C    4.739950   3.593825   2.309838   2.777570   4.185427
    13  H    4.881878   4.603235   3.417237   2.172093   2.742472
    14  H    6.070853   5.233610   3.820317   3.402316   4.621498
    15  N    3.660418   2.393107   1.365940   2.454038   3.723601
    16  C    6.070724   4.812180   3.685635   4.284872   5.692440
    17  H    6.706778   5.488459   4.329426   4.787722   6.178214
    18  H    6.709112   5.491160   4.331228   4.788001   6.178564
    19  H    6.080402   4.735059   3.862583   4.766014   6.131875
    20  O    2.453463   3.693036   4.187418   3.641730   2.335747
    21  C    2.842070   4.218688   5.070548   4.825190   3.645171
    22  H    2.835811   4.150171   5.128727   5.063268   4.021580
    23  H    3.905347   5.276717   6.043538   5.640189   4.345817
    24  H    2.835124   4.149607   5.128392   5.063174   4.021585
                    6          7          8          9         10
     6  C    0.000000
     7  H    2.175655   0.000000
     8  H    3.413130   2.463836   0.000000
     9  C    3.743834   5.305206   4.569054   0.000000
    10  H    2.130835   4.295360   4.968429   2.753477   0.000000
    11  C    4.830653   6.051779   4.756980   1.367677   4.109474
    12  C    4.982413   5.687058   3.903180   2.419236   4.862865
    13  H    4.115388   5.951274   5.532376   1.085354   2.557440
    14  H    5.817005   7.127463   5.812978   2.136239   4.838688
    15  N    4.187815   4.519845   2.591128   2.810220   4.617243
    16  C    6.447487   6.939868   4.862212   3.793458   6.354498
    17  H    7.006740   7.593602   5.572480   4.138759   6.760579
    18  H    7.008037   7.596457   5.575996   4.137385   6.760169
    19  H    6.684931   6.829239   4.540709   4.556705   6.918224
    20  O    1.366294   2.729298   4.591707   4.828298   2.531897
    21  C    2.403108   2.536885   4.884745   6.113254   3.951574
    22  H    2.736613   2.339897   4.685432   6.392247   4.453586
    23  H    3.270074   3.618827   5.970793   6.837795   4.411771
    24  H    2.736401   2.338606   4.684755   6.392276   4.453817
                   11         12         13         14         15
    11  C    0.000000
    12  C    1.427696   0.000000
    13  H    2.139098   3.414153   0.000000
    14  H    1.084520   2.175915   2.480514   0.000000
    15  N    2.402173   1.315678   3.895557   3.364091   0.000000
    16  C    2.540262   1.507301   4.677334   2.734567   2.421236
    17  H    2.849214   2.157475   4.908766   2.783388   3.150679
    18  H    2.847023   2.157564   4.906632   2.779284   3.152793
    19  H    3.437444   2.138265   5.529081   3.787047   2.497283
    20  O    6.030645   6.309144   4.970190   6.955726   5.553201
    21  C    7.233468   7.326001   6.348163   8.210883   6.400267
    22  H    7.428627   7.399213   6.718611   8.433425   6.399747
    23  H    8.037607   8.251226   6.930280   8.966651   7.393110
    24  H    7.428615   7.399078   6.718734   8.433457   6.399512
                   16         17         18         19         20
    16  C    0.000000
    17  H    1.094974   0.000000
    18  H    1.094935   1.762383   0.000000
    19  H    1.089329   1.776654   1.776803   0.000000
    20  O    7.789080   8.322568   8.323664   8.049949   0.000000
    21  C    8.753447   9.329596   9.331276   8.872559   1.421491
    22  H    8.775507   9.456967   9.290733   8.816363   2.088956
    23  H    9.707086  10.257492  10.258968   9.880704   2.011070
    24  H    8.775315   9.288266   9.458439   8.816679   2.089055
                   21         22         23         24
    21  C    0.000000
    22  H    1.095279   0.000000
    23  H    1.088789   1.780304   0.000000
    24  H    1.095321   1.789259   1.780309   0.000000
 Stoichiometry    C11H11NO
 Framework group  C1[X(C11H11NO)]
 Deg. of freedom    66
 Full point group                 C1      NOp   1
 Largest Abelian subgroup         C1      NOp   1
 Largest concise Abelian subgroup C1      NOp   1
                         Standard orientation:                         
 ---------------------------------------------------------------------
 Center     Atomic      Atomic             Coordinates (Angstroms)
 Number     Number       Type             X           Y           Z
 ---------------------------------------------------------------------
      1          6           0        1.753710   -1.172611    0.000225
      2          6           0        0.433553   -1.565083    0.000180
      3          6           0       -0.612376   -0.614489    0.000181
      4          6           0       -0.267365    0.771429    0.000121
      5          6           0        1.088663    1.158115    0.000109
      6          6           0        2.088530    0.204810    0.000092
      7          1           0        2.530645   -1.925450    0.000544
      8          1           0        0.165216   -2.614821    0.000162
      9          6           0       -1.344870    1.697475    0.000090
     10          1           0        1.360944    2.207577    0.000027
     11          6           0       -2.631367    1.233293   -0.000050
     12          6           0       -2.879564   -0.172663   -0.000181
     13          1           0       -1.135575    2.762459    0.000213
     14          1           0       -3.469298    1.921811   -0.000002
     15          7           0       -1.904862   -1.056385   -0.000221
     16          6           0       -4.297348   -0.684372   -0.000122
     17          1           0       -4.841542   -0.333168    0.882758
     18          1           0       -4.843622   -0.328062   -0.879617
     19          1           0       -4.296907   -1.773696   -0.003104
     20          8           0        3.372970    0.670615   -0.000053
     21          6           0        4.445895   -0.261839   -0.000302
     22          1           0        4.429896   -0.893157   -0.895186
     23          1           0        5.355978    0.335832    0.000046
     24          1           0        4.429773   -0.893948    0.894073
 ---------------------------------------------------------------------
 Rotational constants (GHZ):      2.6350597      0.4333127      0.3738706
 Standard basis: 6-311+G(d,p) (5D, 7F)
 There are   365 symmetry adapted cartesian basis functions of A   symmetry.
 There are   352 symmetry adapted basis functions of A   symmetry.
   352 basis functions,   556 primitive gaussians,   365 cartesian basis functions
    46 alpha electrons       46 beta electrons
       nuclear repulsion energy       730.8869201869 Hartrees.
 NAtoms=   24 NActive=   24 NUniq=   24 SFac= 1.00D+00 NAtFMM=   60 NAOKFM=F Big=F
 Integral buffers will be    131072 words long.
 Raffenetti 2 integral format.
 Two-electron integral symmetry is turned on.
 One-electron integrals computed using PRISM.
 NBasis=   352 RedAO= T EigKep=  1.45D-06  NBF=   352
 NBsUse=   350 1.00D-06 EigRej=  8.24D-07 NBFU=   350
 Initial guess from the checkpoint file:  "substitutedquinolines2_Marder.chk"
 B after Tr=     0.000000    0.000000    0.000000
         Rot=    1.000000    0.000000    0.000000    0.000000 Ang=   0.00 deg.
 Requested convergence on RMS density matrix=1.00D-08 within 128 cycles.
 Requested convergence on MAX density matrix=1.00D-06.
 Requested convergence on             energy=1.00D-06.
 No special actions if energy rises.
 SCF Done:  E(RB3LYP) =  -555.917471324     A.U. after    1 cycles
            NFock=  1  Conv=0.54D-08     -V/T= 2.0043

 **********************************************************************

            Population analysis using the SCF density.

 **********************************************************************

 Orbital symmetries:
       Occupied  (A) (A) (A) (A) (A) (A) (A) (A) (A) (A) (A) (A)
                 (A) (A) (A) (A) (A) (A) (A) (A) (A) (A) (A) (A)
                 (A) (A) (A) (A) (A) (A) (A) (A) (A) (A) (A) (A)
                 (A) (A) (A) (A) (A) (A) (A) (A) (A) (A)
       Virtual   (A) (A) (A) (A) (A) (A) (A) (A) (A) (A) (A) (A)
                 (A) (A) (A) (A) (A) (A) (A) (A) (A) (A) (A) (A)
                 (A) (A) (A) (A) (A) (A) (A) (A) (A) (A) (A) (A)
                 (A) (A) (A) (A) (A) (A) (A) (A) (A) (A) (A) (A)
                 (A) (A) (A) (A) (A) (A) (A) (A) (A) (A) (A) (A)
                 (A) (A) (A) (A) (A) (A) (A) (A) (A) (A) (A) (A)
                 (A) (A) (A) (A) (A) (A) (A) (A) (A) (A) (A) (A)
                 (A) (A) (A) (A) (A) (A) (A) (A) (A) (A) (A) (A)
                 (A) (A) (A) (A) (A) (A) (A) (A) (A) (A) (A) (A)
                 (A) (A) (A) (A) (A) (A) (A) (A) (A) (A) (A) (A)
                 (A) (A) (A) (A) (A) (A) (A) (A) (A) (A) (A) (A)
                 (A) (A) (A) (A) (A) (A) (A) (A) (A) (A) (A) (A)
                 (A) (A) (A) (A) (A) (A) (A) (A) (A) (A) (A) (A)
                 (A) (A) (A) (A) (A) (A) (A) (A) (A) (A) (A) (A)
                 (A) (A) (A) (A) (A) (A) (A) (A) (A) (A) (A) (A)
                 (A) (A) (A) (A) (A) (A) (A) (A) (A) (A) (A) (A)
                 (A) (A) (A) (A) (A) (A) (A) (A) (A) (A) (A) (A)
                 (A) (A) (A) (A) (A) (A) (A) (A) (A) (A) (A) (A)
                 (A) (A) (A) (A) (A) (A) (A) (A) (A) (A) (A) (A)
                 (A) (A) (A) (A) (A) (A) (A) (A) (A) (A) (A) (A)
                 (A) (A) (A) (A) (A) (A) (A) (A) (A) (A) (A) (A)
                 (A) (A) (A) (A) (A) (A) (A) (A) (A) (A) (A) (A)
                 (A) (A) (A) (A) (A) (A) (A) (A) (A) (A) (A) (A)
                 (A) (A) (A) (A) (A) (A) (A) (A) (A) (A) (A) (A)
                 (A) (A) (A) (A) (A) (A) (A) (A) (A) (A) (A) (A)
                 (A) (A) (A) (A)
 The electronic state is 1-A.
 Alpha  occ. eigenvalues --  -19.16055 -14.30503 -10.24279 -10.23218 -10.21606
 Alpha  occ. eigenvalues --  -10.20718 -10.19225 -10.19178 -10.18527 -10.18249
 Alpha  occ. eigenvalues --  -10.18047 -10.17607 -10.16511  -1.07562  -0.94697
 Alpha  occ. eigenvalues --   -0.85638  -0.81103  -0.77642  -0.75727  -0.72185
 Alpha  occ. eigenvalues --   -0.69242  -0.64255  -0.61137  -0.60676  -0.54216
 Alpha  occ. eigenvalues --   -0.53608  -0.51246  -0.48357  -0.47897  -0.46248
 Alpha  occ. eigenvalues --   -0.44364  -0.43501  -0.42866  -0.42318  -0.40828
 Alpha  occ. eigenvalues --   -0.40202  -0.39113  -0.38033  -0.36633  -0.36481
 Alpha  occ. eigenvalues --   -0.33869  -0.31387  -0.30566  -0.25793  -0.24949
 Alpha  occ. eigenvalues --   -0.22023
 Alpha virt. eigenvalues --   -0.05827  -0.01902  -0.00015   0.00243   0.00642
 Alpha virt. eigenvalues --    0.01809   0.02627   0.02760   0.04098   0.04355
 Alpha virt. eigenvalues --    0.04879   0.05117   0.05125   0.06425   0.07304
 Alpha virt. eigenvalues --    0.07603   0.07726   0.08257   0.08447   0.09482
 Alpha virt. eigenvalues --    0.10741   0.10770   0.11465   0.11497   0.12054
 Alpha virt. eigenvalues --    0.13210   0.13421   0.14412   0.14651   0.15069
 Alpha virt. eigenvalues --    0.15870   0.16353   0.16728   0.16932   0.17090
 Alpha virt. eigenvalues --    0.17746   0.18255   0.18798   0.19310   0.19596
 Alpha virt. eigenvalues --    0.20560   0.20691   0.20695   0.21387   0.21720
 Alpha virt. eigenvalues --    0.22164   0.22248   0.22254   0.22941   0.23566
 Alpha virt. eigenvalues --    0.24260   0.24786   0.25605   0.26248   0.26889
 Alpha virt. eigenvalues --    0.26992   0.27385   0.27558   0.28118   0.28624
 Alpha virt. eigenvalues --    0.29158   0.29581   0.29747   0.30469   0.31719
 Alpha virt. eigenvalues --    0.32387   0.33667   0.33788   0.34741   0.35424
 Alpha virt. eigenvalues --    0.36645   0.38117   0.39270   0.40927   0.42166
 Alpha virt. eigenvalues --    0.42707   0.44260   0.44310   0.46352   0.47515
 Alpha virt. eigenvalues --    0.49075   0.49760   0.50386   0.53687   0.54219
 Alpha virt. eigenvalues --    0.54694   0.55290   0.55754   0.56149   0.56686
 Alpha virt. eigenvalues --    0.57849   0.59352   0.59747   0.60329   0.60906
 Alpha virt. eigenvalues --    0.61415   0.62383   0.63228   0.64619   0.66059
 Alpha virt. eigenvalues --    0.66314   0.66328   0.67165   0.68245   0.68384
 Alpha virt. eigenvalues --    0.71019   0.72006   0.72549   0.73004   0.73283
 Alpha virt. eigenvalues --    0.74130   0.75970   0.77036   0.78489   0.80109
 Alpha virt. eigenvalues --    0.81723   0.84280   0.85540   0.87929   0.89238
 Alpha virt. eigenvalues --    0.89491   0.90226   0.91060   0.92513   0.92832
 Alpha virt. eigenvalues --    0.93309   0.95503   0.95651   0.97713   0.98898
 Alpha virt. eigenvalues --    0.99359   1.00773   1.00843   1.01921   1.02925
 Alpha virt. eigenvalues --    1.04531   1.06053   1.06812   1.06856   1.09371
 Alpha virt. eigenvalues --    1.10714   1.12016   1.12361   1.13480   1.14953
 Alpha virt. eigenvalues --    1.16182   1.25696   1.26021   1.27994   1.29805
 Alpha virt. eigenvalues --    1.32144   1.36144   1.40513   1.41696   1.42662
 Alpha virt. eigenvalues --    1.44669   1.45587   1.47484   1.49545   1.50459
 Alpha virt. eigenvalues --    1.50731   1.53145   1.54565   1.54888   1.56167
 Alpha virt. eigenvalues --    1.57558   1.57747   1.58350   1.59772   1.59784
 Alpha virt. eigenvalues --    1.60277   1.63362   1.65911   1.67346   1.67775
 Alpha virt. eigenvalues --    1.68268   1.69018   1.71614   1.72324   1.73556
 Alpha virt. eigenvalues --    1.75613   1.76047   1.77909   1.80059   1.80629
 Alpha virt. eigenvalues --    1.85113   1.87126   1.88479   1.89283   1.90054
 Alpha virt. eigenvalues --    1.92024   1.93173   1.94654   1.98087   1.98865
 Alpha virt. eigenvalues --    2.00067   2.01182   2.02232   2.04995   2.07496
 Alpha virt. eigenvalues --    2.08900   2.09007   2.09335   2.12779   2.12881
 Alpha virt. eigenvalues --    2.15651   2.16024   2.18122   2.19961   2.22012
 Alpha virt. eigenvalues --    2.29155   2.32582   2.33586   2.36426   2.37870
 Alpha virt. eigenvalues --    2.42406   2.43603   2.45441   2.46505   2.46888
 Alpha virt. eigenvalues --    2.48600   2.50228   2.52134   2.53749   2.55890
 Alpha virt. eigenvalues --    2.56740   2.58339   2.62358   2.62462   2.64817
 Alpha virt. eigenvalues --    2.65864   2.66426   2.70317   2.71328   2.72277
 Alpha virt. eigenvalues --    2.72830   2.73234   2.75943   2.76240   2.77327
 Alpha virt. eigenvalues --    2.77612   2.79583   2.80577   2.82790   2.85267
 Alpha virt. eigenvalues --    2.86597   2.90093   2.92556   2.93608   2.95982
 Alpha virt. eigenvalues --    2.99022   3.01294   3.02077   3.04132   3.07948
 Alpha virt. eigenvalues --    3.10804   3.12039   3.17513   3.19927   3.24044
 Alpha virt. eigenvalues --    3.26479   3.32060   3.38474   3.39599   3.40754
 Alpha virt. eigenvalues --    3.45803   3.50988   3.52596   3.59348   3.63045
 Alpha virt. eigenvalues --    3.67341   3.76602   3.78320   3.81505   3.85973
 Alpha virt. eigenvalues --    3.93555   3.96536   3.97667   4.05926   4.10071
 Alpha virt. eigenvalues --    4.10564   4.18951   4.20323   4.26195   4.48769
 Alpha virt. eigenvalues --    4.55513   4.84163   5.01642   5.27691   5.39007
 Alpha virt. eigenvalues --    5.79004  23.60613  23.82251  23.90392  23.90764
 Alpha virt. eigenvalues --   23.92819  23.98110  23.99482  24.00610  24.10756
 Alpha virt. eigenvalues --   24.16465  24.17780  35.71471  49.95726
          Condensed to atoms (all electrons):
               1          2          3          4          5          6
     1  C    7.857449   0.280266  -0.912294  -0.819651  -1.088818  -0.097525
     2  C    0.280266   9.034267  -0.360833  -1.701528   1.763736  -1.602139
     3  C   -0.912294  -0.360833  14.543638  -4.908044  -0.888738  -1.238993
     4  C   -0.819651  -1.701528  -4.908044  14.640738  -2.997241   0.417680
     5  C   -1.088818   1.763736  -0.888738  -2.997241  11.612115  -0.144355
     6  C   -0.097525  -1.602139  -1.238993   0.417680  -0.144355   9.251282
     7  H    0.396101  -0.052807   0.051086   0.025703  -0.043222  -0.016776
     8  H   -0.006147   0.313925   0.043873   0.015973  -0.032205   0.009722
     9  C    0.196010  -0.677250   1.389011  -0.411132  -1.472787  -0.360304
    10  H    0.014144  -0.035456  -0.009932  -0.018093   0.299165   0.070650
    11  C    0.285321   1.168049  -0.573454  -1.262412   1.325846  -0.263582
    12  C   -0.431887  -1.372136   0.819636   0.871289  -1.506201   0.060727
    13  H    0.001336   0.005356  -0.022624  -0.087745   0.058676   0.013187
    14  H   -0.000069  -0.001332  -0.016996   0.038587  -0.003377   0.002926
    15  N    0.140441   0.013261  -0.410561   0.379128   0.122741   0.074497
    16  C   -0.089144  -0.405756   0.040024   0.006473  -0.234123  -0.015577
    17  H    0.000238   0.003040   0.005955  -0.006679  -0.000172  -0.000101
    18  H    0.000244   0.003087   0.005946  -0.006960  -0.000171  -0.000106
    19  H   -0.000351  -0.018090  -0.004380   0.015155  -0.000080   0.000937
    20  O    0.142779   0.076391  -0.012781  -0.068595  -0.369904   0.123210
    21  C   -0.191821  -0.040825  -0.041239  -0.067878   0.105953   0.028940
    22  H   -0.001640   0.013973  -0.008000  -0.007392   0.034862  -0.052206
    23  H   -0.012324  -0.004797   0.003526   0.006722  -0.008161   0.058432
    24  H   -0.001496   0.013851  -0.007966  -0.007435   0.034600  -0.051989
               7          8          9         10         11         12
     1  C    0.396101  -0.006147   0.196010   0.014144   0.285321  -0.431887
     2  C   -0.052807   0.313925  -0.677250  -0.035456   1.168049  -1.372136
     3  C    0.051086   0.043873   1.389011  -0.009932  -0.573454   0.819636
     4  C    0.025703   0.015973  -0.411132  -0.018093  -1.262412   0.871289
     5  C   -0.043222  -0.032205  -1.472787   0.299165   1.325846  -1.506201
     6  C   -0.016776   0.009722  -0.360304   0.070650  -0.263582   0.060727
     7  H    0.541448  -0.007409   0.000232  -0.000158  -0.001316   0.005646
     8  H   -0.007409   0.520816   0.008877   0.000049  -0.004606   0.012629
     9  C    0.000232   0.008877   7.754536   0.024619  -1.922555   1.081139
    10  H   -0.000158   0.000049   0.024619   0.536260  -0.002212   0.007908
    11  C   -0.001316  -0.004606  -1.922555  -0.002212  10.112907  -2.039134
    12  C    0.005646   0.012629   1.081139   0.007908  -2.039134   8.108956
    13  H   -0.000003   0.000012   0.344377   0.002199   0.048095  -0.025086
    14  H    0.000000  -0.000004  -0.045211  -0.000012   0.359016  -0.012914
    15  N   -0.000545  -0.008317  -0.255292   0.000263   0.384929   0.079300
    16  C    0.000212   0.002183   0.498172   0.000138  -1.316960   0.370556
    17  H    0.000000   0.000005  -0.006341   0.000000  -0.004126  -0.024713
    18  H    0.000000   0.000005  -0.005712   0.000000  -0.003350  -0.027125
    19  H    0.000000  -0.000011   0.021050   0.000000  -0.008096  -0.039907
    20  O   -0.019239  -0.000413   0.022574  -0.006137   0.001365   0.000950
    21  C   -0.003014   0.000813  -0.000986  -0.001627   0.004613  -0.007400
    22  H   -0.000526   0.000027   0.000681   0.000071   0.000281  -0.000339
    23  H    0.000445  -0.000003  -0.000571  -0.000052  -0.000116   0.000131
    24  H   -0.000518   0.000027   0.000676   0.000071   0.000279  -0.000337
              13         14         15         16         17         18
     1  C    0.001336  -0.000069   0.140441  -0.089144   0.000238   0.000244
     2  C    0.005356  -0.001332   0.013261  -0.405756   0.003040   0.003087
     3  C   -0.022624  -0.016996  -0.410561   0.040024   0.005955   0.005946
     4  C   -0.087745   0.038587   0.379128   0.006473  -0.006679  -0.006960
     5  C    0.058676  -0.003377   0.122741  -0.234123  -0.000172  -0.000171
     6  C    0.013187   0.002926   0.074497  -0.015577  -0.000101  -0.000106
     7  H   -0.000003   0.000000  -0.000545   0.000212   0.000000   0.000000
     8  H    0.000012  -0.000004  -0.008317   0.002183   0.000005   0.000005
     9  C    0.344377  -0.045211  -0.255292   0.498172  -0.006341  -0.005712
    10  H    0.002199  -0.000012   0.000263   0.000138   0.000000   0.000000
    11  C    0.048095   0.359016   0.384929  -1.316960  -0.004126  -0.003350
    12  C   -0.025086  -0.012914   0.079300   0.370556  -0.024713  -0.027125
    13  H    0.545004  -0.008641   0.002013  -0.000428  -0.000011  -0.000011
    14  H   -0.008641   0.537846   0.004314   0.018631  -0.000382  -0.000392
    15  N    0.002013   0.004314   6.860622  -0.472233   0.011840   0.011956
    16  C   -0.000428   0.018631  -0.472233   6.744657   0.384263   0.385388
    17  H   -0.000011  -0.000382   0.011840   0.384263   0.542831  -0.038408
    18  H   -0.000011  -0.000392   0.011956   0.385388  -0.038408   0.543244
    19  H    0.000011   0.000320  -0.014163   0.427424  -0.022023  -0.022095
    20  O   -0.000137  -0.000002   0.001056   0.000073   0.000000   0.000000
    21  C   -0.000066   0.000007  -0.000003  -0.000501  -0.000001  -0.000001
    22  H    0.000000   0.000000  -0.000004  -0.000011   0.000000   0.000000
    23  H    0.000000   0.000000   0.000006   0.000002   0.000000   0.000000
    24  H    0.000000   0.000000  -0.000004  -0.000011   0.000000   0.000000
              19         20         21         22         23         24
     1  C   -0.000351   0.142779  -0.191821  -0.001640  -0.012324  -0.001496
     2  C   -0.018090   0.076391  -0.040825   0.013973  -0.004797   0.013851
     3  C   -0.004380  -0.012781  -0.041239  -0.008000   0.003526  -0.007966
     4  C    0.015155  -0.068595  -0.067878  -0.007392   0.006722  -0.007435
     5  C   -0.000080  -0.369904   0.105953   0.034862  -0.008161   0.034600
     6  C    0.000937   0.123210   0.028940  -0.052206   0.058432  -0.051989
     7  H    0.000000  -0.019239  -0.003014  -0.000526   0.000445  -0.000518
     8  H   -0.000011  -0.000413   0.000813   0.000027  -0.000003   0.000027
     9  C    0.021050   0.022574  -0.000986   0.000681  -0.000571   0.000676
    10  H    0.000000  -0.006137  -0.001627   0.000071  -0.000052   0.000071
    11  C   -0.008096   0.001365   0.004613   0.000281  -0.000116   0.000279
    12  C   -0.039907   0.000950  -0.007400  -0.000339   0.000131  -0.000337
    13  H    0.000011  -0.000137  -0.000066   0.000000   0.000000   0.000000
    14  H    0.000320  -0.000002   0.000007   0.000000   0.000000   0.000000
    15  N   -0.014163   0.001056  -0.000003  -0.000004   0.000006  -0.000004
    16  C    0.427424   0.000073  -0.000501  -0.000011   0.000002  -0.000011
    17  H   -0.022023   0.000000  -0.000001   0.000000   0.000000   0.000000
    18  H   -0.022095   0.000000  -0.000001   0.000000   0.000000   0.000000
    19  H    0.503566   0.000000   0.000001   0.000000   0.000000   0.000000
    20  O    0.000000   8.233232   0.190441  -0.029438  -0.070635  -0.029443
    21  C    0.000001   0.190441   5.036927   0.419159   0.394233   0.419153
    22  H    0.000000  -0.029438   0.419159   0.563630  -0.027306  -0.053242
    23  H    0.000000  -0.070635   0.394233  -0.027306   0.527825  -0.027307
    24  H    0.000000  -0.029443   0.419153  -0.053242  -0.027307   0.563746
 Mulliken charges:
               1
     1  C    0.338834
     2  C   -0.416252
     3  C   -1.485860
     4  C    1.953335
     5  C   -0.568139
     6  C   -0.268540
     7  H    0.124658
     8  H    0.130175
     9  C   -0.183815
    10  H    0.118143
    11  C   -0.288783
    12  C    0.068311
    13  H    0.124482
    14  H    0.127685
    15  N    0.074755
    16  C   -0.343451
    17  H    0.154784
    18  H    0.154459
    19  H    0.160732
    20  O   -0.185347
    21  C   -0.244880
    22  H    0.147418
    23  H    0.159951
    24  H    0.147345
 Sum of Mulliken charges =   0.00000
 Mulliken charges with hydrogens summed into heavy atoms:
               1
     1  C    0.463492
     2  C   -0.286077
     3  C   -1.485860
     4  C    1.953335
     5  C   -0.449996
     6  C   -0.268540
     9  C   -0.059333
    11  C   -0.161098
    12  C    0.068311
    15  N    0.074755
    16  C    0.126523
    20  O   -0.185347
    21  C    0.209834
 Electronic spatial extent (au):  <R**2>=           2916.4674
 Charge=              0.0000 electrons
 Dipole moment (field-independent basis, Debye):
    X=              1.1650    Y=              0.5824    Z=              0.0006  Tot=              1.3025
 Quadrupole moment (field-independent basis, Debye-Ang):
   XX=            -61.4047   YY=            -74.3120   ZZ=            -80.4516
   XY=             -9.2677   XZ=             -0.0025   YZ=             -0.0010
 Traceless Quadrupole moment (field-independent basis, Debye-Ang):
   XX=             10.6514   YY=             -2.2559   ZZ=             -8.3955
   XY=             -9.2677   XZ=             -0.0025   YZ=             -0.0010
 Octapole moment (field-independent basis, Debye-Ang**2):
  XXX=             40.8838  YYY=              9.9473  ZZZ=              0.0027  XYY=              7.2581
  XXY=             -9.0924  XXZ=              0.0020  XZZ=              4.8974  YZZ=             -0.7453
  YYZ=             -0.0010  XYZ=              0.0012
 Hexadecapole moment (field-independent basis, Debye-Ang**3):
 XXXX=          -2827.3301 YYYY=           -581.2400 ZZZZ=           -104.6258 XXXY=            -67.9450
 XXXZ=             -0.0285 YYYX=            -16.5989 YYYZ=              0.0108 ZZZX=             -0.0374
 ZZZY=             -0.0036 XXYY=           -649.0838 XXZZ=           -565.6619 YYZZ=           -133.2708
 XXYZ=             -0.0228 YYXZ=              0.0236 ZZXY=              3.6872
 N-N= 7.308869201869D+02 E-N=-2.755164074699D+03  KE= 5.535236375535D+02
 There are a total of      199118 grid points.
 ElSum from          density=       92.0005678733
 ElSum from atomic densities=       92.0013578724

 Hirshfeld populations at iteration   1 (CX, CA, CB, DipXYZ):
               1          2          3          4          5          6
     1  C    0.000000   3.031545   3.031545   0.054086  -0.017017   0.000007
     2  C    0.000000   3.019859   3.019859  -0.034000  -0.047389  -0.000010
     3  C    0.000000   2.977761   2.977761  -0.037928   0.011074   0.000035
     4  C    0.000000   3.004235   3.004235  -0.008318   0.001356  -0.000015
     5  C    0.000000   3.032854   3.032854  -0.009612   0.053562   0.000004
     6  C    0.000000   2.964195   2.964195   0.145104   0.005866  -0.000014
     7  H    0.000001   0.476796   0.476796   0.101393  -0.122000   0.000060
     8  H    0.000002   0.474099   0.474099  -0.024504  -0.155196  -0.000004
     9  C    0.000000   3.015387   3.015387   0.049806   0.061848   0.000001
    10  H    0.000002   0.474612   0.474612   0.034537   0.157186  -0.000011
    11  C    0.000000   3.026931   3.026931  -0.070918   0.005927   0.000006
    12  C    0.000000   2.963718   2.963718  -0.044630  -0.001634   0.000006
    13  H    0.000001   0.473407   0.473407   0.027441   0.157384   0.000023
    14  H    0.000001   0.475614   0.475614  -0.121855   0.103446   0.000011
    15  N    0.000001   3.597686   3.597686   0.057653   0.172875   0.000020
    16  C    0.000000   3.049029   3.049029   0.010350   0.005916  -0.000007
    17  H    0.000001   0.479063   0.479063  -0.076278   0.044890   0.120765
    18  H    0.000001   0.479081   0.479081  -0.076551   0.045593  -0.120307
    19  H    0.000001   0.477903   0.477903  -0.015611  -0.145302  -0.000418
    20  O    0.000001   4.072440   4.072440  -0.017647  -0.160486  -0.000018
    21  C    0.000000   3.004402   3.004402  -0.043457   0.041460   0.000013
    22  H    0.000001   0.478416   0.478416   0.012850  -0.084091  -0.120330
    23  H    0.000001   0.472836   0.472836   0.138770   0.081461   0.000048
    24  H    0.000001   0.478415   0.478415   0.012837  -0.084196   0.120246
       Tot   0.000016  46.000284  46.000284   0.063517   0.132529   0.000110

 Dip from Atomic Chgs              0.394485   0.096869   0.000127
         Total Dipole              0.458002   0.229398   0.000237

 Hirshfeld charges, spin densities, dipoles, and CM5 charges using IRadAn=      4:
              Q-H        S-H        Dx         Dy         Dz        Q-CM5   
     1  C   -0.063090   0.000000   0.054086  -0.017017   0.000007  -0.114902
     2  C   -0.039717   0.000000  -0.034000  -0.047389  -0.000010  -0.086444
     3  C    0.044478   0.000000  -0.037928   0.011074   0.000035   0.110576
     4  C   -0.008471   0.000000  -0.008318   0.001356  -0.000015  -0.010583
     5  C   -0.065708   0.000000  -0.009612   0.053562   0.000004  -0.112809
     6  C    0.071610   0.000000   0.145104   0.005866  -0.000014   0.087571
     7  H    0.046408   0.000000   0.101393  -0.122000   0.000060   0.105903
     8  H    0.051801   0.000000  -0.024504  -0.155196  -0.000004   0.111478
     9  C   -0.030775   0.000000   0.049806   0.061848   0.000001  -0.081569
    10  H    0.050776   0.000000   0.034537   0.157186  -0.000011   0.110814
    11  C   -0.053862   0.000000  -0.070918   0.005927   0.000006  -0.101861
    12  C    0.072564   0.000000  -0.044630  -0.001634   0.000006   0.138182
    13  H    0.053185   0.000000   0.027441   0.157384   0.000023   0.109668
    14  H    0.048772   0.000000  -0.121855   0.103446   0.000011   0.105627
    15  N   -0.195371   0.000000   0.057653   0.172875   0.000020  -0.379204
    16  C   -0.098058   0.000000   0.010350   0.005916  -0.000007  -0.235976
    17  H    0.041875   0.000000  -0.076278   0.044890   0.120765   0.094056
    18  H    0.041837   0.000000  -0.076551   0.045593  -0.120307   0.094020
    19  H    0.044195   0.000000  -0.015611  -0.145302  -0.000418   0.100469
    20  O   -0.144879   0.000000  -0.017647  -0.160486  -0.000018  -0.233890
    21  C   -0.008803   0.000000  -0.043457   0.041460   0.000013  -0.130762
    22  H    0.043168   0.000000   0.012850  -0.084091  -0.120330   0.102069
    23  H    0.054327   0.000000   0.138770   0.081461   0.000048   0.114934
    24  H    0.043169   0.000000   0.012837  -0.084196   0.120246   0.102065
       Tot  -0.000568   0.000000   0.063517   0.132529   0.000110  -0.000568
 Hirshfeld charges with hydrogens summed into heavy atoms:
              Q-H       Q-CM5   
     1  C   -0.016681  -0.008999
     2  C    0.012084   0.025033
     3  C    0.044478   0.110576
     4  C   -0.008471  -0.010583
     5  C   -0.014932  -0.001995
     6  C    0.071610   0.087571
     9  C    0.022411   0.028099
    11  C   -0.005090   0.003766
    12  C    0.072564   0.138182
    15  N   -0.195371  -0.379204
    16  C    0.029848   0.052570
    20  O   -0.144879  -0.233890
    21  C    0.131861   0.188306
 
 EQQ= 0.000000000000E+00 EQD= 0.000000000000E+00 EDD= 0.328756312814E-02
 EQQ+QD+DD= 0.328756312814E-02
 
          MBS Condensed to atoms (all electrons):
               1          2          3          4          5          6
     1  C    4.877301   0.525234  -0.029640  -0.008469  -0.033796   0.471054
     2  C    0.525234   4.827618   0.480793  -0.036230  -0.009524  -0.027416
     3  C   -0.029640   0.480793   4.699867   0.463520  -0.028197  -0.010029
     4  C   -0.008469  -0.036230   0.463520   4.773373   0.484607  -0.027617
     5  C   -0.033796  -0.009524  -0.028197   0.484607   4.869644   0.517339
     6  C    0.471054  -0.027416  -0.010029  -0.027617   0.517339   4.664897
     7  H    0.389258  -0.024833   0.001502   0.000044   0.001308  -0.025371
     8  H   -0.023674   0.385945  -0.026065   0.001521   0.000018   0.001395
     9  C    0.000029   0.000977  -0.030278   0.469160  -0.028311   0.000820
    10  H    0.001460   0.000028   0.001282  -0.023056   0.385305  -0.025860
    11  C    0.000002   0.000016  -0.013563  -0.030848   0.000828  -0.000011
    12  C   -0.000021   0.001581  -0.044230  -0.012324   0.000059   0.000001
    13  H   -0.000001  -0.000025   0.001409  -0.025728  -0.003215   0.000013
    14  H    0.000000   0.000001   0.000091   0.001550  -0.000018   0.000000
    15  N    0.000629  -0.035398   0.410883  -0.023541   0.000563   0.000022
    16  C    0.000000  -0.000007   0.001757  -0.000004   0.000000   0.000000
    17  H    0.000000   0.000000  -0.000048   0.000004   0.000000   0.000000
    18  H    0.000000   0.000000  -0.000048   0.000004   0.000000   0.000000
    19  H    0.000000  -0.000005   0.000033   0.000002   0.000000   0.000000
    20  O   -0.019232   0.000314   0.000007   0.000369  -0.029247   0.312827
    21  C   -0.006974   0.000050   0.000000  -0.000018   0.001596  -0.034937
    22  H    0.000233  -0.000001  -0.000001   0.000001   0.000002  -0.002626
    23  H    0.000095  -0.000001   0.000000   0.000000  -0.000032   0.002290
    24  H    0.000229  -0.000001  -0.000001   0.000001   0.000002  -0.002631
               7          8          9         10         11         12
     1  C    0.389258  -0.023674   0.000029   0.001460   0.000002  -0.000021
     2  C   -0.024833   0.385945   0.000977   0.000028   0.000016   0.001581
     3  C    0.001502  -0.026065  -0.030278   0.001282  -0.013563  -0.044230
     4  C    0.000044   0.001521   0.469160  -0.023056  -0.030848  -0.012324
     5  C    0.001308   0.000018  -0.028311   0.385305   0.000828   0.000059
     6  C   -0.025371   0.001395   0.000820  -0.025860  -0.000011   0.000001
     7  H    0.553975  -0.004404   0.000000  -0.000048   0.000000   0.000000
     8  H   -0.004404   0.541530  -0.000027   0.000002   0.000002   0.000012
     9  C    0.000000  -0.000027   4.810268  -0.003565   0.537164  -0.029267
    10  H   -0.000048   0.000002  -0.003565   0.548105   0.000025  -0.000001
    11  C    0.000000   0.000002   0.537164   0.000025   4.872775   0.461893
    12  C    0.000000   0.000012  -0.029267  -0.000001   0.461893   4.689384
    13  H    0.000000   0.000001   0.387724   0.001349  -0.025076   0.001504
    14  H    0.000000   0.000000  -0.025309  -0.000002   0.387341  -0.024909
    15  N   -0.000012  -0.000354  -0.006636  -0.000012  -0.027878   0.470162
    16  C    0.000000  -0.000004   0.000824   0.000000  -0.033947   0.387426
    17  H    0.000000   0.000000   0.000009   0.000000  -0.001475  -0.021007
    18  H    0.000000   0.000000   0.000010   0.000000  -0.001491  -0.021010
    19  H    0.000000   0.000002  -0.000030   0.000000   0.001492  -0.022055
    20  O   -0.001461  -0.000005  -0.000001  -0.000658   0.000000   0.000000
    21  C   -0.000581   0.000000   0.000000   0.000020   0.000000   0.000000
    22  H   -0.000182   0.000002   0.000000   0.000003   0.000000   0.000000
    23  H    0.000005   0.000000   0.000000  -0.000008   0.000000   0.000000
    24  H   -0.000180   0.000002   0.000000   0.000003   0.000000   0.000000
              13         14         15         16         17         18
     1  C   -0.000001   0.000000   0.000629   0.000000   0.000000   0.000000
     2  C   -0.000025   0.000001  -0.035398  -0.000007   0.000000   0.000000
     3  C    0.001409   0.000091   0.410883   0.001757  -0.000048  -0.000048
     4  C   -0.025728   0.001550  -0.023541  -0.000004   0.000004   0.000004
     5  C   -0.003215  -0.000018   0.000563   0.000000   0.000000   0.000000
     6  C    0.000013   0.000000   0.000022   0.000000   0.000000   0.000000
     7  H    0.000000   0.000000  -0.000012   0.000000   0.000000   0.000000
     8  H    0.000001   0.000000  -0.000354  -0.000004   0.000000   0.000000
     9  C    0.387724  -0.025309  -0.006636   0.000824   0.000009   0.000010
    10  H    0.001349  -0.000002  -0.000012   0.000000   0.000000   0.000000
    11  C   -0.025076   0.387341  -0.027878  -0.033947  -0.001475  -0.001491
    12  C    0.001504  -0.024909   0.470162   0.387426  -0.021007  -0.021010
    13  H    0.555607  -0.004170  -0.000006  -0.000020   0.000000   0.000000
    14  H   -0.004170   0.558858   0.001032  -0.002172   0.000224   0.000227
    15  N   -0.000006   0.001032   6.626709  -0.036528   0.000644   0.000652
    16  C   -0.000020  -0.002172  -0.036528   4.827591   0.371390   0.371427
    17  H    0.000000   0.000224   0.000644   0.371390   0.594456  -0.022058
    18  H    0.000000   0.000227   0.000652   0.371427  -0.022058   0.594512
    19  H    0.000001   0.000019  -0.000564   0.375620  -0.020090  -0.020087
    20  O    0.000000   0.000000   0.000000   0.000000   0.000000   0.000000
    21  C    0.000000   0.000000   0.000000   0.000000   0.000000   0.000000
    22  H    0.000000   0.000000   0.000000   0.000000   0.000000   0.000000
    23  H    0.000000   0.000000   0.000000   0.000000   0.000000   0.000000
    24  H    0.000000   0.000000   0.000000   0.000000   0.000000   0.000000
              19         20         21         22         23         24
     1  C    0.000000  -0.019232  -0.006974   0.000233   0.000095   0.000229
     2  C   -0.000005   0.000314   0.000050  -0.000001  -0.000001  -0.000001
     3  C    0.000033   0.000007   0.000000  -0.000001   0.000000  -0.000001
     4  C    0.000002   0.000369  -0.000018   0.000001   0.000000   0.000001
     5  C    0.000000  -0.029247   0.001596   0.000002  -0.000032   0.000002
     6  C    0.000000   0.312827  -0.034937  -0.002626   0.002290  -0.002631
     7  H    0.000000  -0.001461  -0.000581  -0.000182   0.000005  -0.000180
     8  H    0.000002  -0.000005   0.000000   0.000002   0.000000   0.000002
     9  C   -0.000030  -0.000001   0.000000   0.000000   0.000000   0.000000
    10  H    0.000000  -0.000658   0.000020   0.000003  -0.000008   0.000003
    11  C    0.001492   0.000000   0.000000   0.000000   0.000000   0.000000
    12  C   -0.022055   0.000000   0.000000   0.000000   0.000000   0.000000
    13  H    0.000001   0.000000   0.000000   0.000000   0.000000   0.000000
    14  H    0.000019   0.000000   0.000000   0.000000   0.000000   0.000000
    15  N   -0.000564   0.000000   0.000000   0.000000   0.000000   0.000000
    16  C    0.375620   0.000000   0.000000   0.000000   0.000000   0.000000
    17  H   -0.020090   0.000000   0.000000   0.000000   0.000000   0.000000
    18  H   -0.020087   0.000000   0.000000   0.000000   0.000000   0.000000
    19  H    0.571207   0.000000   0.000000   0.000000   0.000000   0.000000
    20  O    0.000000   7.889282   0.276274  -0.017163  -0.020462  -0.017155
    21  C    0.000000   0.276274   4.718377   0.368832   0.379963   0.368820
    22  H    0.000000  -0.017163   0.368832   0.602181  -0.022812  -0.027190
    23  H    0.000000  -0.020462   0.379963  -0.022812   0.561917  -0.022811
    24  H    0.000000  -0.017155   0.368820  -0.027190  -0.022811   0.602220
 MBS Mulliken charges:
               1
     1  C   -0.143716
     2  C   -0.089117
     3  C    0.120956
     4  C   -0.006318
     5  C   -0.128929
     6  C    0.185840
     7  H    0.110980
     8  H    0.124103
     9  C   -0.083561
    10  H    0.115628
    11  C   -0.127248
    12  C    0.162801
    13  H    0.110634
    14  H    0.107236
    15  N   -0.380367
    16  C   -0.263352
    17  H    0.097950
    18  H    0.097862
    19  H    0.114456
    20  O   -0.373688
    21  C   -0.071421
    22  H    0.098722
    23  H    0.121856
    24  H    0.098694
 Sum of MBS Mulliken charges =   0.00000
 MBS Mulliken charges with hydrogens summed into heavy atoms:
               1
     1  C   -0.032735
     2  C    0.034986
     3  C    0.120956
     4  C   -0.006318
     5  C   -0.013301
     6  C    0.185840
     9  C    0.027073
    11  C   -0.020013
    12  C    0.162801
    15  N   -0.380367
    16  C    0.046916
    20  O   -0.373688
    21  C    0.247851
 Breneman (CHELPG) radii used.
 Generate Potential Derived Charges using the Breneman model, NDens= 1.
 Grid spacing= 0.300 Box extension= 2.800
 NStep X,Y,Z=   54     37     26   Total possible points=       51948
 Number of Points to Fit=   15466

 **********************************************************************

            Electrostatic Properties Using The SCF Density

 **********************************************************************

       Atomic Center    1 is at   1.753710 -1.172611  0.000225
       Atomic Center    2 is at   0.433553 -1.565083  0.000180
       Atomic Center    3 is at  -0.612376 -0.614489  0.000181
       Atomic Center    4 is at  -0.267365  0.771429  0.000121
       Atomic Center    5 is at   1.088663  1.158115  0.000109
       Atomic Center    6 is at   2.088530  0.204810  0.000092
       Atomic Center    7 is at   2.530645 -1.925450  0.000544
       Atomic Center    8 is at   0.165216 -2.614821  0.000162
       Atomic Center    9 is at  -1.344870  1.697475  0.000090
       Atomic Center   10 is at   1.360944  2.207577  0.000027
       Atomic Center   11 is at  -2.631367  1.233293 -0.000050
       Atomic Center   12 is at  -2.879564 -0.172663 -0.000181
       Atomic Center   13 is at  -1.135575  2.762459  0.000213
       Atomic Center   14 is at  -3.469298  1.921811 -0.000002
       Atomic Center   15 is at  -1.904862 -1.056385 -0.000221
       Atomic Center   16 is at  -4.297348 -0.684372 -0.000122
       Atomic Center   17 is at  -4.841542 -0.333168  0.882758
       Atomic Center   18 is at  -4.843622 -0.328062 -0.879617
       Atomic Center   19 is at  -4.296907 -1.773696 -0.003104
       Atomic Center   20 is at   3.372970  0.670615 -0.000053
       Atomic Center   21 is at   4.445895 -0.261839 -0.000302
       Atomic Center   22 is at   4.429896 -0.893157 -0.895186
       Atomic Center   23 is at   5.355978  0.335832  0.000046
       Atomic Center   24 is at   4.429773 -0.893948  0.894073
   15466 points will be used for fitting atomic charges
 Fitting point charges to electrostatic potential
 Charges from ESP fit, RMS=   0.00391 RRMS=   0.30707:
 ESP charges:
               1
     1  C   -0.213987
     2  C   -0.258498
     3  C    0.471756
     4  C    0.022671
     5  C   -0.374954
     6  C    0.415618
     7  H    0.140823
     8  H    0.145270
     9  C   -0.010074
    10  H    0.156536
    11  C   -0.390199
    12  C    0.588408
    13  H    0.103024
    14  H    0.141909
    15  N   -0.709640
    16  C   -0.208683
    17  H    0.044932
    18  H    0.044847
    19  H    0.064528
    20  O   -0.410830
    21  C    0.200890
    22  H   -0.001270
    23  H    0.038165
    24  H   -0.001242
 Sum of ESP charges =   0.00000
 ESP charges with hydrogens summed into heavy atoms:
               1
     1  C   -0.073164
     2  C   -0.113228
     3  C    0.471756
     4  C    0.022671
     5  C   -0.218418
     6  C    0.415618
     9  C    0.092949
    11  C   -0.248290
    12  C    0.588408
    15  N   -0.709640
    16  C   -0.054376
    20  O   -0.410830
    21  C    0.236544
 Charge=   0.00000 Dipole=     1.1758     0.5822     0.0010 Tot=     1.3121
 -----------------------------------------------------------------

              Electrostatic Properties (Atomic Units)

 -----------------------------------------------------------------
    Center     Electric         -------- Electric Field --------
               Potential          X             Y             Z
 -----------------------------------------------------------------
    1 Atom    -14.765450
    2 Atom    -14.771669
    3 Atom    -14.742824
    4 Atom    -14.758907
    5 Atom    -14.774736
    6 Atom    -14.706596
    7 Atom     -1.093726
    8 Atom     -1.106902
    9 Atom    -14.760029
   10 Atom     -1.100807
   11 Atom    -14.769174
   12 Atom    -14.734446
   13 Atom     -1.095070
   14 Atom     -1.098670
   15 Atom    -18.415904
   16 Atom    -14.781336
   17 Atom     -1.114207
   18 Atom     -1.114233
   19 Atom     -1.123263
   20 Atom    -22.333047
   21 Atom    -14.713072
   22 Atom     -1.099622
   23 Atom     -1.098924
   24 Atom     -1.099610
 -----------------------------------------------------------------
 ******************************Gaussian NBO Version 3.1******************************
             N A T U R A L   A T O M I C   O R B I T A L   A N D
          N A T U R A L   B O N D   O R B I T A L   A N A L Y S I S
 ******************************Gaussian NBO Version 3.1******************************
       /RESON  / : Allow strongly delocalized NBO set

 Analyzing the SCF density

 Job title: Title Card Required                                             

 Storage needed:    373816 in NPA ( 536867792 available)


 NATURAL POPULATIONS:  Natural atomic orbital occupancies 
                                                          
   NAO  Atom  No  lang   Type(AO)    Occupancy      Energy
 ----------------------------------------------------------
     1    C    1  S      Cor( 1S)     1.99907     -10.03885
     2    C    1  S      Val( 2S)     0.95045      -0.17024
     3    C    1  S      Ryd( 4S)     0.00122       0.89745
     4    C    1  S      Ryd( 3S)     0.00009       0.87871
     5    C    1  S      Ryd( 5S)     0.00002      22.95904
     6    C    1  px     Val( 2p)     1.14003      -0.06647
     7    C    1  px     Ryd( 4p)     0.00331       1.07821
     8    C    1  px     Ryd( 3p)     0.00042       0.51715
     9    C    1  px     Ryd( 5p)     0.00012       3.12783
    10    C    1  py     Val( 2p)     1.11085      -0.06169
    11    C    1  py     Ryd( 4p)     0.00439       0.99717
    12    C    1  py     Ryd( 3p)     0.00021       0.46578
    13    C    1  py     Ryd( 5p)     0.00010       3.11322
    14    C    1  pz     Val( 2p)     1.05446      -0.12250
    15    C    1  pz     Ryd( 4p)     0.00141       0.52236
    16    C    1  pz     Ryd( 3p)     0.00038       0.30603
    17    C    1  pz     Ryd( 5p)     0.00001       2.71501
    18    C    1  dxy    Ryd( 3d)     0.00068       2.51342
    19    C    1  dxz    Ryd( 3d)     0.00047       1.63630
    20    C    1  dyz    Ryd( 3d)     0.00050       1.64187
    21    C    1  dx2y2  Ryd( 3d)     0.00072       2.63435
    22    C    1  dz2    Ryd( 3d)     0.00042       2.10935

    23    C    2  S      Cor( 1S)     1.99910     -10.03163
    24    C    2  S      Val( 2S)     0.94720      -0.15857
    25    C    2  S      Ryd( 3S)     0.00164       1.00887
    26    C    2  S      Ryd( 4S)     0.00013       1.04468
    27    C    2  S      Ryd( 5S)     0.00001      22.60958
    28    C    2  px     Val( 2p)     1.05837      -0.04149
    29    C    2  px     Ryd( 4p)     0.00515       0.96612
    30    C    2  px     Ryd( 3p)     0.00065       0.40091
    31    C    2  px     Ryd( 5p)     0.00012       3.09185
    32    C    2  py     Val( 2p)     1.16971      -0.05655
    33    C    2  py     Ryd( 4p)     0.00617       1.17091
    34    C    2  py     Ryd( 3p)     0.00028       0.41003
    35    C    2  py     Ryd( 5p)     0.00011       2.97539
    36    C    2  pz     Val( 2p)     0.97067      -0.10842
    37    C    2  pz     Ryd( 4p)     0.00091       0.58183
    38    C    2  pz     Ryd( 3p)     0.00059       0.27053
    39    C    2  pz     Ryd( 5p)     0.00003       2.68465
    40    C    2  dxy    Ryd( 3d)     0.00075       2.59005
    41    C    2  dxz    Ryd( 3d)     0.00057       1.68254
    42    C    2  dyz    Ryd( 3d)     0.00039       1.61234
    43    C    2  dx2y2  Ryd( 3d)     0.00066       2.53092
    44    C    2  dz2    Ryd( 3d)     0.00046       2.11249

    45    C    3  S      Cor( 1S)     1.99894     -10.06405
    46    C    3  S      Val( 2S)     0.82737      -0.10322
    47    C    3  S      Ryd( 3S)     0.00145       0.93857
    48    C    3  S      Ryd( 4S)     0.00015       2.30269
    49    C    3  S      Ryd( 5S)     0.00002      21.15738
    50    C    3  px     Val( 2p)     0.95318      -0.03193
    51    C    3  px     Ryd( 4p)     0.00688       1.30082
    52    C    3  px     Ryd( 3p)     0.00050       0.63951
    53    C    3  px     Ryd( 5p)     0.00008       3.08553
    54    C    3  py     Val( 2p)     1.06087      -0.04524
    55    C    3  py     Ryd( 4p)     0.00772       1.27782
    56    C    3  py     Ryd( 3p)     0.00030       0.47620
    57    C    3  py     Ryd( 5p)     0.00011       2.99954
    58    C    3  pz     Val( 2p)     0.98595      -0.10552
    59    C    3  pz     Ryd( 4p)     0.00065       0.62094
    60    C    3  pz     Ryd( 3p)     0.00053       0.36602
    61    C    3  pz     Ryd( 5p)     0.00002       2.68343
    62    C    3  dxy    Ryd( 3d)     0.00160       2.62551
    63    C    3  dxz    Ryd( 3d)     0.00130       1.63553
    64    C    3  dyz    Ryd( 3d)     0.00050       1.65033
    65    C    3  dx2y2  Ryd( 3d)     0.00116       2.58081
    66    C    3  dz2    Ryd( 3d)     0.00044       2.10345

    67    C    4  S      Cor( 1S)     1.99898     -10.04114
    68    C    4  S      Val( 2S)     0.87373      -0.12278
    69    C    4  S      Ryd( 4S)     0.00094       0.81832
    70    C    4  S      Ryd( 3S)     0.00008       0.61751
    71    C    4  S      Ryd( 5S)     0.00002      23.18116
    72    C    4  px     Val( 2p)     1.09291      -0.06066
    73    C    4  px     Ryd( 4p)     0.00442       1.52776
    74    C    4  px     Ryd( 3p)     0.00021       0.77994
    75    C    4  px     Ryd( 5p)     0.00011       3.22539
    76    C    4  py     Val( 2p)     1.09315      -0.05893
    77    C    4  py     Ryd( 4p)     0.00509       1.30752
    78    C    4  py     Ryd( 3p)     0.00009       0.58637
    79    C    4  py     Ryd( 5p)     0.00011       3.21078
    80    C    4  pz     Val( 2p)     1.00605      -0.10790
    81    C    4  pz     Ryd( 4p)     0.00040       0.61862
    82    C    4  pz     Ryd( 3p)     0.00027       0.47826
    83    C    4  pz     Ryd( 5p)     0.00002       2.61478
    84    C    4  dxy    Ryd( 3d)     0.00067       2.60819
    85    C    4  dxz    Ryd( 3d)     0.00083       1.66772
    86    C    4  dyz    Ryd( 3d)     0.00041       1.64741
    87    C    4  dx2y2  Ryd( 3d)     0.00078       2.65639
    88    C    4  dz2    Ryd( 3d)     0.00038       2.14037

    89    C    5  S      Cor( 1S)     1.99900     -10.02663
    90    C    5  S      Val( 2S)     0.93450      -0.15206
    91    C    5  S      Ryd( 3S)     0.00150       1.05899
    92    C    5  S      Ryd( 4S)     0.00012       1.39528
    93    C    5  S      Ryd( 5S)     0.00001      22.20456
    94    C    5  px     Val( 2p)     1.05824      -0.04484
    95    C    5  px     Ryd( 4p)     0.00454       0.97122
    96    C    5  px     Ryd( 3p)     0.00024       0.67589
    97    C    5  px     Ryd( 5p)     0.00012       3.01114
    98    C    5  py     Val( 2p)     1.17304      -0.06741
    99    C    5  py     Ryd( 4p)     0.00533       1.23676
   100    C    5  py     Ryd( 3p)     0.00032       0.62284
   101    C    5  py     Ryd( 5p)     0.00008       2.82403
   102    C    5  pz     Val( 2p)     1.04703      -0.11200
   103    C    5  pz     Ryd( 4p)     0.00124       0.56291
   104    C    5  pz     Ryd( 3p)     0.00057       0.34562
   105    C    5  pz     Ryd( 5p)     0.00002       2.65168
   106    C    5  dxy    Ryd( 3d)     0.00080       2.64602
   107    C    5  dxz    Ryd( 3d)     0.00048       1.67673
   108    C    5  dyz    Ryd( 3d)     0.00053       1.62685
   109    C    5  dx2y2  Ryd( 3d)     0.00060       2.52387
   110    C    5  dz2    Ryd( 3d)     0.00049       2.14237

   111    C    6  S      Cor( 1S)     1.99878     -10.10878
   112    C    6  S      Val( 2S)     0.82558      -0.13176
   113    C    6  S      Ryd( 3S)     0.00090       0.93972
   114    C    6  S      Ryd( 4S)     0.00017       0.95078
   115    C    6  S      Ryd( 5S)     0.00002      22.51762
   116    C    6  px     Val( 2p)     0.79166      -0.03816
   117    C    6  px     Ryd( 4p)     0.00632       1.16577
   118    C    6  px     Ryd( 3p)     0.00030       0.71297
   119    C    6  px     Ryd( 5p)     0.00014       2.86761
   120    C    6  py     Val( 2p)     1.05534      -0.05960
   121    C    6  py     Ryd( 4p)     0.00646       1.21131
   122    C    6  py     Ryd( 3p)     0.00014       0.65160
   123    C    6  py     Ryd( 5p)     0.00013       2.69721
   124    C    6  pz     Val( 2p)     0.98293      -0.12155
   125    C    6  pz     Ryd( 4p)     0.00071       0.62550
   126    C    6  pz     Ryd( 3p)     0.00026       0.59001
   127    C    6  pz     Ryd( 5p)     0.00004       2.45814
   128    C    6  dxy    Ryd( 3d)     0.00161       2.63218
   129    C    6  dxz    Ryd( 3d)     0.00246       1.59884
   130    C    6  dyz    Ryd( 3d)     0.00077       1.64715
   131    C    6  dx2y2  Ryd( 3d)     0.00162       2.50799
   132    C    6  dz2    Ryd( 3d)     0.00058       2.06908

   133    H    7  S      Val( 1S)     0.78532       0.03895
   134    H    7  S      Ryd( 2S)     0.00088       0.77421
   135    H    7  S      Ryd( 3S)     0.00019       1.90208
   136    H    7  px     Ryd( 2p)     0.00026       2.39817
   137    H    7  py     Ryd( 2p)     0.00027       2.37935
   138    H    7  pz     Ryd( 2p)     0.00023       1.59554

   139    H    8  S      Val( 1S)     0.77889       0.05492
   140    H    8  S      Ryd( 2S)     0.00325       0.36419
   141    H    8  S      Ryd( 3S)     0.00025       2.32151
   142    H    8  px     Ryd( 2p)     0.00014       2.08970
   143    H    8  py     Ryd( 2p)     0.00041       2.68661
   144    H    8  pz     Ryd( 2p)     0.00016       1.61085

   145    C    9  S      Cor( 1S)     1.99908     -10.04185
   146    C    9  S      Val( 2S)     0.94221      -0.16385
   147    C    9  S      Ryd( 4S)     0.00169       0.93038
   148    C    9  S      Ryd( 3S)     0.00010       0.83240
   149    C    9  S      Ryd( 5S)     0.00002      22.78941
   150    C    9  px     Val( 2p)     1.06514      -0.05262
   151    C    9  px     Ryd( 4p)     0.00410       0.90598
   152    C    9  px     Ryd( 3p)     0.00024       0.43985
   153    C    9  px     Ryd( 5p)     0.00011       3.08747
   154    C    9  py     Val( 2p)     1.16366      -0.06203
   155    C    9  py     Ryd( 4p)     0.00652       1.15322
   156    C    9  py     Ryd( 3p)     0.00020       0.39610
   157    C    9  py     Ryd( 5p)     0.00008       3.00158
   158    C    9  pz     Val( 2p)     0.95499      -0.11724
   159    C    9  pz     Ryd( 4p)     0.00056       0.58055
   160    C    9  pz     Ryd( 3p)     0.00050       0.28601
   161    C    9  pz     Ryd( 5p)     0.00003       2.64134
   162    C    9  dxy    Ryd( 3d)     0.00067       2.57978
   163    C    9  dxz    Ryd( 3d)     0.00064       1.66991
   164    C    9  dyz    Ryd( 3d)     0.00038       1.60802
   165    C    9  dx2y2  Ryd( 3d)     0.00078       2.51949
   166    C    9  dz2    Ryd( 3d)     0.00044       2.08853

   167    H   10  S      Val( 1S)     0.78051       0.04400
   168    H   10  S      Ryd( 2S)     0.00258       0.39014
   169    H   10  S      Ryd( 3S)     0.00025       2.34100
   170    H   10  px     Ryd( 2p)     0.00017       2.11586
   171    H   10  py     Ryd( 2p)     0.00040       2.70726
   172    H   10  pz     Ryd( 2p)     0.00017       1.61305

   173    C   11  S      Cor( 1S)     1.99905     -10.03450
   174    C   11  S      Val( 2S)     0.95490      -0.16671
   175    C   11  S      Ryd( 3S)     0.00151       0.80381
   176    C   11  S      Ryd( 4S)     0.00015       1.28835
   177    C   11  S      Ryd( 5S)     0.00001      22.54072
   178    C   11  px     Val( 2p)     1.13929      -0.06134
   179    C   11  px     Ryd( 4p)     0.00437       1.00502
   180    C   11  px     Ryd( 3p)     0.00027       0.43042
   181    C   11  px     Ryd( 5p)     0.00012       3.15663
   182    C   11  py     Val( 2p)     1.11140      -0.05952
   183    C   11  py     Ryd( 4p)     0.00496       0.88979
   184    C   11  py     Ryd( 3p)     0.00022       0.41989
   185    C   11  py     Ryd( 5p)     0.00008       3.10147
   186    C   11  pz     Val( 2p)     1.01794      -0.11865
   187    C   11  pz     Ryd( 4p)     0.00116       0.51635
   188    C   11  pz     Ryd( 3p)     0.00024       0.28510
   189    C   11  pz     Ryd( 5p)     0.00002       2.70916
   190    C   11  dxy    Ryd( 3d)     0.00075       2.50134
   191    C   11  dxz    Ryd( 3d)     0.00050       1.64335
   192    C   11  dyz    Ryd( 3d)     0.00031       1.63756
   193    C   11  dx2y2  Ryd( 3d)     0.00072       2.59180
   194    C   11  dz2    Ryd( 3d)     0.00039       2.06115

   195    C   12  S      Cor( 1S)     1.99916     -10.07837
   196    C   12  S      Val( 2S)     0.85447      -0.13361
   197    C   12  S      Ryd( 3S)     0.00167       0.74885
   198    C   12  S      Ryd( 4S)     0.00025       1.62680
   199    C   12  S      Ryd( 5S)     0.00002      22.11834
   200    C   12  px     Val( 2p)     0.98260      -0.04089
   201    C   12  px     Ryd( 4p)     0.00566       1.17803
   202    C   12  px     Ryd( 3p)     0.00048       0.62276
   203    C   12  px     Ryd( 5p)     0.00008       2.94778
   204    C   12  py     Val( 2p)     0.99902      -0.03020
   205    C   12  py     Ryd( 4p)     0.00910       0.94234
   206    C   12  py     Ryd( 3p)     0.00085       0.59498
   207    C   12  py     Ryd( 5p)     0.00012       2.91780
   208    C   12  pz     Val( 2p)     0.91284      -0.10561
   209    C   12  pz     Ryd( 4p)     0.00145       0.60065
   210    C   12  pz     Ryd( 3p)     0.00043       0.54271
   211    C   12  pz     Ryd( 5p)     0.00006       2.46862
   212    C   12  dxy    Ryd( 3d)     0.00123       2.55929
   213    C   12  dxz    Ryd( 3d)     0.00133       1.63453
   214    C   12  dyz    Ryd( 3d)     0.00079       1.66337
   215    C   12  dx2y2  Ryd( 3d)     0.00171       2.50646
   216    C   12  dz2    Ryd( 3d)     0.00037       2.03796

   217    H   13  S      Val( 1S)     0.79152       0.03817
   218    H   13  S      Ryd( 2S)     0.00180       0.35200
   219    H   13  S      Ryd( 3S)     0.00025       2.30903
   220    H   13  px     Ryd( 2p)     0.00012       2.03324
   221    H   13  py     Ryd( 2p)     0.00045       2.69465
   222    H   13  pz     Ryd( 2p)     0.00018       1.59527

   223    H   14  S      Val( 1S)     0.78905       0.03986
   224    H   14  S      Ryd( 2S)     0.00067       0.75563
   225    H   14  S      Ryd( 3S)     0.00019       1.93060
   226    H   14  px     Ryd( 2p)     0.00028       2.44218
   227    H   14  py     Ryd( 2p)     0.00025       2.29235
   228    H   14  pz     Ryd( 2p)     0.00018       1.59930

   229    N   15  S      Cor( 1S)     1.99931     -14.10689
   230    N   15  S      Val( 2S)     1.35671      -0.49291
   231    N   15  S      Ryd( 4S)     0.00301       1.42819
   232    N   15  S      Ryd( 3S)     0.00017       0.94075
   233    N   15  S      Ryd( 5S)     0.00000      35.34522
   234    N   15  px     Val( 2p)     1.22359      -0.15534
   235    N   15  px     Ryd( 4p)     0.00279       1.18789
   236    N   15  px     Ryd( 3p)     0.00027       1.01747
   237    N   15  px     Ryd( 5p)     0.00007       4.41400
   238    N   15  py     Val( 2p)     1.68054      -0.21458
   239    N   15  py     Ryd( 3p)     0.00798       0.70975
   240    N   15  py     Ryd( 4p)     0.00016       0.96887
   241    N   15  py     Ryd( 5p)     0.00005       3.92254
   242    N   15  pz     Val( 2p)     1.18051      -0.17304
   243    N   15  pz     Ryd( 3p)     0.00105       0.60407
   244    N   15  pz     Ryd( 4p)     0.00019       0.85633
   245    N   15  pz     Ryd( 5p)     0.00002       3.66227
   246    N   15  dxy    Ryd( 3d)     0.00159       3.04179
   247    N   15  dxz    Ryd( 3d)     0.00040       2.28757
   248    N   15  dyz    Ryd( 3d)     0.00157       2.17919
   249    N   15  dx2y2  Ryd( 3d)     0.00127       2.75337
   250    N   15  dz2    Ryd( 3d)     0.00082       2.62086

   251    C   16  S      Cor( 1S)     1.99930     -10.02219
   252    C   16  S      Val( 2S)     1.08863      -0.24587
   253    C   16  S      Ryd( 4S)     0.00048       0.79461
   254    C   16  S      Ryd( 3S)     0.00033       0.75095
   255    C   16  S      Ryd( 5S)     0.00000      23.35368
   256    C   16  px     Val( 2p)     1.09086      -0.08767
   257    C   16  px     Ryd( 4p)     0.00137       0.51625
   258    C   16  px     Ryd( 3p)     0.00025       0.18763
   259    C   16  px     Ryd( 5p)     0.00008       3.09911
   260    C   16  py     Val( 2p)     1.21375      -0.09432
   261    C   16  py     Ryd( 4p)     0.00314       0.57284
   262    C   16  py     Ryd( 3p)     0.00026       0.19830
   263    C   16  py     Ryd( 5p)     0.00003       3.15981
   264    C   16  pz     Val( 2p)     1.20209      -0.09510
   265    C   16  pz     Ryd( 4p)     0.00061       0.51583
   266    C   16  pz     Ryd( 3p)     0.00006       0.18841
   267    C   16  pz     Ryd( 5p)     0.00004       3.10409
   268    C   16  dxy    Ryd( 3d)     0.00042       2.03957
   269    C   16  dxz    Ryd( 3d)     0.00075       2.09645
   270    C   16  dyz    Ryd( 3d)     0.00046       1.89246
   271    C   16  dx2y2  Ryd( 3d)     0.00078       2.30000
   272    C   16  dz2    Ryd( 3d)     0.00062       2.13011

[...]
 10213910,-0.00049828,0.00067882,0.00000324,0.00028935,0.00055532,-0.00
 006257,-0.00004902,-0.00094387,-0.00177252,-0.00309834,-0.00033534,-0.
 00032989,0.00129247,0.00010194,0.00029967,-0.00041879,-0.00110874,-0.0
 0008018,-0.00008831,0.00005305,0.00000981,0.00005076,-0.00003044,-0.00
 002273,0.00339705,-0.00340915,0.00005859,-0.00009436,0.00008968,-0.000
 01930,0.00241356,0.00584418,-0.00052484,-0.15524802,0.05530621,-0.0120
 1058,0.00060298,-0.00052903,0.00014145,0.00026772,-0.00030725,0.000131
 98,-0.04476757,0.01187446,-0.00589218,0.50696167,-0.00000768,-0.000105
 18,-0.00000662,-0.00042495,0.00081307,-0.00005926,-0.00382597,-0.00067
 432,-0.00036096,0.00008444,-0.00005735,0.00000458,-0.00048206,0.000155
 73,-0.00007828,0.00042859,0.00005548,0.00006088,-0.00008696,0.00003791
 ,-0.00001424,0.00000987,-0.00003443,0.00000433,-0.00292718,-0.00490020
 ,-0.00030346,-0.00008042,0.00006202,-0.00001123,0.03005093,-0.01967565
 ,0.00439583,0.06288455,-0.13394798,0.00930195,0.00115622,-0.00070130,0
 .00016130,0.00070588,0.00103006,0.00007628,-0.01116400,0.01393834,-0.0
 0171591,0.04879812,0.56153906,0.00001128,0.00008700,-0.00057984,-0.000
 05106,0.00007439,0.00069261,-0.00173871,0.00003199,0.01279393,-0.00033
 484,-0.00005266,-0.00069500,0.00030652,0.00000136,-0.00087226,-0.00009
 820,-0.00014874,0.00025284,0.00001146,0.00000486,-0.00016334,-0.000023
 20,-0.00000117,0.00021694,0.00005298,-0.00036916,0.00327183,-0.0000173
 1,0.00001196,0.00003698,-0.00080866,0.00109508,0.00563673,-0.01209957,
 0.00826874,-0.07366766,0.00012169,-0.00006847,-0.00037154,0.00012008,-
 0.00006188,-0.00065662,-0.00562206,0.00142550,-0.00336006,-0.00330366,
 0.00624877,0.52646868,-0.00002937,0.00002373,0.00010143,-0.00002843,0.
 00022302,-0.00016263,-0.00044995,0.00027205,-0.00224181,0.00033539,-0.
 00007562,0.00015111,-0.00044490,0.00006196,0.00012264,0.00039619,-0.00
 000947,0.00002721,-0.00004180,0.00000505,0.00002773,0.00002657,-0.0000
 2125,-0.00002540,-0.00076050,0.00017770,-0.00075612,-0.00003017,0.0000
 3380,0.00000311,0.00104454,-0.00148797,-0.00099046,-0.01857793,-0.0056
 7481,0.01857080,-0.00002140,0.00003615,0.00010393,0.00022090,0.0003317
 8,0.00039889,-0.00337905,0.00228790,0.00099676,-0.15472080,-0.03209337
 ,0.12553721,0.17155633,0.00023184,-0.00047316,-0.00003708,-0.00049421,
 -0.00020401,0.00006653,0.00105894,-0.00010059,0.00115617,0.00066048,0.
 00056002,-0.00000997,-0.00026074,0.00007193,-0.00002148,0.00006732,0.0
 0049721,0.00004547,0.00002469,-0.00001035,-0.00002493,-0.00000079,0.00
 000766,0.00003322,-0.00103472,0.00040410,0.00001557,0.00000537,-0.0000
 2196,0.00000928,0.00068763,-0.00072059,0.00088144,0.01173289,0.0044363
 0,-0.01484842,-0.00003252,0.00000195,-0.00010943,-0.00012756,-0.000441
 97,-0.00005334,-0.00023783,-0.00060251,-0.00069050,-0.03131589,-0.0572
 5213,0.03584917,0.03340503,0.05670396,-0.00006285,0.00003262,0.0000273
 1,0.00005051,0.00002617,-0.00001890,-0.00036113,-0.00000940,-0.0007816
 0,-0.00025686,-0.00001520,-0.00002907,0.00017397,-0.00002175,0.0000304
 5,-0.00015195,-0.00005376,-0.00003685,-0.00000137,0.00000475,0.0000090
 3,-0.00000730,-0.00000616,-0.00001651,0.00019359,-0.00030731,0.0000967
 0,0.00000534,-0.00000414,-0.00000857,0.00025867,0.00044220,0.00068882,
 -0.00470137,-0.00160838,0.00496749,0.00003997,-0.00002199,0.00002955,-
 0.00000532,-0.00031040,-0.00022732,-0.00067570,0.00017626,0.00004396,0
 .12475658,0.03622695,-0.18043078,-0.13628859,-0.04066811,0.19618182,-0
 .00001460,0.00002755,-0.00011364,-0.00005741,0.00022486,0.00014638,-0.
 00114007,0.00031201,0.00213158,0.00028374,-0.00007751,-0.00006233,-0.0
 0033496,0.00004998,-0.00022536,0.00033315,-0.00002125,0.00007597,-0.00
 003128,0.00000531,-0.00003899,0.00001500,-0.00002135,0.00003456,-0.000
 84698,0.00010422,0.00049153,-0.00002632,0.00003128,-0.00000882,0.00082
 899,-0.00129615,0.00105779,-0.01330869,-0.00638431,-0.02345421,0.00001
 926,0.00002643,-0.00010709,0.00029059,0.00022834,-0.00026035,-0.003045
 19,0.00221597,-0.00190628,-0.09213689,-0.02343726,-0.10059084,0.010124
 46,0.00502344,0.01910045,0.10314967,0.00021313,-0.00047199,0.00010931,
 -0.00046011,-0.00020688,-0.00019189,0.00133870,-0.00012297,-0.00083638
 ,0.00064231,0.00056213,0.00017423,-0.00026196,0.00007225,-0.00005190,0
 .00008340,0.00049730,-0.00003686,0.00001695,-0.00000978,0.00003094,0.0
 0000848,0.00000696,-0.00003260,-0.00099905,0.00040799,-0.00029877,0.00
 000744,-0.00002195,-0.00000725,0.00088828,-0.00075274,-0.00063027,0.00
 737490,0.00483319,0.01740335,-0.00006165,0.00000499,0.00009669,-0.0001
 3598,-0.00043286,0.00002119,-0.00041041,-0.00058397,0.00061436,-0.0227
 7156,-0.05919487,-0.04684370,0.00310138,0.00079285,0.00606427,0.023693
 47,0.05888100,0.00004602,-0.00001407,0.00001136,-0.00005033,0.00003966
 ,0.00001296,0.00022965,0.00008190,-0.00006907,0.00032858,-0.00001905,0
 .00002046,-0.00026924,0.00003490,-0.00007981,0.00025301,0.00003762,0.0
 0002608,-0.00001025,-0.00000300,-0.00000205,0.00001587,-0.00000007,-0.
 00000424,-0.00043104,0.00033985,0.00017930,-0.00001044,0.00001329,-0.0
 0001243,-0.00024245,-0.00078557,0.00093655,-0.00054754,-0.00008645,-0.
 00069868,-0.00004129,0.00003062,-0.00001416,0.00015352,0.00039056,-0.0
 0030612,-0.00017342,0.00045012,-0.00030850,-0.09982720,-0.04741822,-0.
 24107203,-0.01038166,-0.00549569,-0.02160500,0.11003800,0.05252055,0.2
 6241158,-0.00008001,0.00018805,-0.00001545,0.00030829,-0.00000437,0.00
 005789,-0.00053851,-0.00006559,-0.00004179,0.00012231,-0.00019931,0.00
 000981,0.00007100,-0.00010749,0.00000881,-0.00010562,-0.00014494,-0.00
 001222,0.00001254,-0.00000351,-0.00000040,-0.00005413,-0.00001300,-0.0
 0000997,0.00066427,0.00136770,0.00002478,0.00002375,-0.00003048,0.0000
 0440,-0.00502018,0.00182578,-0.00093167,0.00668116,0.02893873,0.000765
 78,-0.00032150,0.00022848,-0.00001712,0.00002306,0.00014464,0.00003734
 ,0.00272258,-0.00023331,0.00042262,-0.06385390,-0.06927325,-0.00143876
 ,-0.00491214,-0.01959331,-0.00214873,-0.00382608,-0.01246082,0.0010894
 1,0.06808170,0.00016748,-0.00019764,0.00002535,-0.00025251,-0.00010579
 ,-0.00003455,0.00071750,0.00046039,0.00008977,-0.00004513,0.00037349,-
 0.00000974,-0.00001884,0.00018200,-0.00000452,-0.00002653,0.00023872,-
 0.00000646,0.00000716,-0.00000011,0.00000116,0.00003661,0.00001319,0.0
 0000507,-0.00096191,-0.00076789,-0.00011788,-0.00004310,0.00000695,-0.
 00000603,0.00408521,-0.00112596,0.00058966,-0.00502114,-0.01956409,-0.
 00047190,0.00027252,-0.00017548,0.00003669,-0.00009128,0.00036761,-0.0
 0001985,-0.00373309,0.00204169,-0.00053715,-0.06293821,-0.30133979,-0.
 00560269,-0.00080883,-0.00343446,0.00010420,-0.00089496,-0.00404862,-0
 .00022778,0.06942308,0.32717561,-0.00001521,0.00002816,0.00001472,0.00
 006080,-0.00000071,-0.00010758,-0.00005097,-0.00001700,-0.00023316,0.0
 0000801,-0.00003077,0.00006889,0.00000777,-0.00001661,0.00001687,-0.00
 001360,-0.00002261,-0.00000517,-0.00000052,-0.00000029,0.00001568,-0.0
 0001055,-0.00000169,0.00001867,0.00005209,0.00019978,0.00036974,0.0000
 0455,-0.00000431,-0.00000524,-0.00095817,0.00028157,0.00152156,0.00116
 413,0.00415866,-0.00131435,-0.00001765,0.00003069,-0.00021830,0.000040
 11,0.00001232,-0.00025791,0.00046365,-0.00005995,-0.00029272,-0.001513
 07,-0.00646649,-0.04747392,0.00486176,0.02388679,0.00105845,-0.0062770
 6,-0.02814876,0.00058655,0.00219525,0.00616828,0.04623719,-0.00704234,
 0.01412732,-0.00208580,-0.00155865,-0.00088727,-0.00089395,-0.00070361
 ,0.00338359,-0.00001376,0.00502872,-0.00910219,0.00009994,-0.06512424,
 0.02680993,-0.01027548,-0.21020366,0.09562223,-0.02433745,-0.00065639,
 0.00083327,0.00017387,-0.00029926,0.00020081,-0.00003404,-0.00280763,0
 .00195752,-0.00044517,0.00186555,0.00128851,0.00075286,0.00036478,-0.0
 0016531,0.00008666,0.00057987,0.00124181,0.00005225,0.00005312,-0.0001
 8179,0.00000148,-0.00044246,-0.00002044,-0.00005345,-0.00162574,-0.000
 16026,-0.00017163,-0.00048988,-0.00042094,-0.00005509,-0.00041646,0.00
 030409,0.00010962,-0.00037117,0.00029628,-0.00022657,-0.00000471,0.000
 19191,-0.00000245,0.53498887,0.04363894,-0.02675646,0.00634626,-0.0080
 6213,-0.00490208,-0.00098241,0.00348043,0.00041099,0.00045928,-0.00301
 642,-0.00259491,-0.00032130,-0.00638849,0.01973134,-0.00100935,0.05773
 458,-0.16590896,0.00934758,-0.00088648,0.00181471,-0.00016562,0.001700
 90,-0.00079910,0.00024051,-0.00150377,0.00037393,-0.00020603,0.0006538
 2,0.00095940,0.00003376,0.00000066,-0.00190000,0.00001936,0.00097674,0
 .00071331,0.00012587,0.00001013,0.00007645,0.00000116,0.00004445,0.000
 09654,0.00000436,-0.00097220,0.00094213,-0.00014774,0.00033066,0.00022
 440,0.00004187,0.00018125,-0.00018710,-0.00004556,0.00016187,-0.000185
 09,0.00009693,0.00001108,-0.00007744,0.00000238,-0.01524124,0.30946565
 ,-0.00243179,0.00232249,0.00668160,-0.00080971,-0.00000409,0.00496334,
 -0.00001500,0.00044598,-0.00090065,0.00002850,-0.00115114,0.00509487,-
 0.00988630,0.00351748,0.00654165,-0.02389439,0.01451402,-0.04336024,0.
 00019400,0.00006890,-0.00197754,-0.00005163,0.00003597,-0.00007428,-0.
 00040455,0.00026594,0.00023071,0.00076026,0.00012031,-0.00366397,0.000
 08469,-0.00000324,-0.00024506,0.00005532,0.00016196,0.00009565,-0.0000
 0077,-0.00002501,0.00005812,-0.00005422,-0.00000449,-0.00005603,-0.000
 16206,-0.00003703,-0.00037491,-0.00006391,-0.00006061,-0.00005764,-0.0
 0006224,0.00002930,0.00002457,-0.00005168,0.00005714,-0.00002271,-0.00
 000032,0.00002704,-0.00000364,0.06445976,-0.00495633,0.07243699,0.0053
 7472,-0.00107446,0.00087938,-0.00195157,-0.00211439,-0.00026042,0.0012
 3479,-0.00028606,0.00013423,-0.00166439,-0.00010451,-0.00051208,0.0035
 1005,0.00300614,0.00014231,-0.05020393,-0.00322795,-0.00593450,-0.0018
 5123,-0.00062296,-0.00026548,0.00046285,-0.00032433,0.00007432,0.00000
 498,-0.00009687,0.00003151,-0.00019086,-0.00032287,0.00009003,-0.00000
 341,-0.00068609,0.00003221,0.00015266,0.00022957,0.00001103,-0.0000733
 1,0.00002890,-0.00001876,0.00011811,0.00004235,0.00001076,-0.00017230,
 0.00005598,0.00002266,0.00019956,0.00014497,0.00002063,0.00015081,-0.0
 0011927,-0.00004032,0.00013221,-0.00011745,0.00008147,0.00000320,-0.00
 007939,0.00000050,-0.17565485,-0.04327564,-0.01563933,0.48466062,0.007
 01430,-0.00135451,0.00096088,-0.00077962,-0.00029388,-0.00010123,0.000
 86378,0.00032193,0.00011722,0.00074304,0.00085642,0.00011586,0.0034913
 3,-0.00357388,0.00054378,0.01720843,0.01516627,0.00209409,0.00199743,-
 0.00113815,0.00028747,0.00014443,-0.00014764,0.00002079,-0.00002681,-0
 .00043972,-0.00000105,0.00010756,0.00026597,0.00000190,0.00017265,-0.0
 0046153,0.00002684,0.00014157,0.00027134,0.00001673,-0.00004261,0.0000
 2386,-0.00000537,0.00009316,-0.00000573,0.00001319,-0.00014289,-0.0000
 3144,-0.00002314,0.00011553,0.00006459,0.00001541,0.00007139,-0.000063
 62,-0.00001414,0.00006496,-0.00006309,0.00003423,0.00000632,-0.0000446
 7,0.00000146,-0.07382082,-0.12425989,-0.00928227,-0.07290209,0.5723328
 8,0.00078471,-0.00014224,-0.00087347,-0.00027612,-0.00028324,0.0001055
 3,0.00012081,-0.00003953,0.00029189,-0.00052197,0.00000032,0.00202919,
 0.00013679,0.00047756,0.00222050,-0.00617351,-0.00069265,-0.00724160,-
 0.00029621,-0.00006986,0.00010974,0.00006883,-0.00004314,-0.00004441,0
 .00003066,-0.00001062,-0.00021339,0.00008499,-0.00005680,-0.00081129,0
 .00002215,-0.00009029,-0.00017651,0.00001208,0.00002876,0.00005329,-0.
 00001792,0.00000439,0.00005928,0.00001017,0.00000626,0.00003686,0.0000
 2496,0.00000398,-0.00033984,0.00002098,0.00001943,0.00003840,0.0000123
 4,-0.00001405,-0.00000552,0.00002443,-0.00001672,0.00001254,-0.0000005
 1,-0.00001023,0.00000644,-0.01528221,-0.00511705,-0.05927653,-0.009904
 26,-0.01004417,0.56231360,0.00041772,0.00048225,0.00004423,-0.00068631
 ,0.00029769,-0.00054523,0.00040692,0.00046291,0.00013902,0.00092259,-0
 .00053344,-0.00037388,-0.00193425,0.00011137,-0.00079470,0.00599291,-0
 .00398593,0.00257685,-0.00111375,0.00088514,0.00093038,-0.00004675,0.0
 0002302,0.00002848,-0.00041697,-0.00000175,0.00002571,0.00010635,0.000
 11904,0.00025260,0.00015012,-0.00026620,0.00004382,0.00016486,0.000306
 90,0.00000647,0.00000875,0.00000405,-0.00000318,-0.00000984,-0.0000042
 1,-0.00000589,-0.00030083,0.00004705,0.00005352,0.00000417,-0.00001557
 ,-0.00001083,-0.00001042,0.00000208,0.00000437,-0.00001619,0.00000458,
 -0.00000890,0.00000053,0.00000320,0.00000128,-0.02357590,-0.02413568,0
 .02250471,-0.05843860,-0.02160115,0.03608661,0.06993372,-0.00046831,0.
 00038422,-0.00039058,0.00035168,0.00008018,0.00025008,-0.00037010,-0.0
 0003117,0.00003579,0.00005573,-0.00002180,-0.00011933,-0.00050388,0.00
 015374,-0.00018498,0.00307334,-0.00137470,-0.00011157,0.00094788,-0.00
 019606,-0.00045646,-0.00002597,0.00004019,-0.00004374,0.00006796,0.000
 05811,0.00003305,0.00005021,0.00004742,0.00012311,-0.00005001,0.000177
 76,-0.00000929,-0.00007172,-0.00011332,-0.00002023,0.00001294,-0.00000
 888,0.00000304,-0.00002359,-0.00000308,-0.00000141,0.00009932,-0.00001
 908,-0.00003067,-0.00003772,-0.00002041,0.00000446,-0.00002330,0.00002
 180,0.00000496,-0.00002090,0.00001860,-0.00001257,-0.00000086,0.000013
 06,0.00000045,-0.01546235,-0.01078734,0.00891592,-0.02481118,-0.122537
 60,0.10973455,0.03681614,0.13427840,0.00079363,0.00107046,0.00024302,-
 0.00045634,-0.00045762,-0.00013084,0.00019834,0.00016959,-0.00005256,-
 0.00008216,-0.00001980,-0.00011167,0.00026577,-0.00028412,-0.00027112,
 -0.00091697,0.00075236,0.00071161,-0.00041995,-0.00058627,-0.00006977,
 0.00003973,-0.00001291,0.00002881,0.00001646,-0.00001855,0.00003953,-0
 .00006078,-0.00003659,0.00002479,-0.00003199,-0.00006411,-0.00000018,0
 .00003984,0.00001368,0.00001036,-0.00000989,-0.00000802,-0.00000749,0.
 00000596,-0.00000126,-0.00000451,-0.00013448,-0.00002644,0.00002807,0.
 00001004,0.00000854,-0.00000397,0.00000609,-0.00000936,-0.00000074,0.0
 0000490,-0.00000656,0.00000322,0.00000359,-0.00000475,-0.00000079,0.00
 221104,-0.00371448,0.01130024,0.04034105,0.11093660,-0.22115104,-0.045
 70720,-0.12279712,0.23097749,-0.00014403,-0.00090623,-0.00004695,0.000
 06854,0.00032517,-0.00002234,0.00007235,0.00000390,0.00002430,-0.00009
 103,-0.00051373,0.00000310,-0.00123504,0.00122002,-0.00021037,-0.00150
 610,-0.00452882,-0.00023890,0.00038143,0.00018299,0.00010948,-0.000049
 28,0.00002702,-0.00001344,-0.00009862,0.00016390,-0.00001090,-0.000006
 96,-0.00005285,-0.00000303,-0.00004837,-0.00001390,-0.00000596,0.00004
 366,-0.00000313,0.00000129,0.00000330,-0.00001367,0.00000020,-0.000027
 12,0.00000491,-0.00000492,-0.00005847,0.00002912,-0.00000396,-0.000018
 36,-0.00001146,-0.00000218,-0.00001596,0.00001020,0.00000484,-0.000014
 14,0.00001025,-0.00000906,0.00000069,0.00000839,-0.00000001,-0.0370880
 2,0.01947112,-0.00535527,-0.15545775,0.12816733,-0.01577725,0.00667285
 ,-0.00448583,-0.00017709,0.18697453,-0.00038949,-0.00112738,-0.0000366
 3,0.00007258,0.00049707,0.00000647,0.00011026,-0.00007324,0.00001465,0
 .00005270,-0.00021867,0.00000894,-0.00066266,0.00064377,-0.00009553,-0
 .00327147,-0.00089639,-0.00042822,0.00064732,0.00051857,0.00007706,-0.
 00003980,0.00000765,-0.00000497,-0.00015325,0.00003174,-0.00002165,0.0
 0001389,-0.00002329,0.00000239,0.00006188,-0.00010570,0.00000964,0.000
 02732,0.00010536,0.00000289,0.00000148,0.00000791,0.00000015,0.0000012
 8,0.00000571,0.00000021,0.00000952,0.00004451,0.00000040,0.00001464,0.
 00000379,0.00000194,0.00000603,-0.00000433,-0.00000220,0.00000522,-0.0
 0000428,0.00000382,-0.00000288,-0.00000391,-0.00000035,-0.01808263,0.0
 1457091,-0.00263060,0.14125658,-0.20707463,0.02109401,0.01017315,-0.01
 119554,0.00022761,-0.14008512,0.21592430,-0.00005300,-0.00010712,0.000
 27227,-0.00001939,0.00004091,0.00020126,0.00002307,0.00000015,-0.00010
 307,-0.00000354,-0.00006832,-0.00006920,-0.00018833,0.00016120,0.00017
 525,-0.00025346,-0.00059966,0.00060625,0.00010405,0.00001375,-0.000423
 10,-0.00001266,0.00000415,0.00004518,-0.00000720,0.00002159,-0.0000339
 7,-0.00000381,-0.00000670,0.00001932,-0.00000684,-0.00000070,-0.000004
 40,0.00000094,-0.00000125,0.00003460,0.00000002,-0.00000192,0.00000305
 ,-0.00000488,0.00000070,0.00000789,-0.00000373,0.00000308,-0.00003250,
 -0.00000248,-0.00000162,-0.00000171,-0.00000247,0.00000222,0.00000017,
 -0.00000164,0.00000066,-0.00000170,0.00000012,0.00000119,0.00000006,-0
 .00491555,0.00249058,-0.00018858,-0.01593055,0.01930906,-0.05317167,-0
 .01724364,0.01990922,-0.00129590,0.02076909,-0.02108561,0.04978697,0.0
 0062196,0.00075168,0.00004440,-0.00090309,0.00017494,0.00032579,0.0004
 6148,0.00048983,-0.00000803,0.00072931,-0.00050749,0.00062021,-0.00195
 304,0.00004534,0.00032702,0.00604038,-0.00368637,-0.00100826,-0.000902
 63,0.00067117,-0.00117667,-0.00002380,0.00001793,-0.00004339,-0.000373
 17,-0.00000854,-0.00014032,0.00015056,0.00009953,-0.00022049,0.0001413
 9,-0.00027356,0.00000208,0.00016644,0.00029926,0.00002982,0.00000426,0
 .00000187,0.00000639,-0.00000953,-0.00000427,0.00000460,-0.00029776,0.
 00003580,-0.00014484,0.00000323,-0.00001249,0.00001312,-0.00001590,0.0
 0000284,0.00000356,-0.00000710,-0.00000056,-0.00000614,0.00000170,0.00
 000183,-0.00000064,-0.01481595,-0.02491458,-0.02920407,-0.05034236,0.0
 0891277,0.01080946,0.00176831,0.00488053,0.00406038,0.00164190,0.01023
 345,0.01775589,0.05791340,-0.00057226,0.00036851,0.00024318,0.00041436
 ,0.00008692,-0.00014781,-0.00034975,-0.00003564,-0.00013520,0.00002666
 ,-0.00002010,0.00013028,-0.00054508,0.00016308,0.00003274,0.00296227,-
 0.00139118,0.00098096,0.00079742,-0.00016632,0.00069468,-0.00003777,0.
 00004147,0.00003450,0.00007265,0.00005797,-0.00001464,0.00008318,0.000
 04593,-0.00010598,-0.00004890,0.00017837,-0.00000835,-0.00007529,-0.00
 011237,0.00000298,0.00001354,-0.00000871,0.00000065,-0.00002325,-0.000
 00311,-0.00000502,0.00008935,-0.00001728,0.00005757,-0.00003540,-0.000
 02087,-0.00001403,-0.00002362,0.00001899,0.00000613,-0.00002120,0.0000
 2183,-0.00001159,-0.00000074,0.00001316,-0.00000101,-0.01271204,-0.011
 02137,-0.01232766,0.00540105,-0.12781329,-0.11473866,0.00080534,0.0110
 3549,0.01486911,0.00099040,-0.01163393,-0.02008556,0.00278908,0.140212
 44,-0.00067833,-0.00090765,0.00005459,0.00023342,0.00051986,0.00007914
 ,-0.00004774,-0.00004092,-0.00010264,0.00031535,-0.00012243,0.00007996
 ,-0.00071942,0.00029627,-0.00026167,0.00232514,-0.00175230,0.00068082,
 0.00017145,0.00079871,-0.00031073,-0.00005341,0.00001795,0.00000458,-0
 .00013285,0.00001639,-0.00000414,0.00009389,0.00006534,-0.00001795,0.0
 0007273,-0.00001366,0.00000796,0.00000528,0.00007178,0.00000783,0.0000
 1286,0.00000890,-0.00000317,-0.00000680,0.00000007,-0.00000480,0.00004
 191,0.00003891,0.00002318,-0.00000722,-0.00001196,-0.00000258,-0.00000
 963,0.00000721,0.00000254,-0.00000732,0.00000900,-0.00000409,-0.000002
 87,0.00000510,-0.00000205,-0.00915489,-0.00254402,0.00277403,0.0066336
 2,-0.11502415,-0.22397197,0.00199540,-0.01483668,-0.02026655,0.0009693
 1,0.00285556,0.00417355,-0.00204988,0.13054272,0.23706416\\-0.00000071
 ,0.00000221,-0.00000011,-0.00000140,0.00000086,-0.00000030,-0.00000060
 ,-0.00000038,-0.00000010,0.00000069,-0.00000041,0.00000012,0.00000148,
 0.00000084,0.00000029,0.00000080,0.00000211,0.00000023,-0.00000123,0.0
 0000306,-0.00000025,-0.00000251,0.00000080,-0.00000035,0.00000148,-0.0
 0000175,0.00000019,0.00000263,0.00000082,0.00000031,0.00000063,-0.0000
 0293,0.00000010,-0.00000091,-0.00000292,-0.00000014,0.00000255,-0.0000
 0182,0.00000035,0.00000112,-0.00000396,0.00000015,-0.00000141,-0.00000
 165,-0.00000016,-0.00000170,-0.00000417,-0.00000015,-0.00000146,-0.000
 00477,-0.00000011,-0.00000146,-0.00000475,-0.00000014,-0.00000282,-0.0
 0000383,-0.00000032,0.00000160,0.00000325,0.00000018,0.00000093,0.0000
 0459,0.00000002,0.00000023,0.00000470,0.,0.00000175,0.00000536,0.00000
 016,0.00000034,0.00000476,0.00000001\\\@


 HOW IS IT THAT THE SKY FEEDS THE STARS?

                           -- LUCRETIUS
 Job cpu time:       0 days  1 hours 35 minutes 19.8 seconds.
 File lengths (MBytes):  RWF=    332 Int=      0 D2E=      0 Chk=     11 Scr=      1
 Normal termination of Gaussian 09 at Tue Jan 10 09:42:06 2023.
