 Entering Gaussian System, Link 0=g09
 Initial command:
 /cm/shared/apps/gaussian/g09revD.01/g09/l1.exe "//home/sweav003/CHB/validation/G09-Traceless6_Smith.com.o9822904.tmp/Gau-44695.inp" -scrdir="//home/sweav003/CHB/validation/G09-Traceless6_Smith.com.o9822904.tmp/"
 Entering Link 1 = /cm/shared/apps/gaussian/g09revD.01/g09/l1.exe PID=     44696.
  
 Copyright (c) 1988,1990,1992,1993,1995,1998,2003,2009,2013,
            Gaussian, Inc.  All Rights Reserved.
  
 This is part of the Gaussian(R) 09 program.  It is based on
 the Gaussian(R) 03 system (copyright 2003, Gaussian, Inc.),
 the Gaussian(R) 98 system (copyright 1998, Gaussian, Inc.),
 the Gaussian(R) 94 system (copyright 1995, Gaussian, Inc.),
 the Gaussian 92(TM) system (copyright 1992, Gaussian, Inc.),
 the Gaussian 90(TM) system (copyright 1990, Gaussian, Inc.),
 the Gaussian 88(TM) system (copyright 1988, Gaussian, Inc.),
 the Gaussian 86(TM) system (copyright 1986, Carnegie Mellon
 University), and the Gaussian 82(TM) system (copyright 1983,
 Carnegie Mellon University). Gaussian is a federally registered
 trademark of Gaussian, Inc.
  
 This software contains proprietary and confidential information,
 including trade secrets, belonging to Gaussian, Inc.
  
 This software is provided under written license and may be
 used, copied, transmitted, or stored only in accord with that
 written license.
  
 The following legend is applicable only to US Government
 contracts under FAR:
  
                    RESTRICTED RIGHTS LEGEND
  
 Use, reproduction and disclosure by the US Government is
 subject to restrictions as set forth in subparagraphs (a)
 and (c) of the Commercial Computer Software - Restricted
 Rights clause in FAR 52.227-19.
  
 Gaussian, Inc.
 340 Quinnipiac St., Bldg. 40, Wallingford CT 06492
  
  
 ---------------------------------------------------------------
 Warning -- This program may not be used in any manner that
 competes with the business of Gaussian, Inc. or will provide
 assistance to any competitor of Gaussian, Inc.  The licensee
 of this program is prohibited from giving any competitor of
 Gaussian, Inc. access to this program.  By using this program,
 the user acknowledges that Gaussian, Inc. is engaged in the
 business of creating and licensing software in the field of
 computational chemistry and represents and warrants to the
 licensee that it is not a competitor of Gaussian, Inc. and that
 it will not use this program in any manner prohibited above.
 ---------------------------------------------------------------
  

 Cite this work as:
 Gaussian 09, Revision D.01,
 M. J. Frisch, G. W. Trucks, H. B. Schlegel, G. E. Scuseria, 
 M. A. Robb, J. R. Cheeseman, G. Scalmani, V. Barone, B. Mennucci, 
 G. A. Petersson, H. Nakatsuji, M. Caricato, X. Li, H. P. Hratchian, 
 A. F. Izmaylov, J. Bloino, G. Zheng, J. L. Sonnenberg, M. Hada, 
 M. Ehara, K. Toyota, R. Fukuda, J. Hasegawa, M. Ishida, T. Nakajima, 
 Y. Honda, O. Kitao, H. Nakai, T. Vreven, J. A. Montgomery, Jr., 
 J. E. Peralta, F. Ogliaro, M. Bearpark, J. J. Heyd, E. Brothers, 
 K. N. Kudin, V. N. Staroverov, T. Keith, R. Kobayashi, J. Normand, 
 K. Raghavachari, A. Rendell, J. C. Burant, S. S. Iyengar, J. Tomasi, 
 M. Cossi, N. Rega, J. M. Millam, M. Klene, J. E. Knox, J. B. Cross, 
 V. Bakken, C. Adamo, J. Jaramillo, R. Gomperts, R. E. Stratmann, 
 O. Yazyev, A. J. Austin, R. Cammi, C. Pomelli, J. W. Ochterski, 
 R. L. Martin, K. Morokuma, V. G. Zakrzewski, G. A. Voth, 
 P. Salvador, J. J. Dannenberg, S. Dapprich, A. D. Daniels, 
 O. Farkas, J. B. Foresman, J. V. Ortiz, J. Cioslowski, 
 and D. J. Fox, Gaussian, Inc., Wallingford CT, 2013.
 
 ******************************************
 Gaussian 09:  ES64L-G09RevD.01 24-Apr-2013
                 9-Jan-2023 
 ******************************************
 %nprocshared=20
 Will use up to   20 processors via shared memory.
 %mem=4GB
 %chk=Traceless6_Smith.chk
 ----------------------------------------------------------------------
 # opt freq b3lyp/6-311+g(d,p) geom=connectivity pop=(hirshfeld,chelpg,
 mbs,npa)
 ----------------------------------------------------------------------
 1/14=-1,18=20,19=15,26=3,38=1,57=2/1,3;
 2/9=110,12=2,17=6,18=5,40=1/2;
 3/5=4,6=6,7=111,11=2,16=1,25=1,30=1,71=1,74=-5/1,2,3;
 4//1;
 5/5=2,38=5/2;
 6/7=2,8=2,9=2,10=2,15=8,20=3,27=100,28=1,40=-1,79=1/1,2,7;
 7//1,2,3,16;
 1/14=-1,18=20,19=15,26=3/3(2);
 2/9=110/2;
 99//99;
 2/9=110/2;
 3/5=4,6=6,7=111,11=2,16=1,25=1,30=1,71=1,74=-5/1,2,3;
 4/5=5,16=3,69=1/1;
 5/5=2,38=5/2;
 7//1,2,3,16;
 1/14=-1,18=20,19=15,26=3/3(-5);
 2/9=110/2;
 6/7=2,8=2,9=2,10=2,15=8,19=2,20=3,27=100,28=1,40=-1,79=1/1,2,7;
 99/9=1/99;
 -------------------
 Title Card Required
 -------------------
 Symbolic Z-matrix:
 Charge =  0 Multiplicity = 1
 C                    -1.96154  -1.2356    0. 
 C                    -0.77197  -1.96457   0. 
 C                     0.45383  -1.29925   0. 
 C                     0.49042   0.09569  -0.0012 
 C                    -0.6989    0.82442  -0.00168 
 C                    -1.92499   0.15875  -0.00068 
 H                     1.3915   -1.87377   0.00063 
 H                     1.45704   0.62005  -0.00126 
 H                    -2.86246   0.73345  -0.00086 
 N                    -0.66079   2.29393  -0.00295 
 H                    -0.1826    2.61568   0.81424 
 H                    -0.17921   2.61418  -0.81875 
 H                    -2.90188  -1.74615   0.00052 
 O                    -0.80951  -3.39408   0. 
 H                    -0.82634  -3.7142    0.9049 
 

 GradGradGradGradGradGradGradGradGradGradGradGradGradGradGradGradGradGrad
 Berny optimization.
 Initialization pass.
                           ----------------------------
                           !    Initial Parameters    !
                           ! (Angstroms and Degrees)  !
 --------------------------                            --------------------------
 ! Name  Definition              Value          Derivative Info.                !
 --------------------------------------------------------------------------------
 ! R1    R(1,2)                  1.3952         estimate D2E/DX2                !
 ! R2    R(1,6)                  1.3948         estimate D2E/DX2                !
 ! R3    R(1,13)                 1.07           estimate D2E/DX2                !
 ! R4    R(2,3)                  1.3947         estimate D2E/DX2                !
 ! R5    R(2,14)                 1.43           estimate D2E/DX2                !
 ! R6    R(3,4)                  1.3954         estimate D2E/DX2                !
 ! R7    R(3,7)                  1.0997         estimate D2E/DX2                !
 ! R8    R(4,5)                  1.3948         estimate D2E/DX2                !
 ! R9    R(4,8)                  1.0997         estimate D2E/DX2                !
 ! R10   R(5,6)                  1.3951         estimate D2E/DX2                !
 ! R11   R(5,10)                 1.47           estimate D2E/DX2                !
 ! R12   R(6,9)                  1.0996         estimate D2E/DX2                !
 ! R13   R(10,11)                1.0            estimate D2E/DX2                !
 ! R14   R(10,12)                1.0            estimate D2E/DX2                !
 ! R15   R(14,15)                0.96           estimate D2E/DX2                !
 ! A1    A(2,1,6)              119.9985         estimate D2E/DX2                !
 ! A2    A(2,1,13)             120.0008         estimate D2E/DX2                !
 ! A3    A(6,1,13)             120.0008         estimate D2E/DX2                !
 ! A4    A(1,2,3)              120.0086         estimate D2E/DX2                !
 ! A5    A(1,2,14)             119.9957         estimate D2E/DX2                !
 ! A6    A(3,2,14)             119.9957         estimate D2E/DX2                !
 ! A7    A(2,3,4)              119.9942         estimate D2E/DX2                !
 ! A8    A(2,3,7)              120.0128         estimate D2E/DX2                !
 ! A9    A(4,3,7)              119.993          estimate D2E/DX2                !
 ! A10   A(3,4,5)              119.994          estimate D2E/DX2                !
 ! A11   A(3,4,8)              119.9811         estimate D2E/DX2                !
 ! A12   A(5,4,8)              120.0249         estimate D2E/DX2                !
 ! A13   A(4,5,6)              120.0047         estimate D2E/DX2                !
 ! A14   A(4,5,10)             120.0113         estimate D2E/DX2                !
 ! A15   A(6,5,10)             119.984          estimate D2E/DX2                !
 ! A16   A(1,6,5)              120.0            estimate D2E/DX2                !
 ! A17   A(1,6,9)              120.008          estimate D2E/DX2                !
 ! A18   A(5,6,9)              119.992          estimate D2E/DX2                !
 ! A19   A(5,10,11)            109.4712         estimate D2E/DX2                !
 ! A20   A(5,10,12)            109.4712         estimate D2E/DX2                !
 ! A21   A(11,10,12)           109.4713         estimate D2E/DX2                !
 ! A22   A(2,14,15)            109.5            estimate D2E/DX2                !
 ! D1    D(6,1,2,3)              0.0323         estimate D2E/DX2                !
 ! D2    D(6,1,2,14)          -179.9677         estimate D2E/DX2                !
 ! D3    D(13,1,2,3)          -179.9677         estimate D2E/DX2                !
 ! D4    D(13,1,2,14)            0.0323         estimate D2E/DX2                !
 ! D5    D(2,1,6,5)              0.0149         estimate D2E/DX2                !
 ! D6    D(2,1,6,9)            179.9892         estimate D2E/DX2                !
 ! D7    D(13,1,6,5)          -179.9851         estimate D2E/DX2                !
 ! D8    D(13,1,6,9)            -0.0108         estimate D2E/DX2                !
 ! D9    D(1,2,3,4)             -0.0568         estimate D2E/DX2                !
 ! D10   D(1,2,3,7)            179.9619         estimate D2E/DX2                !
 ! D11   D(14,2,3,4)           179.9432         estimate D2E/DX2                !
 ! D12   D(14,2,3,7)            -0.0381         estimate D2E/DX2                !
 ! D13   D(1,2,14,15)          -89.4672         estimate D2E/DX2                !
 ! D14   D(3,2,14,15)           90.5328         estimate D2E/DX2                !
 ! D15   D(2,3,4,5)              0.0341         estimate D2E/DX2                !
 ! D16   D(2,3,4,8)           -179.9964         estimate D2E/DX2                !
 ! D17   D(7,3,4,5)           -179.9846         estimate D2E/DX2                !
 ! D18   D(7,3,4,8)             -0.0151         estimate D2E/DX2                !
 ! D19   D(3,4,5,6)              0.0131         estimate D2E/DX2                !
 ! D20   D(3,4,5,10)          -179.9995         estimate D2E/DX2                !
 ! D21   D(8,4,5,6)           -179.9563         estimate D2E/DX2                !
 ! D22   D(8,4,5,10)             0.0311         estimate D2E/DX2                !
 ! D23   D(4,5,6,1)             -0.0376         estimate D2E/DX2                !
 ! D24   D(4,5,6,9)            179.9881         estimate D2E/DX2                !
 ! D25   D(10,5,6,1)           179.975          estimate D2E/DX2                !
 ! D26   D(10,5,6,9)             0.0007         estimate D2E/DX2                !
 ! D27   D(4,5,10,11)          -60.1262         estimate D2E/DX2                !
 ! D28   D(4,5,10,12)           59.8738         estimate D2E/DX2                !
 ! D29   D(6,5,10,11)          119.8611         estimate D2E/DX2                !
 ! D30   D(6,5,10,12)         -120.1389         estimate D2E/DX2                !
 --------------------------------------------------------------------------------
 Trust Radius=3.00D-01 FncErr=1.00D-07 GrdErr=1.00D-06
 Number of steps in this run=     77 maximum allowed number of steps=    100.
 GradGradGradGradGradGradGradGradGradGradGradGradGradGradGradGradGradGrad

                          Input orientation:                          
 ---------------------------------------------------------------------
 Center     Atomic      Atomic             Coordinates (Angstroms)
 Number     Number       Type             X           Y           Z
 ---------------------------------------------------------------------
      1          6           0       -1.961540   -1.235600    0.000000
      2          6           0       -0.771971   -1.964569    0.000000
      3          6           0        0.453826   -1.299254    0.000000
      4          6           0        0.490423    0.095692   -0.001199
      5          6           0       -0.698902    0.824420   -0.001678
      6          6           0       -1.924990    0.158750   -0.000682
      7          1           0        1.391499   -1.873767    0.000634
      8          1           0        1.457039    0.620049   -0.001258
      9          1           0       -2.862461    0.733448   -0.000862
     10          7           0       -0.660795    2.293925   -0.002952
     11          1           0       -0.182604    2.615678    0.814244
     12          1           0       -0.179213    2.614175   -0.818746
     13          1           0       -2.901881   -1.746147    0.000523
     14          8           0       -0.809512   -3.394076    0.000000
     15          1           0       -0.826336   -3.714199    0.904897
 ---------------------------------------------------------------------
                    Distance matrix (angstroms):
                    1          2          3          4          5
     1  C    0.000000
     2  C    1.395160   0.000000
     3  C    2.416205   1.394712   0.000000
     4  C    2.790065   2.416260   1.395427   0.000000
     5  C    2.416183   2.789946   2.416356   1.394825   0.000000
     6  C    1.394829   2.416183   2.790080   2.416236   1.395138
     7  H    3.413229   2.165375   1.099680   2.165806   3.413209
     8  H    3.889745   3.413024   2.165678   1.099680   2.165606
     9  H    2.165365   3.413128   3.889684   3.412999   2.165471
    10  N    3.761581   4.259946   3.762091   2.481438   1.470000
    11  H    4.319716   4.689244   4.049041   2.732808   2.034920
    12  H    4.320625   4.688987   4.047964   2.731218   2.034920
    13  H    1.070000   2.141081   3.385334   3.860065   3.385400
    14  O    2.446669   1.430000   2.446283   3.724018   4.219946
    15  H    2.872452   1.970533   2.879169   4.131602   4.630030
                    6          7          8          9         10
     6  C    0.000000
     7  H    3.889760   0.000000
     8  H    3.413344   2.494678   0.000000
     9  H    1.099604   4.989364   4.320988   0.000000
    10  N    2.481364   4.645598   2.699460   2.698598   0.000000
    11  H    3.120338   4.826477   2.708507   3.374733   1.000000
    12  H    3.121870   4.824951   2.705946   3.377260   1.000000
    13  H    2.140783   4.295277   4.959745   2.479908   4.620028
    14  O    3.723824   2.675030   4.609821   4.609887   5.689946
    15  H    4.126361   3.020542   4.982030   4.974713   6.078581
                   11         12         13         14         15
    11  H    0.000000
    12  H    1.632993   0.000000
    13  H    5.204049   5.205432   0.000000
    14  O    6.096979   6.096450   2.663397   0.000000
    15  H    6.363172   6.590753   2.999835   0.960000   0.000000
 Stoichiometry    C6H7NO
 Framework group  C1[X(C6H7NO)]
 Deg. of freedom    39
 Full point group                 C1      NOp   1
 Largest Abelian subgroup         C1      NOp   1
 Largest concise Abelian subgroup C1      NOp   1
                         Standard orientation:                         
 ---------------------------------------------------------------------
 Center     Atomic      Atomic             Coordinates (Angstroms)
 Number     Number       Type             X           Y           Z
 ---------------------------------------------------------------------
      1          6           0       -0.735403    1.209308   -0.025432
      2          6           0       -1.407024   -0.013505   -0.036584
      3          6           0       -0.684380   -1.206358   -0.026124
      4          6           0        0.710583   -1.176733   -0.005702
      5          6           0        1.381982    0.045824    0.004968
      6          6           0        0.658954    1.238951   -0.004501
      7          1           0       -1.213698   -2.170231   -0.034279
      8          1           0        1.280149   -2.117384    0.002483
      9          1           0        1.188459    2.202631    0.004111
     10          7           0        2.851484    0.077477    0.026471
     11          1           0        3.182870   -0.385413    0.848613
     12          1           0        3.206816   -0.387868   -0.784203
     13          1           0       -1.289937    2.124369   -0.032935
     14          8           0       -2.836531   -0.043825   -0.058741
     15          1           0       -3.171066   -0.042762    0.841084
 ---------------------------------------------------------------------
 Rotational constants (GHZ):      5.5351408      1.4372093      1.1520713
 Standard basis: 6-311+G(d,p) (5D, 7F)
 There are   226 symmetry adapted cartesian basis functions of A   symmetry.
 There are   218 symmetry adapted basis functions of A   symmetry.
   218 basis functions,   344 primitive gaussians,   226 cartesian basis functions
    29 alpha electrons       29 beta electrons
       nuclear repulsion energy       341.4574455866 Hartrees.
 NAtoms=   15 NActive=   15 NUniq=   15 SFac= 1.00D+00 NAtFMM=   60 NAOKFM=F Big=F
 Integral buffers will be    131072 words long.
 Raffenetti 2 integral format.
 Two-electron integral symmetry is turned on.
 One-electron integrals computed using PRISM.
 NBasis=   218 RedAO= T EigKep=  2.60D-06  NBF=   218
 NBsUse=   218 1.00D-06 EigRej= -1.00D+00 NBFU=   218
 ExpMin= 4.38D-02 ExpMax= 8.59D+03 ExpMxC= 1.30D+03 IAcc=2 IRadAn=         4 AccDes= 0.00D+00
 Harris functional with IExCor=  402 and IRadAn=       4 diagonalized for initial guess.
 HarFok:  IExCor=  402 AccDes= 0.00D+00 IRadAn=         4 IDoV= 1 UseB2=F ITyADJ=14
 ICtDFT=  3500011 ScaDFX=  1.000000  1.000000  1.000000  1.000000
 FoFCou: FMM=F IPFlag=           0 FMFlag=      100000 FMFlg1=           0
         NFxFlg=           0 DoJE=T BraDBF=F KetDBF=T FulRan=T
         wScrn=  0.000000 ICntrl=     500 IOpCl=  0 I1Cent=   200000004 NGrid=           0
         NMat0=    1 NMatS0=      1 NMatT0=    0 NMatD0=    1 NMtDS0=    0 NMtDT0=    0
 Petite list used in FoFCou.
 Keep R1 ints in memory in canonical form, NReq=290950662.
 Requested convergence on RMS density matrix=1.00D-08 within 128 cycles.
 Requested convergence on MAX density matrix=1.00D-06.
 Requested convergence on             energy=1.00D-06.
 No special actions if energy rises.
 SCF Done:  E(RB3LYP) =  -362.916976057     A.U. after   14 cycles
            NFock= 14  Conv=0.21D-08     -V/T= 2.0044

 **********************************************************************

            Population analysis using the SCF density.

 **********************************************************************

 Orbital symmetries:
       Occupied  (A) (A) (A) (A) (A) (A) (A) (A) (A) (A) (A) (A)
                 (A) (A) (A) (A) (A) (A) (A) (A) (A) (A) (A) (A)
                 (A) (A) (A) (A) (A)
       Virtual   (A) (A) (A) (A) (A) (A) (A) (A) (A) (A) (A) (A)
                 (A) (A) (A) (A) (A) (A) (A) (A) (A) (A) (A) (A)
                 (A) (A) (A) (A) (A) (A) (A) (A) (A) (A) (A) (A)
                 (A) (A) (A) (A) (A) (A) (A) (A) (A) (A) (A) (A)
                 (A) (A) (A) (A) (A) (A) (A) (A) (A) (A) (A) (A)
                 (A) (A) (A) (A) (A) (A) (A) (A) (A) (A) (A) (A)
                 (A) (A) (A) (A) (A) (A) (A) (A) (A) (A) (A) (A)
                 (A) (A) (A) (A) (A) (A) (A) (A) (A) (A) (A) (A)
                 (A) (A) (A) (A) (A) (A) (A) (A) (A) (A) (A) (A)
                 (A) (A) (A) (A) (A) (A) (A) (A) (A) (A) (A) (A)
                 (A) (A) (A) (A) (A) (A) (A) (A) (A) (A) (A) (A)
                 (A) (A) (A) (A) (A) (A) (A) (A) (A) (A) (A) (A)
                 (A) (A) (A) (A) (A) (A) (A) (A) (A) (A) (A) (A)
                 (A) (A) (A) (A) (A) (A) (A) (A) (A) (A) (A) (A)
                 (A) (A) (A) (A) (A) (A) (A) (A) (A) (A) (A) (A)
                 (A) (A) (A) (A) (A) (A) (A) (A) (A)
 The electronic state is 1-A.
 Alpha  occ. eigenvalues --  -19.14348 -14.30474 -10.23919 -10.21363 -10.18643
 Alpha  occ. eigenvalues --  -10.18582 -10.18357 -10.18201  -1.04017  -0.90757
 Alpha  occ. eigenvalues --   -0.84627  -0.76008  -0.73069  -0.62396  -0.60648
 Alpha  occ. eigenvalues --   -0.54793  -0.50240  -0.50098  -0.48021  -0.45597
 Alpha  occ. eigenvalues --   -0.43331  -0.42586  -0.38788  -0.37188  -0.36080
 Alpha  occ. eigenvalues --   -0.30841  -0.26743  -0.26343  -0.25250
 Alpha virt. eigenvalues --   -0.02657  -0.01737  -0.00278   0.00290   0.02152
 Alpha virt. eigenvalues --    0.02404   0.05167   0.05812   0.06579   0.07104
 Alpha virt. eigenvalues --    0.07560   0.08586   0.10381   0.10948   0.11611
 Alpha virt. eigenvalues --    0.12302   0.13209   0.13710   0.13778   0.14180
 Alpha virt. eigenvalues --    0.15344   0.16081   0.16243   0.17206   0.18240
 Alpha virt. eigenvalues --    0.18432   0.19527   0.19718   0.20520   0.20978
 Alpha virt. eigenvalues --    0.21376   0.21947   0.22363   0.22749   0.23633
 Alpha virt. eigenvalues --    0.25390   0.26009   0.27084   0.28870   0.29688
 Alpha virt. eigenvalues --    0.31268   0.32005   0.32569   0.33122   0.34792
 Alpha virt. eigenvalues --    0.35690   0.36373   0.41088   0.48252   0.49042
 Alpha virt. eigenvalues --    0.50200   0.50997   0.53243   0.53915   0.54556
 Alpha virt. eigenvalues --    0.55344   0.56799   0.56912   0.58897   0.59687
 Alpha virt. eigenvalues --    0.60419   0.61327   0.63128   0.67608   0.68544
 Alpha virt. eigenvalues --    0.71189   0.72259   0.74180   0.75224   0.77006
 Alpha virt. eigenvalues --    0.80007   0.80936   0.82686   0.83470   0.84690
 Alpha virt. eigenvalues --    0.84988   0.86390   0.88930   0.90837   0.92659
 Alpha virt. eigenvalues --    0.95402   0.98624   1.00135   1.01133   1.03355
 Alpha virt. eigenvalues --    1.04053   1.07053   1.11113   1.13524   1.14397
 Alpha virt. eigenvalues --    1.19772   1.24110   1.27930   1.28633   1.37410
 Alpha virt. eigenvalues --    1.38355   1.42632   1.45065   1.48911   1.49842
 Alpha virt. eigenvalues --    1.55294   1.55398   1.56823   1.57407   1.57931
 Alpha virt. eigenvalues --    1.62057   1.63407   1.66217   1.68255   1.70705
 Alpha virt. eigenvalues --    1.72174   1.75643   1.76234   1.83502   1.87019
 Alpha virt. eigenvalues --    1.88417   1.90117   1.91409   1.92132   1.96829
 Alpha virt. eigenvalues --    1.97882   1.98677   2.00284   2.02076   2.03974
 Alpha virt. eigenvalues --    2.06864   2.08876   2.14888   2.18700   2.23317
 Alpha virt. eigenvalues --    2.31349   2.36319   2.37005   2.38617   2.52459
 Alpha virt. eigenvalues --    2.53991   2.55938   2.56370   2.56950   2.62017
 Alpha virt. eigenvalues --    2.64461   2.66855   2.68805   2.72029   2.73335
 Alpha virt. eigenvalues --    2.75547   2.78254   2.79102   2.79501   2.83916
 Alpha virt. eigenvalues --    2.87285   2.88283   2.89496   2.93329   2.98861
 Alpha virt. eigenvalues --    3.05391   3.07302   3.11183   3.11555   3.12380
 Alpha virt. eigenvalues --    3.29353   3.31072   3.32505   3.34649   3.42328
 Alpha virt. eigenvalues --    3.48169   3.59203   3.60433   3.79990   3.83880
 Alpha virt. eigenvalues --    3.96216   4.08953   4.12242   4.14236   4.16385
 Alpha virt. eigenvalues --    4.76880   4.83595   4.88430   5.12571   5.34645
 Alpha virt. eigenvalues --    5.68211  23.51443  23.88927  23.94672  24.04491
 Alpha virt. eigenvalues --   24.08359  24.17406  35.62985  49.92819
          Condensed to atoms (all electrons):
               1          2          3          4          5          6
     1  C    7.389529  -0.399412  -1.177877  -0.178697   0.397361  -0.296683
     2  C   -0.399412   6.695442  -0.395559   0.063850  -0.714778   0.531391
     3  C   -1.177877  -0.395559   7.659870  -0.206370   0.462999  -0.468069
     4  C   -0.178697   0.063850  -0.206370   5.923044   0.461527  -0.034729
     5  C    0.397361  -0.714778   0.462999   0.461527   7.341659  -1.937020
     6  C   -0.296683   0.531391  -0.468069  -0.034729  -1.937020   7.793654
     7  H   -0.013631  -0.030971   0.415741  -0.023246   0.012711  -0.005343
     8  H    0.013358  -0.001695   0.042200   0.418658  -0.044103  -0.064179
     9  H   -0.025118  -0.007328   0.006725  -0.009431   0.046144   0.349121
    10  N   -0.020487   0.035592  -0.112579  -0.257789   0.261206   0.123726
    11  H    0.002385   0.000477  -0.007987   0.007585  -0.040037   0.002698
    12  H    0.001037  -0.003071  -0.007819   0.001277  -0.027774   0.001906
    13  H    0.424404  -0.017340  -0.015280   0.004197  -0.006803  -0.030723
    14  O   -0.244760   0.538612  -0.257531   0.028331  -0.013654   0.016505
    15  H   -0.008055   0.037235  -0.006354  -0.012413   0.001348  -0.010382
               7          8          9         10         11         12
     1  C   -0.013631   0.013358  -0.025118  -0.020487   0.002385   0.001037
     2  C   -0.030971  -0.001695  -0.007328   0.035592   0.000477  -0.003071
     3  C    0.415741   0.042200   0.006725  -0.112579  -0.007987  -0.007819
     4  C   -0.023246   0.418658  -0.009431  -0.257789   0.007585   0.001277
     5  C    0.012711  -0.044103   0.046144   0.261206  -0.040037  -0.027774
     6  C   -0.005343  -0.064179   0.349121   0.123726   0.002698   0.001906
     7  H    0.525581  -0.007328   0.000046  -0.001522   0.000032   0.000019
     8  H   -0.007328   0.541477  -0.000161  -0.029649   0.000988   0.000981
     9  H    0.000046  -0.000161   0.515876  -0.005773   0.000482   0.000351
    10  N   -0.001522  -0.029649  -0.005773   6.624419   0.401472   0.402811
    11  H    0.000032   0.000988   0.000482   0.401472   0.453671  -0.054163
    12  H    0.000019   0.000981   0.000351   0.402811  -0.054163   0.450845
    13  H   -0.000176   0.000040  -0.007658  -0.000503   0.000015   0.000014
    14  O   -0.005481  -0.000514  -0.000518   0.000084   0.000000  -0.000009
    15  H    0.000322   0.000011   0.000012  -0.000103  -0.000002   0.000003
              13         14         15
     1  C    0.424404  -0.244760  -0.008055
     2  C   -0.017340   0.538612   0.037235
     3  C   -0.015280  -0.257531  -0.006354
     4  C    0.004197   0.028331  -0.012413
     5  C   -0.006803  -0.013654   0.001348
     6  C   -0.030723   0.016505  -0.010382
     7  H   -0.000176  -0.005481   0.000322
     8  H    0.000040  -0.000514   0.000011
     9  H   -0.007658  -0.000518   0.000012
    10  N   -0.000503   0.000084  -0.000103
    11  H    0.000015   0.000000  -0.000002
    12  H    0.000014  -0.000009   0.000003
    13  H    0.521137  -0.005851   0.000258
    14  O   -0.005851   8.036917   0.269856
    15  H    0.000258   0.269856   0.459657
 Mulliken charges:
               1
     1  C    0.136647
     2  C   -0.332444
     3  C    0.067889
     4  C   -0.185793
     5  C   -0.200785
     6  C    0.028126
     7  H    0.133248
     8  H    0.129916
     9  H    0.137230
    10  N   -0.420904
    11  H    0.232386
    12  H    0.233593
    13  H    0.134270
    14  O   -0.361986
    15  H    0.268608
 Sum of Mulliken charges =   0.00000
 Mulliken charges with hydrogens summed into heavy atoms:
               1
     1  C    0.270917
     2  C   -0.332444
     3  C    0.201137
     4  C   -0.055878
     5  C   -0.200785
     6  C    0.165356
    10  N    0.045075
    14  O   -0.093378
 Electronic spatial extent (au):  <R**2>=            993.1328
 Charge=              0.0000 electrons
 Dipole moment (field-independent basis, Debye):
    X=              0.6103    Y=             -1.2471    Z=              1.5269  Tot=              2.0638
 Quadrupole moment (field-independent basis, Debye-Ang):
   XX=            -48.2087   YY=            -43.7958   ZZ=            -47.7099
   XY=             -5.1313   XZ=             -5.5538   YZ=             -0.1202
 Traceless Quadrupole moment (field-independent basis, Debye-Ang):
   XX=             -1.6372   YY=              2.7757   ZZ=             -1.1385
   XY=             -5.1313   XZ=             -5.5538   YZ=             -0.1202
 Octapole moment (field-independent basis, Debye-Ang**2):
  XXX=             -1.1027  YYY=             -0.1014  ZZZ=              2.1075  XYY=             -4.0673
  XXY=            -17.2724  XXZ=             18.8113  XZZ=             -1.1112  YZZ=             -1.1284
  YYZ=             -0.0817  XYZ=              0.1095
 Hexadecapole moment (field-independent basis, Debye-Ang**3):
 XXXX=           -922.1830 YYYY=           -284.7607 ZZZZ=            -60.5717 XXXY=            -62.4177
 XXXZ=            -65.4319 YYYX=             -3.4956 YYYZ=             -0.0556 ZZZX=             -6.2034
 ZZZY=             -0.2195 XXYY=           -209.9718 XXZZ=           -135.3623 YYZZ=            -69.8320
 XXYZ=             -1.3194 YYXZ=             -0.7142 ZZXY=             -3.5550
 N-N= 3.414574455866D+02 E-N=-1.529137782336D+03  KE= 3.613154182434D+02
 There are a total of      123150 grid points.
 ElSum from          density=       58.0000410516
 ElSum from atomic densities=       57.9998759802

 Hirshfeld populations at iteration   1 (CX, CA, CB, DipXYZ):
               1          2          3          4          5          6
     1  C    0.000000   3.027460   3.027460  -0.024218   0.057145  -0.009288
     2  C    0.000000   2.968066   2.968066  -0.149760  -0.001175  -0.010867
     3  C    0.000000   3.028827   3.028827  -0.021280  -0.050711  -0.009331
     4  C    0.000000   3.028555   3.028555   0.030441  -0.051597  -0.004073
     5  C    0.000000   2.980228   2.980228   0.107362  -0.000497  -0.001602
     6  C    0.000000   3.022829   3.022829   0.020943   0.052840  -0.004035
     7  H    0.000002   0.473923   0.473923  -0.066375  -0.147101  -0.002807
     8  H    0.000001   0.476531   0.476531   0.071160  -0.138152   0.000067
     9  H    0.000002   0.473628   0.473628   0.057165   0.146355   0.000045
    10  N    0.000000   3.619502   3.619502  -0.091559  -0.180961  -0.001731
    11  H    0.000001   0.446451   0.446451   0.065065  -0.097358   0.165520
    12  H    0.000001   0.446145   0.446145   0.069782  -0.097963  -0.163924
    13  H    0.000002   0.474379   0.474379  -0.073933   0.147627  -0.002736
    14  O    0.000003   4.119037   4.119037   0.129582   0.005060   0.149662
    15  H    0.000001   0.414459   0.414459  -0.082461   0.000461   0.200635
       Tot   0.000014  29.000021  29.000021   0.041912  -0.356026   0.305537

 Dip from Atomic Chgs              0.198219  -0.134681   0.295028
         Total Dipole              0.240132  -0.490707   0.600565

 Hirshfeld charges, spin densities, dipoles, and CM5 charges using IRadAn=      4:
              Q-H        S-H        Dx         Dy         Dz        Q-CM5   
     1  C   -0.054921   0.000000  -0.024218   0.057145  -0.009288  -0.107373
     2  C    0.063867   0.000000  -0.149760  -0.001175  -0.010867   0.072503
     3  C   -0.057653   0.000000  -0.021280  -0.050711  -0.009331  -0.106580
     4  C   -0.057110   0.000000   0.030441  -0.051597  -0.004073  -0.104451
     5  C    0.039544   0.000000   0.107362  -0.000497  -0.001602   0.077580
     6  C   -0.045658   0.000000   0.020943   0.052840  -0.004035  -0.092200
     7  H    0.052154   0.000000  -0.066375  -0.147101  -0.002807   0.108251
     8  H    0.046938   0.000000   0.071160  -0.138152   0.000067   0.103441
     9  H    0.052744   0.000000   0.057165   0.146355   0.000045   0.109266
    10  N   -0.239004   0.000000  -0.091559  -0.180961  -0.001731  -0.684551
    11  H    0.107097   0.000000   0.065065  -0.097358   0.165520   0.301059
    12  H    0.107710   0.000000   0.069782  -0.097963  -0.163924   0.301674
    13  H    0.051243   0.000000  -0.073933   0.147627  -0.002736   0.111411
    14  O   -0.238074   0.000000   0.129582   0.005060   0.149662  -0.434876
    15  H    0.171083   0.000000  -0.082461   0.000461   0.200635   0.344804
       Tot  -0.000041   0.000000   0.041912  -0.356026   0.305537  -0.000041
 Hirshfeld charges with hydrogens summed into heavy atoms:
              Q-H       Q-CM5   
     1  C   -0.003678   0.004039
     2  C    0.063867   0.072503
     3  C   -0.005500   0.001672
     4  C   -0.010173  -0.001011
     5  C    0.039544   0.077580
     6  C    0.007086   0.017066
    10  N   -0.024197  -0.081817
    14  O   -0.066991  -0.090072
 
 EQQ= 0.000000000000E+00 EQD= 0.000000000000E+00 EDD= 0.107154239787E-01
 EQQ+QD+DD= 0.107154239787E-01
 
          MBS Condensed to atoms (all electrons):
               1          2          3          4          5          6
     1  C    4.854176   0.497518  -0.038483  -0.009489  -0.029507   0.498795
     2  C    0.497518   4.707635   0.497736  -0.028007  -0.011917  -0.027638
     3  C   -0.038483   0.497736   4.855971   0.497222  -0.029368  -0.009408
     4  C   -0.009489  -0.028007   0.497222   4.857335   0.502027  -0.037212
     5  C   -0.029507  -0.011917  -0.029368   0.502027   4.732588   0.504189
     6  C    0.498795  -0.027638  -0.009408  -0.037212   0.504189   4.835082
     7  H    0.001426  -0.024733   0.382932  -0.023058   0.001396   0.000034
     8  H    0.000024   0.001364  -0.023883   0.384415  -0.025388   0.001452
     9  H   -0.023494   0.001353   0.000016   0.001489  -0.024529   0.383702
    10  N    0.000615   0.000016   0.000650  -0.028763   0.340607  -0.030225
    11  H   -0.000044   0.000004  -0.000001  -0.001946  -0.029827   0.001175
    12  H   -0.000044   0.000003   0.000000  -0.001980  -0.029775   0.001176
    13  H    0.389490  -0.025594   0.001484   0.000041   0.001466  -0.023878
    14  O   -0.022700   0.286485  -0.022745   0.000332   0.000006   0.000334
    15  H    0.000089  -0.032620   0.000153  -0.000044   0.000005  -0.000044
               7          8          9         10         11         12
     1  C    0.001426   0.000024  -0.023494   0.000615  -0.000044  -0.000044
     2  C   -0.024733   0.001364   0.001353   0.000016   0.000004   0.000003
     3  C    0.382932  -0.023883   0.000016   0.000650  -0.000001   0.000000
     4  C   -0.023058   0.384415   0.001489  -0.028763  -0.001946  -0.001980
     5  C    0.001396  -0.025388  -0.024529   0.340607  -0.029827  -0.029775
     6  C    0.000034   0.001452   0.383702  -0.030225   0.001175   0.001176
     7  H    0.552748  -0.004067   0.000002  -0.000011   0.000000   0.000000
     8  H   -0.004067   0.563895  -0.000045  -0.002149   0.000708   0.000688
     9  H    0.000002  -0.000045   0.546434  -0.000785   0.000053   0.000048
    10  N   -0.000011  -0.002149  -0.000785   6.664185   0.333155   0.333265
    11  H    0.000000   0.000708   0.000053   0.333155   0.471910  -0.030940
    12  H    0.000000   0.000688   0.000048   0.333265  -0.030940   0.471044
    13  H   -0.000048   0.000002  -0.004114  -0.000011   0.000001   0.000001
    14  O   -0.000633  -0.000005  -0.000005   0.000000   0.000000   0.000000
    15  H    0.000176   0.000001   0.000001   0.000000   0.000000   0.000000
              13         14         15
     1  C    0.389490  -0.022700   0.000089
     2  C   -0.025594   0.286485  -0.032620
     3  C    0.001484  -0.022745   0.000153
     4  C    0.000041   0.000332  -0.000044
     5  C    0.001466   0.000006   0.000005
     6  C   -0.023878   0.000334  -0.000044
     7  H   -0.000048  -0.000633   0.000176
     8  H    0.000002  -0.000005   0.000001
     9  H   -0.004114  -0.000005   0.000001
    10  N   -0.000011   0.000000   0.000000
    11  H    0.000001   0.000000   0.000000
    12  H    0.000001   0.000000   0.000000
    13  H    0.538256  -0.000617   0.000172
    14  O   -0.000617   8.017318   0.265770
    15  H    0.000172   0.265770   0.420440
 MBS Mulliken charges:
               1
     1  C   -0.118373
     2  C    0.158394
     3  C   -0.112276
     4  C   -0.112364
     5  C    0.098026
     6  C   -0.097533
     7  H    0.113836
     8  H    0.102988
     9  H    0.119874
    10  N   -0.610549
    11  H    0.255752
    12  H    0.256515
    13  H    0.123348
    14  O   -0.523539
    15  H    0.345900
 Sum of MBS Mulliken charges =   0.00000
 MBS Mulliken charges with hydrogens summed into heavy atoms:
               1
     1  C    0.004976
     2  C    0.158394
     3  C    0.001560
     4  C   -0.009376
     5  C    0.098026
     6  C    0.022341
    10  N   -0.098282
    14  O   -0.177639
 Breneman (CHELPG) radii used.
 Generate Potential Derived Charges using the Breneman model, NDens= 1.
 Grid spacing= 0.300 Box extension= 2.800
 NStep X,Y,Z=   41     35     26   Total possible points=       37310
 Number of Points to Fit=   11086

 **********************************************************************

            Electrostatic Properties Using The SCF Density

 **********************************************************************

       Atomic Center    1 is at  -0.735403  1.209308 -0.025432
       Atomic Center    2 is at  -1.407024 -0.013505 -0.036584
       Atomic Center    3 is at  -0.684380 -1.206358 -0.026124
       Atomic Center    4 is at   0.710583 -1.176733 -0.005702
       Atomic Center    5 is at   1.381982  0.045824  0.004968
       Atomic Center    6 is at   0.658954  1.238951 -0.004501
       Atomic Center    7 is at  -1.213698 -2.170231 -0.034279
       Atomic Center    8 is at   1.280149 -2.117384  0.002483
       Atomic Center    9 is at   1.188459  2.202631  0.004111
       Atomic Center   10 is at   2.851484  0.077477  0.026471
       Atomic Center   11 is at   3.182870 -0.385413  0.848613
       Atomic Center   12 is at   3.206816 -0.387868 -0.784203
       Atomic Center   13 is at  -1.289937  2.124369 -0.032935
       Atomic Center   14 is at  -2.836531 -0.043825 -0.058741
       Atomic Center   15 is at  -3.171066 -0.042762  0.841084
   11086 points will be used for fitting atomic charges
 Fitting point charges to electrostatic potential
 Charges from ESP fit, RMS=   0.00428 RRMS=   0.28631:
 ESP charges:
               1
     1  C   -0.242259
     2  C    0.380819
     3  C   -0.192965
     4  C   -0.275148
     5  C    0.462592
     6  C   -0.174907
     7  H    0.132111
     8  H    0.131079
     9  H    0.127310
    10  N   -0.965906
    11  H    0.345298
    12  H    0.364405
    13  H    0.144813
    14  O   -0.601164
    15  H    0.363922
 Sum of ESP charges =   0.00000
 ESP charges with hydrogens summed into heavy atoms:
               1
     1  C   -0.097447
     2  C    0.380819
     3  C   -0.060854
     4  C   -0.144069
     5  C    0.462592
     6  C   -0.047597
    10  N   -0.256202
    14  O   -0.237242
 Charge=   0.00000 Dipole=     0.6697    -1.2091     1.5205 Tot=     2.0549
 -----------------------------------------------------------------

              Electrostatic Properties (Atomic Units)

 -----------------------------------------------------------------
    Center     Electric         -------- Electric Field --------
               Potential          X             Y             Z
 -----------------------------------------------------------------
    1 Atom    -14.769877
    2 Atom    -14.709408
    3 Atom    -14.765442
    4 Atom    -14.765444
    5 Atom    -14.735457
    6 Atom    -14.768173
    7 Atom     -1.095507
    8 Atom     -1.093185
    9 Atom     -1.101840
   10 Atom    -18.407474
   11 Atom     -1.054064
   12 Atom     -1.054185
   13 Atom     -1.100566
   14 Atom    -22.350493
   15 Atom     -0.984473
 -----------------------------------------------------------------
 ******************************Gaussian NBO Version 3.1******************************
             N A T U R A L   A T O M I C   O R B I T A L   A N D
          N A T U R A L   B O N D   O R B I T A L   A N A L Y S I S
 ******************************Gaussian NBO Version 3.1******************************
       /RESON  / : Allow strongly delocalized NBO set

 Analyzing the SCF density

 Job title: Title Card Required                                             

 Storage needed:    143564 in NPA ( 536869667 available)


 NATURAL POPULATIONS:  Natural atomic orbital occupancies 
                                                          
   NAO  Atom  No  lang   Type(AO)    Occupancy      Energy
 ----------------------------------------------------------
     1    C    1  S      Cor( 1S)     1.99903     -10.03325
     2    C    1  S      Val( 2S)     0.95499      -0.16648
     3    C    1  S      Ryd( 3S)     0.00176       0.64785
     4    C    1  S      Ryd( 4S)     0.00018       1.27691
     5    C    1  S      Ryd( 5S)     0.00001      22.59921
     6    C    1  px     Val( 2p)     1.09990      -0.05661
     7    C    1  px     Ryd( 4p)     0.00570       0.91621
     8    C    1  px     Ryd( 3p)     0.00039       0.38876
     9    C    1  px     Ryd( 5p)     0.00016       3.13567
    10    C    1  py     Val( 2p)     1.15294      -0.06689
    11    C    1  py     Ryd( 4p)     0.00489       0.98637
    12    C    1  py     Ryd( 3p)     0.00032       0.34250
    13    C    1  py     Ryd( 5p)     0.00010       3.13145
    14    C    1  pz     Val( 2p)     1.01038      -0.11624
    15    C    1  pz     Ryd( 4p)     0.00122       0.50762
    16    C    1  pz     Ryd( 3p)     0.00037       0.30022
    17    C    1  pz     Ryd( 5p)     0.00002       2.69608
    18    C    1  dxy    Ryd( 3d)     0.00077       2.53042
    19    C    1  dxz    Ryd( 3d)     0.00047       1.65173
    20    C    1  dyz    Ryd( 3d)     0.00050       1.63582
    21    C    1  dx2y2  Ryd( 3d)     0.00064       2.57323
    22    C    1  dz2    Ryd( 3d)     0.00042       2.04770

    23    C    2  S      Cor( 1S)     1.99867     -10.10958
    24    C    2  S      Val( 2S)     0.84786      -0.15095
    25    C    2  S      Ryd( 4S)     0.00114       0.84813
    26    C    2  S      Ryd( 3S)     0.00027       0.55501
    27    C    2  S      Ryd( 5S)     0.00002      23.02675
    28    C    2  px     Val( 2p)     0.75603      -0.05883
    29    C    2  px     Ryd( 4p)     0.00709       0.99654
    30    C    2  px     Ryd( 3p)     0.00038       0.42079
    31    C    2  px     Ryd( 5p)     0.00032       2.97844
    32    C    2  py     Val( 2p)     1.08002      -0.05936
    33    C    2  py     Ryd( 4p)     0.00381       1.11682
    34    C    2  py     Ryd( 3p)     0.00100       0.40535
    35    C    2  py     Ryd( 5p)     0.00014       2.91509
    36    C    2  pz     Val( 2p)     1.00841      -0.12306
    37    C    2  pz     Ryd( 4p)     0.00170       0.61523
    38    C    2  pz     Ryd( 3p)     0.00053       0.34983
    39    C    2  pz     Ryd( 5p)     0.00004       2.58663
    40    C    2  dxy    Ryd( 3d)     0.00180       2.58939
    41    C    2  dxz    Ryd( 3d)     0.00160       1.60265
    42    C    2  dyz    Ryd( 3d)     0.00059       1.64521
    43    C    2  dx2y2  Ryd( 3d)     0.00168       2.43685
    44    C    2  dz2    Ryd( 3d)     0.00056       2.04196

    45    C    3  S      Cor( 1S)     1.99902     -10.03929
    46    C    3  S      Val( 2S)     0.95956      -0.17431
    47    C    3  S      Ryd( 3S)     0.00214       0.64874
    48    C    3  S      Ryd( 4S)     0.00020       1.25610
    49    C    3  S      Ryd( 5S)     0.00001      22.63432
    50    C    3  px     Val( 2p)     1.09271      -0.05854
    51    C    3  px     Ryd( 4p)     0.00585       0.89031
    52    C    3  px     Ryd( 3p)     0.00033       0.39105
    53    C    3  px     Ryd( 5p)     0.00015       3.15380
    54    C    3  py     Val( 2p)     1.15642      -0.07358
    55    C    3  py     Ryd( 4p)     0.00520       0.98232
    56    C    3  py     Ryd( 3p)     0.00031       0.33208
    57    C    3  py     Ryd( 5p)     0.00010       3.13963
    58    C    3  pz     Val( 2p)     1.01168      -0.11762
    59    C    3  pz     Ryd( 4p)     0.00112       0.50201
    60    C    3  pz     Ryd( 3p)     0.00036       0.30320
    61    C    3  pz     Ryd( 5p)     0.00002       2.69122
    62    C    3  dxy    Ryd( 3d)     0.00077       2.51001
    63    C    3  dxz    Ryd( 3d)     0.00049       1.65078
    64    C    3  dyz    Ryd( 3d)     0.00052       1.62550
    65    C    3  dx2y2  Ryd( 3d)     0.00065       2.54538
    66    C    3  dz2    Ryd( 3d)     0.00043       2.04229

    67    C    4  S      Cor( 1S)     1.99901     -10.03814
    68    C    4  S      Val( 2S)     0.95435      -0.16867
    69    C    4  S      Ryd( 3S)     0.00212       0.70877
    70    C    4  S      Ryd( 4S)     0.00021       1.37975
    71    C    4  S      Ryd( 5S)     0.00001      22.48405
    72    C    4  px     Val( 2p)     1.09139      -0.05934
    73    C    4  px     Ryd( 4p)     0.00628       0.89828
    74    C    4  px     Ryd( 3p)     0.00042       0.37516
    75    C    4  px     Ryd( 5p)     0.00014       3.14428
    76    C    4  py     Val( 2p)     1.14899      -0.06775
    77    C    4  py     Ryd( 4p)     0.00495       0.95613
    78    C    4  py     Ryd( 3p)     0.00037       0.32737
    79    C    4  py     Ryd( 5p)     0.00010       3.16834
    80    C    4  pz     Val( 2p)     1.00781      -0.11834
    81    C    4  pz     Ryd( 4p)     0.00106       0.49436
    82    C    4  pz     Ryd( 3p)     0.00032       0.29992
    83    C    4  pz     Ryd( 5p)     0.00001       2.68963
    84    C    4  dxy    Ryd( 3d)     0.00071       2.49585
    85    C    4  dxz    Ryd( 3d)     0.00048       1.64743
    86    C    4  dyz    Ryd( 3d)     0.00047       1.62844
    87    C    4  dx2y2  Ryd( 3d)     0.00068       2.55134
    88    C    4  dz2    Ryd( 3d)     0.00041       2.05809

    89    C    5  S      Cor( 1S)     1.99889     -10.07539
    90    C    5  S      Val( 2S)     0.85956      -0.14100
    91    C    5  S      Ryd( 3S)     0.00105       0.66667
    92    C    5  S      Ryd( 4S)     0.00018       0.68683
    93    C    5  S      Ryd( 5S)     0.00001      23.09614
    94    C    5  px     Val( 2p)     0.89639      -0.04965
    95    C    5  px     Ryd( 4p)     0.00595       1.08447
    96    C    5  px     Ryd( 3p)     0.00036       0.56687
    97    C    5  px     Ryd( 5p)     0.00014       3.03152
    98    C    5  py     Val( 2p)     1.08596      -0.05556
    99    C    5  py     Ryd( 4p)     0.00490       0.97820
   100    C    5  py     Ryd( 3p)     0.00094       0.60012
   101    C    5  py     Ryd( 5p)     0.00014       2.94349
   102    C    5  pz     Val( 2p)     1.01006      -0.11352
   103    C    5  pz     Ryd( 4p)     0.00161       0.57208
   104    C    5  pz     Ryd( 3p)     0.00029       0.52664
   105    C    5  pz     Ryd( 5p)     0.00002       2.45710
   106    C    5  dxy    Ryd( 3d)     0.00143       2.60017
   107    C    5  dxz    Ryd( 3d)     0.00092       1.62245
   108    C    5  dyz    Ryd( 3d)     0.00055       1.66841
   109    C    5  dx2y2  Ryd( 3d)     0.00119       2.44587
   110    C    5  dz2    Ryd( 3d)     0.00046       2.03508

   111    C    6  S      Cor( 1S)     1.99903     -10.03570
   112    C    6  S      Val( 2S)     0.95561      -0.16491
   113    C    6  S      Ryd( 3S)     0.00179       0.73467
   114    C    6  S      Ryd( 4S)     0.00029       0.89361
   115    C    6  S      Ryd( 5S)     0.00001      22.96518
   116    C    6  px     Val( 2p)     1.08040      -0.05007
   117    C    6  px     Ryd( 4p)     0.00551       0.89959
   118    C    6  px     Ryd( 3p)     0.00043       0.39338
   119    C    6  px     Ryd( 5p)     0.00014       3.11307
   120    C    6  py     Val( 2p)     1.15781      -0.06426
   121    C    6  py     Ryd( 4p)     0.00554       0.98588
   122    C    6  py     Ryd( 3p)     0.00028       0.31262
   123    C    6  py     Ryd( 5p)     0.00008       3.17323
   124    C    6  pz     Val( 2p)     0.98893      -0.11186
   125    C    6  pz     Ryd( 4p)     0.00094       0.52114
   126    C    6  pz     Ryd( 3p)     0.00029       0.32737
   127    C    6  pz     Ryd( 5p)     0.00002       2.66193
   128    C    6  dxy    Ryd( 3d)     0.00074       2.51097
   129    C    6  dxz    Ryd( 3d)     0.00048       1.65577
   130    C    6  dyz    Ryd( 3d)     0.00049       1.62933
   131    C    6  dx2y2  Ryd( 3d)     0.00072       2.55345
   132    C    6  dz2    Ryd( 3d)     0.00040       2.06242

   133    H    7  S      Val( 1S)     0.77827       0.03212
   134    H    7  S      Ryd( 2S)     0.00104       0.67061
   135    H    7  S      Ryd( 3S)     0.00018       2.00077
   136    H    7  px     Ryd( 2p)     0.00021       2.13555
   137    H    7  py     Ryd( 2p)     0.00034       2.51654
   138    H    7  pz     Ryd( 2p)     0.00017       1.58993

   139    H    8  S      Val( 1S)     0.78801       0.02594
   140    H    8  S      Ryd( 2S)     0.00108       0.75794
   141    H    8  S      Ryd( 3S)     0.00017       1.91992
   142    H    8  px     Ryd( 2p)     0.00021       2.16598
   143    H    8  py     Ryd( 2p)     0.00036       2.48136
   144    H    8  pz     Ryd( 2p)     0.00019       1.58695

   145    H    9  S      Val( 1S)     0.77412       0.04264
   146    H    9  S      Ryd( 2S)     0.00101       0.87432
   147    H    9  S      Ryd( 3S)     0.00018       1.82557
   148    H    9  px     Ryd( 2p)     0.00021       2.14617
   149    H    9  py     Ryd( 2p)     0.00034       2.52412
   150    H    9  pz     Ryd( 2p)     0.00016       1.59662

   151    N   10  S      Cor( 1S)     1.99950     -14.12932
   152    N   10  S      Val( 2S)     1.40183      -0.56964
   153    N   10  S      Ryd( 3S)     0.00063       0.62801
   154    N   10  S      Ryd( 4S)     0.00016       1.22722
   155    N   10  S      Ryd( 5S)     0.00000      35.43471
   156    N   10  px     Val( 2p)     1.29329      -0.19523
   157    N   10  px     Ryd( 3p)     0.00311       0.48577
   158    N   10  px     Ryd( 4p)     0.00053       0.65487
   159    N   10  px     Ryd( 5p)     0.00001       4.11990
   160    N   10  py     Val( 2p)     1.79284      -0.22476
   161    N   10  py     Ryd( 3p)     0.00948       0.49612
   162    N   10  py     Ryd( 4p)     0.00013       0.67615
   163    N   10  py     Ryd( 5p)     0.00002       3.95031
   164    N   10  pz     Val( 2p)     1.34331      -0.18491
   165    N   10  pz     Ryd( 3p)     0.00266       0.46166
   166    N   10  pz     Ryd( 4p)     0.00004       0.61040
   167    N   10  pz     Ryd( 5p)     0.00003       4.17345
   168    N   10  dxy    Ryd( 3d)     0.00081       2.46774
   169    N   10  dxz    Ryd( 3d)     0.00029       2.52170
   170    N   10  dyz    Ryd( 3d)     0.00161       2.73912
   171    N   10  dx2y2  Ryd( 3d)     0.00122       2.61872
   172    N   10  dz2    Ryd( 3d)     0.00056       2.60400

   173    H   11  S      Val( 1S)     0.63864       0.09537
   174    H   11  S      Ryd( 2S)     0.00064       0.75936
   175    H   11  S      Ryd( 3S)     0.00023       2.10800
   176    H   11  px     Ryd( 2p)     0.00047       1.84611
   177    H   11  py     Ryd( 2p)     0.00099       1.82889
   178    H   11  pz     Ryd( 2p)     0.00031       2.38671

   179    H   12  S      Val( 1S)     0.63806       0.09603
   180    H   12  S      Ryd( 2S)     0.00063       0.77687
   181    H   12  S      Ryd( 3S)     0.00023       2.09126
   182    H   12  px     Ryd( 2p)     0.00046       1.86164
   183    H   12  py     Ryd( 2p)     0.00099       1.83073
   184    H   12  pz     Ryd( 2p)     0.00030       2.36983

   185    H   13  S      Val( 1S)     0.78120       0.05164
   186    H   13  S      Ryd( 2S)     0.00095       0.71541
   187    H   13  S      Ryd( 3S)     0.00020       1.94076
   188    H   13  px     Ryd( 2p)     0.00022       2.19010
   189    H   13  py     Ryd( 2p)     0.00032       2.53521
   190    H   13  pz     Ryd( 2p)     0.00016       1.60743

   191    O   14  S      Cor( 1S)     1.99977     -18.93909
   192    O   14  S      Val( 2S)     1.67606      -0.91031
   193    O   14  S      Ryd( 4S)     0.00054       1.94220
   194    O   14  S      Ryd( 3S)     0.00037       0.97754
   195    O   14  S      Ryd( 5S)     0.00000      49.55513
   196    O   14  px     Val( 2p)     1.46525      -0.30428
   197    O   14  px     Ryd( 3p)     0.00201       0.49430
   198    O   14  px     Ryd( 4p)     0.00016       1.23845
   199    O   14  px     Ryd( 5p)     0.00002       4.78014
   200    O   14  py     Val( 2p)     1.96468      -0.31398
   201    O   14  py     Ryd( 3p)     0.00414       0.54163
   202    O   14  py     Ryd( 4p)     0.00002       1.20145
   203    O   14  py     Ryd( 5p)     0.00001       4.77580
   204    O   14  pz     Val( 2p)     1.61020      -0.29873
   205    O   14  pz     Ryd( 3p)     0.00176       0.56624
   206    O   14  pz     Ryd( 4p)     0.00014       1.20795
   207    O   14  pz     Ryd( 5p)     0.00002       4.87858
   208    O   14  dxy    Ryd( 3d)     0.00035       3.05536
   209    O   14  dxz    Ryd( 3d)     0.00092       3.17306
   210    O   14  dyz    Ryd( 3d)     0.00067       2.95022
   211    O   14  dx2y2  Ryd( 3d)     0.00083       3.28584
   212    O   14  dz2    Ryd( 3d)     0.00152       3.44466

   213    H   15  S      Val( 1S)     0.52458       0.10969
   214    H   15  S      Ryd( 2S)     0.00060       1.20160
   215    H   15  S      Ryd( 3S)     0.00033       1.53008
   216    H   15  px     Ryd( 2p)     0.00112       1.85412
   217    H   15  py     Ryd( 2p)     0.00182       1.52148
   218    H   15  pz     Ryd( 2p)     0.00069       2.46217

 WARNING:  1 low occupancy (<1.9990e) core orbital  found on  C    2
           1 low occupancy (<1.9990e) core orbital  found on  C    5

 WARNING:  Population inversion found on atom  C    1
           Population inversion found on atom  C    2
           Population inversion found on atom  C    3
           Population inversion found on atom  C    4
           Population inversion found on atom  C    5
           Population inversion found on atom  C    6
           Population inversion found on atom  O   14


 Summary of Natural Population Analysis:                  
                                                          
                                       Natural Population 
                Natural  -----------------------------------------------
    Atom  No    Charge         Core      Valence    Rydberg      Total
 -----------------------------------------------------------------------
      C    1   -0.23516      1.99903     4.21821    0.01792     6.23516
      C    2    0.28635      1.99867     3.69232    0.02267     5.71365
      C    3   -0.23803      1.99902     4.22037    0.01864     6.23803
      C    4   -0.22027      1.99901     4.20254    0.01872     6.22027
      C    5    0.12898      1.99889     3.85197    0.02016     5.87102
      C    6   -0.19995      1.99903     4.18275    0.01817     6.19995
      H    7    0.21978      0.00000     0.77827    0.00194     0.78022
      H    8    0.21000      0.00000     0.78801    0.00200     0.79000
      H    9    0.22397      0.00000     0.77412    0.00191     0.77603
      N   10   -0.85207      1.99950     5.83126    0.02130     7.85207
      H   11    0.35872      0.00000     0.63864    0.00264     0.64128
      H   12    0.35931      0.00000     0.63806    0.00262     0.64069
      H   13    0.21695      0.00000     0.78120    0.00185     0.78305
      O   14   -0.72944      1.99977     6.71618    0.01349     8.72944
      H   15    0.47086      0.00000     0.52458    0.00456     0.52914
 =======================================================================
   * Total *    0.00000     15.99292    41.83849    0.16859    58.00000

                                 Natural Population      
 --------------------------------------------------------
   Core                      15.99292 ( 99.9557% of  16)
   Valence                   41.83849 ( 99.6155% of  42)
   Natural Minimal Basis     57.83141 ( 99.7093% of  58)
   Natural Rydberg Basis      0.16859 (  0.2907% of  58)
 --------------------------------------------------------

    Atom  No          Natural Electron Configuration
 ----------------------------------------------------------------------------
      C    1      [core]2S( 0.95)2p( 3.26)4p( 0.01)
      C    2      [core]2S( 0.85)2p( 2.84)3d( 0.01)4p( 0.01)
      C    3      [core]2S( 0.96)2p( 3.26)4p( 0.01)
      C    4      [core]2S( 0.95)2p( 3.25)4p( 0.01)
      C    5      [core]2S( 0.86)2p( 2.99)4p( 0.01)
      C    6      [core]2S( 0.96)2p( 3.23)4p( 0.01)
      H    7            1S( 0.78)
      H    8            1S( 0.79)
      H    9            1S( 0.77)
      N   10      [core]2S( 1.40)2p( 4.43)3p( 0.02)
      H   11            1S( 0.64)
      H   12            1S( 0.64)
      H   13            1S( 0.78)
      O   14      [core]2S( 1.68)2p( 5.04)3p( 0.01)
      H   15            1S( 0.52)


 NBO analysis skipped by request.
 Calling FoFJK, ICntrl=      2127 FMM=F ISym2X=0 I1Cent= 0 IOpClX= 0 NMat=1 NMatS=1 NMatT=0.
 ***** Axes restored to original set *****
 -------------------------------------------------------------------
 Center     Atomic                   Forces (Hartrees/Bohr)
 Number     Number              X              Y              Z
 -------------------------------------------------------------------
      1        6           0.008747176    0.002388939   -0.001064419
      2        6          -0.000802784   -0.017775549    0.007302165
      3        6           0.010243960   -0.006619966   -0.001135392
      4        6           0.004070914   -0.004356491   -0.000409978
      5        6           0.003270411    0.020459299   -0.000010453
      6        6          -0.005258832    0.004031162   -0.000476727
      7        1          -0.009670299    0.003617106   -0.000143292
      8        1          -0.008790455   -0.004611054   -0.000032386
      9        1           0.010300965   -0.003915206   -0.000020385
     10        7          -0.018973547   -0.025170541    0.000036576
     11        1           0.006878186    0.006561612    0.008674135
     12        1           0.006846924    0.006527725   -0.008678305
     13        1          -0.007657850   -0.006069322   -0.000156673
     14        8           0.000870639    0.023710115   -0.006888883
     15        1          -0.000075409    0.001222170    0.003004016
 -------------------------------------------------------------------
 Cartesian Forces:  Max     0.025170541 RMS     0.008793228

 GradGradGradGradGradGradGradGradGradGradGradGradGradGradGradGradGradGrad
 Berny optimization.
 FormGI is forming the generalized inverse of G from B-inverse, IUseBI=4.
 Internal  Forces:  Max     0.024944402 RMS     0.005270476
 Search for a local minimum.
 Step number   1 out of a maximum of   77
 All quantities printed in internal units (Hartrees-Bohrs-Radians)
 Mixed Optimization -- RFO/linear search
 Second derivative matrix not updated -- first step.
 ITU=  0
     Eigenvalues ---    0.00766   0.01295   0.01726   0.02002   0.02152
     Eigenvalues ---    0.02153   0.02154   0.02155   0.02155   0.02156
     Eigenvalues ---    0.02157   0.05453   0.16000   0.16000   0.16000
     Eigenvalues ---    0.16000   0.16000   0.16000   0.16000   0.22000
     Eigenvalues ---    0.22982   0.24000   0.25000   0.25000   0.33718
     Eigenvalues ---    0.33718   0.33726   0.35740   0.37230   0.40989
     Eigenvalues ---    0.42107   0.42496   0.46412   0.46453   0.46466
     Eigenvalues ---    0.46497   0.47688   0.47688   0.55473
 RFO step:  Lambda=-5.56258746D-03 EMin= 7.65814437D-03
 Linear search not attempted -- first point.
 Iteration  1 RMS(Cart)=  0.02713703 RMS(Int)=  0.00057453
 Iteration  2 RMS(Cart)=  0.00053584 RMS(Int)=  0.00017743
 Iteration  3 RMS(Cart)=  0.00000037 RMS(Int)=  0.00017743
 Variable       Old X    -DE/DX   Delta X   Delta X   Delta X     New X
                                 (Linear)    (Quad)   (Total)
    R1        2.63647  -0.00429   0.00000  -0.00945  -0.00937   2.62710
    R2        2.63584   0.00034   0.00000   0.00061   0.00061   2.63646
    R3        2.02201   0.00963   0.00000   0.02547   0.02547   2.04748
    R4        2.63562  -0.00439   0.00000  -0.00952  -0.00944   2.62618
    R5        2.70231  -0.02494   0.00000  -0.06004  -0.06004   2.64227
    R6        2.63697  -0.00086   0.00000  -0.00171  -0.00171   2.63526
    R7        2.07809  -0.01014   0.00000  -0.02957  -0.02957   2.04852
    R8        2.63584   0.00327   0.00000   0.00725   0.00717   2.64301
    R9        2.07809  -0.00993   0.00000  -0.02896  -0.02896   2.04913
   R10        2.63643  -0.00270   0.00000  -0.00556  -0.00564   2.63079
   R11        2.77790  -0.01221   0.00000  -0.03365  -0.03365   2.74425
   R12        2.07795  -0.01083   0.00000  -0.03159  -0.03159   2.04636
   R13        1.88973   0.01249   0.00000   0.02589   0.02589   1.91561
   R14        1.88973   0.01247   0.00000   0.02584   0.02584   1.91557
   R15        1.81414   0.00242   0.00000   0.00433   0.00433   1.81846
    A1        2.09437  -0.00104   0.00000  -0.00574  -0.00557   2.08880
    A2        2.09441  -0.00118   0.00000  -0.00738  -0.00748   2.08693
    A3        2.09441   0.00222   0.00000   0.01312   0.01302   2.10743
    A4        2.09455   0.00253   0.00000   0.00882   0.00835   2.10290
    A5        2.09432  -0.00112   0.00000  -0.00385  -0.00469   2.08963
    A6        2.09432  -0.00141   0.00000  -0.00497  -0.00581   2.08851
    A7        2.09429  -0.00208   0.00000  -0.00957  -0.00941   2.08489
    A8        2.09462  -0.00100   0.00000  -0.00757  -0.00767   2.08695
    A9        2.09427   0.00309   0.00000   0.01714   0.01704   2.11132
   A10        2.09429   0.00281   0.00000   0.01317   0.01317   2.10746
   A11        2.09407  -0.00126   0.00000  -0.00572  -0.00573   2.08834
   A12        2.09483  -0.00155   0.00000  -0.00744  -0.00745   2.08738
   A13        2.09448  -0.00474   0.00000  -0.01778  -0.01786   2.07662
   A14        2.09459   0.01099   0.00000   0.04261   0.04264   2.13723
   A15        2.09411  -0.00625   0.00000  -0.02484  -0.02481   2.06931
   A16        2.09440   0.00252   0.00000   0.01112   0.01113   2.10553
   A17        2.09453   0.00087   0.00000   0.00729   0.00727   2.10181
   A18        2.09426  -0.00339   0.00000  -0.01840  -0.01842   2.07584
   A19        1.91063   0.00347   0.00000   0.02136   0.02123   1.93187
   A20        1.91063   0.00345   0.00000   0.02122   0.02109   1.93172
   A21        1.91063  -0.00335   0.00000  -0.01943  -0.01966   1.89097
   A22        1.91114  -0.00390   0.00000  -0.02358  -0.02358   1.88755
    D1        0.00056  -0.00049   0.00000  -0.02001  -0.02013  -0.01957
    D2       -3.14103   0.00131   0.00000   0.05052   0.05054  -3.09049
    D3       -3.14103  -0.00071   0.00000  -0.02789  -0.02795   3.11421
    D4        0.00056   0.00109   0.00000   0.04265   0.04272   0.04328
    D5        0.00026   0.00018   0.00000   0.00707   0.00704   0.00730
    D6        3.14140   0.00005   0.00000   0.00237   0.00234  -3.13944
    D7       -3.14133   0.00040   0.00000   0.01495   0.01495  -3.12638
    D8       -0.00019   0.00027   0.00000   0.01025   0.01026   0.01007
    D9       -0.00099   0.00049   0.00000   0.01991   0.01997   0.01898
   D10        3.14093   0.00070   0.00000   0.02766   0.02770  -3.11456
   D11        3.14060  -0.00131   0.00000  -0.05062  -0.05065   3.08995
   D12       -0.00067  -0.00110   0.00000  -0.04287  -0.04292  -0.04359
   D13       -1.56150  -0.00083   0.00000  -0.03153  -0.03131  -1.59280
   D14        1.58010   0.00097   0.00000   0.03900   0.03878   1.61887
   D15        0.00060  -0.00017   0.00000  -0.00686  -0.00678  -0.00618
   D16       -3.14153  -0.00005   0.00000  -0.00216  -0.00207   3.13959
   D17       -3.14132  -0.00039   0.00000  -0.01461  -0.01462   3.12724
   D18       -0.00026  -0.00026   0.00000  -0.00991  -0.00991  -0.01018
   D19        0.00023  -0.00014   0.00000  -0.00609  -0.00608  -0.00585
   D20       -3.14158   0.00002   0.00000   0.00127   0.00137  -3.14021
   D21       -3.14083  -0.00027   0.00000  -0.01079  -0.01079   3.13157
   D22        0.00054  -0.00011   0.00000  -0.00343  -0.00334  -0.00279
   D23       -0.00066   0.00014   0.00000   0.00598   0.00594   0.00529
   D24        3.14138   0.00026   0.00000   0.01068   0.01056  -3.13124
   D25        3.14116  -0.00002   0.00000  -0.00139  -0.00122   3.13993
   D26        0.00001   0.00010   0.00000   0.00330   0.00339   0.00341
   D27       -1.04940  -0.00012   0.00000  -0.00255  -0.00267  -1.05207
   D28        1.04499   0.00002   0.00000  -0.00027  -0.00021   1.04479
   D29        2.09197   0.00004   0.00000   0.00482   0.00475   2.09672
   D30       -2.09682   0.00018   0.00000   0.00709   0.00722  -2.08960
         Item               Value     Threshold  Converged?
 Maximum Force            0.024944     0.000450     NO 
 RMS     Force            0.005270     0.000300     NO 
 Maximum Displacement     0.084525     0.001800     NO 
 RMS     Displacement     0.027273     0.001200     NO 
 Predicted change in Energy=-2.866590D-03
 GradGradGradGradGradGradGradGradGradGradGradGradGradGradGradGradGradGrad

                          Input orientation:                          
 ---------------------------------------------------------------------
 Center     Atomic      Atomic             Coordinates (Angstroms)
 Number     Number       Type             X           Y           Z
 ---------------------------------------------------------------------
      1          6           0       -1.950957   -1.234917    0.014012
      2          6           0       -0.767423   -1.964064    0.030114
      3          6           0        0.461094   -1.314602    0.014247
      4          6           0        0.499780    0.079351    0.004975
      5          6           0       -0.681914    0.827504    0.004038
      6          6           0       -1.903275    0.159394    0.005401
      7          1           0        1.374608   -1.898089    0.001663
      8          1           0        1.456618    0.589426   -0.005522
      9          1           0       -2.817733    0.739314   -0.005136
     10          7           0       -0.684868    2.279651   -0.007168
     11          1           0       -0.212065    2.645059    0.811686
     12          1           0       -0.212804    2.632230   -0.832020
     13          1           0       -2.900382   -1.756789    0.000925
     14          8           0       -0.812626   -3.360541   -0.023262
     15          1           0       -0.835473   -3.694401    0.878967
 ---------------------------------------------------------------------
                    Distance matrix (angstroms):
                    1          2          3          4          5
     1  C    0.000000
     2  C    1.390204   0.000000
     3  C    2.413367   1.389715   0.000000
     4  C    2.780915   2.404575   1.394521   0.000000
     5  C    2.421600   2.792999   2.428002   1.398619   0.000000
     6  C    1.395153   2.408287   2.786214   2.404388   1.392155
     7  H    3.391067   2.143236   1.084031   2.162315   3.414403
     8  H    3.865252   3.386435   2.148670   1.084355   2.151765
     9  H    2.156212   3.393119   3.869063   3.382535   2.137658
    10  N    3.735722   4.244682   3.772578   2.498972   1.452194
    11  H    4.325996   4.707790   4.094871   2.782151   2.043663
    12  H    4.323398   4.709224   4.092406   2.779483   2.043549
    13  H    1.083480   2.143205   3.390461   3.864263   3.405903
    14  O    2.411528   1.398228   2.410318   3.681856   4.190173
    15  H    2.835756   1.928535   2.844691   4.097312   4.608330
                    6          7          8          9         10
     6  C    0.000000
     7  H    3.870113   0.000000
     8  H    3.387319   2.488878   0.000000
     9  H    1.082890   4.952945   4.276978   0.000000
    10  N    2.445438   4.657793   2.728154   2.630924   0.000000
    11  H    3.112686   4.879946   2.770913   3.329950   1.013700
    12  H    3.110287   4.872237   2.764618   3.324534   1.013675
    13  H    2.160092   4.277325   4.948557   2.497477   4.604500
    14  O    3.685143   2.631231   4.555439   4.563944   5.641662
    15  H    4.093294   2.980076   4.938338   4.936478   6.041293
                   11         12         13         14         15
    11  H    0.000000
    12  H    1.643757   0.000000
    13  H    5.221173   5.213479   0.000000
    14  O    6.093032   6.076773   2.632743   0.000000
    15  H    6.370394   6.583422   2.964650   0.962290   0.000000
 Stoichiometry    C6H7NO
 Framework group  C1[X(C6H7NO)]
 Deg. of freedom    39
 Full point group                 C1      NOp   1
 Largest Abelian subgroup         C1      NOp   1
 Largest concise Abelian subgroup C1      NOp   1
                         Standard orientation:                         
 ---------------------------------------------------------------------
 Center     Atomic      Atomic             Coordinates (Angstroms)
 Number     Number       Type             X           Y           Z
 ---------------------------------------------------------------------
      1          6           0       -0.729265    1.205322   -0.014596
      2          6           0       -1.407195   -0.008366   -0.008490
      3          6           0       -0.705536   -1.207928   -0.014274
      4          6           0        0.688781   -1.186854   -0.003248
      5          6           0        1.385557    0.025809    0.006087
      6          6           0        0.665787    1.217424   -0.002900
      7          1           0       -1.249107   -2.145601   -0.034872
      8          1           0        1.239479   -2.120959   -0.005831
      9          1           0        1.206089    2.155889   -0.005472
     10          7           0        2.836253    0.090977    0.016003
     11          1           0        3.209624   -0.365823    0.840330
     12          1           0        3.220700   -0.365459   -0.803389
     13          1           0       -1.291086    2.131518   -0.035762
     14          8           0       -2.803402   -0.023031   -0.082197
     15          1           0       -3.151030   -0.014605    0.815069
 ---------------------------------------------------------------------
 Rotational constants (GHZ):      5.5796851      1.4534628      1.1644158
 Standard basis: 6-311+G(d,p) (5D, 7F)
 There are   226 symmetry adapted cartesian basis functions of A   symmetry.
 There are   218 symmetry adapted basis functions of A   symmetry.
   218 basis functions,   344 primitive gaussians,   226 cartesian basis functions
    29 alpha electrons       29 beta electrons
       nuclear repulsion energy       343.0458977032 Hartrees.
 NAtoms=   15 NActive=   15 NUniq=   15 SFac= 1.00D+00 NAtFMM=   60 NAOKFM=F Big=F
 Integral buffers will be    131072 words long.
 Raffenetti 2 integral format.
 Two-electron integral symmetry is turned on.
 One-electron integrals computed using PRISM.
 NBasis=   218 RedAO= T EigKep=  2.55D-06  NBF=   218
 NBsUse=   218 1.00D-06 EigRej= -1.00D+00 NBFU=   218
 Initial guess from the checkpoint file:  "Traceless6_Smith.chk"
 B after Tr=     0.000000    0.000000    0.000000
         Rot=    0.999997    0.000204   -0.000056    0.002313 Ang=   0.27 deg.
 ExpMin= 4.38D-02 ExpMax= 8.59D+03 ExpMxC= 1.30D+03 IAcc=2 IRadAn=         4 AccDes= 0.00D+00
 Harris functional with IExCor=  402 and IRadAn=       4 diagonalized for initial guess.
 HarFok:  IExCor=  402 AccDes= 0.00D+00 IRadAn=         4 IDoV= 1 UseB2=F ITyADJ=14
 ICtDFT=  3500011 ScaDFX=  1.000000  1.000000  1.000000  1.000000
 FoFCou: FMM=F IPFlag=           0 FMFlag=      100000 FMFlg1=           0
         NFxFlg=           0 DoJE=T BraDBF=F KetDBF=T FulRan=T
         wScrn=  0.000000 ICntrl=     500 IOpCl=  0 I1Cent=   200000004 NGrid=           0
         NMat0=    1 NMatS0=      1 NMatT0=    0 NMatD0=    1 NMtDS0=    0 NMtDT0=    0
 Petite list used in FoFCou.
 Keep R1 ints in memory in canonical form, NReq=290950662.
 Requested convergence on RMS density matrix=1.00D-08 within 128 cycles.
 Requested convergence on MAX density matrix=1.00D-06.
 Requested convergence on             energy=1.00D-06.
 No special actions if energy rises.
 SCF Done:  E(RB3LYP) =  -362.919990374     A.U. after   12 cycles
            NFock= 12  Conv=0.34D-08     -V/T= 2.0041
 Calling FoFJK, ICntrl=      2127 FMM=F ISym2X=0 I1Cent= 0 IOpClX= 0 NMat=1 NMatS=1 NMatT=0.
 ***** Axes restored to original set *****
 -------------------------------------------------------------------
 Center     Atomic                   Forces (Hartrees/Bohr)
 Number     Number              X              Y              Z
 -------------------------------------------------------------------
      1        6          -0.000583324    0.002667768   -0.000045581
      2        6          -0.001628353   -0.007071871   -0.001870652
      3        6           0.001850584    0.003325997   -0.000163412
      4        6          -0.000254458   -0.002142642    0.000373543
      5        6           0.002500709    0.007325467   -0.000309484
      6        6          -0.001863303   -0.002553861    0.000325824
      7        1          -0.000365684   -0.000174388   -0.000023179
      8        1           0.000412532    0.000439330   -0.000041528
      9        1           0.000128837    0.000761304   -0.000020707
     10        7          -0.002522287   -0.007495628    0.000101521
     11        1           0.000990731    0.001388904   -0.000262187
     12        1           0.000968316    0.001431952    0.000176825
     13        1           0.000133478   -0.000527176   -0.000031201
     14        8           0.000444704    0.004755889    0.001952414
     15        1          -0.000212481   -0.002131046   -0.000162196
 -------------------------------------------------------------------
 Cartesian Forces:  Max     0.007495628 RMS     0.002377028

 GradGradGradGradGradGradGradGradGradGradGradGradGradGradGradGradGradGrad
 Berny optimization.
 Using GEDIIS/GDIIS optimizer.
 FormGI is forming the generalized inverse of G from B-inverse, IUseBI=4.
 Internal  Forces:  Max     0.004674016 RMS     0.001091654
 Search for a local minimum.
 Step number   2 out of a maximum of   77
 All quantities printed in internal units (Hartrees-Bohrs-Radians)
 Mixed Optimization -- RFO/linear search
 Update second derivatives using D2CorX and points    1    2
 DE= -3.01D-03 DEPred=-2.87D-03 R= 1.05D+00
 TightC=F SS=  1.41D+00  RLast= 1.75D-01 DXNew= 5.0454D-01 5.2550D-01
 Trust test= 1.05D+00 RLast= 1.75D-01 DXMaxT set to 5.05D-01
 ITU=  1  0
 Use linear search instead of GDIIS.
     Eigenvalues ---    0.00766   0.01294   0.01720   0.02082   0.02152
     Eigenvalues ---    0.02153   0.02154   0.02155   0.02155   0.02156
     Eigenvalues ---    0.02175   0.05207   0.14901   0.15999   0.16000
     Eigenvalues ---    0.16000   0.16000   0.16000   0.16573   0.21998
     Eigenvalues ---    0.23132   0.23470   0.24706   0.24946   0.32766
     Eigenvalues ---    0.33723   0.33767   0.34996   0.37483   0.40033
     Eigenvalues ---    0.42088   0.42716   0.46377   0.46455   0.46475
     Eigenvalues ---    0.46759   0.47688   0.49239   0.55445
 RFO step:  Lambda=-3.30524112D-04 EMin= 7.65786730D-03
 Quartic linear search produced a step of  0.07420.
 Iteration  1 RMS(Cart)=  0.00678279 RMS(Int)=  0.00007110
 Iteration  2 RMS(Cart)=  0.00006490 RMS(Int)=  0.00001598
 Iteration  3 RMS(Cart)=  0.00000001 RMS(Int)=  0.00001598
 Variable       Old X    -DE/DX   Delta X   Delta X   Delta X     New X
                                 (Linear)    (Quad)   (Total)
    R1        2.62710   0.00134  -0.00069   0.00328   0.00259   2.62970
    R2        2.63646  -0.00031   0.00005  -0.00068  -0.00064   2.63582
    R3        2.04748   0.00014   0.00189   0.00003   0.00192   2.04940
    R4        2.62618   0.00284  -0.00070   0.00673   0.00604   2.63222
    R5        2.64227  -0.00270  -0.00445  -0.00622  -0.01067   2.63160
    R6        2.63526  -0.00053  -0.00013  -0.00124  -0.00137   2.63390
    R7        2.04852  -0.00021  -0.00219  -0.00025  -0.00244   2.04608
    R8        2.64301   0.00046   0.00053   0.00089   0.00142   2.64442
    R9        2.04913   0.00057  -0.00215   0.00224   0.00009   2.04923
   R10        2.63079   0.00225  -0.00042   0.00524   0.00481   2.63560
   R11        2.74425  -0.00467  -0.00250  -0.01355  -0.01605   2.72820
   R12        2.04636   0.00030  -0.00234   0.00141  -0.00093   2.04543
   R13        1.91561   0.00075   0.00192   0.00134   0.00326   1.91887
   R14        1.91557   0.00081   0.00192   0.00146   0.00337   1.91894
   R15        1.81846   0.00059   0.00032   0.00109   0.00141   1.81987
    A1        2.08880   0.00041  -0.00041   0.00202   0.00162   2.09043
    A2        2.08693  -0.00074  -0.00056  -0.00442  -0.00499   2.08194
    A3        2.10743   0.00033   0.00097   0.00242   0.00337   2.11080
    A4        2.10290  -0.00147   0.00062  -0.00626  -0.00568   2.09722
    A5        2.08963   0.00091  -0.00035   0.00422   0.00380   2.09343
    A6        2.08851   0.00056  -0.00043   0.00272   0.00222   2.09072
    A7        2.08489   0.00095  -0.00070   0.00454   0.00386   2.08874
    A8        2.08695  -0.00083  -0.00057  -0.00441  -0.00499   2.08196
    A9        2.11132  -0.00012   0.00126  -0.00011   0.00114   2.11246
   A10        2.10746   0.00020   0.00098   0.00032   0.00130   2.10876
   A11        2.08834   0.00010  -0.00042   0.00114   0.00071   2.08905
   A12        2.08738  -0.00030  -0.00055  -0.00147  -0.00203   2.08535
   A13        2.07662  -0.00067  -0.00132  -0.00298  -0.00431   2.07231
   A14        2.13723   0.00171   0.00316   0.00687   0.01004   2.14727
   A15        2.06931  -0.00104  -0.00184  -0.00387  -0.00571   2.06360
   A16        2.10553   0.00058   0.00083   0.00239   0.00322   2.10874
   A17        2.10181   0.00044   0.00054   0.00346   0.00400   2.10581
   A18        2.07584  -0.00102  -0.00137  -0.00586  -0.00723   2.06861
   A19        1.93187   0.00139   0.00158   0.00766   0.00922   1.94109
   A20        1.93172   0.00143   0.00156   0.00795   0.00950   1.94122
   A21        1.89097  -0.00174  -0.00146  -0.01374  -0.01524   1.87573
   A22        1.88755   0.00375  -0.00175   0.02551   0.02376   1.91131
    D1       -0.01957   0.00000  -0.00149   0.00080  -0.00070  -0.02027
    D2       -3.09049  -0.00015   0.00375  -0.01036  -0.00660  -3.09709
    D3        3.11421   0.00004  -0.00207   0.00307   0.00098   3.11519
    D4        0.04328  -0.00011   0.00317  -0.00809  -0.00492   0.03837
    D5        0.00730   0.00006   0.00052   0.00238   0.00291   0.01020
    D6       -3.13944   0.00000   0.00017  -0.00039  -0.00023  -3.13967
    D7       -3.12638   0.00003   0.00111   0.00012   0.00123  -3.12515
    D8        0.01007  -0.00004   0.00076  -0.00265  -0.00190   0.00816
    D9        0.01898   0.00000   0.00148  -0.00105   0.00044   0.01942
   D10       -3.11456  -0.00004   0.00206  -0.00303  -0.00097  -3.11553
   D11        3.08995   0.00016  -0.00376   0.01016   0.00640   3.09634
   D12       -0.04359   0.00013  -0.00318   0.00818   0.00498  -0.03861
   D13       -1.59280   0.00016  -0.00232   0.01525   0.01296  -1.57985
   D14        1.61887   0.00009   0.00288   0.00456   0.00740   1.62627
   D15       -0.00618  -0.00005  -0.00050  -0.00181  -0.00232  -0.00850
   D16        3.13959   0.00002  -0.00015   0.00101   0.00085   3.14044
   D17        3.12724  -0.00001  -0.00108   0.00018  -0.00091   3.12633
   D18       -0.01018   0.00005  -0.00074   0.00300   0.00226  -0.00791
   D19       -0.00585   0.00008  -0.00045   0.00481   0.00435  -0.00150
   D20       -3.14021   0.00005   0.00010   0.00188   0.00198  -3.13823
   D21        3.13157   0.00002  -0.00080   0.00200   0.00120   3.13276
   D22       -0.00279  -0.00001  -0.00025  -0.00093  -0.00118  -0.00398
   D23        0.00529  -0.00009   0.00044  -0.00508  -0.00464   0.00065
   D24       -3.13124  -0.00003   0.00078  -0.00237  -0.00160  -3.13284
   D25        3.13993  -0.00005  -0.00009  -0.00222  -0.00231   3.13762
[...]
 ! A3    A(6,1,13)             119.4699         -DE/DX =    0.0                 !
 ! A4    A(1,2,3)              119.2495         -DE/DX =    0.0                 !
 ! A5    A(1,2,14)             123.0755         -DE/DX =    0.0                 !
 ! A6    A(3,2,14)             117.675          -DE/DX =    0.0                 !
 ! A7    A(2,3,4)              120.2365         -DE/DX =    0.0                 !
 ! A8    A(2,3,7)              119.0809         -DE/DX =    0.0                 !
 ! A9    A(4,3,7)              120.6825         -DE/DX =    0.0                 !
 ! A10   A(3,4,5)              121.1635         -DE/DX =    0.0                 !
 ! A11   A(3,4,8)              119.2936         -DE/DX =    0.0                 !
 ! A12   A(5,4,8)              119.5423         -DE/DX =    0.0                 !
 ! A13   A(4,5,6)              118.0449         -DE/DX =    0.0                 !
 ! A14   A(4,5,10)             120.8461         -DE/DX =    0.0                 !
 ! A15   A(6,5,10)             121.0295         -DE/DX =    0.0                 !
 ! A16   A(1,6,5)              120.9172         -DE/DX =    0.0                 !
 ! A17   A(1,6,9)              119.3161         -DE/DX =    0.0                 !
 ! A18   A(5,6,9)              119.7659         -DE/DX =    0.0                 !
 ! A19   A(5,10,11)            114.6574         -DE/DX =    0.0                 !
 ! A20   A(5,10,12)            114.7153         -DE/DX =    0.0                 !
 ! A21   A(11,10,12)           111.0251         -DE/DX =    0.0                 !
 ! A22   A(2,14,15)            109.5389         -DE/DX =    0.0                 !
 ! D1    D(6,1,2,3)              0.0028         -DE/DX =    0.0                 !
 ! D2    D(6,1,2,14)          -179.9251         -DE/DX =    0.0                 !
 ! D3    D(13,1,2,3)           179.9787         -DE/DX =    0.0                 !
 ! D4    D(13,1,2,14)            0.0509         -DE/DX =    0.0                 !
 ! D5    D(2,1,6,5)              0.0832         -DE/DX =    0.0                 !
 ! D6    D(2,1,6,9)           -179.597          -DE/DX =    0.0                 !
 ! D7    D(13,1,6,5)          -179.8929         -DE/DX =    0.0                 !
 ! D8    D(13,1,6,9)             0.427          -DE/DX =    0.0                 !
 ! D9    D(1,2,3,4)              0.0273         -DE/DX =    0.0                 !
 ! D10   D(1,2,3,7)           -180.0099         -DE/DX =    0.0                 !
 ! D11   D(14,2,3,4)           179.959          -DE/DX =    0.0                 !
 ! D12   D(14,2,3,7)            -0.0782         -DE/DX =    0.0                 !
 ! D13   D(1,2,14,15)           -0.4967         -DE/DX =    0.0                 !
 ! D14   D(3,2,14,15)          179.5744         -DE/DX =    0.0                 !
 ! D15   D(2,3,4,5)             -0.1441         -DE/DX =    0.0                 !
 ! D16   D(2,3,4,8)            179.5637         -DE/DX =    0.0                 !
 ! D17   D(7,3,4,5)            179.8937         -DE/DX =    0.0                 !
 ! D18   D(7,3,4,8)             -0.3985         -DE/DX =    0.0                 !
 ! D19   D(3,4,5,6)              0.2242         -DE/DX =    0.0                 !
 ! D20   D(3,4,5,10)           177.0131         -DE/DX =    0.0                 !
 ! D21   D(8,4,5,6)           -179.483          -DE/DX =    0.0                 !
 ! D22   D(8,4,5,10)            -2.6941         -DE/DX =    0.0                 !
 ! D23   D(4,5,6,1)             -0.1933         -DE/DX =    0.0                 !
 ! D24   D(4,5,6,9)            179.4854         -DE/DX =    0.0                 !
 ! D25   D(10,5,6,1)          -176.976          -DE/DX =    0.0                 !
 ! D26   D(10,5,6,9)             2.7027         -DE/DX =    0.0                 !
 ! D27   D(4,5,10,11)           26.6419         -DE/DX =    0.0                 !
 ! D28   D(4,5,10,12)          156.8727         -DE/DX =    0.0                 !
 ! D29   D(6,5,10,11)         -156.6655         -DE/DX =    0.0                 !
 ! D30   D(6,5,10,12)          -26.4347         -DE/DX =    0.0                 !
 --------------------------------------------------------------------------------
 GradGradGradGradGradGradGradGradGradGradGradGradGradGradGradGradGradGrad

 1\1\GINC-COREV2-22-004\Freq\RB3LYP\6-311+G(d,p)\C6H7N1O1\ROOT\09-Jan-2
 023\0\\#N Geom=AllCheck Guess=TCheck SCRF=Check GenChk RB3LYP/6-311+G(
 d,p) Freq\\Title Card Required\\0,1\C,-1.8420189786,-1.2428915385,0.05
 06739501\C,-0.663130231,-1.9791885145,0.1434658355\C,0.5570424815,-1.3
 07389121,0.1970075017\C,0.5936094214,0.0813800711,0.1586197413\C,-0.58
 43043512,0.8358311183,0.0629119267\C,-1.8022463009,0.1499369492,0.0117
 272584\H,1.4722479171,-1.8827580489,0.2693198098\H,1.5517478524,0.5890
 105099,0.2084686084\H,-2.7316914402,0.7064654245,-0.0540473042\N,-0.54
 43359666,2.2413420187,0.0873095084\H,0.3217025215,2.6440775432,-0.2415
 666016\H,-1.3398297149,2.6939580144,-0.340092424\H,-2.8009407567,-1.75
 15839773,0.0076747577\O,-0.6378682099,-3.3550154084,0.1843093296\H,-1.
 5374029537,-3.6946476008,0.147139022\\Version=ES64L-G09RevD.01\State=1
 -A\HF=-362.9316024\RMSD=5.188e-09\RMSF=1.183e-05\ZeroPoint=0.1203944\T
 hermal=0.12762\Dipole=-0.4953621,0.5008299,-0.4531648\DipoleDeriv=0.09
 87249,0.2460509,0.0116102,-0.2108259,-0.114618,-0.0132689,0.0218473,0.
 0152759,-0.1541212,-0.1310575,0.0889991,-0.0129184,0.0509469,1.4930469
 ,-0.0415299,-0.0106366,-0.0403124,0.0366684,0.1046772,-0.2399298,0.018
 9753,0.183221,-0.094205,0.0109144,0.0088594,-0.0129789,-0.1409054,0.12
 95348,0.2821988,0.0268185,-0.1888019,-0.1730966,-0.0136207,0.0338072,0
 .0316509,-0.1576002,-0.2017577,0.0716335,-0.0134816,0.0548428,1.439818
 ,0.0116457,-0.0133567,0.0147224,0.0177087,0.1045369,-0.3263367,0.00759
 5,0.1922701,-0.1976068,0.010425,0.0016524,-0.003116,-0.1661967,-0.0172
 165,0.0709813,-0.0116386,0.064468,0.0336644,0.0080882,-0.0114448,0.008
 8742,0.1461664,-0.0577379,-0.0829139,-0.0092585,-0.08914,0.0040756,0.0
 00147,-0.0084454,-0.0014645,0.1364325,-0.0493266,0.0860655,-0.0138348,
 0.0882078,-0.0076459,0.0113091,-0.0143444,0.0091733,0.1379125,-0.11599
 45,-0.0154721,0.0160146,-0.0471615,-1.4433979,-0.0872452,0.0031816,-0.
 4243696,-0.4216353,0.1022341,0.0188563,0.0475898,0.0450333,0.1908531,0
 .0344562,0.069043,0.1846223,0.2378987,0.1098721,-0.0349196,-0.06061,-0
 .0433693,0.1950198,0.0325116,-0.0710175,0.1851306,0.2230291,-0.0533077
 ,-0.098551,-0.0094867,-0.0944305,-0.0129234,0.0002229,-0.0098822,0.000
 0996,0.1475802,-0.1603624,-0.0903836,0.0134973,-0.0734494,-1.6753867,0
 .0337158,0.0130749,0.0310578,-0.3731256,0.1371808,0.0237213,-0.0108721
 ,0.0681886,0.3624026,0.0022288,-0.0123382,0.0016344,0.3301879\Polar=87
 .991195,2.0366014,111.4667347,2.2725825,-1.7928899,49.4068371\PG=C01 [
 X(C6H7N1O1)]\NImag=0\\0.70336123,0.02834087,0.68627214,0.03448655,-0.0
 1479340,0.11871218,-0.27290157,0.03683792,-0.01370369,0.69377552,0.116
 10178,-0.17059123,0.01022088,0.00884321,0.66553876,-0.01624722,0.00530
 801,-0.06080412,0.03283695,-0.01491867,0.14055965,-0.05314350,0.027088
 21,-0.00446635,-0.28173857,-0.10809658,-0.00982860,0.70605353,-0.02018
 209,0.05838045,-0.00284255,-0.03298010,-0.15488159,0.00055878,-0.03265
 005,0.70816158,-0.00284101,-0.00000752,0.00516697,-0.01227734,-0.00385
 503,-0.06455333,0.03623493,-0.01889150,0.12551074,-0.01808623,0.025445
 66,-0.00185108,0.03494195,-0.03173470,0.00281431,-0.12468450,-0.035004
 75,-0.00329316,0.69119473,0.02649502,-0.04880111,0.00311646,-0.0824295
 9,-0.02394605,-0.00415991,0.02361011,-0.34850392,0.00997554,0.03433441
 ,0.69990665,-0.00206420,0.00366040,-0.00102737,0.00549306,-0.00112975,
 0.00240918,-0.00558070,0.00515210,-0.05184540,0.03502261,-0.01271618,0
 .12487664,0.03301689,-0.08008858,0.00462407,-0.08317508,0.00096709,-0.
 00491254,0.04145154,0.07598873,-0.00026501,-0.25825586,0.03766179,-0.0
 1298496,0.67658734,-0.03351703,-0.02292102,-0.00073770,0.00260385,-0.0
 0169852,-0.00022563,0.03003285,-0.02921088,0.00325631,0.10700009,-0.16
 916223,0.01056472,0.00482825,0.68294845,0.00179166,-0.00375144,0.00194
 736,-0.00478043,-0.00050058,-0.00253409,0.00247982,0.00571551,0.002020
 88,-0.01635379,0.00500090,-0.06615253,0.03128975,-0.02152878,0.1538775
 3,-0.12068998,0.02316581,-0.00514735,0.03920290,0.02968025,0.00155546,
 -0.02118959,-0.02661618,-0.00042663,-0.05178800,0.02437443,-0.00434003
 ,-0.27160452,-0.10484344,-0.00789285,0.69247392,-0.03516251,-0.3378358
 6,0.00631229,0.08037491,-0.02771995,0.00581599,-0.02955831,-0.04548415
 ,-0.00036156,-0.01806070,0.05781984,-0.00307591,-0.03577635,-0.1634810
 8,0.00022301,-0.02924223,0.69477885,-0.00288900,0.00856293,-0.04925924
 ,-0.00122400,0.00269656,0.00092012,-0.00005795,0.00041211,-0.00006003,
 -0.00282878,-0.00054350,0.00564487,-0.01115430,-0.00237033,-0.06456497
 ,0.03400579,-0.01658115,0.12044319,-0.00363352,-0.00377820,-0.00041273
 ,-0.01864749,0.01885920,-0.00200044,-0.26052561,0.12318857,-0.01731263
 ,0.00504043,-0.00247975,0.00021912,0.00194382,-0.00148803,-0.00033030,
 0.00024259,-0.00112236,0.00011934,0.27357440,-0.00303129,-0.00103166,-
 0.00001051,-0.01277126,0.01073307,-0.00095013,0.12459110,-0.13436051,0
 .01054894,0.02706288,-0.01113097,0.00200156,-0.00178585,-0.00470886,0.
 00012207,-0.00062154,-0.00070745,-0.00003085,-0.13492107,0.13901227,-0
 .00043176,-0.00006755,0.00499994,-0.00111474,0.00094472,0.00523517,-0.
 01736585,0.01046723,-0.03557101,-0.00065044,0.00029657,0.00232404,-0.0
 0023372,0.00037433,0.00725714,0.00003240,-0.00009662,-0.00097381,0.019
 07705,-0.01157430,0.02533405,0.00029383,0.00101776,0.00004937,0.002326
 96,0.00089701,-0.00039973,0.00227752,0.00114371,-0.00001764,-0.2720623
 6,-0.11080955,-0.01292130,-0.01888671,-0.01681826,-0.00096847,-0.00313
 116,0.00411269,-0.00063773,0.00078740,-0.00026339,0.00036602,0.2879911
 7,0.00054392,-0.00091262,0.00005147,0.00166957,-0.00436617,0.00039213,
 -0.02930884,-0.01077659,-0.00155130,-0.11087867,-0.11651348,-0.0048418
 9,0.01430305,0.00954929,0.00081120,0.00322177,-0.00103871,0.00031404,0
 .00035175,0.00107062,-0.00010488,0.12102270,0.12192887,0.00001955,0.00
 012085,-0.00076023,-0.00034828,0.00043326,0.00723196,0.00093939,0.0005
 9419,0.00253158,-0.01322724,-0.00525883,-0.03411007,-0.00163646,-0.001
 32017,0.00424670,-0.00060614,0.00041566,0.00515022,0.00031271,-0.00017
 628,-0.00439643,0.01451177,0.00504159,0.02375077,0.00372108,-0.0021429
 7,0.00013834,0.00217423,-0.00118819,-0.00018092,0.00013273,-0.00110309
 ,0.00008813,-0.00355999,-0.00403802,-0.00042419,-0.01855961,0.01844081
 ,-0.00185658,-0.25992488,0.11829046,-0.01553908,-0.00003086,0.00008774
 ,0.00003378,-0.00111738,0.00080295,-0.00009367,0.27474991,0.02831220,-
 0.01214935,0.00196277,-0.00219749,-0.00437716,0.00014273,-0.00059889,-
 0.00074063,-0.00002656,-0.00308429,-0.00069212,-0.00006841,-0.01273583
 ,0.00949217,-0.00084534,0.11835839,-0.12848514,0.00933616,0.00008447,0
 .00001591,-0.00000759,-0.00069924,0.00053469,-0.00007916,-0.12882891,0
 .13468370,-0.00083976,0.00042268,0.00183270,-0.00019000,0.00030383,0.0
 0673267,0.00011474,-0.00002625,-0.00096490,-0.00045414,-0.00007273,0.0
 0544902,-0.00120246,0.00077169,0.00418959,-0.01523550,0.00890734,-0.03
 313639,0.00002818,-0.00001257,-0.00055988,-0.00002940,0.00001088,-0.00
 011462,0.01705436,-0.01035734,0.02350778,-0.00799888,0.00598565,-0.001
 86400,0.00711278,-0.00011507,0.00050535,-0.00876024,-0.00534304,0.0003
 0628,0.00279380,0.04418415,-0.00024595,-0.11665788,-0.00686891,-0.0052
 0477,-0.00002569,-0.04650048,-0.00034707,0.00005576,0.00142477,-0.0000
 7862,0.00176681,0.00054941,-0.00060174,0.00171743,-0.00046348,0.001145
 93,0.76476962,0.00300025,0.00145820,0.00093685,-0.00134012,0.00406465,
 0.00002703,-0.00173455,0.00285267,0.00051574,0.00971972,-0.03583979,0.
 00033539,-0.00407342,-0.27920617,-0.01394692,-0.01197977,-0.03215538,-
 0.00108540,0.00012668,-0.00045175,-0.00008717,-0.00082965,0.00191514,-
 0.00059539,0.00092481,0.00187264,-0.00054839,0.00502615,0.58723843,0.0
 0121039,0.00085608,0.00466818,0.00018067,0.00138821,-0.00136320,-0.002
 55745,0.00050934,0.00443406,0.00277640,0.00337312,0.00609008,-0.003813
 85,0.03227857,-0.03694021,-0.00345545,-0.00190774,0.00591603,0.0000511
 7,0.00030143,0.00034979,0.00061134,-0.00035108,-0.00283776,-0.00005057
 ,-0.00040485,-0.00291678,0.03061622,-0.17286899,0.16534752,-0.00031317
 ,0.00021880,-0.00017716,0.00046453,-0.00025458,-0.00021314,-0.00030047
 ,-0.00057218,-0.00081944,0.00180527,0.00305779,-0.00047663,0.00161668,
 -0.00159561,0.00017716,0.00131311,0.00060511,0.00056700,-0.00001688,0.
 00005812,0.00006405,-0.00042187,-0.00031681,0.00071670,0.00029605,0.00
 014819,0.00019488,-0.34506163,-0.12364160,0.10023522,0.36163903,-0.001
 70785,0.00016294,-0.00058485,0.00035186,0.00014798,0.00021792,0.000015
 78,-0.00064928,-0.00067078,-0.00178405,0.00251312,-0.00080251,-0.03567
 434,-0.01533456,0.01159545,0.00245171,-0.00602776,0.00108889,-0.000013
 55,0.00007446,-0.00000664,0.00140998,-0.00016965,0.00068517,-0.0001102
 8,0.00013146,0.00011118,-0.11578011,-0.11347423,0.05951717,0.13480452,
 0.12447395,-0.00055859,-0.00098763,0.00149719,-0.00072368,-0.00056245,
 0.00004884,0.00049398,0.00054027,-0.00063057,-0.00027269,0.00040249,0.
 00026655,-0.00473993,-0.01065989,-0.00470814,0.00099979,0.00005715,0.0
 0136446,-0.00000870,0.00001934,-0.00002725,-0.00054214,0.00032667,0.00
 026771,0.00013614,-0.00002053,-0.00061495,0.13589073,0.08177970,-0.055
 86908,-0.11391343,-0.06344119,0.05598413,-0.00024269,0.00036608,0.0008
 4948,0.00008445,0.00031523,0.00023655,-0.00019262,0.00000297,-0.000037
 14,0.00127016,-0.00103949,-0.00053408,0.00307534,0.00166799,0.00144907
 ,0.00158714,-0.00292169,0.00057504,0.00003058,-0.00000715,-0.00000318,
 0.00032974,-0.00015324,-0.00007104,-0.00044299,0.00030386,-0.00078750,
 -0.29935411,0.12463049,-0.12583911,-0.02094585,0.01590166,-0.01679167,
 0.31481531,0.00003800,-0.00070653,-0.00073914,-0.00043189,0.00018207,0
 .00011686,0.00189062,0.00005291,-0.00031354,-0.00300944,-0.00583385,0.
 00075924,0.03293819,-0.01738525,0.01567043,0.00187869,0.00262304,-0.00
 061086,-0.00007405,-0.00045162,-0.00005437,0.00008780,0.00013709,0.000
 11605,-0.00145881,-0.00006245,0.00056287,0.11960941,-0.12808245,0.0803
 4629,-0.01314039,0.00843782,-0.00849648,-0.13826213,0.14081174,-0.0004
 7601,0.00072373,-0.00058783,0.00097608,-0.00054173,0.00017174,0.000192
 39,-0.00110117,0.00149904,-0.00095767,0.00003872,0.00126324,0.00489905
 ,-0.01075128,-0.00407246,0.00053302,-0.00002746,0.00040745,-0.00001201
 ,-0.00008419,-0.00006678,-0.00002638,-0.00003808,-0.00061648,0.0004587
 7,0.00034052,0.00023600,-0.16016409,0.10548750,-0.08706996,0.01345109,
 -0.00767787,0.00255607,0.14120412,-0.08738654,0.08642117,-0.27075577,-
 0.10974355,-0.01122018,-0.01878315,-0.01829091,-0.00086175,-0.00332335
 ,0.00431163,-0.00063012,0.00032828,0.00104390,0.00002638,0.00233054,0.
 00082996,-0.00024649,0.00211868,0.00108295,-0.00002364,-0.00106762,-0.
 00081386,-0.00003992,-0.00006030,-0.00008603,0.00003548,0.00084332,-0.
 00026314,0.00029843,-0.00015241,-0.00019604,-0.00009018,0.00002722,0.0
 0002465,0.00001550,-0.00001139,0.00003646,0.00001511,0.28672332,-0.109
 31105,-0.11540010,-0.00407522,0.01390605,0.00773111,0.00071898,0.00344
 443,-0.00082746,0.00036879,0.00056457,-0.00097751,0.00006190,0.0014039
 2,-0.00501507,0.00029832,-0.02926358,-0.01013983,-0.00143733,0.0007005
 2,0.00051560,0.00002776,-0.00009471,0.00001528,-0.00002450,0.00032309,
 0.00102342,-0.00013097,-0.00158208,-0.00044196,0.00011642,-0.00000836,
 -0.00047868,-0.00008595,-0.00005131,0.00009650,0.00002298,0.12028321,0
 .12046955,-0.01124753,-0.00412857,-0.03213876,-0.00174288,-0.00121526,
 0.00408472,-0.00060523,0.00040663,0.00505645,0.00010952,0.00003974,-0.
 00086814,-0.00033986,0.00052958,0.00672450,0.00088821,0.00047567,0.002
 13593,-0.00008027,-0.00006330,-0.00002478,0.00002988,-0.00001802,-0.00
 058039,0.00024814,-0.00013176,-0.00405370,0.00002237,-0.00010005,0.000
 39330,0.00001454,-0.00005470,-0.00003668,-0.00006303,-0.00000530,-0.00
 003671,0.01247074,0.00434369,0.02258879,0.00339416,0.04239681,-0.00140
 510,-0.10355688,-0.01819384,-0.00330433,0.00191880,-0.05075438,0.00126
 558,-0.00846761,0.00581276,-0.00106405,0.00710587,0.00037322,0.0005666
 8,-0.00791594,-0.00640224,-0.00054656,0.00186509,0.00078315,0.00028750
 ,-0.00014974,-0.00167742,0.00003529,0.00000637,0.00148353,-0.00009684,
 -0.00018961,-0.00048105,-0.00017803,-0.00002955,0.00012526,0.00012267,
 -0.00008021,-0.00008970,-0.00000032,0.00247862,0.00056576,0.00033276,0
 .57137332,0.00144417,-0.03945855,0.00136353,0.03372155,-0.27950920,0.0
 0889044,-0.01099731,-0.03644661,0.00060371,0.00158813,0.00030837,0.000
 25009,0.00130012,0.00633114,0.00110609,-0.00032406,-0.00133515,0.00027
 668,0.00057799,0.00132735,-0.00009227,-0.00023922,-0.00091873,0.000027
 62,0.00006247,-0.00154432,0.00007694,-0.00025113,-0.01031165,-0.003308
 20,0.00066835,0.00016813,0.00117870,-0.00077165,0.00025665,0.00105467,
 -0.00010215,0.00375208,-0.00022460,0.14550968,0.45128610,-0.00018247,0
 .00392579,0.00557270,-0.00476756,0.00620156,-0.03503865,0.00002108,-0.
 00177485,0.00606185,-0.00077545,0.00049487,0.00408027,0.00050341,-0.00
 013867,-0.00149492,-0.00094564,-0.00019140,0.00689309,0.00028618,-0.00
 008260,-0.00322609,-0.00003215,-0.00005236,0.00034451,-0.00001632,0.00
 016503,0.00048560,0.00012266,0.00012868,-0.00012280,0.00012683,0.00001
 282,-0.00013410,-0.00022068,0.00001737,-0.00007308,0.00038942,-0.00018
 603,-0.00373519,0.02488417,-0.00499396,0.02248362,0.00397812,0.0048897
 1,0.00009984,-0.00128058,0.00221010,0.00000004,0.00202431,0.00057024,0
 .00002520,-0.00047007,0.00022204,-0.00012509,0.00001163,-0.00064572,-0
 .00012047,-0.00066857,0.00028073,-0.00001905,0.00038192,0.00020766,0.0
 0005743,0.00005609,-0.00004410,0.00001367,-0.00000541,0.00018061,-0.00
 000094,-0.00001575,0.00084809,0.00030322,-0.00007247,-0.00001522,-0.00
 010797,0.00007713,-0.00001276,-0.00009314,-0.00069599,-0.00088043,-0.0
 0003737,-0.46775270,-0.17218695,-0.01939351,0.46443231,-0.00136441,0.0
 0353430,-0.00018089,-0.04615846,-0.02130777,-0.00193453,0.00227143,-0.
 00756601,0.00040875,-0.00215886,0.00085307,-0.00015075,0.00074323,-0.0
 0019742,0.00003009,-0.00024025,-0.00081130,-0.00002794,-0.00001216,0.0
 0009352,-0.00001920,0.00006237,-0.00045502,0.00001993,-0.00006204,0.00
 029718,-0.00001916,0.00012476,0.00056163,0.00015423,-0.00003138,0.0000
 2430,-0.00005020,0.00001837,-0.00007568,-0.00005980,0.00188292,-0.0003
 2295,0.00014623,-0.11945153,-0.09390561,-0.00352625,0.16437601,0.11927
 776,0.00026940,0.00015565,0.00018031,0.00138583,0.00053444,-0.00310065
 ,-0.00001422,0.00028016,0.00134368,-0.00005841,0.00001276,0.00159962,-
 0.00003319,-0.00004274,0.00020361,0.00003491,0.00003474,-0.00088093,0.
 00006333,-0.00000861,-0.00065410,0.00000653,0.00000962,-0.00010746,0.0
 0000365,-0.00000567,-0.00007214,-0.00010330,0.00002143,-0.00007917,0.0
 0005235,0.00000994,0.00003583,0.00003318,0.00001712,-0.00003141,-0.000
 13878,-0.00001885,0.00049066,-0.02089943,-0.00620945,-0.00209682,0.019
 39814,0.00520947,0.00316898\\0.00001090,-0.00002139,0.00000810,-0.0000
 3826,0.00000334,-0.00001250,0.00000746,0.00002261,-0.00000665,0.000007
 67,-0.00003204,0.00000140,-0.00002777,0.00001031,0.00000568,0.00001507
 ,0.00000422,-0.00000416,0.00000536,0.00000226,0.00000775,0.00000515,0.
 00000465,-0.00000078,-0.00000896,-0.00000647,0.00000301,0.00000618,0.0
 0000701,-0.00000181,-0.00000420,-0.00000102,-0.00000065,0.00000143,0.0
 0000098,-0.00000397,0.00000474,0.00001320,-0.00000006,0.00002037,-0.00
 000945,0.00000483,-0.00000514,0.00000178,-0.00000018\\\@


 The impersonal hand of government can
 never replace the helping hand of a neighbor.
                        -- Hubert H. Humphrey
 Job cpu time:       0 days  0 hours 18 minutes 32.4 seconds.
 File lengths (MBytes):  RWF=    129 Int=      0 D2E=      0 Chk=      5 Scr=      1
 Normal termination of Gaussian 09 at Mon Jan  9 17:54:39 2023.
