 Entering Gaussian System, Link 0=g09
 Initial command:
 /cm/shared/apps/gaussian/g09revD.01/g09/l1.exe "//home/sweav003/CHB/validation/G09-substitutedquinolines6_Marder.com.o9822897.tmp/Gau-207975.inp" -scrdir="//home/sweav003/CHB/validation/G09-substitutedquinolines6_Marder.com.o9822897.tmp/"
 Entering Link 1 = /cm/shared/apps/gaussian/g09revD.01/g09/l1.exe PID=    207976.
  
 Copyright (c) 1988,1990,1992,1993,1995,1998,2003,2009,2013,
            Gaussian, Inc.  All Rights Reserved.
  
 This is part of the Gaussian(R) 09 program.  It is based on
 the Gaussian(R) 03 system (copyright 2003, Gaussian, Inc.),
 the Gaussian(R) 98 system (copyright 1998, Gaussian, Inc.),
 the Gaussian(R) 94 system (copyright 1995, Gaussian, Inc.),
 the Gaussian 92(TM) system (copyright 1992, Gaussian, Inc.),
 the Gaussian 90(TM) system (copyright 1990, Gaussian, Inc.),
 the Gaussian 88(TM) system (copyright 1988, Gaussian, Inc.),
 the Gaussian 86(TM) system (copyright 1986, Carnegie Mellon
 University), and the Gaussian 82(TM) system (copyright 1983,
 Carnegie Mellon University). Gaussian is a federally registered
 trademark of Gaussian, Inc.
  
 This software contains proprietary and confidential information,
 including trade secrets, belonging to Gaussian, Inc.
  
 This software is provided under written license and may be
 used, copied, transmitted, or stored only in accord with that
 written license.
  
 The following legend is applicable only to US Government
 contracts under FAR:
  
                    RESTRICTED RIGHTS LEGEND
  
 Use, reproduction and disclosure by the US Government is
 subject to restrictions as set forth in subparagraphs (a)
 and (c) of the Commercial Computer Software - Restricted
 Rights clause in FAR 52.227-19.
  
 Gaussian, Inc.
 340 Quinnipiac St., Bldg. 40, Wallingford CT 06492
  
  
 ---------------------------------------------------------------
 Warning -- This program may not be used in any manner that
 competes with the business of Gaussian, Inc. or will provide
 assistance to any competitor of Gaussian, Inc.  The licensee
 of this program is prohibited from giving any competitor of
 Gaussian, Inc. access to this program.  By using this program,
 the user acknowledges that Gaussian, Inc. is engaged in the
 business of creating and licensing software in the field of
 computational chemistry and represents and warrants to the
 licensee that it is not a competitor of Gaussian, Inc. and that
 it will not use this program in any manner prohibited above.
 ---------------------------------------------------------------
  

 Cite this work as:
 Gaussian 09, Revision D.01,
 M. J. Frisch, G. W. Trucks, H. B. Schlegel, G. E. Scuseria, 
 M. A. Robb, J. R. Cheeseman, G. Scalmani, V. Barone, B. Mennucci, 
 G. A. Petersson, H. Nakatsuji, M. Caricato, X. Li, H. P. Hratchian, 
 A. F. Izmaylov, J. Bloino, G. Zheng, J. L. Sonnenberg, M. Hada, 
 M. Ehara, K. Toyota, R. Fukuda, J. Hasegawa, M. Ishida, T. Nakajima, 
 Y. Honda, O. Kitao, H. Nakai, T. Vreven, J. A. Montgomery, Jr., 
 J. E. Peralta, F. Ogliaro, M. Bearpark, J. J. Heyd, E. Brothers, 
 K. N. Kudin, V. N. Staroverov, T. Keith, R. Kobayashi, J. Normand, 
 K. Raghavachari, A. Rendell, J. C. Burant, S. S. Iyengar, J. Tomasi, 
 M. Cossi, N. Rega, J. M. Millam, M. Klene, J. E. Knox, J. B. Cross, 
 V. Bakken, C. Adamo, J. Jaramillo, R. Gomperts, R. E. Stratmann, 
 O. Yazyev, A. J. Austin, R. Cammi, C. Pomelli, J. W. Ochterski, 
 R. L. Martin, K. Morokuma, V. G. Zakrzewski, G. A. Voth, 
 P. Salvador, J. J. Dannenberg, S. Dapprich, A. D. Daniels, 
 O. Farkas, J. B. Foresman, J. V. Ortiz, J. Cioslowski, 
 and D. J. Fox, Gaussian, Inc., Wallingford CT, 2013.
 
 ******************************************
 Gaussian 09:  ES64L-G09RevD.01 24-Apr-2013
                 9-Jan-2023 
 ******************************************
 %nprocshared=20
 Will use up to   20 processors via shared memory.
 %mem=4GB
 %chk=substitutedquinolines6_Marder.chk
 ----------------------------------------------------------------------
 # opt freq b3lyp/6-311+g(d,p) geom=connectivity pop=(hirshfeld,chelpg,
 mbs,npa)
 ----------------------------------------------------------------------
 1/14=-1,18=20,19=15,26=3,38=1,57=2/1,3;
 2/9=110,12=2,17=6,18=5,40=1/2;
 3/5=4,6=6,7=111,11=2,16=1,25=1,30=1,71=1,74=-5/1,2,3;
 4//1;
 5/5=2,38=5/2;
 6/7=2,8=2,9=2,10=2,15=8,20=3,27=100,28=1,40=-1,79=1/1,2,7;
 7//1,2,3,16;
 1/14=-1,18=20,19=15,26=3/3(2);
 2/9=110/2;
 99//99;
 2/9=110/2;
 3/5=4,6=6,7=111,11=2,16=1,25=1,30=1,71=1,74=-5/1,2,3;
 4/5=5,16=3,69=1/1;
 5/5=2,38=5/2;
 7//1,2,3,16;
 1/14=-1,18=20,19=15,26=3/3(-5);
 2/9=110/2;
 6/7=2,8=2,9=2,10=2,15=8,19=2,20=3,27=100,28=1,40=-1,79=1/1,2,7;
 99/9=1/99;
 -------------------
 Title Card Required
 -------------------
 Symbolic Z-matrix:
 Charge =  0 Multiplicity = 1
 C                    -1.67194  -0.88517   0.00026 
 C                    -0.48306  -1.57157   0.00026 
 C                     0.75471  -0.87155   0.00026 
 C                     0.74495   0.54728   0.00063 
 C                    -0.50072   1.23255   0.00079 
 C                    -1.68124   0.53083   0.0005 
 H                    -0.4661   -2.67177   0.00004 
 C                     1.98324   1.24655   0.00075 
 H                    -0.49741   2.33275   0.00087 
 C                     3.1722    0.56018   0.00048 
 C                     3.18134  -0.85602   0.00002 
 H                     1.96667   2.34677   0.00101 
 H                     4.13094   1.09938   0.0003 
 N                     2.00074  -1.55683   0. 
 H                    -2.613     1.05687   0.00045 
 C                     4.52211  -1.61361  -0.00047 
 H                     5.08051  -1.34983  -0.87426 
 H                     5.08103  -1.35002   0.87304 
 H                     4.33636  -2.66736  -0.00052 
 O                    -2.91836  -1.58613   0.00016 
 C                    -3.63894  -1.27846  -1.19609 
 H                    -4.41831  -1.99773  -1.33798 
 H                    -4.06635  -0.30101  -1.1136 
 H                    -2.97131  -1.30644  -2.03179 
 

 GradGradGradGradGradGradGradGradGradGradGradGradGradGradGradGradGradGrad
 Berny optimization.
 Initialization pass.
                           ----------------------------
                           !    Initial Parameters    !
                           ! (Angstroms and Degrees)  !
 --------------------------                            --------------------------
 ! Name  Definition              Value          Derivative Info.                !
 --------------------------------------------------------------------------------
 ! R1    R(1,2)                  1.3728         estimate D2E/DX2                !
 ! R2    R(1,6)                  1.416          estimate D2E/DX2                !
 ! R3    R(1,20)                 1.43           estimate D2E/DX2                !
 ! R4    R(2,3)                  1.422          estimate D2E/DX2                !
 ! R5    R(2,7)                  1.1003         estimate D2E/DX2                !
 ! R6    R(3,4)                  1.4189         estimate D2E/DX2                !
 ! R7    R(3,14)                 1.422          estimate D2E/DX2                !
 ! R8    R(4,5)                  1.4217         estimate D2E/DX2                !
 ! R9    R(4,8)                  1.4221         estimate D2E/DX2                !
 ! R10   R(5,6)                  1.3733         estimate D2E/DX2                !
 ! R11   R(5,9)                  1.1002         estimate D2E/DX2                !
 ! R12   R(6,15)                 1.07           estimate D2E/DX2                !
 ! R13   R(8,10)                 1.3729         estimate D2E/DX2                !
 ! R14   R(8,12)                 1.1003         estimate D2E/DX2                !
 ! R15   R(10,11)                1.4162         estimate D2E/DX2                !
 ! R16   R(10,13)                1.1            estimate D2E/DX2                !
 ! R17   R(11,14)                1.3729         estimate D2E/DX2                !
 ! R18   R(11,16)                1.54           estimate D2E/DX2                !
 ! R19   R(16,17)                1.07           estimate D2E/DX2                !
 ! R20   R(16,18)                1.07           estimate D2E/DX2                !
 ! R21   R(16,19)                1.07           estimate D2E/DX2                !
 ! R22   R(20,21)                1.43           estimate D2E/DX2                !
 ! R23   R(21,22)                1.07           estimate D2E/DX2                !
 ! R24   R(21,23)                1.07           estimate D2E/DX2                !
 ! R25   R(21,24)                1.07           estimate D2E/DX2                !
 ! A1    A(2,1,6)              120.3763         estimate D2E/DX2                !
 ! A2    A(2,1,20)             120.6477         estimate D2E/DX2                !
 ! A3    A(6,1,20)             118.976          estimate D2E/DX2                !
 ! A4    A(1,2,3)              120.5099         estimate D2E/DX2                !
 ! A5    A(1,2,7)              120.8832         estimate D2E/DX2                !
 ! A6    A(3,2,7)              118.6069         estimate D2E/DX2                !
 ! A7    A(2,3,4)              119.0959         estimate D2E/DX2                !
 ! A8    A(2,3,14)             121.7004         estimate D2E/DX2                !
 ! A9    A(4,3,14)             119.2037         estimate D2E/DX2                !
 ! A10   A(3,4,5)              119.2103         estimate D2E/DX2                !
 ! A11   A(3,4,8)              119.0596         estimate D2E/DX2                !
 ! A12   A(5,4,8)              121.73           estimate D2E/DX2                !
 ! A13   A(4,5,6)              120.4559         estimate D2E/DX2                !
 ! A14   A(4,5,9)              118.6441         estimate D2E/DX2                !
 ! A15   A(6,5,9)              120.8999         estimate D2E/DX2                !
 ! A16   A(1,6,5)              120.3516         estimate D2E/DX2                !
 ! A17   A(1,6,15)             119.8242         estimate D2E/DX2                !
 ! A18   A(5,6,15)             119.8242         estimate D2E/DX2                !
 ! A19   A(4,8,10)             120.5491         estimate D2E/DX2                !
 ! A20   A(4,8,12)             118.5913         estimate D2E/DX2                !
 ! A21   A(10,8,12)            120.8596         estimate D2E/DX2                !
 ! A22   A(8,10,11)            120.3669         estimate D2E/DX2                !
 ! A23   A(8,10,13)            120.6492         estimate D2E/DX2                !
 ! A24   A(11,10,13)           118.9839         estimate D2E/DX2                !
 ! A25   A(10,11,14)           120.3239         estimate D2E/DX2                !
 ! A26   A(10,11,16)           119.838          estimate D2E/DX2                !
 ! A27   A(14,11,16)           119.838          estimate D2E/DX2                !
 ! A28   A(3,14,11)            120.4968         estimate D2E/DX2                !
 ! A29   A(11,16,17)           109.4712         estimate D2E/DX2                !
 ! A30   A(11,16,18)           109.4712         estimate D2E/DX2                !
 ! A31   A(11,16,19)           109.4712         estimate D2E/DX2                !
 ! A32   A(17,16,18)           109.4713         estimate D2E/DX2                !
 ! A33   A(17,16,19)           109.4712         estimate D2E/DX2                !
 ! A34   A(18,16,19)           109.4712         estimate D2E/DX2                !
 ! A35   A(1,20,21)            109.5            estimate D2E/DX2                !
 ! A36   A(20,21,22)           109.4712         estimate D2E/DX2                !
 ! A37   A(20,21,23)           109.4712         estimate D2E/DX2                !
 ! A38   A(20,21,24)           109.4712         estimate D2E/DX2                !
 ! A39   A(22,21,23)           109.4713         estimate D2E/DX2                !
 ! A40   A(22,21,24)           109.4712         estimate D2E/DX2                !
 ! A41   A(23,21,24)           109.4712         estimate D2E/DX2                !
 ! D1    D(6,1,2,3)             -0.011          estimate D2E/DX2                !
 ! D2    D(6,1,2,7)           -179.9971         estimate D2E/DX2                !
 ! D3    D(20,1,2,3)           179.9952         estimate D2E/DX2                !
 ! D4    D(20,1,2,7)             0.009          estimate D2E/DX2                !
 ! D5    D(2,1,6,5)             -0.0029         estimate D2E/DX2                !
 ! D6    D(2,1,6,15)           179.9971         estimate D2E/DX2                !
 ! D7    D(20,1,6,5)           179.991          estimate D2E/DX2                !
 ! D8    D(20,1,6,15)           -0.009          estimate D2E/DX2                !
 ! D9    D(2,1,20,21)         -117.4472         estimate D2E/DX2                !
 ! D10   D(6,1,20,21)           62.5588         estimate D2E/DX2                !
 ! D11   D(1,2,3,4)              0.0171         estimate D2E/DX2                !
 ! D12   D(1,2,3,14)          -179.9875         estimate D2E/DX2                !
 ! D13   D(7,2,3,4)           -179.9964         estimate D2E/DX2                !
 ! D14   D(7,2,3,14)            -0.0011         estimate D2E/DX2                !
 ! D15   D(2,3,4,5)             -0.0096         estimate D2E/DX2                !
 ! D16   D(2,3,4,8)            179.9947         estimate D2E/DX2                !
 ! D17   D(14,3,4,5)           179.995          estimate D2E/DX2                !
 ! D18   D(14,3,4,8)            -0.0008         estimate D2E/DX2                !
 ! D19   D(2,3,14,11)         -179.9995         estimate D2E/DX2                !
 ! D20   D(4,3,14,11)           -0.0042         estimate D2E/DX2                !
 ! D21   D(3,4,5,6)             -0.004          estimate D2E/DX2                !
 ! D22   D(3,4,5,9)           -179.9878         estimate D2E/DX2                !
 ! D23   D(8,4,5,6)            179.9916         estimate D2E/DX2                !
 ! D24   D(8,4,5,9)              0.0078         estimate D2E/DX2                !
 ! D25   D(3,4,8,10)             0.0014         estimate D2E/DX2                !
 ! D26   D(3,4,8,12)           179.9984         estimate D2E/DX2                !
 ! D27   D(5,4,8,10)          -179.9942         estimate D2E/DX2                !
 ! D28   D(5,4,8,12)             0.0027         estimate D2E/DX2                !
 ! D29   D(4,5,6,1)              0.0104         estimate D2E/DX2                !
 ! D30   D(4,5,6,15)          -179.9896         estimate D2E/DX2                !
 ! D31   D(9,5,6,1)            179.9938         estimate D2E/DX2                !
 ! D32   D(9,5,6,15)            -0.0062         estimate D2E/DX2                !
 ! D33   D(4,8,10,11)            0.0027         estimate D2E/DX2                !
 ! D34   D(4,8,10,13)          179.9839         estimate D2E/DX2                !
 ! D35   D(12,8,10,11)        -179.9941         estimate D2E/DX2                !
 ! D36   D(12,8,10,13)          -0.013          estimate D2E/DX2                !
 ! D37   D(8,10,11,14)          -0.0078         estimate D2E/DX2                !
 ! D38   D(8,10,11,16)         179.9922         estimate D2E/DX2                !
 ! D39   D(13,10,11,14)       -179.9892         estimate D2E/DX2                !
 ! D40   D(13,10,11,16)          0.0108         estimate D2E/DX2                !
 ! D41   D(10,11,14,3)           0.0084         estimate D2E/DX2                !
 ! D42   D(16,11,14,3)        -179.9916         estimate D2E/DX2                !
 ! D43   D(10,11,16,17)        -60.0142         estimate D2E/DX2                !
 ! D44   D(10,11,16,18)         59.9858         estimate D2E/DX2                !
 ! D45   D(10,11,16,19)        179.9858         estimate D2E/DX2                !
 ! D46   D(14,11,16,17)        119.9858         estimate D2E/DX2                !
 ! D47   D(14,11,16,18)       -120.0142         estimate D2E/DX2                !
 ! D48   D(14,11,16,19)         -0.0142         estimate D2E/DX2                !
 ! D49   D(1,20,21,22)         163.7263         estimate D2E/DX2                !
 ! D50   D(1,20,21,23)         -76.2737         estimate D2E/DX2                !
 ! D51   D(1,20,21,24)          43.7263         estimate D2E/DX2                !
 --------------------------------------------------------------------------------
 Trust Radius=3.00D-01 FncErr=1.00D-07 GrdErr=1.00D-06
 Number of steps in this run=    127 maximum allowed number of steps=    144.
 GradGradGradGradGradGradGradGradGradGradGradGradGradGradGradGradGradGrad

                          Input orientation:                          
 ---------------------------------------------------------------------
 Center     Atomic      Atomic             Coordinates (Angstroms)
 Number     Number       Type             X           Y           Z
 ---------------------------------------------------------------------
      1          6           0       -1.671943   -0.885171    0.000263
      2          6           0       -0.483063   -1.571572    0.000263
      3          6           0        0.754715   -0.871555    0.000263
      4          6           0        0.744954    0.547279    0.000633
      5          6           0       -0.500715    1.232549    0.000787
      6          6           0       -1.681243    0.530825    0.000497
      7          1           0       -0.466102   -2.671773    0.000035
      8          6           0        1.983237    1.246548    0.000748
      9          1           0       -0.497412    2.332753    0.000869
     10          6           0        3.172203    0.560176    0.000475
     11          6           0        3.181342   -0.856019    0.000016
     12          1           0        1.966674    2.346772    0.001008
     13          1           0        4.130942    1.099377    0.000297
     14          7           0        2.000738   -1.556833    0.000000
     15          1           0       -2.613002    1.056871    0.000448
     16          6           0        4.522109   -1.613610   -0.000468
     17          1           0        5.080507   -1.349829   -0.874259
     18          1           0        5.081032   -1.350016    0.873044
     19          1           0        4.336359   -2.667364   -0.000524
     20          8           0       -2.918363   -1.586127    0.000159
     21          6           0       -3.638936   -1.278462   -1.196092
     22          1           0       -4.418310   -1.997728   -1.337977
     23          1           0       -4.066353   -0.301011   -1.113601
     24          1           0       -2.971314   -1.306436   -2.031795
 ---------------------------------------------------------------------
                    Distance matrix (angstroms):
                    1          2          3          4          5
     1  C    0.000000
     2  C    1.372801   0.000000
     3  C    2.426696   1.422011   0.000000
     4  C    2.809503   2.448990   1.418868   0.000000
     5  C    2.420024   2.804177   2.450175   1.421719   0.000000
     6  C    1.416027   2.419857   2.810793   2.426253   1.373340
     7  H    2.155458   1.100332   2.175127   3.439325   3.904476
     8  C    4.231379   3.744921   2.448597   1.422083   2.483991
     9  H    3.425575   3.904351   3.440263   2.175176   1.100209
    10  C    5.055174   4.231468   2.809645   2.427284   3.733954
    11  C    4.853373   3.733614   2.426677   2.811625   4.233162
    12  H    4.866723   4.621107   3.438965   2.175035   2.707305
    13  H    6.132855   5.331323   3.909410   3.430704   4.633571
    14  N    3.733593   2.483844   1.422034   2.450364   3.746722
    15  H    2.158036   3.383099   3.880766   3.396403   2.119580
    16  C    6.236738   5.005348   3.839779   4.351591   5.773161
    17  H    6.824681   5.636246   4.439146   4.812637   6.211636
    18  H    6.824991   5.636486   4.439335   4.812733   6.211793
    19  H    6.267049   4.942427   4.006633   4.819971   6.213422
    20  O    1.430000   2.435344   3.741939   4.239258   3.713483
    21  C    2.335595   3.387730   4.571761   4.897343   4.193582
    22  H    3.251338   4.178357   5.460709   5.910012   5.251146
    23  H    2.704651   3.961690   4.980854   5.010967   4.038247
    24  H    2.448487   3.223500   4.266342   4.623599   4.084323
                    6          7          8          9         10
     6  C    0.000000
     7  H    3.425376   0.000000
     8  C    3.733721   4.620877   0.000000
     9  H    2.156015   5.004624   2.708036   0.000000
    10  C    4.853535   4.866494   1.372861   4.075304   0.000000
    11  C    5.056488   4.074409   2.419968   4.868418   1.416225
    12  H    4.074919   5.577114   1.100349   2.464125   2.155279
    13  H    5.839927   5.945956   2.152742   4.789872   1.099963
    14  N    4.232647   2.707100   2.803436   4.622730   2.419517
    15  H    1.070000   4.302554   4.600151   2.470546   5.806488
    16  C    6.563549   5.099211   3.824445   6.385089   2.558826
    17  H    7.072716   5.768604   4.135202   6.740952   2.838116
    18  H    7.072995   5.768872   4.135139   6.741105   2.837928
    19  H    6.814686   4.802463   4.566825   6.954603   3.431075
    20  O    2.451928   2.681830   5.661247   4.606368   6.457678
    21  C    2.921970   3.665912   6.278290   4.933839   7.155696
    22  H    3.959373   4.226649   7.300501   5.993248   8.120974
    23  H    2.760782   4.452247   6.343047   4.573412   7.374246
    24  H    3.028204   3.502652   5.932667   4.847227   6.734773
                   11         12         13         14         15
    11  C    0.000000
    12  H    3.425389   0.000000
    13  H    2.173779   2.498010   0.000000
    14  N    1.372941   3.903755   3.404883   0.000000
    15  H    6.101932   4.757865   6.744078   5.302645   0.000000
    16  C    1.540000   4.713266   2.741042   2.522010   7.618483
    17  H    2.148263   4.911915   2.768597   3.208139   8.108477
    18  H    2.148263   4.911814   2.768372   3.208300   8.108803
    19  H    2.148263   5.545897   3.772338   2.586195   7.884386
    20  O    6.143244   6.271465   7.543516   4.919188   2.660579
    21  C    6.937242   6.782200   8.213189   5.771832   2.817451
    22  H    7.800541   7.838086   9.190906   6.571815   3.792241
    23  H    7.353724   6.682105   8.390322   6.294981   2.279732
    24  H    6.495099   6.470081   7.769130   5.377006   3.137454
                   16         17         18         19         20
    16  C    0.000000
    17  H    1.070000   0.000000
    18  H    1.070000   1.747303   0.000000
    19  H    1.070000   1.747303   1.747303   0.000000
    20  O    7.440522   8.049991   8.050341   7.334852   0.000000
    21  C    8.254968   8.725672   8.962381   8.183138   1.430000
    22  H    9.048070   9.532174   9.774745   8.881521   2.051796
    23  H    8.759204   9.209905   9.419226   8.800234   2.051796
    24  H    7.769944   8.134716   8.560389   7.705860   2.051796
                   21         22         23         24
    21  C    0.000000
    22  H    1.070000   0.000000
    23  H    1.070000   1.747303   0.000000
    24  H    1.070000   1.747303   1.747303   0.000000
 Stoichiometry    C11H11NO
 Framework group  C1[X(C11H11NO)]
 Deg. of freedom    66
 Full point group                 C1      NOp   1
 Largest Abelian subgroup         C1      NOp   1
 Largest concise Abelian subgroup C1      NOp   1
                         Standard orientation:                         
 ---------------------------------------------------------------------
 Center     Atomic      Atomic             Coordinates (Angstroms)
 Number     Number       Type             X           Y           Z
 ---------------------------------------------------------------------
      1          6           0        2.047524   -0.264290   -0.302841
      2          6           0        0.897725   -1.012868   -0.256202
      3          6           0       -0.369450   -0.382008   -0.120551
      4          6           0       -0.430053    1.032938   -0.034297
      5          6           0        0.776337    1.783470   -0.085405
      6          6           0        1.986614    1.147794   -0.216592
      7          1           0        0.935361   -2.110559   -0.322442
      8          6           0       -1.697703    1.663030    0.101231
      9          1           0        0.718534    2.880058   -0.017505
     10          6           0       -2.847568    0.914462    0.148150
     11          6           0       -2.786470   -0.497826    0.062100
     12          1           0       -1.735739    2.760725    0.167470
     13          1           0       -3.828915    1.400094    0.253212
     14          7           0       -1.576184   -1.132574   -0.069309
     15          1           0        2.888338    1.722604   -0.253828
     16          6           0       -4.083943   -1.325616    0.116195
     17          1           0       -4.584983   -1.143201    1.043871
     18          1           0       -4.721561   -1.042773   -0.695189
     19          1           0       -3.846776   -2.366028    0.037486
     20          8           0        3.323359   -0.895623   -0.439092
     21          6           0        4.118768   -0.618837    0.716595
     22          1           0        4.941499   -1.301860    0.755253
     23          1           0        4.489511    0.383433    0.662711
     24          1           0        3.520459   -0.730980    1.596567
 ---------------------------------------------------------------------
 Rotational constants (GHZ):      2.1217066      0.4511089      0.3821047
 Standard basis: 6-311+G(d,p) (5D, 7F)
 There are   365 symmetry adapted cartesian basis functions of A   symmetry.
 There are   352 symmetry adapted basis functions of A   symmetry.
   352 basis functions,   556 primitive gaussians,   365 cartesian basis functions
    46 alpha electrons       46 beta electrons
       nuclear repulsion energy       726.4811072299 Hartrees.
 NAtoms=   24 NActive=   24 NUniq=   24 SFac= 1.00D+00 NAtFMM=   60 NAOKFM=F Big=F
 Integral buffers will be    131072 words long.
 Raffenetti 2 integral format.
 Two-electron integral symmetry is turned on.
 One-electron integrals computed using PRISM.
 NBasis=   352 RedAO= T EigKep=  1.29D-06  NBF=   352
 NBsUse=   351 1.00D-06 EigRej=  7.18D-07 NBFU=   351
 ExpMin= 4.38D-02 ExpMax= 8.59D+03 ExpMxC= 1.30D+03 IAcc=2 IRadAn=         4 AccDes= 0.00D+00
 Harris functional with IExCor=  402 and IRadAn=       4 diagonalized for initial guess.
 HarFok:  IExCor=  402 AccDes= 0.00D+00 IRadAn=         4 IDoV= 1 UseB2=F ITyADJ=14
 ICtDFT=  3500011 ScaDFX=  1.000000  1.000000  1.000000  1.000000
 FoFCou: FMM=F IPFlag=           0 FMFlag=      100000 FMFlg1=           0
         NFxFlg=           0 DoJE=T BraDBF=F KetDBF=T FulRan=T
         wScrn=  0.000000 ICntrl=     500 IOpCl=  0 I1Cent=   200000004 NGrid=           0
         NMat0=    1 NMatS0=      1 NMatT0=    0 NMatD0=    1 NMtDS0=    0 NMtDT0=    0
 Petite list used in FoFCou.
 Requested convergence on RMS density matrix=1.00D-08 within 128 cycles.
 Requested convergence on MAX density matrix=1.00D-06.
 Requested convergence on             energy=1.00D-06.
 No special actions if energy rises.
 SCF Done:  E(RB3LYP) =  -555.899466848     A.U. after   15 cycles
            NFock= 15  Conv=0.46D-08     -V/T= 2.0048

 **********************************************************************

            Population analysis using the SCF density.

 **********************************************************************

 Orbital symmetries:
       Occupied  (A) (A) (A) (A) (A) (A) (A) (A) (A) (A) (A) (A)
                 (A) (A) (A) (A) (A) (A) (A) (A) (A) (A) (A) (A)
                 (A) (A) (A) (A) (A) (A) (A) (A) (A) (A) (A) (A)
                 (A) (A) (A) (A) (A) (A) (A) (A) (A) (A)
       Virtual   (A) (A) (A) (A) (A) (A) (A) (A) (A) (A) (A) (A)
                 (A) (A) (A) (A) (A) (A) (A) (A) (A) (A) (A) (A)
                 (A) (A) (A) (A) (A) (A) (A) (A) (A) (A) (A) (A)
                 (A) (A) (A) (A) (A) (A) (A) (A) (A) (A) (A) (A)
                 (A) (A) (A) (A) (A) (A) (A) (A) (A) (A) (A) (A)
                 (A) (A) (A) (A) (A) (A) (A) (A) (A) (A) (A) (A)
                 (A) (A) (A) (A) (A) (A) (A) (A) (A) (A) (A) (A)
                 (A) (A) (A) (A) (A) (A) (A) (A) (A) (A) (A) (A)
                 (A) (A) (A) (A) (A) (A) (A) (A) (A) (A) (A) (A)
                 (A) (A) (A) (A) (A) (A) (A) (A) (A) (A) (A) (A)
                 (A) (A) (A) (A) (A) (A) (A) (A) (A) (A) (A) (A)
                 (A) (A) (A) (A) (A) (A) (A) (A) (A) (A) (A) (A)
                 (A) (A) (A) (A) (A) (A) (A) (A) (A) (A) (A) (A)
                 (A) (A) (A) (A) (A) (A) (A) (A) (A) (A) (A) (A)
                 (A) (A) (A) (A) (A) (A) (A) (A) (A) (A) (A) (A)
                 (A) (A) (A) (A) (A) (A) (A) (A) (A) (A) (A) (A)
                 (A) (A) (A) (A) (A) (A) (A) (A) (A) (A) (A) (A)
                 (A) (A) (A) (A) (A) (A) (A) (A) (A) (A) (A) (A)
                 (A) (A) (A) (A) (A) (A) (A) (A) (A) (A) (A) (A)
                 (A) (A) (A) (A) (A) (A) (A) (A) (A) (A) (A) (A)
                 (A) (A) (A) (A) (A) (A) (A) (A) (A) (A) (A) (A)
                 (A) (A) (A) (A) (A) (A) (A) (A) (A) (A) (A) (A)
                 (A) (A) (A) (A) (A) (A) (A) (A) (A) (A) (A) (A)
                 (A) (A) (A) (A) (A) (A) (A) (A) (A) (A) (A) (A)
                 (A) (A) (A) (A) (A) (A) (A) (A) (A) (A) (A) (A)
                 (A) (A) (A) (A) (A)
 The electronic state is 1-A.
 Alpha  occ. eigenvalues --  -19.14608 -14.31561 -10.24303 -10.23082 -10.22404
 Alpha  occ. eigenvalues --  -10.21529 -10.20076 -10.19509 -10.19393 -10.18810
 Alpha  occ. eigenvalues --  -10.18721 -10.18334 -10.16890  -1.04911  -0.92926
 Alpha  occ. eigenvalues --   -0.85805  -0.80980  -0.77629  -0.75362  -0.71887
 Alpha  occ. eigenvalues --   -0.69860  -0.63452  -0.62289  -0.60882  -0.53490
 Alpha  occ. eigenvalues --   -0.52580  -0.51165  -0.48281  -0.46897  -0.46109
 Alpha  occ. eigenvalues --   -0.44777  -0.44236  -0.43955  -0.43197  -0.40718
 Alpha  occ. eigenvalues --   -0.40298  -0.38905  -0.38317  -0.37091  -0.35624
 Alpha  occ. eigenvalues --   -0.33574  -0.30920  -0.28976  -0.25767  -0.25268
 Alpha  occ. eigenvalues --   -0.23927
 Alpha virt. eigenvalues --   -0.06566  -0.02966  -0.00572  -0.00138   0.00692
 Alpha virt. eigenvalues --    0.01480   0.02802   0.03113   0.03713   0.04413
 Alpha virt. eigenvalues --    0.04534   0.05023   0.05284   0.05917   0.06519
 Alpha virt. eigenvalues --    0.06840   0.07951   0.08349   0.08611   0.09522
 Alpha virt. eigenvalues --    0.09722   0.10598   0.11067   0.11167   0.12077
 Alpha virt. eigenvalues --    0.12924   0.13554   0.14215   0.14260   0.15022
 Alpha virt. eigenvalues --    0.15328   0.15599   0.15961   0.16451   0.17348
 Alpha virt. eigenvalues --    0.17579   0.18424   0.18691   0.19053   0.19512
 Alpha virt. eigenvalues --    0.19867   0.19924   0.20487   0.21248   0.21506
 Alpha virt. eigenvalues --    0.21932   0.22013   0.22295   0.22682   0.23179
 Alpha virt. eigenvalues --    0.23726   0.24145   0.24507   0.24971   0.25434
 Alpha virt. eigenvalues --    0.25835   0.26932   0.27267   0.27401   0.27928
 Alpha virt. eigenvalues --    0.28441   0.28888   0.29730   0.30010   0.30385
 Alpha virt. eigenvalues --    0.31887   0.32458   0.33086   0.34290   0.34568
 Alpha virt. eigenvalues --    0.35473   0.35792   0.36300   0.37608   0.38190
 Alpha virt. eigenvalues --    0.40695   0.41464   0.43968   0.44621   0.45121
 Alpha virt. eigenvalues --    0.46680   0.47032   0.48512   0.50784   0.52138
 Alpha virt. eigenvalues --    0.53341   0.53514   0.55051   0.55656   0.56334
 Alpha virt. eigenvalues --    0.56842   0.58124   0.58341   0.59551   0.59812
 Alpha virt. eigenvalues --    0.60430   0.60806   0.62917   0.64529   0.64859
 Alpha virt. eigenvalues --    0.65381   0.66256   0.67105   0.67514   0.68048
 Alpha virt. eigenvalues --    0.69168   0.70348   0.71038   0.71806   0.72218
 Alpha virt. eigenvalues --    0.72547   0.73510   0.74308   0.76874   0.77835
 Alpha virt. eigenvalues --    0.79781   0.80042   0.82868   0.83829   0.85771
 Alpha virt. eigenvalues --    0.86238   0.88562   0.89027   0.89531   0.91039
 Alpha virt. eigenvalues --    0.91806   0.93057   0.93788   0.95476   0.96167
 Alpha virt. eigenvalues --    0.97418   0.99497   1.00415   1.01217   1.02036
 Alpha virt. eigenvalues --    1.02887   1.03299   1.05161   1.05634   1.07874
 Alpha virt. eigenvalues --    1.08856   1.10056   1.11295   1.12816   1.13963
 Alpha virt. eigenvalues --    1.14983   1.22532   1.25577   1.25981   1.29389
 Alpha virt. eigenvalues --    1.30681   1.31607   1.36352   1.37379   1.40577
 Alpha virt. eigenvalues --    1.41469   1.45879   1.46315   1.47224   1.49995
 Alpha virt. eigenvalues --    1.50527   1.51626   1.52005   1.53499   1.54333
 Alpha virt. eigenvalues --    1.55099   1.55789   1.56504   1.57359   1.59196
 Alpha virt. eigenvalues --    1.59347   1.61784   1.62262   1.64335   1.65747
 Alpha virt. eigenvalues --    1.65975   1.67825   1.70427   1.71728   1.72451
 Alpha virt. eigenvalues --    1.72991   1.74419   1.77259   1.77898   1.79009
 Alpha virt. eigenvalues --    1.80497   1.82457   1.84704   1.87276   1.89471
 Alpha virt. eigenvalues --    1.90069   1.91128   1.94107   1.95007   1.95987
 Alpha virt. eigenvalues --    1.97525   1.99020   2.00127   2.01521   2.03979
 Alpha virt. eigenvalues --    2.04859   2.06413   2.07961   2.09817   2.10557
 Alpha virt. eigenvalues --    2.10930   2.14989   2.17193   2.18628   2.19918
 Alpha virt. eigenvalues --    2.21776   2.25904   2.30270   2.32129   2.33995
 Alpha virt. eigenvalues --    2.39385   2.42410   2.43830   2.44539   2.45402
 Alpha virt. eigenvalues --    2.48949   2.51080   2.52224   2.53565   2.55056
 Alpha virt. eigenvalues --    2.55872   2.56923   2.58384   2.60749   2.61424
 Alpha virt. eigenvalues --    2.62144   2.63880   2.66634   2.68216   2.68714
 Alpha virt. eigenvalues --    2.71300   2.72168   2.72881   2.73392   2.74999
 Alpha virt. eigenvalues --    2.76211   2.77548   2.78576   2.79409   2.81922
 Alpha virt. eigenvalues --    2.84613   2.85891   2.86668   2.88603   2.89854
 Alpha virt. eigenvalues --    2.93466   2.94339   2.99664   3.00215   3.01612
 Alpha virt. eigenvalues --    3.01913   3.09409   3.12669   3.13714   3.18250
 Alpha virt. eigenvalues --    3.24502   3.24910   3.29120   3.34901   3.36965
 Alpha virt. eigenvalues --    3.40209   3.42535   3.49201   3.50553   3.56772
 Alpha virt. eigenvalues --    3.61233   3.66651   3.84005   3.84336   3.84657
 Alpha virt. eigenvalues --    3.85756   3.87969   3.92727   3.94689   4.03416
 Alpha virt. eigenvalues --    4.04828   4.09260   4.12740   4.15479   4.23099
 Alpha virt. eigenvalues --    4.41378   4.52309   4.82859   5.13049   5.22196
 Alpha virt. eigenvalues --    5.38338   5.68214  23.54304  23.75908  23.88228
 Alpha virt. eigenvalues --   23.90694  23.92000  23.96220  24.00174  24.01892
 Alpha virt. eigenvalues --   24.10576  24.13971  24.17334  35.63255  49.93475
          Condensed to atoms (all electrons):
               1          2          3          4          5          6
     1  C    9.943342  -2.268455  -0.488131  -1.671557   0.129585   0.997004
     2  C   -2.268455  13.834492  -3.167657  -1.442453   4.241742  -5.326639
     3  C   -0.488131  -3.167657  20.321497  -2.842195  -5.728086   2.221527
     4  C   -1.671557  -1.442453  -2.842195  21.302508  -5.666499   1.223923
     5  C    0.129585   4.241742  -5.728086  -5.666499  13.111899  -4.009073
     6  C    0.997004  -5.326639   2.221527   1.223923  -4.009073  12.252677
     7  H   -0.057351   0.368814   0.014885   0.038710  -0.019561   0.003500
     8  C   -0.123076   0.626017  -2.896046  -7.296722   4.041312  -1.431673
     9  H    0.010374  -0.020786  -0.046143  -0.077315   0.354554   0.020216
    10  C    0.431956   0.859783  -0.478630   0.955619   0.322390  -0.302722
    11  C   -0.803762  -0.815267   0.870101  -0.817625  -0.516881  -0.090098
    12  H    0.001536   0.004109  -0.013038  -0.032330   0.035871   0.016912
    13  H   -0.000992  -0.002556  -0.043081  -0.019582   0.020215   0.000724
    14  N    0.068424  -0.024562  -0.457635   0.521719   0.082102   0.037900
    15  H   -0.043963  -0.006707  -0.017963   0.021874  -0.050458   0.430166
    16  C   -0.118344  -0.274757   0.178476   0.018613  -0.187706  -0.007480
    17  H    0.000166   0.002101   0.001977  -0.004843  -0.000605   0.000176
    18  H   -0.000250   0.001082   0.000728  -0.003270  -0.000084   0.000092
    19  H   -0.000983  -0.013296  -0.008455   0.016023   0.001957   0.000116
    20  O    0.692997  -0.373452   0.001529  -0.013366  -0.002922  -0.161054
    21  C   -0.173395   0.133479  -0.051248  -0.002606   0.028191  -0.070272
    22  H   -0.003267   0.010184  -0.000490   0.001342   0.005091   0.002040
    23  H    0.072594  -0.091004  -0.011117  -0.011339  -0.027011   0.062335
    24  H   -0.141113   0.127561   0.017461   0.019894   0.019286  -0.052586
               7          8          9         10         11         12
     1  C   -0.057351  -0.123076   0.010374   0.431956  -0.803762   0.001536
     2  C    0.368814   0.626017  -0.020786   0.859783  -0.815267   0.004109
     3  C    0.014885  -2.896046  -0.046143  -0.478630   0.870101  -0.013038
     4  C    0.038710  -7.296722  -0.077315   0.955619  -0.817625  -0.032330
     5  C   -0.019561   4.041312   0.354554   0.322390  -0.516881   0.035871
     6  C    0.003500  -1.431673   0.020216  -0.302722  -0.090098   0.016912
     7  H    0.503962   0.009268   0.000051  -0.002715   0.010345   0.000011
     8  C    0.009268  14.113826   0.084435  -3.313678   2.007160   0.298603
     9  H    0.000051   0.084435   0.548248  -0.003183   0.012149   0.002116
    10  C   -0.002715  -3.313678  -0.003183  10.961628  -2.688293   0.047818
    11  C    0.010345   2.007160   0.012149  -2.688293   8.414695  -0.027651
    12  H    0.000011   0.298603   0.002116   0.047818  -0.027651   0.544690
    13  H   -0.000004   0.069167  -0.000012   0.248117   0.050443  -0.008433
    14  N   -0.004116  -0.238833   0.000098   0.416152   0.063539   0.002090
    15  H   -0.000166   0.022892  -0.007930  -0.001650   0.002068  -0.000018
    16  C    0.001376   0.134158   0.000153  -1.021376   0.297067   0.000848
    17  H    0.000002  -0.005484   0.000000  -0.007891  -0.021007  -0.000009
    18  H    0.000002  -0.004836   0.000000  -0.010824  -0.017083  -0.000009
    19  H   -0.000002   0.027204   0.000000  -0.015147  -0.020829   0.000010
    20  O   -0.003361  -0.006901  -0.000515  -0.002046   0.000041  -0.000001
    21  C   -0.000595  -0.016527   0.000205   0.003121  -0.006412   0.000034
    22  H   -0.000156   0.000108  -0.000003   0.000008   0.000068   0.000000
    23  H    0.000029  -0.000364   0.000061   0.000042  -0.000659   0.000000
    24  H    0.000364   0.000897   0.000002  -0.000263   0.001865   0.000000
              13         14         15         16         17         18
     1  C   -0.000992   0.068424  -0.043963  -0.118344   0.000166  -0.000250
     2  C   -0.002556  -0.024562  -0.006707  -0.274757   0.002101   0.001082
     3  C   -0.043081  -0.457635  -0.017963   0.178476   0.001977   0.000728
     4  C   -0.019582   0.521719   0.021874   0.018613  -0.004843  -0.003270
     5  C    0.020215   0.082102  -0.050458  -0.187706  -0.000605  -0.000084
     6  C    0.000724   0.037900   0.430166  -0.007480   0.000176   0.000092
     7  H   -0.000004  -0.004116  -0.000166   0.001376   0.000002   0.000002
     8  C    0.069167  -0.238833   0.022892   0.134158  -0.005484  -0.004836
     9  H   -0.000012   0.000098  -0.007930   0.000153   0.000000   0.000000
    10  C    0.248117   0.416152  -0.001650  -1.021376  -0.007891  -0.010824
    11  C    0.050443   0.063539   0.002068   0.297067  -0.021007  -0.017083
    12  H   -0.008433   0.002090  -0.000018   0.000848  -0.000009  -0.000009
    13  H    0.542344   0.001681   0.000000   0.013442  -0.000181  -0.000202
    14  N    0.001681   6.860635   0.000612  -0.383156   0.009748   0.009947
    15  H    0.000000   0.000612   0.534745   0.000033   0.000000   0.000000
    16  C    0.013442  -0.383156   0.000033   6.464226   0.392524   0.391359
    17  H   -0.000181   0.009748   0.000000   0.392524   0.532169  -0.035119
    18  H   -0.000202   0.009947   0.000000   0.391359  -0.035119   0.531119
    19  H    0.000338  -0.009727   0.000000   0.405443  -0.021414  -0.021249
    20  O    0.000001  -0.001665  -0.007503  -0.000038   0.000000   0.000000
    21  C   -0.000003   0.001369  -0.000866  -0.000461   0.000001   0.000000
    22  H    0.000000   0.000002  -0.000138   0.000002   0.000000   0.000000
    23  H    0.000000  -0.000057   0.001572  -0.000019   0.000000   0.000000
    24  H    0.000000   0.000215   0.000568   0.000091   0.000000   0.000000
              19         20         21         22         23         24
     1  C   -0.000983   0.692997  -0.173395  -0.003267   0.072594  -0.141113
     2  C   -0.013296  -0.373452   0.133479   0.010184  -0.091004   0.127561
     3  C   -0.008455   0.001529  -0.051248  -0.000490  -0.011117   0.017461
     4  C    0.016023  -0.013366  -0.002606   0.001342  -0.011339   0.019894
     5  C    0.001957  -0.002922   0.028191   0.005091  -0.027011   0.019286
     6  C    0.000116  -0.161054  -0.070272   0.002040   0.062335  -0.052586
     7  H   -0.000002  -0.003361  -0.000595  -0.000156   0.000029   0.000364
     8  C    0.027204  -0.006901  -0.016527   0.000108  -0.000364   0.000897
     9  H    0.000000  -0.000515   0.000205  -0.000003   0.000061   0.000002
    10  C   -0.015147  -0.002046   0.003121   0.000008   0.000042  -0.000263
    11  C   -0.020829   0.000041  -0.006412   0.000068  -0.000659   0.001865
    12  H    0.000010  -0.000001   0.000034   0.000000   0.000000   0.000000
    13  H    0.000338   0.000001  -0.000003   0.000000   0.000000   0.000000
    14  N   -0.009727  -0.001665   0.001369   0.000002  -0.000057   0.000215
    15  H    0.000000  -0.007503  -0.000866  -0.000138   0.001572   0.000568
    16  C    0.405443  -0.000038  -0.000461   0.000002  -0.000019   0.000091
    17  H   -0.021414   0.000000   0.000001   0.000000   0.000000   0.000000
    18  H   -0.021249   0.000000   0.000000   0.000000   0.000000   0.000000
    19  H    0.496954   0.000000   0.000001   0.000000   0.000000   0.000000
    20  O    0.000000   8.046425   0.148084  -0.049147  -0.048397  -0.048588
    21  C    0.000001   0.148084   5.034137   0.411965   0.420462   0.414209
    22  H    0.000000  -0.049147   0.411965   0.529080  -0.032565  -0.023933
    23  H    0.000000  -0.048397   0.420462  -0.032565   0.590291  -0.053664
    24  H    0.000000  -0.048588   0.414209  -0.023933  -0.053664   0.571908
 Mulliken charges:
               1
     1  C   -0.453339
     2  C   -0.381773
     3  C   -1.378264
     4  C    1.781476
     5  C   -0.185310
     6  C    0.182289
     7  H    0.136710
     8  C   -0.100906
     9  H    0.123225
    10  C   -0.398217
    11  C    0.096026
    12  H    0.126842
    13  H    0.128574
    14  N    0.043517
    15  H    0.122830
    16  C   -0.304474
    17  H    0.157686
    18  H    0.158597
    19  H    0.163057
    20  O   -0.170120
    21  C   -0.272874
    22  H    0.149810
    23  H    0.128812
    24  H    0.145827
 Sum of Mulliken charges =   0.00000
 Mulliken charges with hydrogens summed into heavy atoms:
               1
     1  C   -0.453339
     2  C   -0.245064
     3  C   -1.378264
     4  C    1.781476
     5  C   -0.062085
     6  C    0.305119
     8  C    0.025936
    10  C   -0.269643
    11  C    0.096026
    14  N    0.043517
    16  C    0.174866
    20  O   -0.170120
    21  C    0.151576
 Electronic spatial extent (au):  <R**2>=           2881.2596
 Charge=              0.0000 electrons
 Dipole moment (field-independent basis, Debye):
    X=             -0.4800    Y=              2.6864    Z=              1.5509  Tot=              3.1389
 Quadrupole moment (field-independent basis, Debye-Ang):
   XX=            -63.1783   YY=            -74.4432   ZZ=            -80.6373
   XY=              0.1711   XZ=              4.6139   YZ=             -1.2923
 Traceless Quadrupole moment (field-independent basis, Debye-Ang):
   XX=              9.5746   YY=             -1.6903   ZZ=             -7.8843
   XY=              0.1711   XZ=              4.6139   YZ=             -1.2923
 Octapole moment (field-independent basis, Debye-Ang**2):
  XXX=              1.0788  YYY=             12.4836  ZZZ=              1.3799  XYY=              5.0995
  XXY=              4.5555  XXZ=             23.6757  XZZ=              3.1376  YZZ=             -5.0497
  YYZ=              1.8729  XYZ=             -6.0909
 Hexadecapole moment (field-independent basis, Debye-Ang**3):
 XXXX=          -2753.5327 YYYY=           -667.6589 ZZZZ=           -146.2025 XXXY=              5.9706
 XXXZ=             74.5692 YYYX=            -18.8683 YYYZ=              2.9168 ZZZX=              2.6134
 ZZZY=             -1.1418 XXYY=           -611.4041 XXZZ=           -548.9507 YYZZ=           -154.6032
 XXYZ=            -22.5212 YYXZ=              0.9156 ZZXY=             -0.8571
 N-N= 7.264811072299D+02 E-N=-2.746039731468D+03  KE= 5.532301988192D+02
 There are a total of      198534 grid points.
 ElSum from          density=       91.9999159417
 ElSum from atomic densities=       91.9998283823

 Hirshfeld populations at iteration   1 (CX, CA, CB, DipXYZ):
               1          2          3          4          5          6
     1  C    0.000000   2.962564   2.962564   0.141191  -0.042173  -0.013077
     2  C    0.000000   3.025551   3.025551  -0.027487  -0.044859  -0.009066
     3  C    0.000000   2.972139   2.972139  -0.027904  -0.020023  -0.000984
     4  C    0.000000   3.007601   3.007601  -0.002169   0.000668  -0.001560
     5  C    0.000000   3.020668   3.020668  -0.028859   0.056298   0.002085
     6  C    0.000000   3.027519   3.027519   0.064269   0.009776  -0.007001
     7  H    0.000002   0.470364   0.470364   0.010175  -0.159361  -0.010620
     8  C    0.000000   3.013952   3.013952   0.027336   0.065841   0.000473
     9  H    0.000002   0.474595   0.474595  -0.003674   0.156945   0.008944
    10  C    0.000000   3.029331   3.029331  -0.065847  -0.001936   0.004362
    11  C    0.000000   2.959749   2.959749  -0.051559  -0.033778   0.001134
    12  H    0.000001   0.472946   0.472946  -0.010280   0.157585   0.009617
    13  H    0.000001   0.475422   0.475422  -0.140404   0.070782   0.015025
    14  N    0.000002   3.603556   3.603556   0.014954   0.221738   0.010701
    15  H    0.000001   0.474558   0.474558   0.132369   0.096392  -0.007297
    16  C    0.000000   3.046672   3.046672  -0.003016   0.003537  -0.000012
    17  H    0.000001   0.477684   0.477684  -0.074736   0.021079   0.134727
    18  H    0.000001   0.477545   0.477545  -0.094588   0.035690  -0.118442
    19  H    0.000001   0.476849   0.476849   0.016026  -0.149312  -0.010051
    20  O    0.000005   4.085104   4.085104  -0.040368   0.100305   0.149701
    21  C    0.000000   3.008273   3.008273  -0.011299  -0.024678  -0.045701
    22  H    0.000001   0.474042   0.474042   0.125532  -0.097811   0.014541
    23  H    0.000000   0.482272   0.482272   0.063320   0.131985  -0.002428
    24  H    0.000001   0.481001   0.481001  -0.063952  -0.021293   0.129315
       Tot   0.000021  45.999958  45.999958  -0.050972   0.533397   0.254385

 Dip from Atomic Chgs             -0.137243   0.523206   0.356432
         Total Dipole             -0.188214   1.056603   0.610817

 Hirshfeld charges, spin densities, dipoles, and CM5 charges using IRadAn=      4:
              Q-H        S-H        Dx         Dy         Dz        Q-CM5   
     1  C    0.074872   0.000000   0.141191  -0.042173  -0.013077   0.086525
     2  C   -0.051102   0.000000  -0.027487  -0.044859  -0.009066  -0.092024
     3  C    0.055721   0.000000  -0.027904  -0.020023  -0.000984   0.113146
     4  C   -0.015201   0.000000  -0.002169   0.000668  -0.001560  -0.017379
     5  C   -0.041337   0.000000  -0.028859   0.056298   0.002085  -0.092384
     6  C   -0.055039   0.000000   0.064269   0.009776  -0.007001  -0.108286
     7  H    0.059272   0.000000   0.010175  -0.159361  -0.010620   0.118104
     8  C   -0.027904   0.000000   0.027336   0.065841   0.000473  -0.076864
     9  H    0.050809   0.000000  -0.003674   0.156945   0.008944   0.105363
    10  C   -0.058661   0.000000  -0.065847  -0.001936   0.004362  -0.104967
    11  C    0.080502   0.000000  -0.051559  -0.033778   0.001134   0.135558
    12  H    0.054108   0.000000  -0.010280   0.157585   0.009617   0.108718
    13  H    0.049156   0.000000  -0.140404   0.070782   0.015025   0.103982
    14  N   -0.207113   0.000000   0.014954   0.221738   0.010701  -0.366757
    15  H    0.050884   0.000000   0.132369   0.096392  -0.007297   0.111764
    16  C   -0.093344   0.000000  -0.003016   0.003537  -0.000012  -0.240738
    17  H    0.044632   0.000000  -0.074736   0.021079   0.134727   0.099790
    18  H    0.044911   0.000000  -0.094588   0.035690  -0.118442   0.100069
    19  H    0.046302   0.000000   0.016026  -0.149312  -0.010051   0.103902
    20  O   -0.170208   0.000000  -0.040368   0.100305   0.149701  -0.254734
    21  C   -0.016545   0.000000  -0.011299  -0.024678  -0.045701  -0.146699
    22  H    0.051915   0.000000   0.125532  -0.097811   0.014541   0.113626
    23  H    0.035456   0.000000   0.063320   0.131985  -0.002428   0.098598
    24  H    0.037998   0.000000  -0.063952  -0.021293   0.129315   0.101772
       Tot   0.000084   0.000000  -0.050972   0.533397   0.254385   0.000084
 Hirshfeld charges with hydrogens summed into heavy atoms:
              Q-H       Q-CM5   
     1  C    0.074872   0.086525
     2  C    0.008169   0.026080
     3  C    0.055721   0.113146
     4  C   -0.015201  -0.017379
     5  C    0.009472   0.012979
     6  C   -0.004155   0.003478
     8  C    0.026204   0.031854
    10  C   -0.009505  -0.000985
    11  C    0.080502   0.135558
    14  N   -0.207113  -0.366757
    16  C    0.042500   0.063023
    20  O   -0.170208  -0.254734
    21  C    0.108825   0.167296
 
 EQQ= 0.000000000000E+00 EQD= 0.000000000000E+00 EDD= 0.313069926843E-02
 EQQ+QD+DD= 0.313069926843E-02
 
          MBS Condensed to atoms (all electrons):
               1          2          3          4          5          6
     1  C    4.701224   0.523131  -0.025363  -0.009755  -0.028040   0.468321
     2  C    0.523131   4.858217   0.473846  -0.034236  -0.009010  -0.037061
     3  C   -0.025363   0.473846   4.695475   0.467990  -0.029189  -0.009043
     4  C   -0.009755  -0.034236   0.467990   4.786378   0.471879  -0.031223
     5  C   -0.028040  -0.009010  -0.029189   0.471879   4.830934   0.530995
     6  C    0.468321  -0.037061  -0.009043  -0.031223   0.530995   4.858381
     7  H   -0.022970   0.378665  -0.022957   0.001381   0.000047   0.001403
     8  C    0.000047   0.000883  -0.029009   0.472608  -0.029323   0.000862
     9  H    0.001405  -0.000018   0.001325  -0.025763   0.384944  -0.024309
    10  C    0.000001   0.000007  -0.010478  -0.029906   0.000839  -0.000011
    11  C   -0.000012   0.001027  -0.032791  -0.010740   0.000047   0.000001
    12  H    0.000000  -0.000023   0.001340  -0.025936  -0.003733   0.000025
    13  H    0.000000   0.000001   0.000063   0.001473  -0.000017   0.000000
    14  N    0.000441  -0.026823   0.391394  -0.024672   0.000581   0.000009
    15  H   -0.025524   0.001378   0.000066   0.001573  -0.025003   0.390888
    16  C    0.000000  -0.000004   0.001101  -0.000003   0.000000   0.000000
    17  H    0.000000   0.000000  -0.000033   0.000003   0.000000   0.000000
    18  H    0.000000   0.000000  -0.000033   0.000003   0.000000   0.000000
    19  H    0.000000  -0.000002   0.000010   0.000002   0.000000   0.000000
    20  O    0.287993  -0.022055   0.000297   0.000002   0.000322  -0.021105
    21  C   -0.037851   0.000247  -0.000019   0.000002   0.000026  -0.004504
    22  H    0.002505  -0.000004   0.000000   0.000000   0.000001   0.000045
    23  H   -0.002043  -0.000096   0.000002   0.000000  -0.000039   0.000205
    24  H   -0.005664   0.000906  -0.000020  -0.000003  -0.000010  -0.000010
               7          8          9         10         11         12
     1  C   -0.022970   0.000047   0.001405   0.000001  -0.000012   0.000000
     2  C    0.378665   0.000883  -0.000018   0.000007   0.001027  -0.000023
     3  C   -0.022957  -0.029009   0.001325  -0.010478  -0.032791   0.001340
     4  C    0.001381   0.472608  -0.025763  -0.029906  -0.010740  -0.025936
     5  C    0.000047  -0.029323   0.384944   0.000839   0.000047  -0.003733
     6  C    0.001403   0.000862  -0.024309  -0.000011   0.000001   0.000025
     7  H    0.532488  -0.000020   0.000002   0.000001   0.000008   0.000001
     8  C   -0.000020   4.806739  -0.003639   0.531514  -0.029095   0.384932
     9  H    0.000002  -0.003639   0.564788   0.000023  -0.000001   0.001610
    10  C    0.000001   0.531514   0.000023   4.866366   0.466891  -0.024620
    11  C    0.000008  -0.029095  -0.000001   0.466891   4.715673   0.001472
    12  H    0.000001   0.384932   0.001610  -0.024620   0.001472   0.561640
    13  H    0.000000  -0.024951  -0.000003   0.383253  -0.025266  -0.004033
    14  N   -0.000454  -0.007325  -0.000014  -0.027499   0.444793   0.000006
    15  H   -0.000043  -0.000020  -0.004270   0.000000   0.000000  -0.000002
    16  C   -0.000002   0.000775   0.000000  -0.032228   0.376158  -0.000018
    17  H    0.000000   0.000007   0.000000  -0.001518  -0.020854   0.000000
    18  H    0.000000   0.000007   0.000000  -0.001518  -0.020841   0.000000
    19  H    0.000001  -0.000028   0.000000   0.001434  -0.021136   0.000000
    20  O   -0.000762   0.000000  -0.000005   0.000000   0.000000   0.000000
    21  C    0.000040   0.000000   0.000000   0.000000   0.000000   0.000000
    22  H   -0.000013   0.000000   0.000000   0.000000   0.000000   0.000000
    23  H    0.000003   0.000000   0.000003   0.000000   0.000000   0.000000
    24  H    0.000041   0.000000   0.000000   0.000000   0.000000   0.000000
              13         14         15         16         17         18
     1  C    0.000000   0.000441  -0.025524   0.000000   0.000000   0.000000
     2  C    0.000001  -0.026823   0.001378  -0.000004   0.000000   0.000000
     3  C    0.000063   0.391394   0.000066   0.001101  -0.000033  -0.000033
     4  C    0.001473  -0.024672   0.001573  -0.000003   0.000003   0.000003
     5  C   -0.000017   0.000581  -0.025003   0.000000   0.000000   0.000000
     6  C    0.000000   0.000009   0.390888   0.000000   0.000000   0.000000
     7  H    0.000000  -0.000454  -0.000043  -0.000002   0.000000   0.000000
     8  C   -0.024951  -0.007325  -0.000020   0.000775   0.000007   0.000007
     9  H   -0.000003  -0.000014  -0.004270   0.000000   0.000000   0.000000
    10  C    0.383253  -0.027499   0.000000  -0.032228  -0.001518  -0.001518
    11  C   -0.025266   0.444793   0.000000   0.376158  -0.020854  -0.020841
    12  H   -0.004033   0.000006  -0.000002  -0.000018   0.000000   0.000000
    13  H    0.567864   0.001008   0.000000  -0.002244   0.000247   0.000246
    14  N    0.001008   6.660256   0.000000  -0.027643   0.000535   0.000535
    15  H    0.000000   0.000000   0.544022   0.000000   0.000000   0.000000
    16  C   -0.002244  -0.027643   0.000000   4.828312   0.378244   0.378280
    17  H    0.000247   0.000535   0.000000   0.378244   0.575418  -0.021867
    18  H    0.000246   0.000535   0.000000   0.378280  -0.021867   0.574952
    19  H    0.000023  -0.000201   0.000000   0.379270  -0.020843  -0.020830
    20  O    0.000000   0.000000  -0.001100   0.000000   0.000000   0.000000
    21  C    0.000000   0.000000  -0.000637   0.000000   0.000000   0.000000
    22  H    0.000000   0.000000  -0.000016   0.000000   0.000000   0.000000
    23  H    0.000000   0.000000   0.000210   0.000000   0.000000   0.000000
    24  H    0.000000   0.000000   0.000075   0.000000   0.000000   0.000000
              19         20         21         22         23         24
     1  C    0.000000   0.287993  -0.037851   0.002505  -0.002043  -0.005664
     2  C   -0.000002  -0.022055   0.000247  -0.000004  -0.000096   0.000906
     3  C    0.000010   0.000297  -0.000019   0.000000   0.000002  -0.000020
     4  C    0.000002   0.000002   0.000002   0.000000   0.000000  -0.000003
     5  C    0.000000   0.000322   0.000026   0.000001  -0.000039  -0.000010
     6  C    0.000000  -0.021105  -0.004504   0.000045   0.000205  -0.000010
     7  H    0.000001  -0.000762   0.000040  -0.000013   0.000003   0.000041
     8  C   -0.000028   0.000000   0.000000   0.000000   0.000000   0.000000
     9  H    0.000000  -0.000005   0.000000   0.000000   0.000003   0.000000
    10  C    0.001434   0.000000   0.000000   0.000000   0.000000   0.000000
    11  C   -0.021136   0.000000   0.000000   0.000000   0.000000   0.000000
    12  H    0.000000   0.000000   0.000000   0.000000   0.000000   0.000000
    13  H    0.000023   0.000000   0.000000   0.000000   0.000000   0.000000
    14  N   -0.000201   0.000000   0.000000   0.000000   0.000000   0.000000
    15  H    0.000000  -0.001100  -0.000637  -0.000016   0.000210   0.000075
    16  C    0.379270   0.000000   0.000000   0.000000   0.000000   0.000000
    17  H   -0.020843   0.000000   0.000000   0.000000   0.000000   0.000000
    18  H   -0.020830   0.000000   0.000000   0.000000   0.000000   0.000000
    19  H    0.558066   0.000000   0.000000   0.000000   0.000000   0.000000
    20  O    0.000000   7.943989   0.267625  -0.017608  -0.020127  -0.017955
    21  C    0.000000   0.267625   4.730096   0.380402   0.375089   0.374338
    22  H    0.000000  -0.017608   0.380402   0.563156  -0.025543  -0.022797
    23  H    0.000000  -0.020127   0.375089  -0.025543   0.602011  -0.027441
    24  H    0.000000  -0.017955   0.374338  -0.022797  -0.027441   0.593166
 MBS Mulliken charges:
               1
     1  C    0.172155
     2  C   -0.108978
     3  C    0.126023
     4  C   -0.011057
     5  C   -0.096250
     6  C   -0.123870
     7  H    0.133138
     8  C   -0.074962
     9  H    0.103922
    10  C   -0.122551
    11  C    0.154667
    12  H    0.107340
    13  H    0.102335
    14  N   -0.384928
    15  H    0.118402
    16  C   -0.279998
    17  H    0.110662
    18  H    0.111066
    19  H    0.124233
    20  O   -0.399509
    21  C   -0.084854
    22  H    0.119874
    23  H    0.097766
    24  H    0.105374
 Sum of MBS Mulliken charges =   0.00000
 MBS Mulliken charges with hydrogens summed into heavy atoms:
               1
     1  C    0.172155
     2  C    0.024161
     3  C    0.126023
     4  C   -0.011057
     5  C    0.007672
     6  C   -0.005468
     8  C    0.032377
    10  C   -0.020216
    11  C    0.154667
    14  N   -0.384928
    16  C    0.065963
    20  O   -0.399509
    21  C    0.238160
 Breneman (CHELPG) radii used.
 Generate Potential Derived Charges using the Breneman model, NDens= 1.
 Grid spacing= 0.300 Box extension= 2.800
 NStep X,Y,Z=   51     38     28   Total possible points=       54264
 Number of Points to Fit=   15674

 **********************************************************************

            Electrostatic Properties Using The SCF Density

 **********************************************************************

       Atomic Center    1 is at   2.047524 -0.264290 -0.302841
       Atomic Center    2 is at   0.897725 -1.012868 -0.256202
       Atomic Center    3 is at  -0.369450 -0.382008 -0.120551
       Atomic Center    4 is at  -0.430053  1.032938 -0.034297
       Atomic Center    5 is at   0.776337  1.783470 -0.085405
       Atomic Center    6 is at   1.986614  1.147794 -0.216592
       Atomic Center    7 is at   0.935361 -2.110559 -0.322442
       Atomic Center    8 is at  -1.697703  1.663030  0.101231
       Atomic Center    9 is at   0.718534  2.880058 -0.017505
       Atomic Center   10 is at  -2.847568  0.914462  0.148150
       Atomic Center   11 is at  -2.786470 -0.497826  0.062100
       Atomic Center   12 is at  -1.735739  2.760725  0.167470
       Atomic Center   13 is at  -3.828915  1.400094  0.253212
       Atomic Center   14 is at  -1.576184 -1.132574 -0.069309
       Atomic Center   15 is at   2.888338  1.722604 -0.253828
       Atomic Center   16 is at  -4.083943 -1.325616  0.116195
       Atomic Center   17 is at  -4.584983 -1.143201  1.043871
       Atomic Center   18 is at  -4.721561 -1.042773 -0.695189
       Atomic Center   19 is at  -3.846776 -2.366028  0.037486
       Atomic Center   20 is at   3.323359 -0.895623 -0.439092
       Atomic Center   21 is at   4.118768 -0.618837  0.716595
       Atomic Center   22 is at   4.941499 -1.301860  0.755253
       Atomic Center   23 is at   4.489511  0.383433  0.662711
       Atomic Center   24 is at   3.520459 -0.730980  1.596567
   15674 points will be used for fitting atomic charges
 Fitting point charges to electrostatic potential
 Charges from ESP fit, RMS=   0.00394 RRMS=   0.27838:
 ESP charges:
               1
     1  C    0.492874
     2  C   -0.393679
     3  C    0.519942
     4  C   -0.064351
     5  C   -0.121635
     6  C   -0.331035
     7  H    0.171537
     8  C    0.000530
     9  H    0.110244
    10  C   -0.357432
    11  C    0.568220
    12  H    0.093749
    13  H    0.128674
    14  N   -0.722021
    15  H    0.188772
    16  C   -0.195519
    17  H    0.047778
    18  H    0.049607
    19  H    0.068496
    20  O   -0.518633
    21  C    0.401831
    22  H    0.001084
    23  H   -0.065020
    24  H   -0.074011
 Sum of ESP charges =   0.00000
 ESP charges with hydrogens summed into heavy atoms:
               1
     1  C    0.492874
     2  C   -0.222142
     3  C    0.519942
     4  C   -0.064351
     5  C   -0.011391
     6  C   -0.142263
     8  C    0.094279
    10  C   -0.228758
    11  C    0.568220
    14  N   -0.722021
    16  C   -0.029638
    20  O   -0.518633
    21  C    0.263884
 Charge=   0.00000 Dipole=    -0.4494     2.7348     1.4374 Tot=     3.1220
 -----------------------------------------------------------------

              Electrostatic Properties (Atomic Units)

 -----------------------------------------------------------------
    Center     Electric         -------- Electric Field --------
               Potential          X             Y             Z
 -----------------------------------------------------------------
    1 Atom    -14.706337
    2 Atom    -14.767863
    3 Atom    -14.724970
    4 Atom    -14.755863
    5 Atom    -14.757296
    6 Atom    -14.764414
    7 Atom     -1.099597
    8 Atom    -14.751076
    9 Atom     -1.090716
   10 Atom    -14.763257
   11 Atom    -14.718470
   12 Atom     -1.087121
   13 Atom     -1.093164
   14 Atom    -18.404555
   15 Atom     -1.093744
   16 Atom    -14.778014
   17 Atom     -1.109747
   18 Atom     -1.109794
   19 Atom     -1.119189
   20 Atom    -22.348938
   21 Atom    -14.731717
   22 Atom     -1.108222
   23 Atom     -1.114674
   24 Atom     -1.112452
 -----------------------------------------------------------------
 ******************************Gaussian NBO Version 3.1******************************
             N A T U R A L   A T O M I C   O R B I T A L   A N D
          N A T U R A L   B O N D   O R B I T A L   A N A L Y S I S
 ******************************Gaussian NBO Version 3.1******************************
       /RESON  / : Allow strongly delocalized NBO set

 Analyzing the SCF density

 Job title: Title Card Required                                             

 Storage needed:    373816 in NPA ( 536867792 available)


 NATURAL POPULATIONS:  Natural atomic orbital occupancies 
                                                          
   NAO  Atom  No  lang   Type(AO)    Occupancy      Energy
 ----------------------------------------------------------
     1    C    1  S      Cor( 1S)     1.99867     -10.11203
     2    C    1  S      Val( 2S)     0.84371      -0.15013
     3    C    1  S      Ryd( 3S)     0.00084       0.89663
     4    C    1  S      Ryd( 4S)     0.00023       0.93862
     5    C    1  S      Ryd( 5S)     0.00002      22.65638
     6    C    1  px     Val( 2p)     0.82719      -0.05040
     7    C    1  px     Ryd( 4p)     0.00569       1.15852
     8    C    1  px     Ryd( 3p)     0.00040       0.77116
     9    C    1  px     Ryd( 5p)     0.00021       2.88650
    10    C    1  py     Val( 2p)     0.99972      -0.05516
    11    C    1  py     Ryd( 4p)     0.00600       1.06445
    12    C    1  py     Ryd( 3p)     0.00012       0.77231
    13    C    1  py     Ryd( 5p)     0.00014       2.85272
    14    C    1  pz     Val( 2p)     0.98860      -0.12440
    15    C    1  pz     Ryd( 3p)     0.00233       0.65047
    16    C    1  pz     Ryd( 4p)     0.00033       0.68429
    17    C    1  pz     Ryd( 5p)     0.00009       2.42652
    18    C    1  dxy    Ryd( 3d)     0.00180       2.48492
    19    C    1  dxz    Ryd( 3d)     0.00189       1.66718
    20    C    1  dyz    Ryd( 3d)     0.00074       1.66695
    21    C    1  dx2y2  Ryd( 3d)     0.00181       2.51102
    22    C    1  dz2    Ryd( 3d)     0.00065       2.05751

    23    C    2  S      Cor( 1S)     1.99890     -10.03424
    24    C    2  S      Val( 2S)     0.95399      -0.16585
    25    C    2  S      Ryd( 4S)     0.00155       1.00074
    26    C    2  S      Ryd( 3S)     0.00015       0.95700
    27    C    2  S      Ryd( 5S)     0.00001      22.73639
    28    C    2  px     Val( 2p)     1.06137      -0.05448
    29    C    2  px     Ryd( 4p)     0.00503       0.93523
    30    C    2  px     Ryd( 3p)     0.00045       0.50234
    31    C    2  px     Ryd( 5p)     0.00011       3.12258
    32    C    2  py     Val( 2p)     1.19563      -0.07687
    33    C    2  py     Ryd( 4p)     0.00589       1.19478
    34    C    2  py     Ryd( 3p)     0.00033       0.44003
    35    C    2  py     Ryd( 5p)     0.00011       2.99321
    36    C    2  pz     Val( 2p)     1.01121      -0.11228
    37    C    2  pz     Ryd( 4p)     0.00122       0.58051
    38    C    2  pz     Ryd( 3p)     0.00048       0.28681
    39    C    2  pz     Ryd( 5p)     0.00003       2.71862
    40    C    2  dxy    Ryd( 3d)     0.00078       2.59920
    41    C    2  dxz    Ryd( 3d)     0.00051       1.69713
    42    C    2  dyz    Ryd( 3d)     0.00062       1.62860
    43    C    2  dx2y2  Ryd( 3d)     0.00069       2.48300
    44    C    2  dz2    Ryd( 3d)     0.00047       2.09795

    45    C    3  S      Cor( 1S)     1.99890     -10.08507
    46    C    3  S      Val( 2S)     0.84355      -0.13115
    47    C    3  S      Ryd( 3S)     0.00112       0.92071
    48    C    3  S      Ryd( 4S)     0.00015       1.61807
    49    C    3  S      Ryd( 5S)     0.00002      21.93346
    50    C    3  px     Val( 2p)     0.97117      -0.04840
    51    C    3  px     Ryd( 4p)     0.00565       1.24031
    52    C    3  px     Ryd( 3p)     0.00050       0.68826
    53    C    3  px     Ryd( 5p)     0.00011       3.13134
    54    C    3  py     Val( 2p)     1.01509      -0.04467
    55    C    3  py     Ryd( 4p)     0.00867       1.15420
    56    C    3  py     Ryd( 3p)     0.00039       0.48752
    57    C    3  py     Ryd( 5p)     0.00011       3.10679
    58    C    3  pz     Val( 2p)     0.96323      -0.11259
    59    C    3  pz     Ryd( 4p)     0.00049       0.61764
    60    C    3  pz     Ryd( 3p)     0.00057       0.40538
    61    C    3  pz     Ryd( 5p)     0.00001       2.66410
    62    C    3  dxy    Ryd( 3d)     0.00131       2.46424
    63    C    3  dxz    Ryd( 3d)     0.00123       1.63009
    64    C    3  dyz    Ryd( 3d)     0.00057       1.64795
    65    C    3  dx2y2  Ryd( 3d)     0.00138       2.58154
    66    C    3  dz2    Ryd( 3d)     0.00046       2.05861

    67    C    4  S      Cor( 1S)     1.99893     -10.04352
    68    C    4  S      Val( 2S)     0.87593      -0.13087
    69    C    4  S      Ryd( 3S)     0.00097       0.77330
    70    C    4  S      Ryd( 4S)     0.00008       1.01972
    71    C    4  S      Ryd( 5S)     0.00002      22.81959
    72    C    4  px     Val( 2p)     1.09531      -0.07299
    73    C    4  px     Ryd( 4p)     0.00481       1.37038
    74    C    4  px     Ryd( 3p)     0.00019       0.86626
    75    C    4  px     Ryd( 5p)     0.00010       3.10708
    76    C    4  py     Val( 2p)     1.10263      -0.07090
    77    C    4  py     Ryd( 4p)     0.00513       1.22282
    78    C    4  py     Ryd( 3p)     0.00016       0.67345
    79    C    4  py     Ryd( 5p)     0.00010       3.13038
    80    C    4  pz     Val( 2p)     1.02102      -0.11381
    81    C    4  pz     Ryd( 3p)     0.00051       0.59239
    82    C    4  pz     Ryd( 4p)     0.00018       0.62231
    83    C    4  pz     Ryd( 5p)     0.00002       2.48341
    84    C    4  dxy    Ryd( 3d)     0.00073       2.56312
    85    C    4  dxz    Ryd( 3d)     0.00065       1.66565
    86    C    4  dyz    Ryd( 3d)     0.00044       1.66422
    87    C    4  dx2y2  Ryd( 3d)     0.00082       2.62985
    88    C    4  dz2    Ryd( 3d)     0.00038       2.09883

    89    C    5  S      Cor( 1S)     1.99910     -10.04652
    90    C    5  S      Val( 2S)     0.94146      -0.17030
    91    C    5  S      Ryd( 4S)     0.00157       0.94674
    92    C    5  S      Ryd( 3S)     0.00010       0.82201
    93    C    5  S      Ryd( 5S)     0.00002      22.76223
    94    C    5  px     Val( 2p)     1.04917      -0.05172
    95    C    5  px     Ryd( 4p)     0.00401       0.88172
    96    C    5  px     Ryd( 3p)     0.00036       0.40867
    97    C    5  px     Ryd( 5p)     0.00012       3.11418
    98    C    5  py     Val( 2p)     1.16770      -0.07078
    99    C    5  py     Ryd( 4p)     0.00587       1.18374
   100    C    5  py     Ryd( 3p)     0.00030       0.42214
   101    C    5  py     Ryd( 5p)     0.00008       2.99292
   102    C    5  pz     Val( 2p)     0.98686      -0.11968
   103    C    5  pz     Ryd( 4p)     0.00089       0.57898
   104    C    5  pz     Ryd( 3p)     0.00066       0.25833
   105    C    5  pz     Ryd( 5p)     0.00002       2.68392
   106    C    5  dxy    Ryd( 3d)     0.00064       2.57336
   107    C    5  dxz    Ryd( 3d)     0.00061       1.68863
   108    C    5  dyz    Ryd( 3d)     0.00038       1.61288
   109    C    5  dx2y2  Ryd( 3d)     0.00075       2.47028
   110    C    5  dz2    Ryd( 3d)     0.00046       2.06401

   111    C    6  S      Cor( 1S)     1.99903     -10.03750
   112    C    6  S      Val( 2S)     0.94878      -0.16963
   113    C    6  S      Ryd( 4S)     0.00132       0.91276
   114    C    6  S      Ryd( 3S)     0.00013       0.58991
   115    C    6  S      Ryd( 5S)     0.00002      23.10401
   116    C    6  px     Val( 2p)     1.15792      -0.06827
   117    C    6  px     Ryd( 4p)     0.00510       1.08070
   118    C    6  px     Ryd( 3p)     0.00026       0.40419
   119    C    6  px     Ryd( 5p)     0.00010       3.13980
   120    C    6  py     Val( 2p)     1.10235      -0.06806
   121    C    6  py     Ryd( 4p)     0.00450       0.88920
   122    C    6  py     Ryd( 3p)     0.00020       0.43171
   123    C    6  py     Ryd( 5p)     0.00012       3.11612
   124    C    6  pz     Val( 2p)     1.02167      -0.12206
   125    C    6  pz     Ryd( 4p)     0.00125       0.53509
   126    C    6  pz     Ryd( 3p)     0.00036       0.29779
   127    C    6  pz     Ryd( 5p)     0.00001       2.73631
   128    C    6  dxy    Ryd( 3d)     0.00063       2.53143
   129    C    6  dxz    Ryd( 3d)     0.00049       1.66020
   130    C    6  dyz    Ryd( 3d)     0.00051       1.66612
   131    C    6  dx2y2  Ryd( 3d)     0.00079       2.56985
   132    C    6  dz2    Ryd( 3d)     0.00042       2.06768

   133    H    7  S      Val( 1S)     0.75972       0.04594
   134    H    7  S      Ryd( 2S)     0.00369       0.35529
   135    H    7  S      Ryd( 3S)     0.00024       2.36035
   136    H    7  px     Ryd( 2p)     0.00013       2.04096
   137    H    7  py     Ryd( 2p)     0.00042       2.70927
   138    H    7  pz     Ryd( 2p)     0.00013       1.62261

   139    C    8  S      Cor( 1S)     1.99908     -10.05231
   140    C    8  S      Val( 2S)     0.94586      -0.17444
   141    C    8  S      Ryd( 3S)     0.00195       0.87221
   142    C    8  S      Ryd( 4S)     0.00012       2.06892
   143    C    8  S      Ryd( 5S)     0.00001      21.58242
   144    C    8  px     Val( 2p)     1.05176      -0.05481
   145    C    8  px     Ryd( 4p)     0.00401       0.79257
   146    C    8  px     Ryd( 3p)     0.00039       0.49371
   147    C    8  px     Ryd( 5p)     0.00013       3.09329
   148    C    8  py     Val( 2p)     1.16901      -0.07310
   149    C    8  py     Ryd( 4p)     0.00734       1.09560
   150    C    8  py     Ryd( 3p)     0.00019       0.30305
   151    C    8  py     Ryd( 5p)     0.00007       3.18933
   152    C    8  pz     Val( 2p)     0.94692      -0.12237
   153    C    8  pz     Ryd( 4p)     0.00053       0.52665
   154    C    8  pz     Ryd( 3p)     0.00028       0.34934
   155    C    8  pz     Ryd( 5p)     0.00001       2.62554
   156    C    8  dxy    Ryd( 3d)     0.00062       2.56933
   157    C    8  dxz    Ryd( 3d)     0.00062       1.67940
   158    C    8  dyz    Ryd( 3d)     0.00039       1.60507
   159    C    8  dx2y2  Ryd( 3d)     0.00076       2.46213
   160    C    8  dz2    Ryd( 3d)     0.00039       2.04001

   161    H    9  S      Val( 1S)     0.79073       0.02482
   162    H    9  S      Ryd( 2S)     0.00217       0.32537
   163    H    9  S      Ryd( 3S)     0.00022       2.31541
   164    H    9  px     Ryd( 2p)     0.00012       1.99562
   165    H    9  py     Ryd( 2p)     0.00047       2.68587
   166    H    9  pz     Ryd( 2p)     0.00020       1.59681

   167    C   10  S      Cor( 1S)     1.99900     -10.03987
   168    C   10  S      Val( 2S)     0.95526      -0.17356
   169    C   10  S      Ryd( 3S)     0.00162       0.75032
   170    C   10  S      Ryd( 4S)     0.00018       1.16812
   171    C   10  S      Ryd( 5S)     0.00001      22.69382
   172    C   10  px     Val( 2p)     1.15944      -0.07188
   173    C   10  px     Ryd( 4p)     0.00492       1.00337
   174    C   10  px     Ryd( 3p)     0.00030       0.32826
   175    C   10  px     Ryd( 5p)     0.00009       3.22285
   176    C   10  py     Val( 2p)     1.09988      -0.07032
   177    C   10  py     Ryd( 4p)     0.00466       0.79048
   178    C   10  py     Ryd( 3p)     0.00034       0.41251
   179    C   10  py     Ryd( 5p)     0.00012       3.15883
   180    C   10  pz     Val( 2p)     1.02574      -0.12258
   181    C   10  pz     Ryd( 4p)     0.00124       0.49866
   182    C   10  pz     Ryd( 3p)     0.00026       0.31829
   183    C   10  pz     Ryd( 5p)     0.00002       2.69300
   184    C   10  dxy    Ryd( 3d)     0.00069       2.51225
   185    C   10  dxz    Ryd( 3d)     0.00047       1.63231
   186    C   10  dyz    Ryd( 3d)     0.00035       1.65974
   187    C   10  dx2y2  Ryd( 3d)     0.00076       2.52010
   188    C   10  dz2    Ryd( 3d)     0.00039       2.03244

   189    C   11  S      Cor( 1S)     1.99914     -10.10025
   190    C   11  S      Val( 2S)     0.88096      -0.16928
   191    C   11  S      Ryd( 3S)     0.00133       0.73522
   192    C   11  S      Ryd( 4S)     0.00026       1.35749
   193    C   11  S      Ryd( 5S)     0.00001      22.46561
   194    C   11  px     Val( 2p)     0.94044      -0.04254
   195    C   11  px     Ryd( 4p)     0.00611       1.01508
   196    C   11  px     Ryd( 3p)     0.00055       0.58524
   197    C   11  px     Ryd( 5p)     0.00007       3.05156
   198    C   11  py     Val( 2p)     1.01233      -0.04827
   199    C   11  py     Ryd( 4p)     0.00861       0.89796
   200    C   11  py     Ryd( 3p)     0.00083       0.56957
   201    C   11  py     Ryd( 5p)     0.00010       3.03900
   202    C   11  pz     Val( 2p)     0.89772      -0.11316
   203    C   11  pz     Ryd( 4p)     0.00129       0.57738
   204    C   11  pz     Ryd( 3p)     0.00044       0.51105
   205    C   11  pz     Ryd( 5p)     0.00004       2.51407
   206    C   11  dxy    Ryd( 3d)     0.00143       2.39780
   207    C   11  dxz    Ryd( 3d)     0.00134       1.62044
   208    C   11  dyz    Ryd( 3d)     0.00062       1.65259
   209    C   11  dx2y2  Ryd( 3d)     0.00145       2.48774
   210    C   11  dz2    Ryd( 3d)     0.00040       1.98942

   211    H   12  S      Val( 1S)     0.78933       0.02147
   212    H   12  S      Ryd( 2S)     0.00084       0.94684
   213    H   12  S      Ryd( 3S)     0.00018       1.76652
   214    H   12  px     Ryd( 2p)     0.00012       1.98961
   215    H   12  py     Ryd( 2p)     0.00044       2.67918
   216    H   12  pz     Ryd( 2p)     0.00019       1.58733

   217    H   13  S      Val( 1S)     0.78688       0.02606
   218    H   13  S      Ryd( 2S)     0.00072       0.73684
   219    H   13  S      Ryd( 3S)     0.00017       1.96319
   220    H   13  px     Ryd( 2p)     0.00035       2.54727
   221    H   13  py     Ryd( 2p)     0.00018       2.11895
   222    H   13  pz     Ryd( 2p)     0.00018       1.59681

   223    N   14  S      Cor( 1S)     1.99939     -14.13670
   224    N   14  S      Val( 2S)     1.39847      -0.52471
   225    N   14  S      Ryd( 4S)     0.00251       1.38456
   226    N   14  S      Ryd( 3S)     0.00011       1.01358
   227    N   14  S      Ryd( 5S)     0.00000      35.30253
   228    N   14  px     Val( 2p)     1.18711      -0.15541
   229    N   14  px     Ryd( 4p)     0.00244       1.16832
   230    N   14  px     Ryd( 3p)     0.00027       1.01522
   231    N   14  px     Ryd( 5p)     0.00005       4.25848
   232    N   14  py     Val( 2p)     1.67853      -0.20868
   233    N   14  py     Ryd( 3p)     0.00713       0.67446
   234    N   14  py     Ryd( 4p)     0.00017       0.93473
   235    N   14  py     Ryd( 5p)     0.00006       3.80854
   236    N   14  pz     Val( 2p)     1.19209      -0.17647
   237    N   14  pz     Ryd( 3p)     0.00102       0.60265
   238    N   14  pz     Ryd( 4p)     0.00021       0.85725
   239    N   14  pz     Ryd( 5p)     0.00001       3.65750
   240    N   14  dxy    Ryd( 3d)     0.00146       2.94428
   241    N   14  dxz    Ryd( 3d)     0.00037       2.26653
   242    N   14  dyz    Ryd( 3d)     0.00133       2.14078
   243    N   14  dx2y2  Ryd( 3d)     0.00104       2.62563
   244    N   14  dz2    Ryd( 3d)     0.00078       2.53034

   245    H   15  S      Val( 1S)     0.78430       0.04565
   246    H   15  S      Ryd( 2S)     0.00074       1.00733
   247    H   15  S      Ryd( 3S)     0.00018       1.73272
   248    H   15  px     Ryd( 2p)     0.00032       2.53350
   249    H   15  py     Ryd( 2p)     0.00020       2.22326
   250    H   15  pz     Ryd( 2p)     0.00020       1.60959

   251    C   16  S      Cor( 1S)     1.99927     -10.02194
   252    C   16  S      Val( 2S)     1.08393      -0.24511
   253    C   16  S      Ryd( 3S)     0.00041       0.74419
   254    C   16  S      Ryd( 4S)     0.00028       0.78223
   255    C   16  S      Ryd( 5S)     0.00000      23.34514
   256    C   16  px     Val( 2p)     1.10898      -0.09447
   257    C   16  px     Ryd( 4p)     0.00139       0.52574
   258    C   16  px     Ryd( 3p)     0.00027       0.18077
   259    C   16  px     Ryd( 5p)     0.00007       3.05782
   260    C   16  py     Val( 2p)     1.18997      -0.09805
   261    C   16  py     Ryd( 4p)     0.00260       0.56504
   262    C   16  py     Ryd( 3p)     0.00027       0.19340
   263    C   16  py     Ryd( 5p)     0.00005       3.13531
   264    C   16  pz     Val( 2p)     1.20684      -0.09635
   265    C   16  pz     Ryd( 4p)     0.00054       0.51340
   266    C   16  pz     Ryd( 3p)     0.00004       0.18283
   267    C   16  pz     Ryd( 5p)     0.00006       3.12125
[...]
 0330327,-0.00020936,-0.00033690,0.00162701,0.00003297,0.00032957,-0.00
 090156,-0.00066687,-0.00017464,0.00005110,-0.00002677,-0.00002622,0.00
 390034,-0.00285016,-0.00009174,-0.00009027,0.00009215,-0.00002170,-0.0
 0028084,0.00760072,-0.00038068,-0.16309382,0.05401553,-0.00811466,0.00
 055869,-0.00046608,0.00010732,0.00024805,-0.00038048,0.00009313,-0.045
 08246,0.00782304,-0.00501839,-0.00000565,-0.00000532,0.00000063,0.5010
 7939,0.00012087,-0.00030867,0.00003172,-0.00051551,0.00087525,-0.00004
 527,-0.00359929,-0.00116530,-0.00134992,-0.00033154,0.00015253,0.00001
 442,-0.00016571,0.00012498,0.00004387,-0.00003626,0.00030202,0.0000076
 8,0.00001870,-0.00002538,-0.00001452,-0.00214380,-0.00533410,-0.000802
 32,-0.00009210,0.00007371,-0.00001492,0.03140517,-0.01708719,0.0025325
 4,0.06183514,-0.12724227,0.00448285,0.00124322,-0.00067083,0.00014772,
 0.00068338,0.00103385,0.00019256,-0.01507302,0.01374519,-0.00094896,0.
 00001841,0.00001670,0.00000370,0.04428638,0.56853626,0.00005029,0.0001
 1290,-0.00054776,-0.00008820,0.00007644,0.00054772,-0.00185151,-0.0009
 8802,0.01281291,-0.00033810,0.00003062,-0.00078890,0.00031732,0.000068
 81,-0.00090668,-0.00013885,-0.00007601,0.00012228,-0.00002285,-0.00002
 641,0.00023757,-0.00005343,-0.00089965,0.00316377,-0.00003296,0.000011
 78,0.00012100,0.00109997,-0.00049785,0.00654483,-0.00762754,0.00348572
 ,-0.07363833,0.00021464,-0.00007039,-0.00049454,0.00016309,0.00006042,
 -0.00065383,-0.00643717,0.00196087,-0.00250955,0.00000452,0.00000017,-
 0.00001287,-0.00053681,0.00824879,0.52724609,0.00019149,-0.00002817,0.
 00014459,-0.00014590,0.00027988,-0.00012738,-0.00042896,0.00027561,-0.
 00233246,0.00012747,0.00001991,0.00019146,-0.00021490,0.00003560,0.000
 16995,-0.00002223,0.00015995,-0.00002411,0.00002991,-0.00001369,-0.000
 03317,-0.00061498,0.00013547,-0.00076823,-0.00003294,0.00004022,-0.000
 00892,0.00107895,-0.00116566,-0.00126582,-0.01853962,-0.00877558,0.019
 47275,-0.00002269,0.00002656,0.00012953,0.00020191,0.00036473,0.000440
 70,-0.00365275,0.00203559,0.00098569,-0.00000353,0.00001103,-0.0000046
 4,-0.14796531,-0.04595407,0.12005965,0.16400114,0.00020941,-0.00041232
 ,-0.00006125,-0.00037816,-0.00018643,0.00001607,0.00088655,0.00000978,
 0.00103728,0.00080591,0.00040910,0.00007577,-0.00049265,0.00012007,-0.
 00001500,0.00032945,0.00026991,0.00007169,0.00000351,0.00000349,0.0000
 3535,-0.00119756,0.00039318,-0.00002803,0.00000107,-0.00001984,0.00001
 048,0.00086839,-0.00098164,0.00078600,0.00996826,0.00574762,-0.0136556
 1,-0.00003470,0.00001479,-0.00012027,-0.00008681,-0.00037966,-0.000026
 09,-0.00021175,-0.00043557,-0.00053861,0.00000043,0.00000818,-0.000020
 11,-0.04502782,-0.06866527,0.05244919,0.04915756,0.06919023,-0.0001161
 9,0.00002372,0.00001092,0.00005395,-0.00000406,-0.00000163,-0.00034469
 ,0.00005785,-0.00067898,-0.00016946,-0.00002217,-0.00004037,0.00009915
 ,-0.00001807,0.00001250,-0.00002104,-0.00007841,-0.00000485,-0.0000076
 9,-0.00000519,-0.00001554,0.00012596,-0.00028595,0.00010261,0.00000721
 ,-0.00000655,-0.00001234,0.00028572,0.00033084,0.00077899,-0.00379943,
 -0.00164158,0.00363227,0.00003971,-0.00002159,0.00002444,-0.00000303,-
 0.00032966,-0.00025710,-0.00060854,0.00005352,-0.00003103,-0.00000132,
 -0.00000511,0.00000874,0.11923649,0.05272527,-0.17625342,-0.13013349,-
 0.05907366,0.19155693,0.00018452,0.00000082,-0.00010146,-0.00015282,0.
 00025790,0.00012182,-0.00111199,-0.00001208,0.00225621,0.00010946,0.00
 002748,-0.00014932,-0.00012891,0.00005125,-0.00020124,-0.00003973,0.00
 012734,0.00003214,0.00001720,-0.00001951,0.00003996,-0.00070824,-0.000
 02592,0.00055963,-0.00003264,0.00003633,0.00000852,0.00082235,-0.00116
 643,0.00115125,-0.01331693,-0.00616794,-0.02505195,0.00002173,0.000036
 36,-0.00012868,0.00027541,0.00031549,-0.00026580,-0.00335261,0.0021471
 6,-0.00159090,-0.00000418,0.00000898,0.00000221,-0.09081254,-0.0194621
 9,-0.10041282,0.00963365,0.00437070,0.01868945,0.10165907,0.00017555,-
 0.00041445,0.00005702,-0.00034784,-0.00018037,-0.00013198,0.00106272,0
 .00011743,-0.00073140,0.00076333,0.00039660,0.00017835,-0.00046470,0.0
 0012092,-0.00008754,0.00032855,0.00025800,0.00004362,0.00001034,0.0000
 0739,-0.00003143,-0.00113318,0.00036786,-0.00024601,0.00000497,-0.0000
 2003,-0.00001067,0.00109129,-0.00081410,-0.00075309,0.00596994,0.00379
 437,0.01600065,-0.00005792,-0.00000254,0.00010818,-0.00009663,-0.00042
 594,-0.00001116,-0.00035740,-0.00051720,0.00042044,-0.00000457,0.00000
 499,0.00001909,-0.01873871,-0.05651849,-0.04178305,0.00443875,0.001233
 44,0.00881764,0.02003666,0.05562177,0.00018443,-0.00008177,0.00001885,
 -0.00013673,0.00005001,-0.00000031,0.00036812,0.00003361,-0.00010416,0
 .00030585,0.00008253,-0.00001003,-0.00019639,0.00004778,-0.00007415,0.
 00005329,0.00014726,0.00002420,0.00001745,0.00000381,-0.00000650,-0.00
 048652,0.00032493,0.00022049,-0.00001204,0.00001495,-0.00001256,-0.000
 13157,-0.00084382,0.00086661,0.00015159,0.00005181,0.00035906,-0.00004
 849,0.00002911,-0.00000270,0.00012328,0.00040029,-0.00028591,-0.000294
 60,0.00043133,-0.00024041,-0.00000296,0.00000722,0.00001280,-0.0994767
 6,-0.04227330,-0.24553309,-0.01003433,-0.00476512,-0.02144506,0.109366
 83,0.04672784,0.26745112,-0.00016074,0.00018665,-0.00000971,0.00027407
 ,-0.00001140,0.00004771,-0.00045880,-0.00015492,-0.00004197,0.00012574
 ,-0.00017036,-0.00000137,0.00010463,-0.00013430,0.00000189,-0.00009908
 ,-0.00012066,-0.00002051,-0.00006470,-0.00001006,-0.00001223,0.0006007
 0,0.00147610,0.00011697,0.00003103,-0.00003412,0.00000339,-0.00539825,
 0.00146927,-0.00081303,0.00504495,0.03066153,0.00274672,-0.00035984,0.
 00021971,-0.00000342,0.00002733,0.00012123,0.00004653,0.00280866,-0.00
 014789,0.00039945,0.00000095,-0.00001299,-0.00000090,-0.05595685,-0.05
 210964,-0.00435154,-0.00346274,-0.01916063,-0.00336821,-0.00292150,-0.
 01267324,0.00032491,0.05979158,0.00000448,-0.00025318,-0.00001699,-0.0
 0008549,-0.00008538,-0.00000786,0.00046661,0.00048599,0.00010263,0.000
 03809,0.00033320,0.00002183,-0.00014338,0.00017460,-0.00000850,0.00013
 478,0.00016553,0.00002675,0.00002868,0.00000683,0.00000276,-0.00091592
 ,-0.00075861,-0.00018776,-0.00004413,0.00000798,-0.00000409,0.00386909
 ,-0.00070169,0.00034099,-0.00345372,-0.01801802,-0.00148005,0.00026323
 ,-0.00014856,0.00003784,-0.00011612,0.00036383,0.00002493,-0.00353400,
 0.00176303,-0.00031361,0.00001208,0.00000585,0.00000208,-0.04573311,-0
 .30792073,-0.02216118,-0.00098792,-0.00634890,-0.00053252,-0.00051298,
 -0.00306046,-0.00036310,0.05060773,0.33387494,-0.00002080,0.00000791,0
 .00000236,0.00004232,-0.00000075,-0.00009880,-0.00000243,0.00002378,-0
 .00020423,0.00001337,-0.00000338,0.00005304,0.00000056,-0.00000804,0.0
 0002414,-0.00000414,-0.00000484,0.00000031,-0.00000984,-0.00000280,0.0
 0002571,-0.00003349,0.00011586,0.00040224,0.00000271,-0.00000298,-0.00
 001185,-0.00066291,0.00003638,0.00162635,0.00060564,0.00287349,-0.0011
 6220,-0.00000112,0.00003263,-0.00022124,0.00003164,0.00005532,-0.00027
 131,0.00018936,0.00011701,-0.00038187,0.00000070,-0.00000150,0.0000024
 6,-0.00395103,-0.02297499,-0.04937206,0.00315274,0.02383712,0.00260356
 ,-0.00429493,-0.02860276,-0.00123067,0.00492657,0.02449592,0.04820791,
 -0.20272651,-0.09739369,-0.02666610,-0.06678915,-0.03218837,-0.0115328
 2,0.00879492,0.01215254,0.00119456,-0.00243928,-0.00682375,-0.00060867
 ,-0.00184984,0.00099802,-0.00079260,-0.00415790,-0.01366107,-0.0023537
 3,0.00212237,-0.00120878,0.00067223,0.00297444,0.00127172,0.00049365,-
 0.00019641,-0.00026467,-0.00002912,-0.00320795,-0.00009410,-0.00042437
 ,0.00184656,-0.00086321,0.00024092,-0.00010613,-0.00038491,-0.00003859
 ,-0.00016027,-0.00007720,-0.00002853,-0.00606056,-0.00032741,-0.000850
 73,-0.00068821,-0.00096982,0.00009957,-0.00023684,-0.00010014,-0.00002
 659,-0.00020079,0.00001745,0.00005760,-0.00017774,0.00002331,-0.000104
 65,0.00008725,0.00015398,0.00002150,0.53471827,-0.05933645,-0.17408086
 ,-0.01585339,0.00094035,0.01828629,0.00075229,0.00439245,-0.00080474,0
 .00017531,-0.00439792,-0.00153678,-0.00059221,0.00811488,-0.00428187,0
 .00045984,-0.04243524,-0.02996510,-0.00774603,-0.00057296,0.00069803,0
 .00020533,0.00307918,0.00118878,0.00047976,-0.00171689,-0.00110145,-0.
 00028094,-0.00265486,0.00155785,-0.00024394,0.00005624,-0.00293329,-0.
 00014252,0.00009163,-0.00011791,0.00000389,-0.00008242,0.00004659,-0.0
 0000921,0.00129067,0.00108285,0.00020248,0.00085762,0.00176869,0.00034
 177,-0.00004633,0.00009415,0.00000016,-0.00003844,0.00002191,0.0000099
 8,-0.00003412,0.00002175,-0.00001671,-0.00000941,0.00010434,0.00000558
 ,0.02606850,0.31143223,-0.02430458,-0.02070928,-0.04531208,-0.00945902
 ,-0.00345700,0.00667072,0.00071079,0.00115876,0.00550409,-0.00045941,-
 0.00089992,-0.00112083,-0.00034378,-0.00044513,0.00480124,-0.00415620,
 -0.00408669,0.00685296,0.00071178,0.00012492,-0.00365893,0.00060660,0.
 00025372,-0.00018275,-0.00012069,-0.00009694,-0.00011516,-0.00058442,0
 .00008135,0.00001021,0.00029752,-0.00026475,-0.00044849,-0.00000872,-0
 .00005676,0.00000284,-0.00002920,-0.00000876,0.00002163,-0.00074757,-0
 .00000322,0.00036974,0.00021372,0.00010989,-0.00192092,-0.00002454,-0.
 00000311,-0.00007195,-0.00002015,-0.00001432,0.00001320,-0.00003389,0.
 00002166,-0.00000900,0.00001133,0.00002691,-0.00000230,0.06160072,0.01
 874250,0.07291187,-0.04954824,-0.00016237,-0.00553317,0.00446135,-0.00
 238073,0.00013188,-0.00260059,-0.00093698,-0.00067147,0.00197903,0.001
 54993,0.00036339,-0.00215058,0.00197088,-0.00015617,0.00560493,0.00169
 563,0.00094742,-0.00022665,0.00032681,0.00009673,-0.00182149,-0.000563
 22,-0.00025016,0.00045513,0.00043939,0.00009045,0.00150521,-0.00056667
 ,0.00015921,-0.00052164,0.00107436,0.00002378,0.00002360,0.00014977,0.
 00000878,0.00007310,0.00002267,-0.00000026,0.00082758,-0.00020761,0.00
 011075,-0.00180511,0.00051813,-0.00022256,0.00010648,-0.00000914,0.000
 01356,0.00006792,-0.00001955,-0.00003048,0.00005903,-0.00002411,0.0000
 4446,-0.00003178,-0.00005998,-0.00000924,-0.18194557,0.04064915,-0.013
 36613,0.47642104,-0.02021875,0.01418780,-0.00130601,-0.00343217,-0.003
 97938,-0.00082461,-0.00014430,0.00136568,-0.00007386,-0.00110536,-0.00
 040629,-0.00015726,0.00066468,-0.00012482,0.00007347,-0.00671525,-0.00
 172187,-0.00089929,-0.00009376,0.00026457,0.00005634,0.00081938,0.0002
 7049,0.00013093,-0.00010783,-0.00016637,-0.00002165,-0.00069250,0.0003
 5196,-0.00006539,-0.00001596,-0.00062315,-0.00003118,-0.00001815,-0.00
 008417,-0.00000937,-0.00003161,-0.00001146,-0.00000996,-0.00040401,-0.
 00023065,-0.00005753,-0.00209799,-0.00134993,-0.00036551,-0.00006016,-
 0.00001533,-0.00000591,-0.00003350,0.00001192,0.00000981,-0.00002971,0
 .00001360,-0.00001622,0.00001648,0.00002499,0.00000315,0.07078928,-0.1
 1810254,0.00522847,0.06808734,0.57934049,-0.00677493,0.00124884,-0.006
 97738,0.00007122,-0.00068936,0.00220971,-0.00062398,-0.00017354,0.0021
 4206,0.00019626,0.00017850,-0.00008347,-0.00023887,0.00023917,0.000036
 12,0.00042837,0.00017724,-0.00095844,0.00007014,0.00011222,-0.00081140
 ,-0.00016046,-0.00004569,-0.00016136,0.00005649,0.00004726,-0.00003067
 ,0.00015268,-0.00005014,-0.00000559,-0.00004562,0.00011110,-0.00017597
 ,-0.00000184,0.00001284,0.00002871,-0.00000462,-0.00000366,0.00008457,
 0.00009706,-0.00003143,-0.00012849,-0.00038854,-0.00003337,0.00015738,
 0.00001186,-0.00000253,-0.00001265,0.00000987,-0.00000074,-0.00000473,
 0.00000327,-0.00000264,0.00000267,-0.00000430,-0.00000684,0.00000926,-
 0.01149355,0.00138434,-0.05860584,-0.00690722,0.00968492,0.56340760,-0
 .00190773,0.00446758,-0.00004352,-0.00126963,-0.00135216,-0.00027845,0
 .00011937,0.00058853,0.00006900,-0.00000237,-0.00010862,-0.00000011,0.
 00009406,-0.00035585,-0.00003676,-0.00022294,0.00093418,-0.00000279,0.
 00000147,0.00004425,-0.00000010,0.00011940,0.00002878,0.00001878,-0.00
 005085,-0.00004181,-0.00001478,-0.00009980,0.00001531,-0.00001080,0.00
 005787,-0.00000673,0.00000339,-0.00000458,-0.00001637,-0.00000134,-0.0
 0000899,-0.00000674,-0.00000220,-0.00032590,-0.00007273,-0.00003786,0.
 00042450,-0.00019936,0.00009811,-0.00002203,-0.00001473,-0.00000566,-0
 .00001351,0.00000378,0.00000314,-0.00001240,0.00000499,-0.00000553,0.0
 0000422,0.00000674,0.00000064,-0.03703155,-0.02213768,-0.00615745,-0.1
 4073183,-0.12396534,-0.01912608,0.17168444,0.00322305,-0.00052215,0.00
 033804,0.00056570,0.00061481,0.00009458,-0.00002926,-0.00026486,-0.000
 01109,-0.00020536,-0.00004269,-0.00002521,-0.00004991,0.00046636,0.000
 01037,0.00043183,-0.00104210,-0.00002788,-0.00001446,-0.00002407,-0.00
 000491,0.00006903,0.00006964,0.00001306,0.00003338,0.00000795,0.000001
 87,-0.00006392,0.00008948,-0.00000172,-0.00000010,-0.00009827,-0.00000
 704,0.00000735,-0.00000350,0.00000089,-0.00001257,0.00000167,-0.000001
 81,0.00008303,0.00004314,0.00001733,-0.00065065,0.00046526,-0.00002538
 ,-0.00001462,-0.00000150,-0.00000400,-0.00000641,0.00000614,0.00000299
 ,-0.00000566,0.00000693,-0.00000342,-0.00000081,0.00000462,-0.00000002
 ,0.01542816,0.01432857,0.00282152,-0.13714211,-0.22034733,-0.02796594,
 0.13691136,0.22970194,-0.00012434,0.00049552,0.00065121,-0.00015856,-0
 .00014853,0.00021402,0.00003011,0.00006568,-0.00011717,-0.00000646,-0.
 00001361,-0.00005720,-0.00001862,-0.00002861,0.00021010,-0.00003455,0.
 00003742,0.00025395,-0.00000366,0.00000232,0.00002257,0.00002231,0.000
 00981,-0.00002074,-0.00000999,-0.00000745,0.00004248,-0.00001683,0.000
 00801,-0.00000498,0.00000309,-0.00000973,0.00003727,0.00000011,-0.0000
 0238,-0.00000167,-0.00000261,-0.00000116,0.00000498,-0.00002846,-0.000
 00279,-0.00006516,0.00007028,0.00003224,-0.00043440,-0.00000423,-0.000
 00221,0.00000157,-0.00000190,0.00000320,0.00000007,-0.00000206,-0.0000
 0123,-0.00000180,0.00000029,0.00000140,0.00000235,-0.00382362,-0.00196
 289,-0.00008931,-0.01994198,-0.02628620,-0.05502546,0.02438610,0.02876
 942,0.05170153,0.00592176,0.00441625,0.00279394,-0.00202315,-0.0002424
 2,-0.00086910,0.00101849,0.00072566,-0.00024186,0.00035704,-0.00056203
 ,0.00001537,-0.00065674,-0.00032034,-0.00049780,0.00041912,-0.00054781
 ,-0.00001727,0.00011727,-0.00012798,0.00024471,-0.00010779,-0.00001919
 ,0.00007747,-0.00004917,-0.00003593,0.00003070,-0.00000840,-0.00024168
 ,-0.00002340,0.00023012,0.00024804,0.00010011,-0.00001090,-0.00001340,
 -0.00000036,0.00000053,-0.00000580,-0.00001830,-0.00055350,0.00001768,
 -0.00004003,-0.00096278,-0.00095459,0.00085877,0.00000654,-0.00000128,
 -0.00000325,-0.00000492,-0.00000720,0.00000280,-0.00000559,-0.00000615
 ,-0.00000497,0.00000697,0.00000073,0.00000172,-0.02544022,0.02219405,0
 .02424128,-0.06050170,0.02243853,0.04195130,0.00680841,-0.00842090,-0.
 01650795,0.07327877,-0.00275315,-0.00131155,0.00020601,0.00049880,0.00
 018429,0.00014540,-0.00018661,-0.00012406,0.00006940,0.00051190,0.0001
 5323,-0.00000911,-0.00039528,0.00001186,-0.00025102,0.00044771,0.00046
 036,0.00036117,-0.00005108,0.00005037,-0.00010407,-0.00034475,-0.00009
 811,0.00000357,0.00002115,0.00004696,0.00004661,0.00026378,-0.00017061
 ,0.00001772,-0.00000346,0.00025969,0.00001561,0.00000166,0.00002324,0.
 00000135,0.00001555,0.00000316,-0.00000911,0.00002978,-0.00000921,0.00
 000891,-0.00095522,-0.00025874,0.00049891,0.00002194,0.00000097,0.0000
 0461,0.00000975,-0.00000627,-0.00000335,0.00001165,-0.00000506,0.00000
 604,-0.00000385,-0.00001045,-0.00000251,0.01452422,-0.00834139,-0.0085
 6809,0.02550595,-0.11052512,-0.10296456,0.00535183,-0.01051482,-0.0213
 1752,-0.03706800,0.11956909,-0.00109890,-0.00097316,0.00063845,0.00033
 583,0.00034424,-0.00022490,-0.00013468,-0.00013505,-0.00011141,0.00017
 936,0.00000726,-0.00005208,-0.00045466,0.00042248,-0.00009446,0.000853
 36,-0.00099038,0.00019784,-0.00006773,0.00002843,0.00001648,-0.0001928
 8,-0.00000112,0.00001202,0.00003652,0.00001833,0.00002863,0.00011312,-
 0.00004962,0.00001928,-0.00000112,0.00010958,0.00001479,0.00001037,0.0
 0001161,-0.00000281,-0.00000379,0.00000259,-0.00001099,-0.00000158,0.0
 0002103,0.00002409,-0.00046634,0.00058511,-0.00002100,-0.00000297,-0.0
 0000555,-0.00000108,-0.00000264,0.00000177,-0.00000057,-0.00000080,0.0
 0000269,0.00000117,-0.00000237,0.00000041,-0.00000186,0.00297144,0.002
 84298,0.01083344,0.04644662,-0.10393728,-0.23099065,0.00000072,-0.0005
 7353,-0.00208825,-0.05299282,0.11555829,0.24200881,0.00597787,0.004287
 62,-0.00088169,-0.00204533,-0.00023158,0.00037694,0.00084900,0.0006199
 2,0.00057358,0.00038085,-0.00054588,0.00002665,-0.00084253,-0.00025437
 ,0.00027079,0.00061334,-0.00078308,0.00003164,0.00015649,-0.00008812,-
 0.00022347,-0.00012326,-0.00000579,-0.00011359,-0.00002815,-0.00002575
 ,-0.00004820,0.00001540,-0.00024483,-0.00000834,0.00023626,0.00027092,
 -0.00000879,-0.00000786,-0.00001026,-0.00000222,-0.00000549,-0.0000072
 9,0.00001881,-0.00052876,0.00002668,-0.00009962,-0.00078040,-0.0006496
 6,-0.00113548,0.00000447,-0.00000285,0.00000426,-0.00000667,-0.0000056
 4,0.00000237,-0.00000461,-0.00000597,-0.00000468,0.00000620,0.00000053
 ,0.00000045,-0.01712889,0.02572799,-0.02857800,-0.04969923,-0.00364935
 ,0.00272147,0.00239034,-0.01013614,0.01617355,0.00215984,-0.00545426,0
 .00447596,0.05841111,-0.00277857,-0.00140368,-0.00115021,0.00057804,0.
 00023601,0.00004463,-0.00019295,-0.00014134,-0.00012991,0.00049905,0.0
 0014952,0.00016444,-0.00048647,0.00004431,0.00014137,0.00061658,0.0003
 8310,-0.00018719,-0.00008593,0.00004352,0.00009260,-0.00034877,-0.0000
 8942,-0.00010494,0.00003682,0.00005432,-0.00003454,0.00027438,-0.00017
 190,0.00002786,-0.00000655,0.00026743,0.00001501,0.00000286,0.00002461
 ,0.00000279,0.00001127,0.00000161,0.00001366,0.00003975,-0.00000574,-0
 .00000328,-0.00083181,-0.00009514,-0.00072676,0.00002132,-0.00000054,0
 .00000201,0.00001284,-0.00000385,-0.00000375,0.00000842,-0.00000640,0.
 00000493,-0.00000442,-0.00000973,0.00000040,0.01292995,-0.00936608,0.0
 1004427,0.00008246,-0.13814310,0.11877402,-0.00007921,-0.01294524,0.02
 035931,-0.00146621,0.01061216,-0.01329110,-0.00883284,0.15056556,0.002
 12628,0.00184481,0.00067325,-0.00073440,-0.00035337,-0.00025415,0.0003
 5936,0.00029698,0.00007485,-0.00000126,-0.00012027,-0.00007117,0.00020
 626,-0.00049301,0.00005984,-0.00068926,0.00085334,0.00008643,0.0000943
 7,-0.00005121,-0.00001597,0.00011269,-0.00001723,0.00001652,-0.0000465
 4,-0.00002120,-0.00000024,-0.00008110,-0.00003497,-0.00000154,0.000059
 54,-0.00001125,0.00000317,-0.00001117,-0.00001132,-0.00000718,0.000007
 65,-0.00000250,-0.00000354,-0.00013694,-0.00001894,-0.00000410,0.00017
 695,-0.00078887,-0.00036453,0.00000758,0.00000646,-0.00000103,0.000000
 29,-0.00000511,0.00000141,0.00000258,-0.00000422,-0.00000066,0.0000037
 8,-0.00000192,-0.00000133,-0.00857851,0.00124162,0.00354562,-0.0013482
 0,0.11888016,-0.21410598,0.00114355,-0.00341810,0.00476404,0.00089890,
 0.01628574,-0.02019495,0.00642762,-0.13405561,0.22580125\\0.00004785,0
 .00000787,0.00002343,-0.00007554,-0.00003900,-0.00001223,0.00006766,0.
 00006186,0.00000226,-0.00000203,-0.00006406,0.00000286,-0.00003716,0.0
 0001062,-0.00000335,0.00001077,0.00001495,-0.00001204,0.00000017,0.000
 01176,0.00000020,0.00000668,0.00001335,0.00000003,0.00001165,-0.000002
 46,0.00000164,0.00001307,0.00000389,0.00001045,0.00000223,-0.00000585,
 -0.00002447,0.00000022,-0.00000461,-0.00000232,-0.00000021,-0.00000893
 ,-0.00000215,-0.00002368,0.00000792,0.00000885,-0.00000088,0.00000511,
 0.00001075,-0.00000362,-0.00000192,0.00000837,0.00000722,0.00000024,-0
 .00000321,0.00001006,-0.00000286,0.00000610,-0.00000684,-0.00001053,-0
 .00000069,0.00002625,-0.00002728,-0.00000573,-0.00007584,0.00004265,0.
 00000721,-0.00000118,-0.00000537,0.00000564,0.00001370,-0.00001198,-0.
 00000927,0.00000944,0.00000463,-0.00001232\\\@


 IF THERE IS ONE WAY BETTER THAN ANOTHER IT IS THE WAY OF NATURE.

                          -- ARISTOTLE
 Job cpu time:       0 days  1 hours 43 minutes  8.6 seconds.
 File lengths (MBytes):  RWF=    334 Int=      0 D2E=      0 Chk=     10 Scr=      1
 Normal termination of Gaussian 09 at Mon Jan  9 17:53:27 2023.
