 Entering Gaussian System, Link 0=g09
 Initial command:
 /cm/shared/apps/gaussian/g09revD.01/g09/l1.exe "//home/sweav003/CHB/validation/G09-Traceless9_Smith.com.o9822907.tmp/Gau-220798.inp" -scrdir="//home/sweav003/CHB/validation/G09-Traceless9_Smith.com.o9822907.tmp/"
 Entering Link 1 = /cm/shared/apps/gaussian/g09revD.01/g09/l1.exe PID=    220799.
  
 Copyright (c) 1988,1990,1992,1993,1995,1998,2003,2009,2013,
            Gaussian, Inc.  All Rights Reserved.
  
 This is part of the Gaussian(R) 09 program.  It is based on
 the Gaussian(R) 03 system (copyright 2003, Gaussian, Inc.),
 the Gaussian(R) 98 system (copyright 1998, Gaussian, Inc.),
 the Gaussian(R) 94 system (copyright 1995, Gaussian, Inc.),
 the Gaussian 92(TM) system (copyright 1992, Gaussian, Inc.),
 the Gaussian 90(TM) system (copyright 1990, Gaussian, Inc.),
 the Gaussian 88(TM) system (copyright 1988, Gaussian, Inc.),
 the Gaussian 86(TM) system (copyright 1986, Carnegie Mellon
 University), and the Gaussian 82(TM) system (copyright 1983,
 Carnegie Mellon University). Gaussian is a federally registered
 trademark of Gaussian, Inc.
  
 This software contains proprietary and confidential information,
 including trade secrets, belonging to Gaussian, Inc.
  
 This software is provided under written license and may be
 used, copied, transmitted, or stored only in accord with that
 written license.
  
 The following legend is applicable only to US Government
 contracts under FAR:
  
                    RESTRICTED RIGHTS LEGEND
  
 Use, reproduction and disclosure by the US Government is
 subject to restrictions as set forth in subparagraphs (a)
 and (c) of the Commercial Computer Software - Restricted
 Rights clause in FAR 52.227-19.
  
 Gaussian, Inc.
 340 Quinnipiac St., Bldg. 40, Wallingford CT 06492
  
  
 ---------------------------------------------------------------
 Warning -- This program may not be used in any manner that
 competes with the business of Gaussian, Inc. or will provide
 assistance to any competitor of Gaussian, Inc.  The licensee
 of this program is prohibited from giving any competitor of
 Gaussian, Inc. access to this program.  By using this program,
 the user acknowledges that Gaussian, Inc. is engaged in the
 business of creating and licensing software in the field of
 computational chemistry and represents and warrants to the
 licensee that it is not a competitor of Gaussian, Inc. and that
 it will not use this program in any manner prohibited above.
 ---------------------------------------------------------------
  

 Cite this work as:
 Gaussian 09, Revision D.01,
 M. J. Frisch, G. W. Trucks, H. B. Schlegel, G. E. Scuseria, 
 M. A. Robb, J. R. Cheeseman, G. Scalmani, V. Barone, B. Mennucci, 
 G. A. Petersson, H. Nakatsuji, M. Caricato, X. Li, H. P. Hratchian, 
 A. F. Izmaylov, J. Bloino, G. Zheng, J. L. Sonnenberg, M. Hada, 
 M. Ehara, K. Toyota, R. Fukuda, J. Hasegawa, M. Ishida, T. Nakajima, 
 Y. Honda, O. Kitao, H. Nakai, T. Vreven, J. A. Montgomery, Jr., 
 J. E. Peralta, F. Ogliaro, M. Bearpark, J. J. Heyd, E. Brothers, 
 K. N. Kudin, V. N. Staroverov, T. Keith, R. Kobayashi, J. Normand, 
 K. Raghavachari, A. Rendell, J. C. Burant, S. S. Iyengar, J. Tomasi, 
 M. Cossi, N. Rega, J. M. Millam, M. Klene, J. E. Knox, J. B. Cross, 
 V. Bakken, C. Adamo, J. Jaramillo, R. Gomperts, R. E. Stratmann, 
 O. Yazyev, A. J. Austin, R. Cammi, C. Pomelli, J. W. Ochterski, 
 R. L. Martin, K. Morokuma, V. G. Zakrzewski, G. A. Voth, 
 P. Salvador, J. J. Dannenberg, S. Dapprich, A. D. Daniels, 
 O. Farkas, J. B. Foresman, J. V. Ortiz, J. Cioslowski, 
 and D. J. Fox, Gaussian, Inc., Wallingford CT, 2013.
 
 ******************************************
 Gaussian 09:  ES64L-G09RevD.01 24-Apr-2013
                 9-Jan-2023 
 ******************************************
 %nprocshared=20
 Will use up to   20 processors via shared memory.
 %mem=4GB
 %chk=Traceless9_Smith.chk
 ----------------------------------------------------------------------
 # opt freq b3lyp/6-311+g(d,p) geom=connectivity pop=(hirshfeld,chelpg,
 mbs,npa)
 ----------------------------------------------------------------------
 1/14=-1,18=20,19=15,26=3,38=1,57=2/1,3;
 2/9=110,12=2,17=6,18=5,40=1/2;
 3/5=4,6=6,7=111,11=2,16=1,25=1,30=1,71=1,74=-5/1,2,3;
 4//1;
 5/5=2,38=5/2;
 6/7=2,8=2,9=2,10=2,15=8,20=3,27=100,28=1,40=-1,79=1/1,2,7;
 7//1,2,3,16;
 1/14=-1,18=20,19=15,26=3/3(2);
 2/9=110/2;
 99//99;
 2/9=110/2;
 3/5=4,6=6,7=111,11=2,16=1,25=1,30=1,71=1,74=-5/1,2,3;
 4/5=5,16=3,69=1/1;
 5/5=2,38=5/2;
 7//1,2,3,16;
 1/14=-1,18=20,19=15,26=3/3(-5);
 2/9=110/2;
 6/7=2,8=2,9=2,10=2,15=8,19=2,20=3,27=100,28=1,40=-1,79=1/1,2,7;
 99/9=1/99;
 -------------------
 Title Card Required
 -------------------
 Symbolic Z-matrix:
 Charge =  0 Multiplicity = 1
 C                    -1.92113   0.35921  -0.46242 
 C                    -0.73156  -0.36976  -0.46242 
 C                     0.49423   0.29556  -0.46242 
 C                     0.53083   1.6905   -0.46362 
 C                    -0.65849   2.41923  -0.4641 
 C                    -1.88458   1.75356  -0.4631 
 H                     1.43191  -0.27896  -0.46179 
 H                     1.49745   2.21486  -0.46368 
 H                    -2.82205   2.32826  -0.46328 
 N                    -0.62039   3.88874  -0.46537 
 H                    -0.1422    4.21049   0.35182 
 H                    -0.13881   4.20899  -1.28117 
 H                    -0.75965  -1.43939  -0.46242 
 C                    -3.27452  -0.37559  -0.46167 
 F                    -3.97248  -0.03431  -1.5657 
 F                    -3.97481  -0.02775   0.63883 
 F                    -3.06268  -1.70886  -0.45748 
 

 GradGradGradGradGradGradGradGradGradGradGradGradGradGradGradGradGradGrad
 Berny optimization.
 Initialization pass.
                           ----------------------------
                           !    Initial Parameters    !
                           ! (Angstroms and Degrees)  !
 --------------------------                            --------------------------
 ! Name  Definition              Value          Derivative Info.                !
 --------------------------------------------------------------------------------
 ! R1    R(1,2)                  1.3952         estimate D2E/DX2                !
 ! R2    R(1,6)                  1.3948         estimate D2E/DX2                !
 ! R3    R(1,14)                 1.54           estimate D2E/DX2                !
 ! R4    R(2,3)                  1.3947         estimate D2E/DX2                !
 ! R5    R(2,13)                 1.07           estimate D2E/DX2                !
 ! R6    R(3,4)                  1.3954         estimate D2E/DX2                !
 ! R7    R(3,7)                  1.0997         estimate D2E/DX2                !
 ! R8    R(4,5)                  1.3948         estimate D2E/DX2                !
 ! R9    R(4,8)                  1.0997         estimate D2E/DX2                !
 ! R10   R(5,6)                  1.3951         estimate D2E/DX2                !
 ! R11   R(5,10)                 1.47           estimate D2E/DX2                !
 ! R12   R(6,9)                  1.0996         estimate D2E/DX2                !
 ! R13   R(10,11)                1.0            estimate D2E/DX2                !
 ! R14   R(10,12)                1.0            estimate D2E/DX2                !
 ! R15   R(14,15)                1.35           estimate D2E/DX2                !
 ! R16   R(14,16)                1.35           estimate D2E/DX2                !
 ! R17   R(14,17)                1.35           estimate D2E/DX2                !
 ! A1    A(2,1,6)              119.9985         estimate D2E/DX2                !
 ! A2    A(2,1,14)             120.0008         estimate D2E/DX2                !
 ! A3    A(6,1,14)             120.0008         estimate D2E/DX2                !
 ! A4    A(1,2,3)              120.0086         estimate D2E/DX2                !
 ! A5    A(1,2,13)             119.9957         estimate D2E/DX2                !
 ! A6    A(3,2,13)             119.9957         estimate D2E/DX2                !
 ! A7    A(2,3,4)              119.9942         estimate D2E/DX2                !
 ! A8    A(2,3,7)              120.0128         estimate D2E/DX2                !
 ! A9    A(4,3,7)              119.993          estimate D2E/DX2                !
 ! A10   A(3,4,5)              119.994          estimate D2E/DX2                !
 ! A11   A(3,4,8)              119.9811         estimate D2E/DX2                !
 ! A12   A(5,4,8)              120.0249         estimate D2E/DX2                !
 ! A13   A(4,5,6)              120.0047         estimate D2E/DX2                !
 ! A14   A(4,5,10)             120.0113         estimate D2E/DX2                !
 ! A15   A(6,5,10)             119.984          estimate D2E/DX2                !
 ! A16   A(1,6,5)              120.0            estimate D2E/DX2                !
 ! A17   A(1,6,9)              120.008          estimate D2E/DX2                !
 ! A18   A(5,6,9)              119.992          estimate D2E/DX2                !
 ! A19   A(5,10,11)            109.4712         estimate D2E/DX2                !
 ! A20   A(5,10,12)            109.4712         estimate D2E/DX2                !
 ! A21   A(11,10,12)           109.4713         estimate D2E/DX2                !
 ! A22   A(1,14,15)            109.4712         estimate D2E/DX2                !
 ! A23   A(1,14,16)            109.4712         estimate D2E/DX2                !
 ! A24   A(1,14,17)            109.4712         estimate D2E/DX2                !
 ! A25   A(15,14,16)           109.4713         estimate D2E/DX2                !
 ! A26   A(15,14,17)           109.4712         estimate D2E/DX2                !
 ! A27   A(16,14,17)           109.4712         estimate D2E/DX2                !
 ! D1    D(6,1,2,3)              0.0323         estimate D2E/DX2                !
 ! D2    D(6,1,2,13)          -179.9677         estimate D2E/DX2                !
 ! D3    D(14,1,2,3)          -179.9677         estimate D2E/DX2                !
 ! D4    D(14,1,2,13)            0.0323         estimate D2E/DX2                !
 ! D5    D(2,1,6,5)              0.0149         estimate D2E/DX2                !
 ! D6    D(2,1,6,9)            179.9892         estimate D2E/DX2                !
 ! D7    D(14,1,6,5)          -179.9851         estimate D2E/DX2                !
 ! D8    D(14,1,6,9)            -0.0108         estimate D2E/DX2                !
 ! D9    D(2,1,14,15)         -119.8374         estimate D2E/DX2                !
 ! D10   D(2,1,14,16)          120.1626         estimate D2E/DX2                !
 ! D11   D(2,1,14,17)            0.1626         estimate D2E/DX2                !
 ! D12   D(6,1,14,15)           60.1626         estimate D2E/DX2                !
 ! D13   D(6,1,14,16)          -59.8374         estimate D2E/DX2                !
 ! D14   D(6,1,14,17)         -179.8374         estimate D2E/DX2                !
 ! D15   D(1,2,3,4)             -0.0568         estimate D2E/DX2                !
 ! D16   D(1,2,3,7)            179.9619         estimate D2E/DX2                !
 ! D17   D(13,2,3,4)           179.9432         estimate D2E/DX2                !
 ! D18   D(13,2,3,7)            -0.0381         estimate D2E/DX2                !
 ! D19   D(2,3,4,5)              0.0341         estimate D2E/DX2                !
 ! D20   D(2,3,4,8)           -179.9964         estimate D2E/DX2                !
 ! D21   D(7,3,4,5)           -179.9846         estimate D2E/DX2                !
 ! D22   D(7,3,4,8)             -0.0151         estimate D2E/DX2                !
 ! D23   D(3,4,5,6)              0.0131         estimate D2E/DX2                !
 ! D24   D(3,4,5,10)          -179.9995         estimate D2E/DX2                !
 ! D25   D(8,4,5,6)           -179.9563         estimate D2E/DX2                !
 ! D26   D(8,4,5,10)             0.0311         estimate D2E/DX2                !
 ! D27   D(4,5,6,1)             -0.0376         estimate D2E/DX2                !
 ! D28   D(4,5,6,9)            179.9881         estimate D2E/DX2                !
 ! D29   D(10,5,6,1)           179.975          estimate D2E/DX2                !
 ! D30   D(10,5,6,9)             0.0007         estimate D2E/DX2                !
 ! D31   D(4,5,10,11)          -60.1262         estimate D2E/DX2                !
 ! D32   D(4,5,10,12)           59.8738         estimate D2E/DX2                !
 ! D33   D(6,5,10,11)          119.8611         estimate D2E/DX2                !
 ! D34   D(6,5,10,12)         -120.1389         estimate D2E/DX2                !
 --------------------------------------------------------------------------------
 Trust Radius=3.00D-01 FncErr=1.00D-07 GrdErr=1.00D-06
 Number of steps in this run=     88 maximum allowed number of steps=    102.
 GradGradGradGradGradGradGradGradGradGradGradGradGradGradGradGradGradGrad

                          Input orientation:                          
 ---------------------------------------------------------------------
 Center     Atomic      Atomic             Coordinates (Angstroms)
 Number     Number       Type             X           Y           Z
 ---------------------------------------------------------------------
      1          6           0       -1.921133    0.359212   -0.462423
      2          6           0       -0.731564   -0.369757   -0.462423
      3          6           0        0.494234    0.295557   -0.462423
      4          6           0        0.530830    1.690504   -0.463622
      5          6           0       -0.658495    2.419231   -0.464101
      6          6           0       -1.884583    1.753562   -0.463105
      7          1           0        1.431907   -0.278956   -0.461789
      8          1           0        1.497446    2.214860   -0.463681
      9          1           0       -2.822054    2.328259   -0.463285
     10          7           0       -0.620388    3.888737   -0.465375
     11          1           0       -0.142197    4.210490    0.351821
     12          1           0       -0.138806    4.208986   -1.281168
     13          1           0       -0.759653   -1.439388   -0.462423
     14          6           0       -3.274521   -0.375594   -0.461670
     15          9           0       -3.972478   -0.034313   -1.565701
     16          9           0       -3.974813   -0.027754    0.638830
     17          9           0       -3.062684   -1.708864   -0.457478
 ---------------------------------------------------------------------
                    Distance matrix (angstroms):
                    1          2          3          4          5
     1  C    0.000000
     2  C    1.395160   0.000000
     3  C    2.416205   1.394712   0.000000
     4  C    2.790065   2.416260   1.395427   0.000000
     5  C    2.416183   2.789946   2.416356   1.394825   0.000000
     6  C    1.394829   2.416183   2.790080   2.416236   1.395138
     7  H    3.413229   2.165375   1.099680   2.165806   3.413209
     8  H    3.889745   3.413024   2.165678   1.099680   2.165606
     9  H    2.165365   3.413128   3.889684   3.412999   2.165471
    10  N    3.761581   4.259946   3.762091   2.481438   1.470000
    11  H    4.319716   4.689244   4.049041   2.732808   2.034920
    12  H    4.320625   4.688987   4.047964   2.731218   2.034920
    13  H    2.141027   1.070000   2.140623   3.385495   3.859946
    14  C    1.540000   2.542964   3.828049   4.330065   3.828139
    15  F    2.362223   3.439952   4.612759   4.946650   4.268007
    16  F    2.362223   3.442149   4.614072   4.946577   4.266398
    17  F    2.362224   2.688374   4.082817   4.946623   4.777169
                    6          7          8          9         10
     6  C    0.000000
     7  H    3.889760   0.000000
     8  H    3.413344   2.494678   0.000000
     9  H    1.099604   4.989364   4.320988   0.000000
    10  N    2.481364   4.645598   2.699460   2.698598   0.000000
    11  H    3.120338   4.826477   2.708507   3.374733   1.000000
    12  H    3.121870   4.824951   2.705946   3.377260   1.000000
    13  H    3.385321   2.479827   4.295117   4.295191   5.329946
    14  C    2.542683   4.707420   5.429745   2.741451   5.022844
    15  F    2.961675   5.521398   6.016086   2.849657   5.276130
    16  F    2.959122   5.523321   6.015851   2.845049   5.273550
    17  F    3.657369   4.716567   6.015849   4.044292   6.107209
                   11         12         13         14         15
    11  H    0.000000
    12  H    1.632993   0.000000
    13  H    5.741548   5.741074   0.000000
    14  C    5.612966   5.614505   2.730608   0.000000
    15  F    6.030447   5.725695   3.676098   1.350000   0.000000
    16  F    5.721366   6.029204   3.680043   1.350000   2.204541
    17  F    6.650035   6.651953   2.318748   1.350000   2.204541
                   16         17
    16  F    0.000000
    17  F    2.204541   0.000000
 Stoichiometry    C7H6F3N
 Framework group  C1[X(C7H6F3N)]
 Deg. of freedom    45
 Full point group                 C1      NOp   1
 Largest Abelian subgroup         C1      NOp   1
 Largest concise Abelian subgroup C1      NOp   1
                         Standard orientation:                         
 ---------------------------------------------------------------------
 Center     Atomic      Atomic             Coordinates (Angstroms)
 Number     Number       Type             X           Y           Z
 ---------------------------------------------------------------------
      1          6           0       -0.306147    0.176595    0.000034
      2          6           0        0.067254    1.520857    0.000332
      3          6           0        1.417635    1.869705   -0.000314
      4          6           0        2.395336    0.874056   -0.000060
      5          6           0        2.021949   -0.469863    0.000121
      6          6           0        0.671113   -0.818650   -0.000228
      7          1           0        1.712031    2.929246   -0.000713
      8          1           0        3.459999    1.149352   -0.000510
      9          1           0        0.376990   -1.878188   -0.000283
     10          7           0        3.051581   -1.519033    0.000400
     11          1           0        3.620309   -1.428148   -0.817089
     12          1           0        3.622707   -1.425361    0.815900
     13          1           0       -0.682457    2.284292    0.001056
     14          6           0       -1.797250   -0.208388   -0.000005
     15          9           0       -2.074616   -0.934296    1.103909
     16          9           0       -2.073125   -0.939845   -1.100625
     17          9           0       -2.551145    0.911492   -0.003334
 ---------------------------------------------------------------------
 Rotational constants (GHZ):      2.0863250      0.7299995      0.6019895
 Standard basis: 6-311+G(d,p) (5D, 7F)
 There are   289 symmetry adapted cartesian basis functions of A   symmetry.
 There are   278 symmetry adapted basis functions of A   symmetry.
   278 basis functions,   444 primitive gaussians,   289 cartesian basis functions
    41 alpha electrons       41 beta electrons
       nuclear repulsion energy       616.2285588969 Hartrees.
 NAtoms=   17 NActive=   17 NUniq=   17 SFac= 1.00D+00 NAtFMM=   60 NAOKFM=F Big=F
 Integral buffers will be    131072 words long.
 Raffenetti 2 integral format.
 Two-electron integral symmetry is turned on.
 One-electron integrals computed using PRISM.
 NBasis=   278 RedAO= T EigKep=  2.04D-06  NBF=   278
 NBsUse=   278 1.00D-06 EigRej= -1.00D+00 NBFU=   278
 ExpMin= 4.38D-02 ExpMax= 1.14D+04 ExpMxC= 1.72D+03 IAcc=2 IRadAn=         4 AccDes= 0.00D+00
 Harris functional with IExCor=  402 and IRadAn=       4 diagonalized for initial guess.
 HarFok:  IExCor=  402 AccDes= 0.00D+00 IRadAn=         4 IDoV= 1 UseB2=F ITyADJ=14
 ICtDFT=  3500011 ScaDFX=  1.000000  1.000000  1.000000  1.000000
 FoFCou: FMM=F IPFlag=           0 FMFlag=      100000 FMFlg1=           0
         NFxFlg=           0 DoJE=T BraDBF=F KetDBF=T FulRan=T
         wScrn=  0.000000 ICntrl=     500 IOpCl=  0 I1Cent=   200000004 NGrid=           0
         NMat0=    1 NMatS0=      1 NMatT0=    0 NMatD0=    1 NMtDS0=    0 NMtDT0=    0
 Petite list used in FoFCou.
 Requested convergence on RMS density matrix=1.00D-08 within 128 cycles.
 Requested convergence on MAX density matrix=1.00D-06.
 Requested convergence on             energy=1.00D-06.
 No special actions if energy rises.
 SCF Done:  E(RB3LYP) =  -624.823305688     A.U. after   14 cycles
            NFock= 14  Conv=0.10D-07     -V/T= 2.0036

 **********************************************************************

            Population analysis using the SCF density.

 **********************************************************************

 Orbital symmetries:
       Occupied  (A) (A) (A) (A) (A) (A) (A) (A) (A) (A) (A) (A)
                 (A) (A) (A) (A) (A) (A) (A) (A) (A) (A) (A) (A)
                 (A) (A) (A) (A) (A) (A) (A) (A) (A) (A) (A) (A)
                 (A) (A) (A) (A) (A)
       Virtual   (A) (A) (A) (A) (A) (A) (A) (A) (A) (A) (A) (A)
                 (A) (A) (A) (A) (A) (A) (A) (A) (A) (A) (A) (A)
                 (A) (A) (A) (A) (A) (A) (A) (A) (A) (A) (A) (A)
                 (A) (A) (A) (A) (A) (A) (A) (A) (A) (A) (A) (A)
                 (A) (A) (A) (A) (A) (A) (A) (A) (A) (A) (A) (A)
                 (A) (A) (A) (A) (A) (A) (A) (A) (A) (A) (A) (A)
                 (A) (A) (A) (A) (A) (A) (A) (A) (A) (A) (A) (A)
                 (A) (A) (A) (A) (A) (A) (A) (A) (A) (A) (A) (A)
                 (A) (A) (A) (A) (A) (A) (A) (A) (A) (A) (A) (A)
                 (A) (A) (A) (A) (A) (A) (A) (A) (A) (A) (A) (A)
                 (A) (A) (A) (A) (A) (A) (A) (A) (A) (A) (A) (A)
                 (A) (A) (A) (A) (A) (A) (A) (A) (A) (A) (A) (A)
                 (A) (A) (A) (A) (A) (A) (A) (A) (A) (A) (A) (A)
                 (A) (A) (A) (A) (A) (A) (A) (A) (A) (A) (A) (A)
                 (A) (A) (A) (A) (A) (A) (A) (A) (A) (A) (A) (A)
                 (A) (A) (A) (A) (A) (A) (A) (A) (A) (A) (A) (A)
                 (A) (A) (A) (A) (A) (A) (A) (A) (A) (A) (A) (A)
                 (A) (A) (A) (A) (A) (A) (A) (A) (A) (A) (A) (A)
                 (A) (A) (A) (A) (A) (A) (A) (A) (A) (A) (A) (A)
                 (A) (A) (A) (A) (A) (A) (A) (A) (A)
 The electronic state is 1-A.
 Alpha  occ. eigenvalues --  -24.72393 -24.72128 -24.72126 -14.31448 -10.43874
 Alpha  occ. eigenvalues --  -10.22930 -10.21349 -10.19952 -10.19884 -10.19762
 Alpha  occ. eigenvalues --  -10.19743  -1.32487  -1.24297  -1.24045  -0.91998
 Alpha  occ. eigenvalues --   -0.86914  -0.79141  -0.75630  -0.71591  -0.64184
 Alpha  occ. eigenvalues --   -0.62944  -0.60632  -0.59977  -0.57631  -0.51873
 Alpha  occ. eigenvalues --   -0.51075  -0.49028  -0.48314  -0.48223  -0.47179
 Alpha  occ. eigenvalues --   -0.45348  -0.45154  -0.43695  -0.42697  -0.41501
 Alpha  occ. eigenvalues --   -0.38713  -0.38301  -0.36937  -0.28106  -0.27451
 Alpha  occ. eigenvalues --   -0.27315
 Alpha virt. eigenvalues --   -0.04554  -0.03183  -0.00907   0.00784   0.02117
 Alpha virt. eigenvalues --    0.03650   0.04280   0.04623   0.05108   0.06416
 Alpha virt. eigenvalues --    0.06652   0.08039   0.08098   0.09741   0.10271
 Alpha virt. eigenvalues --    0.11635   0.11642   0.11847   0.12319   0.12734
 Alpha virt. eigenvalues --    0.13564   0.13995   0.14712   0.16055   0.16224
 Alpha virt. eigenvalues --    0.16607   0.16635   0.17242   0.18208   0.18973
 Alpha virt. eigenvalues --    0.19269   0.19747   0.19967   0.20169   0.21024
 Alpha virt. eigenvalues --    0.21982   0.22154   0.23267   0.23642   0.24312
 Alpha virt. eigenvalues --    0.25041   0.26105   0.26978   0.27246   0.27955
 Alpha virt. eigenvalues --    0.27983   0.28849   0.30561   0.32661   0.34070
 Alpha virt. eigenvalues --    0.34418   0.34637   0.35695   0.36923   0.37055
 Alpha virt. eigenvalues --    0.37942   0.39015   0.41442   0.42072   0.43836
 Alpha virt. eigenvalues --    0.45276   0.47720   0.48123   0.51078   0.52096
 Alpha virt. eigenvalues --    0.52581   0.53876   0.54679   0.55294   0.56690
 Alpha virt. eigenvalues --    0.57764   0.58199   0.59280   0.59314   0.62673
 Alpha virt. eigenvalues --    0.64773   0.65132   0.66837   0.67882   0.68845
 Alpha virt. eigenvalues --    0.69223   0.70468   0.72008   0.74548   0.76154
 Alpha virt. eigenvalues --    0.77258   0.78451   0.81563   0.82349   0.84338
 Alpha virt. eigenvalues --    0.84889   0.88283   0.89132   0.91351   0.92789
 Alpha virt. eigenvalues --    0.93168   0.96359   0.99626   1.01049   1.01489
 Alpha virt. eigenvalues --    1.04440   1.05680   1.06667   1.06919   1.10705
 Alpha virt. eigenvalues --    1.13705   1.22038   1.29164   1.33140   1.33722
 Alpha virt. eigenvalues --    1.37727   1.37982   1.39855   1.40977   1.42162
 Alpha virt. eigenvalues --    1.44869   1.45581   1.45674   1.47335   1.50755
 Alpha virt. eigenvalues --    1.50930   1.51210   1.52265   1.52805   1.54518
 Alpha virt. eigenvalues --    1.56220   1.56789   1.60309   1.64288   1.64977
 Alpha virt. eigenvalues --    1.66737   1.67271   1.68707   1.73185   1.77177
 Alpha virt. eigenvalues --    1.77339   1.77434   1.82502   1.86495   1.87495
 Alpha virt. eigenvalues --    1.89678   1.90055   1.91826   1.93091   1.93696
 Alpha virt. eigenvalues --    1.95392   1.98934   2.00195   2.01025   2.02670
 Alpha virt. eigenvalues --    2.04430   2.06857   2.10673   2.16632   2.21947
 Alpha virt. eigenvalues --    2.23819   2.31987   2.35824   2.35997   2.37782
 Alpha virt. eigenvalues --    2.43757   2.51440   2.51683   2.55315   2.56023
 Alpha virt. eigenvalues --    2.62430   2.67280   2.67652   2.69952   2.70582
 Alpha virt. eigenvalues --    2.74109   2.76114   2.77775   2.78051   2.80233
 Alpha virt. eigenvalues --    2.84224   2.85539   2.85671   2.88136   2.90322
 Alpha virt. eigenvalues --    2.93857   2.97105   3.01441   3.06470   3.06860
 Alpha virt. eigenvalues --    3.10737   3.16115   3.31175   3.35191   3.40082
 Alpha virt. eigenvalues --    3.46304   3.48870   3.57896   3.70250   3.73745
 Alpha virt. eigenvalues --    3.74204   3.74819   3.75702   3.76616   3.77737
 Alpha virt. eigenvalues --    3.81088   3.91765   3.91988   3.93777   3.99642
 Alpha virt. eigenvalues --    4.09091   4.11954   4.14332   4.16086   4.17025
 Alpha virt. eigenvalues --    4.21253   4.66376   4.76002   4.83285   4.88594
 Alpha virt. eigenvalues --    4.89836   4.93105   6.29106   6.32755   6.34315
 Alpha virt. eigenvalues --    6.36398   6.37607   6.41368   6.46176   6.73086
 Alpha virt. eigenvalues --    6.76893  23.47471  23.56738  23.90396  23.92239
 Alpha virt. eigenvalues --   24.05242  24.06250  24.16246  35.62361  66.73044
 Alpha virt. eigenvalues --   66.76219  66.81957
          Condensed to atoms (all electrons):
               1          2          3          4          5          6
     1  C   15.141997  -3.450458   0.692476  -1.845691   1.091987  -2.912735
     2  C   -3.450458  16.849531  -2.023742   1.016167  -2.053906  -5.719762
     3  C    0.692476  -2.023742   8.405179  -1.304806   2.067998  -0.817701
     4  C   -1.845691   1.016167  -1.304806   8.194078  -0.645433  -0.608926
     5  C    1.091987  -2.053906   2.067998  -0.645433  12.032868  -4.071181
     6  C   -2.912735  -5.719762  -0.817701  -0.608926  -4.071181  18.779410
     7  H    0.013733  -0.016856   0.309620   0.042138  -0.039452   0.022841
     8  H    0.026093  -0.024427   0.038147   0.454425  -0.077935  -0.051411
     9  H   -0.110907  -0.009621  -0.013916   0.004685  -0.068972   0.483149
    10  N    0.044152   0.094885  -0.213668  -0.170508   0.340820  -0.127112
    11  H   -0.001999  -0.003203  -0.008946  -0.002387  -0.040516   0.027490
    12  H   -0.002268  -0.003365  -0.008526  -0.002916  -0.040635   0.028311
    13  H    0.043743   0.294698  -0.032059  -0.003957  -0.001012   0.017887
    14  C   -2.685860   1.646771  -0.857699   0.641817  -1.959067   0.682127
    15  F    0.264509  -0.007758   0.029096  -0.019431   0.049031  -0.306192
    16  F    0.260424  -0.006255   0.029434  -0.019189   0.049910  -0.305526
    17  F   -0.173877  -0.061637   0.107542   0.001532   0.016461   0.035935
               7          8          9         10         11         12
     1  C    0.013733   0.026093  -0.110907   0.044152  -0.001999  -0.002268
     2  C   -0.016856  -0.024427  -0.009621   0.094885  -0.003203  -0.003365
     3  C    0.309620   0.038147  -0.013916  -0.213668  -0.008946  -0.008526
     4  C    0.042138   0.454425   0.004685  -0.170508  -0.002387  -0.002916
     5  C   -0.039452  -0.077935  -0.068972   0.340820  -0.040516  -0.040635
     6  C    0.022841  -0.051411   0.483149  -0.127112   0.027490   0.028311
     7  H    0.536548  -0.007267   0.000056  -0.001286   0.000033   0.000033
     8  H   -0.007267   0.536944  -0.000098  -0.029242   0.001145   0.001158
     9  H    0.000056  -0.000098   0.500651  -0.004252   0.000489   0.000488
    10  N   -0.001286  -0.029242  -0.004252   6.640082   0.398185   0.397920
    11  H    0.000033   0.001145   0.000489   0.398185   0.447343  -0.053289
    12  H    0.000033   0.001158   0.000488   0.397920  -0.053289   0.447701
    13  H   -0.007430  -0.000195  -0.000157   0.000194  -0.000003  -0.000003
    14  C    0.013500   0.000706   0.069972   0.029641   0.000178   0.000178
    15  F    0.000038  -0.000001   0.001028  -0.000048  -0.000001   0.000007
    16  F    0.000038  -0.000001   0.001053  -0.000043   0.000007  -0.000002
    17  F    0.000071  -0.000002   0.000377   0.000301  -0.000004  -0.000004
              13         14         15         16         17
     1  C    0.043743  -2.685860   0.264509   0.260424  -0.173877
     2  C    0.294698   1.646771  -0.007758  -0.006255  -0.061637
     3  C   -0.032059  -0.857699   0.029096   0.029434   0.107542
     4  C   -0.003957   0.641817  -0.019431  -0.019189   0.001532
     5  C   -0.001012  -1.959067   0.049031   0.049910   0.016461
     6  C    0.017887   0.682127  -0.306192  -0.305526   0.035935
     7  H   -0.007430   0.013500   0.000038   0.000038   0.000071
     8  H   -0.000195   0.000706  -0.000001  -0.000001  -0.000002
     9  H   -0.000157   0.069972   0.001028   0.001053   0.000377
    10  N    0.000194   0.029641  -0.000048  -0.000043   0.000301
    11  H   -0.000003   0.000178  -0.000001   0.000007  -0.000004
    12  H   -0.000003   0.000178   0.000007  -0.000002  -0.000004
    13  H    0.511007   0.028151   0.000258   0.000265   0.008791
    14  C    0.028151   7.358372   0.158751   0.158943   0.215944
    15  F    0.000258   0.158751   8.971937  -0.055112  -0.026771
    16  F    0.000265   0.158943  -0.055112   8.972352  -0.026575
    17  F    0.008791   0.215944  -0.026771  -0.026575   9.048510
 Mulliken charges:
               1
     1  C   -0.395318
     2  C   -0.521062
     3  C   -0.398429
     4  C    0.268403
     5  C   -0.650967
     6  C    0.843396
     7  H    0.133641
     8  H    0.131959
     9  H    0.145975
    10  N   -0.400021
    11  H    0.235476
    12  H    0.235211
    13  H    0.139821
    14  C    0.497575
    15  F   -0.059343
    16  F   -0.059723
    17  F   -0.146594
 Sum of Mulliken charges =   0.00000
 Mulliken charges with hydrogens summed into heavy atoms:
               1
     1  C   -0.395318
     2  C   -0.381241
     3  C   -0.264788
     4  C    0.400362
     5  C   -0.650967
     6  C    0.989371
    10  N    0.070666
    14  C    0.497575
    15  F   -0.059343
    16  F   -0.059723
    17  F   -0.146594
 Electronic spatial extent (au):  <R**2>=           1804.4006
 Charge=              0.0000 electrons
 Dipole moment (field-independent basis, Debye):
    X=              3.2878    Y=              1.7169    Z=             -0.0032  Tot=              3.7091
 Quadrupole moment (field-independent basis, Debye-Ang):
   XX=            -56.0304   YY=            -62.2802   ZZ=            -64.6533
   XY=              1.3890   XZ=             -0.0099   YZ=              0.0112
 Traceless Quadrupole moment (field-independent basis, Debye-Ang):
   XX=              4.9576   YY=             -1.2922   ZZ=             -3.6653
   XY=              1.3890   XZ=             -0.0099   YZ=              0.0112
 Octapole moment (field-independent basis, Debye-Ang**2):
  XXX=             15.6670  YYY=             11.8397  ZZZ=             -0.0168  XYY=            -17.0019
  XXY=             -1.5223  XXZ=             -0.0165  XZZ=             -8.4701  YZZ=             -6.4045
  YYZ=             -0.0182  XYZ=              0.0226
 Hexadecapole moment (field-independent basis, Debye-Ang**3):
 XXXX=          -1311.9788 YYYY=           -543.7537 ZZZZ=           -142.3112 XXXY=            -14.7943
 XXXZ=             -0.0097 YYYX=             43.4990 YYYZ=              0.0509 ZZZX=              0.0060
 ZZZY=              0.0200 XXYY=           -351.7571 XXZZ=           -262.6239 YYZZ=           -120.7102
 XXYZ=              0.0900 YYXZ=             -0.1157 ZZXY=            -15.4369
 N-N= 6.162285588969D+02 E-N=-2.702672740105D+03  KE= 6.225782449543D+02
 There are a total of      139996 grid points.
 ElSum from          density=       82.0004653502
 ElSum from atomic densities=       82.0013829887

 Hirshfeld populations at iteration   1 (CX, CA, CB, DipXYZ):
               1          2          3          4          5          6
     1  C    0.000000   3.015375   3.015375  -0.051196  -0.016317   0.000074
     2  C    0.000000   3.023706   3.023706  -0.025026   0.051815   0.000103
     3  C    0.000000   3.020306   3.020306   0.012556   0.064714  -0.000097
     4  C    0.000000   3.024754   3.024754   0.059646   0.014149   0.000061
     5  C    0.000000   2.974772   2.974772   0.075942  -0.075585   0.000050
     6  C    0.000000   3.021200   3.021200  -0.004643  -0.049688  -0.000064
     7  H    0.000002   0.472982   0.472982   0.042701   0.156682  -0.000074
     8  H    0.000001   0.475273   0.475273   0.148394   0.050190  -0.000070
     9  H    0.000001   0.471804   0.471804  -0.045273  -0.149993   0.000012
    10  N    0.000000   3.617320   3.617320   0.061420   0.188358  -0.000426
    11  H    0.000001   0.444736   0.444736   0.117137   0.020756  -0.166016
    12  H    0.000001   0.444742   0.444742   0.117621   0.021313   0.165584
    13  H    0.000001   0.476050   0.476050  -0.092555   0.133386   0.000169
    14  C    0.000000   2.883156   2.883156  -0.071510  -0.017518  -0.000003
    15  F    0.000009   4.546344   4.546344   0.036471   0.056582  -0.084847
    16  F    0.000009   4.546318   4.546318   0.036446   0.056982   0.084608
    17  F    0.000006   4.541394   4.541394   0.088900  -0.064322   0.000295
       Tot   0.000032  41.000233  41.000233   0.507032   0.441504  -0.000640

 Dip from Atomic Chgs              0.785849   0.233268  -0.000631
         Total Dipole              1.292881   0.674772  -0.001271

 Hirshfeld charges, spin densities, dipoles, and CM5 charges using IRadAn=      4:
              Q-H        S-H        Dx         Dy         Dz        Q-CM5   
     1  C   -0.030750   0.000000  -0.051196  -0.016317   0.000074  -0.042170
     2  C   -0.047412   0.000000  -0.025026   0.051815   0.000103  -0.102091
     3  C   -0.040612   0.000000   0.012556   0.064714  -0.000097  -0.094103
     4  C   -0.049509   0.000000   0.059646   0.014149   0.000061  -0.097017
     5  C    0.050456   0.000000   0.075942  -0.075585   0.000050   0.088561
     6  C   -0.042400   0.000000  -0.004643  -0.049688  -0.000064  -0.086345
     7  H    0.054036   0.000000   0.042701   0.156682  -0.000074   0.107732
     8  H    0.049454   0.000000   0.148394   0.050190  -0.000070   0.105937
     9  H    0.056392   0.000000  -0.045273  -0.149993   0.000012   0.112503
    10  N   -0.234640   0.000000   0.061420   0.188358  -0.000426  -0.680168
    11  H    0.110527   0.000000   0.117137   0.020756  -0.166016   0.304489
    12  H    0.110517   0.000000   0.117621   0.021313   0.165584   0.304480
    13  H    0.047901   0.000000  -0.092555   0.133386   0.000169   0.104105
    14  C    0.233689   0.000000  -0.071510  -0.017518  -0.000003   0.177160
    15  F   -0.092688   0.000000   0.036471   0.056582  -0.084847  -0.071774
    16  F   -0.092637   0.000000   0.036446   0.056982   0.084608  -0.071715
    17  F   -0.082789   0.000000   0.088900  -0.064322   0.000295  -0.060050
       Tot  -0.000465   0.000000   0.507032   0.441504  -0.000640  -0.000465
 Hirshfeld charges with hydrogens summed into heavy atoms:
              Q-H       Q-CM5   
     1  C   -0.030750  -0.042170
     2  C    0.000489   0.002014
     3  C    0.013423   0.013629
     4  C   -0.000055   0.008920
     5  C    0.050456   0.088561
     6  C    0.013992   0.026158
    10  N   -0.013596  -0.071199
    14  C    0.233689   0.177160
    15  F   -0.092688  -0.071774
    16  F   -0.092637  -0.071715
    17  F   -0.082789  -0.060050
 
 EQQ= 0.000000000000E+00 EQD= 0.000000000000E+00 EDD= 0.733821392084E-02
 EQQ+QD+DD= 0.733821392084E-02
 
          MBS Condensed to atoms (all electrons):
               1          2          3          4          5          6
     1  C    4.839006   0.502451  -0.030346  -0.010982  -0.027677   0.496356
     2  C    0.502451   4.828321   0.504848  -0.030970  -0.012011  -0.030466
     3  C   -0.030346   0.504848   4.822148   0.500661  -0.029131  -0.010602
     4  C   -0.010982  -0.030970   0.500661   4.850323   0.500633  -0.036150
     5  C   -0.027677  -0.012011  -0.029131   0.500633   4.718285   0.506100
     6  C    0.496356  -0.030466  -0.010602  -0.036150   0.506100   4.832599
     7  H    0.001462  -0.025147   0.387255  -0.024834   0.001403   0.000019
     8  H    0.000060   0.001481  -0.024198   0.384326  -0.025485   0.001436
     9  H   -0.024399   0.001420   0.000050   0.001438  -0.023451   0.381860
    10  N    0.000596   0.000011   0.000647  -0.028761   0.341748  -0.030224
    11  H   -0.000043   0.000004  -0.000002  -0.001939  -0.029630   0.001159
    12  H   -0.000043   0.000004  -0.000002  -0.001956  -0.029635   0.001168
    13  H   -0.026218   0.390180  -0.024628   0.001501   0.000062   0.001485
    14  C    0.362291  -0.024068   0.000819   0.000001   0.000760  -0.023959
    15  F   -0.020737   0.000106  -0.000001   0.000000  -0.000001  -0.000537
    16  F   -0.020736   0.000108  -0.000001   0.000000  -0.000001  -0.000543
    17  F   -0.020447  -0.002254   0.000011   0.000000  -0.000001   0.000186
               7          8          9         10         11         12
     1  C    0.001462   0.000060  -0.024399   0.000596  -0.000043  -0.000043
     2  C   -0.025147   0.001481   0.001420   0.000011   0.000004   0.000004
     3  C    0.387255  -0.024198   0.000050   0.000647  -0.000002  -0.000002
     4  C   -0.024834   0.384326   0.001438  -0.028761  -0.001939  -0.001956
     5  C    0.001403  -0.025485  -0.023451   0.341748  -0.029630  -0.029635
     6  C    0.000019   0.001436   0.381860  -0.030224   0.001159   0.001168
     7  H    0.557110  -0.003802   0.000002  -0.000012   0.000000   0.000000
     8  H   -0.003802   0.561211  -0.000040  -0.002166   0.000694   0.000699
     9  H    0.000002  -0.000040   0.535846  -0.000867   0.000057   0.000057
    10  N   -0.000012  -0.002166  -0.000867   6.660191   0.333311   0.333318
    11  H    0.000000   0.000694   0.000057   0.333311   0.467647  -0.030720
    12  H    0.000000   0.000699   0.000057   0.333318  -0.030720   0.467688
    13  H   -0.003760  -0.000038  -0.000041   0.000000   0.000000   0.000000
    14  C   -0.000016   0.000001  -0.003375  -0.000002   0.000000   0.000000
    15  F    0.000000   0.000000   0.000357   0.000000   0.000000   0.000000
    16  F    0.000000   0.000000   0.000363   0.000000   0.000000   0.000000
    17  F    0.000000   0.000000   0.000009   0.000000   0.000000   0.000000
              13         14         15         16         17
     1  C   -0.026218   0.362291  -0.020737  -0.020736  -0.020447
     2  C    0.390180  -0.024068   0.000106   0.000108  -0.002254
     3  C   -0.024628   0.000819  -0.000001  -0.000001   0.000011
     4  C    0.001501   0.000001   0.000000   0.000000   0.000000
     5  C    0.000062   0.000760  -0.000001  -0.000001  -0.000001
     6  C    0.001485  -0.023959  -0.000537  -0.000543   0.000186
     7  H   -0.003760  -0.000016   0.000000   0.000000   0.000000
     8  H   -0.000038   0.000001   0.000000   0.000000   0.000000
     9  H   -0.000041  -0.003375   0.000357   0.000363   0.000009
    10  N    0.000000  -0.000002   0.000000   0.000000   0.000000
    11  H    0.000000   0.000000   0.000000   0.000000   0.000000
    12  H    0.000000   0.000000   0.000000   0.000000   0.000000
    13  H    0.532452  -0.004053   0.000029   0.000029   0.002315
    14  C   -0.004053   4.332485   0.222125   0.222151   0.225679
    15  F    0.000029   0.222125   9.076549  -0.010747  -0.010510
    16  F    0.000029   0.222151  -0.010747   9.076519  -0.010508
    17  F    0.002315   0.225679  -0.010510  -0.010508   9.072758
 MBS Mulliken charges:
               1
     1  C   -0.020596
     2  C   -0.104019
     3  C   -0.097529
     4  C   -0.103289
     5  C    0.108031
     6  C   -0.089886
     7  H    0.110320
     8  H    0.105821
     9  H    0.130713
    10  N   -0.607791
    11  H    0.259462
    12  H    0.259422
    13  H    0.130686
    14  C    0.689160
    15  F   -0.256633
    16  F   -0.256633
    17  F   -0.257239
 Sum of MBS Mulliken charges =   0.00000
 MBS Mulliken charges with hydrogens summed into heavy atoms:
               1
     1  C   -0.020596
     2  C    0.026667
     3  C    0.012791
     4  C    0.002532
     5  C    0.108031
     6  C    0.040827
    10  N   -0.088907
    14  C    0.689160
    15  F   -0.256633
    16  F   -0.256633
    17  F   -0.257239
 Breneman (CHELPG) radii used.
 Generate Potential Derived Charges using the Breneman model, NDens= 1.
 Grid spacing= 0.300 Box extension= 2.800
 NStep X,Y,Z=   41     36     28   Total possible points=       41328
 Number of Points to Fit=   11924

 **********************************************************************

            Electrostatic Properties Using The SCF Density

 **********************************************************************

       Atomic Center    1 is at  -0.306147  0.176595  0.000034
       Atomic Center    2 is at   0.067254  1.520857  0.000332
       Atomic Center    3 is at   1.417635  1.869705 -0.000314
       Atomic Center    4 is at   2.395336  0.874056 -0.000060
       Atomic Center    5 is at   2.021949 -0.469863  0.000121
       Atomic Center    6 is at   0.671113 -0.818650 -0.000228
       Atomic Center    7 is at   1.712031  2.929246 -0.000713
       Atomic Center    8 is at   3.459999  1.149352 -0.000510
       Atomic Center    9 is at   0.376990 -1.878188 -0.000283
       Atomic Center   10 is at   3.051581 -1.519033  0.000400
       Atomic Center   11 is at   3.620309 -1.428148 -0.817089
       Atomic Center   12 is at   3.622707 -1.425361  0.815900
       Atomic Center   13 is at  -0.682457  2.284292  0.001056
       Atomic Center   14 is at  -1.797250 -0.208388 -0.000005
       Atomic Center   15 is at  -2.074616 -0.934296  1.103909
       Atomic Center   16 is at  -2.073125 -0.939845 -1.100625
       Atomic Center   17 is at  -2.551145  0.911492 -0.003334
   11924 points will be used for fitting atomic charges
 Fitting point charges to electrostatic potential
 Charges from ESP fit, RMS=   0.00367 RRMS=   0.26431:
 ESP charges:
               1
     1  C   -0.078464
     2  C   -0.161215
     3  C   -0.017510
     4  C   -0.291282
     5  C    0.509813
     6  C   -0.203837
     7  H    0.095204
     8  H    0.121730
     9  H    0.138374
    10  N   -0.969521
    11  H    0.360438
    12  H    0.361092
    13  H    0.121202
    14  C    0.795292
    15  F   -0.264938
    16  F   -0.264944
    17  F   -0.251433
 Sum of ESP charges =   0.00000
 ESP charges with hydrogens summed into heavy atoms:
               1
     1  C   -0.078464
     2  C   -0.040013
     3  C    0.077694
     4  C   -0.169552
     5  C    0.509813
     6  C   -0.065464
    10  N   -0.247991
    14  C    0.795292
    15  F   -0.264938
    16  F   -0.264944
    17  F   -0.251433
 Charge=   0.00000 Dipole=     3.3803     1.7370    -0.0013 Tot=     3.8004
 -----------------------------------------------------------------

              Electrostatic Properties (Atomic Units)

 -----------------------------------------------------------------
    Center     Electric         -------- Electric Field --------
               Potential          X             Y             Z
 -----------------------------------------------------------------
    1 Atom    -14.737628
    2 Atom    -14.754161
    3 Atom    -14.751664
    4 Atom    -14.754393
    5 Atom    -14.719829
    6 Atom    -14.752876
    7 Atom     -1.087585
    8 Atom     -1.083410
    9 Atom     -1.087225
   10 Atom    -18.397719
   11 Atom     -1.044232
   12 Atom     -1.044246
   13 Atom     -1.091367
   14 Atom    -14.502136
   15 Atom    -26.562390
   16 Atom    -26.562371
   17 Atom    -26.559395
 -----------------------------------------------------------------
 ******************************Gaussian NBO Version 3.1******************************
             N A T U R A L   A T O M I C   O R B I T A L   A N D
          N A T U R A L   B O N D   O R B I T A L   A N A L Y S I S
 ******************************Gaussian NBO Version 3.1******************************
       /RESON  / : Allow strongly delocalized NBO set

 Analyzing the SCF density

 Job title: Title Card Required                                             

 Storage needed:    233084 in NPA ( 536869297 available)


 NATURAL POPULATIONS:  Natural atomic orbital occupancies 
                                                          
   NAO  Atom  No  lang   Type(AO)    Occupancy      Energy
 ----------------------------------------------------------
     1    C    1  S      Cor( 1S)     1.99888     -10.07275
     2    C    1  S      Val( 2S)     0.91307      -0.18153
     3    C    1  S      Ryd( 3S)     0.00105       0.79199
     4    C    1  S      Ryd( 4S)     0.00020       1.25943
     5    C    1  S      Ryd( 5S)     0.00001      22.67561
     6    C    1  px     Val( 2p)     1.04243      -0.10920
     7    C    1  px     Ryd( 4p)     0.00586       1.12706
     8    C    1  px     Ryd( 3p)     0.00034       0.60549
     9    C    1  px     Ryd( 5p)     0.00015       3.21987
    10    C    1  py     Val( 2p)     1.10056      -0.08945
    11    C    1  py     Ryd( 4p)     0.00470       1.03571
    12    C    1  py     Ryd( 3p)     0.00037       0.60452
    13    C    1  py     Ryd( 5p)     0.00018       3.28717
    14    C    1  pz     Val( 2p)     1.05044      -0.13660
    15    C    1  pz     Ryd( 4p)     0.00198       0.57128
    16    C    1  pz     Ryd( 3p)     0.00042       0.49139
    17    C    1  pz     Ryd( 5p)     0.00002       2.64217
    18    C    1  dxy    Ryd( 3d)     0.00073       2.55389
    19    C    1  dxz    Ryd( 3d)     0.00047       1.65539
    20    C    1  dyz    Ryd( 3d)     0.00065       1.65392
    21    C    1  dx2y2  Ryd( 3d)     0.00093       2.49863
    22    C    1  dz2    Ryd( 3d)     0.00055       2.06642

    23    C    2  S      Cor( 1S)     1.99907     -10.04729
    24    C    2  S      Val( 2S)     0.94312      -0.17321
    25    C    2  S      Ryd( 4S)     0.00139       0.78961
    26    C    2  S      Ryd( 3S)     0.00011       0.72158
    27    C    2  S      Ryd( 5S)     0.00001      23.09265
    28    C    2  px     Val( 2p)     1.13056      -0.07396
    29    C    2  px     Ryd( 4p)     0.00524       0.98955
    30    C    2  px     Ryd( 3p)     0.00040       0.45880
    31    C    2  px     Ryd( 5p)     0.00011       3.13544
    32    C    2  py     Val( 2p)     1.11951      -0.06966
    33    C    2  py     Ryd( 4p)     0.00507       0.87624
    34    C    2  py     Ryd( 3p)     0.00042       0.35145
    35    C    2  py     Ryd( 5p)     0.00013       3.16243
    36    C    2  pz     Val( 2p)     0.98408      -0.12679
    37    C    2  pz     Ryd( 4p)     0.00106       0.51173
    38    C    2  pz     Ryd( 3p)     0.00034       0.29666
    39    C    2  pz     Ryd( 5p)     0.00002       2.70535
    40    C    2  dxy    Ryd( 3d)     0.00079       2.49652
    41    C    2  dxz    Ryd( 3d)     0.00046       1.62584
    42    C    2  dyz    Ryd( 3d)     0.00049       1.64202
    43    C    2  dx2y2  Ryd( 3d)     0.00063       2.61357
    44    C    2  dz2    Ryd( 3d)     0.00042       2.05005

    45    C    3  S      Cor( 1S)     1.99916     -10.05451
    46    C    3  S      Val( 2S)     0.95511      -0.18556
    47    C    3  S      Ryd( 3S)     0.00159       0.86262
    48    C    3  S      Ryd( 4S)     0.00019       1.36381
    49    C    3  S      Ryd( 5S)     0.00000      22.35576
    50    C    3  px     Val( 2p)     1.06349      -0.06314
    51    C    3  px     Ryd( 4p)     0.00498       0.77163
    52    C    3  px     Ryd( 3p)     0.00036       0.40645
    53    C    3  px     Ryd( 5p)     0.00015       3.05567
    54    C    3  py     Val( 2p)     1.16519      -0.07553
    55    C    3  py     Ryd( 4p)     0.00683       1.04231
    56    C    3  py     Ryd( 3p)     0.00029       0.27750
    57    C    3  py     Ryd( 5p)     0.00007       3.16475
    58    C    3  pz     Val( 2p)     0.99022      -0.12696
    59    C    3  pz     Ryd( 4p)     0.00087       0.50561
    60    C    3  pz     Ryd( 3p)     0.00023       0.33831
    61    C    3  pz     Ryd( 5p)     0.00002       2.62493
    62    C    3  dxy    Ryd( 3d)     0.00069       2.53687
    63    C    3  dxz    Ryd( 3d)     0.00046       1.65516
    64    C    3  dyz    Ryd( 3d)     0.00042       1.59178
    65    C    3  dx2y2  Ryd( 3d)     0.00075       2.48720
    66    C    3  dz2    Ryd( 3d)     0.00040       2.03069

    67    C    4  S      Cor( 1S)     1.99900     -10.04915
    68    C    4  S      Val( 2S)     0.95686      -0.18081
    69    C    4  S      Ryd( 3S)     0.00210       0.70787
    70    C    4  S      Ryd( 4S)     0.00015       1.23825
    71    C    4  S      Ryd( 5S)     0.00001      22.61794
    72    C    4  px     Val( 2p)     1.17155      -0.08025
    73    C    4  px     Ryd( 4p)     0.00666       1.04821
    74    C    4  px     Ryd( 3p)     0.00037       0.31055
    75    C    4  px     Ryd( 5p)     0.00006       3.17669
    76    C    4  py     Val( 2p)     1.07573      -0.06982
    77    C    4  py     Ryd( 4p)     0.00487       0.74180
    78    C    4  py     Ryd( 3p)     0.00044       0.36253
    79    C    4  py     Ryd( 5p)     0.00018       3.14227
    80    C    4  pz     Val( 2p)     0.99246      -0.12892
    81    C    4  pz     Ryd( 4p)     0.00101       0.48712
    82    C    4  pz     Ryd( 3p)     0.00029       0.29583
    83    C    4  pz     Ryd( 5p)     0.00001       2.67593
    84    C    4  dxy    Ryd( 3d)     0.00069       2.53852
    85    C    4  dxz    Ryd( 3d)     0.00042       1.59548
    86    C    4  dyz    Ryd( 3d)     0.00051       1.65669
    87    C    4  dx2y2  Ryd( 3d)     0.00074       2.48766
    88    C    4  dz2    Ryd( 3d)     0.00041       2.05094

    89    C    5  S      Cor( 1S)     1.99890     -10.09136
    90    C    5  S      Val( 2S)     0.86043      -0.15442
    91    C    5  S      Ryd( 4S)     0.00090       0.83700
    92    C    5  S      Ryd( 3S)     0.00018       0.74078
    93    C    5  S      Ryd( 5S)     0.00001      22.92244
    94    C    5  px     Val( 2p)     0.99338      -0.06498
    95    C    5  px     Ryd( 4p)     0.00428       1.01620
    96    C    5  px     Ryd( 3p)     0.00059       0.59302
    97    C    5  px     Ryd( 5p)     0.00014       3.02456
    98    C    5  py     Val( 2p)     0.98751      -0.06443
    99    C    5  py     Ryd( 4p)     0.00672       1.04297
   100    C    5  py     Ryd( 3p)     0.00068       0.56242
   101    C    5  py     Ryd( 5p)     0.00016       2.93136
   102    C    5  pz     Val( 2p)     0.99548      -0.12640
   103    C    5  pz     Ryd( 4p)     0.00153       0.56515
   104    C    5  pz     Ryd( 3p)     0.00031       0.52256
   105    C    5  pz     Ryd( 5p)     0.00003       2.46424
   106    C    5  dxy    Ryd( 3d)     0.00119       2.43219
   107    C    5  dxz    Ryd( 3d)     0.00088       1.61684
   108    C    5  dyz    Ryd( 3d)     0.00064       1.64856
   109    C    5  dx2y2  Ryd( 3d)     0.00143       2.58725
   110    C    5  dz2    Ryd( 3d)     0.00046       2.02365

   111    C    6  S      Cor( 1S)     1.99893     -10.04800
   112    C    6  S      Val( 2S)     0.94765      -0.17189
   113    C    6  S      Ryd( 4S)     0.00177       0.78394
   114    C    6  S      Ryd( 3S)     0.00026       0.70272
   115    C    6  S      Ryd( 5S)     0.00001      23.19914
   116    C    6  px     Val( 2p)     1.07543      -0.06872
   117    C    6  px     Ryd( 4p)     0.00452       0.81434
   118    C    6  px     Ryd( 3p)     0.00038       0.49112
   119    C    6  px     Ryd( 5p)     0.00018       3.19840
   120    C    6  py     Val( 2p)     1.17964      -0.08312
   121    C    6  py     Ryd( 4p)     0.00667       1.00146
   122    C    6  py     Ryd( 3p)     0.00036       0.34388
   123    C    6  py     Ryd( 5p)     0.00009       3.18350
   124    C    6  pz     Val( 2p)     0.97130      -0.12456
   125    C    6  pz     Ryd( 4p)     0.00098       0.50852
   126    C    6  pz     Ryd( 3p)     0.00037       0.32363
   127    C    6  pz     Ryd( 5p)     0.00002       2.72865
   128    C    6  dxy    Ryd( 3d)     0.00075       2.55398
   129    C    6  dxz    Ryd( 3d)     0.00053       1.65874
   130    C    6  dyz    Ryd( 3d)     0.00049       1.61279
   131    C    6  dx2y2  Ryd( 3d)     0.00068       2.50927
   132    C    6  dz2    Ryd( 3d)     0.00042       2.06631

   133    H    7  S      Val( 1S)     0.78500       0.02307
   134    H    7  S      Ryd( 2S)     0.00066       0.59782
   135    H    7  S      Ryd( 3S)     0.00016       2.13820
   136    H    7  px     Ryd( 2p)     0.00013       2.01637
   137    H    7  py     Ryd( 2p)     0.00042       2.60742
   138    H    7  pz     Ryd( 2p)     0.00019       1.57309

   139    H    8  S      Val( 1S)     0.78615       0.01784
   140    H    8  S      Ryd( 2S)     0.00090       0.81285
   141    H    8  S      Ryd( 3S)     0.00015       1.84645
   142    H    8  px     Ryd( 2p)     0.00043       2.62374
   143    H    8  py     Ryd( 2p)     0.00013       2.00708
   144    H    8  pz     Ryd( 2p)     0.00017       1.57727

   145    H    9  S      Val( 1S)     0.76189       0.03432
   146    H    9  S      Ryd( 2S)     0.00123       0.91738
   147    H    9  S      Ryd( 3S)     0.00015       1.71825
   148    H    9  px     Ryd( 2p)     0.00014       2.05624
   149    H    9  py     Ryd( 2p)     0.00044       2.64746
   150    H    9  pz     Ryd( 2p)     0.00016       1.59734

   151    N   10  S      Cor( 1S)     1.99950     -14.13920
   152    N   10  S      Val( 2S)     1.40217      -0.57971
   153    N   10  S      Ryd( 3S)     0.00057       0.66411
   154    N   10  S      Ryd( 4S)     0.00013       1.20441
   155    N   10  S      Ryd( 5S)     0.00000      35.43206
   156    N   10  px     Val( 2p)     1.37831      -0.20101
   157    N   10  px     Ryd( 3p)     0.00448       0.50927
   158    N   10  px     Ryd( 4p)     0.00017       0.64194
   159    N   10  px     Ryd( 5p)     0.00002       4.12686
   160    N   10  py     Val( 2p)     1.70337      -0.23776
   161    N   10  py     Ryd( 3p)     0.00771       0.48711
   162    N   10  py     Ryd( 4p)     0.00049       0.66323
   163    N   10  py     Ryd( 5p)     0.00001       3.93228
   164    N   10  pz     Val( 2p)     1.34521      -0.19489
   165    N   10  pz     Ryd( 3p)     0.00257       0.46737
   166    N   10  pz     Ryd( 4p)     0.00004       0.59808
   167    N   10  pz     Ryd( 5p)     0.00003       4.16650
   168    N   10  dxy    Ryd( 3d)     0.00124       2.61177
   169    N   10  dxz    Ryd( 3d)     0.00119       2.92915
   170    N   10  dyz    Ryd( 3d)     0.00071       2.31291
   171    N   10  dx2y2  Ryd( 3d)     0.00080       2.45663
   172    N   10  dz2    Ryd( 3d)     0.00057       2.59605

   173    H   11  S      Val( 1S)     0.63561       0.08779
   174    H   11  S      Ryd( 2S)     0.00056       0.84165
   175    H   11  S      Ryd( 3S)     0.00022       2.02445
   176    H   11  px     Ryd( 2p)     0.00062       2.00581
   177    H   11  py     Ryd( 2p)     0.00086       1.66383
   178    H   11  pz     Ryd( 2p)     0.00031       2.37344

   179    H   12  S      Val( 1S)     0.63563       0.08779
   180    H   12  S      Ryd( 2S)     0.00056       0.84195
   181    H   12  S      Ryd( 3S)     0.00022       2.02396
   182    H   12  px     Ryd( 2p)     0.00062       2.00783
   183    H   12  py     Ryd( 2p)     0.00085       1.66400
   184    H   12  pz     Ryd( 2p)     0.00031       2.37072

   185    H   13  S      Val( 1S)     0.77417       0.04985
   186    H   13  S      Ryd( 2S)     0.00054       0.90021
   187    H   13  S      Ryd( 3S)     0.00017       1.77200
   188    H   13  px     Ryd( 2p)     0.00031       2.37107
   189    H   13  py     Ryd( 2p)     0.00029       2.37408
   190    H   13  pz     Ryd( 2p)     0.00018       1.60192

   191    C   14  S      Cor( 1S)     1.99917     -10.35136
   192    C   14  S      Val( 2S)     0.78285      -0.27590
   193    C   14  S      Ryd( 4S)     0.00368       1.08190
   194    C   14  S      Ryd( 3S)     0.00028       0.83411
   195    C   14  S      Ryd( 5S)     0.00003      22.69124
   196    C   14  px     Val( 2p)     0.88315      -0.16122
   197    C   14  px     Ryd( 4p)     0.00821       1.24927
   198    C   14  px     Ryd( 3p)     0.00069       0.41660
   199    C   14  px     Ryd( 5p)     0.00014       1.84188
   200    C   14  py     Val( 2p)     0.60717      -0.13677
   201    C   14  py     Ryd( 4p)     0.01238       1.22878
   202    C   14  py     Ryd( 3p)     0.00073       0.49351
   203    C   14  py     Ryd( 5p)     0.00012       2.13058
   204    C   14  pz     Val( 2p)     0.59754      -0.12900
   205    C   14  pz     Ryd( 4p)     0.01073       1.10361
   206    C   14  pz     Ryd( 3p)     0.00081       0.43044
   207    C   14  pz     Ryd( 5p)     0.00007       2.29263
   208    C   14  dxy    Ryd( 3d)     0.00403       2.04437
   209    C   14  dxz    Ryd( 3d)     0.00384       1.64549
   210    C   14  dyz    Ryd( 3d)     0.00542       2.07457
   211    C   14  dx2y2  Ryd( 3d)     0.00374       1.98625
   212    C   14  dz2    Ryd( 3d)     0.00501       2.02824

   213    F   15  S      Cor( 1S)     1.99992     -24.45789
   214    F   15  S      Val( 2S)     1.85227      -1.31894
   215    F   15  S      Ryd( 3S)     0.00050       0.88784
   216    F   15  S      Ryd( 4S)     0.00038       2.13672
   217    F   15  S      Ryd( 5S)     0.00000      66.57745
   218    F   15  px     Val( 2p)     1.93883      -0.45017
   219    F   15  px     Ryd( 3p)     0.00122       0.53459
   220    F   15  px     Ryd( 4p)     0.00008       1.31668
   221    F   15  px     Ryd( 5p)     0.00001       6.25556
   222    F   15  py     Val( 2p)     1.84125      -0.45327
   223    F   15  py     Ryd( 3p)     0.00070       0.50660
   224    F   15  py     Ryd( 4p)     0.00011       1.33183
   225    F   15  py     Ryd( 5p)     0.00002       6.27013
   226    F   15  pz     Val( 2p)     1.71256      -0.45877
   227    F   15  pz     Ryd( 3p)     0.00069       0.47597
   228    F   15  pz     Ryd( 4p)     0.00016       1.33208
   229    F   15  pz     Ryd( 5p)     0.00005       6.28775
   230    F   15  dxy    Ryd( 3d)     0.00023       3.80814
   231    F   15  dxz    Ryd( 3d)     0.00050       3.87173
   232    F   15  dyz    Ryd( 3d)     0.00097       4.08033
   233    F   15  dx2y2  Ryd( 3d)     0.00025       3.81308
   234    F   15  dz2    Ryd( 3d)     0.00082       3.97477

   235    F   16  S      Cor( 1S)     1.99992     -24.45790
   236    F   16  S      Val( 2S)     1.85226      -1.31895
   237    F   16  S      Ryd( 3S)     0.00050       0.88630
   238    F   16  S      Ryd( 4S)     0.00038       2.13718
   239    F   16  S      Ryd( 5S)     0.00000      66.57736
   240    F   16  px     Val( 2p)     1.93898      -0.45018
   241    F   16  px     Ryd( 3p)     0.00122       0.53491
   242    F   16  px     Ryd( 4p)     0.00008       1.31645
   243    F   16  px     Ryd( 5p)     0.00001       6.25573
   244    F   16  py     Val( 2p)     1.83978      -0.45335
   245    F   16  py     Ryd( 3p)     0.00070       0.50624
   246    F   16  py     Ryd( 4p)     0.00011       1.33211
   247    F   16  py     Ryd( 5p)     0.00002       6.27086
   248    F   16  pz     Val( 2p)     1.71389      -0.45873
   249    F   16  pz     Ryd( 3p)     0.00069       0.47611
   250    F   16  pz     Ryd( 4p)     0.00016       1.33188
   251    F   16  pz     Ryd( 5p)     0.00005       6.28742
   252    F   16  dxy    Ryd( 3d)     0.00024       3.80866
   253    F   16  dxz    Ryd( 3d)     0.00050       3.87068
   254    F   16  dyz    Ryd( 3d)     0.00097       4.08222
   255    F   16  dx2y2  Ryd( 3d)     0.00025       3.81410
   256    F   16  dz2    Ryd( 3d)     0.00082       3.97230

   257    F   17  S      Cor( 1S)     1.99992     -24.46121
   258    F   17  S      Val( 2S)     1.85049      -1.32114
   259    F   17  S      Ryd( 3S)     0.00137       0.65835
   260    F   17  S      Ryd( 4S)     0.00014       2.10717
   261    F   17  S      Ryd( 5S)     0.00000      66.59274
   262    F   17  px     Val( 2p)     1.85101      -0.45763
   263    F   17  px     Ryd( 3p)     0.00103       0.54892
   264    F   17  px     Ryd( 4p)     0.00011       1.46070
   265    F   17  px     Ryd( 5p)     0.00002       6.09329
   266    F   17  py     Val( 2p)     1.70897      -0.46289
   267    F   17  py     Ryd( 3p)     0.00089       0.50267
   268    F   17  py     Ryd( 4p)     0.00018       1.53032
   269    F   17  py     Ryd( 5p)     0.00004       6.12374
   270    F   17  pz     Val( 2p)     1.93908      -0.45267
   271    F   17  pz     Ryd( 3p)     0.00073       0.44446
   272    F   17  pz     Ryd( 4p)     0.00004       1.48142
   273    F   17  pz     Ryd( 5p)     0.00000       6.05210
   274    F   17  dxy    Ryd( 3d)     0.00093       4.12772
   275    F   17  dxz    Ryd( 3d)     0.00023       3.77953
   276    F   17  dyz    Ryd( 3d)     0.00042       3.82925
   277    F   17  dx2y2  Ryd( 3d)     0.00067       3.91899
   278    F   17  dz2    Ryd( 3d)     0.00034       3.90594

 WARNING:  1 low occupancy (<1.9990e) core orbital  found on  C    1
           1 low occupancy (<1.9990e) core orbital  found on  C    5
           1 low occupancy (<1.9990e) core orbital  found on  C    6

 WARNING:  Population inversion found on atom  C    1
           Population inversion found on atom  C    2
           Population inversion found on atom  C    3
           Population inversion found on atom  C    4
           Population inversion found on atom  C    5
           Population inversion found on atom  C    6
           Population inversion found on atom  C   14


 Summary of Natural Population Analysis:                  
                                                          
                                       Natural Population 
                Natural  -----------------------------------------------
    Atom  No    Charge         Core      Valence    Rydberg      Total
 -----------------------------------------------------------------------
      C    1   -0.12401      1.99888     4.10650    0.01862     6.12401
      C    2   -0.19343      1.99907     4.17727    0.01709     6.19343
      C    3   -0.19148      1.99916     4.17401    0.01831     6.19148
      C    4   -0.21455      1.99900     4.19661    0.01893     6.21455
      C    5    0.14417      1.99890     3.83680    0.02013     5.85583
      C    6   -0.19142      1.99893     4.17402    0.01847     6.19142
      H    7    0.21344      0.00000     0.78500    0.00156     0.78656
      H    8    0.21205      0.00000     0.78615    0.00180     0.78795
      H    9    0.23600      0.00000     0.76189    0.00212     0.76400
      N   10   -0.84928      1.99950     5.82906    0.02073     7.84928
      H   11    0.36183      0.00000     0.63561    0.00257     0.63817
      H   12    0.36180      0.00000     0.63563    0.00257     0.63820
      H   13    0.22433      0.00000     0.77417    0.00150     0.77567
      C   14    1.07022      1.99917     2.87071    0.05990     4.92978
      F   15   -0.35152      1.99992     7.34490    0.00670     9.35152
      F   16   -0.35153      1.99992     7.34492    0.00670     9.35153
      F   17   -0.35661      1.99992     7.34955    0.00715     9.35661
 =======================================================================
   * Total *    0.00000     21.99237    59.78279    0.22484    82.00000

                                 Natural Population      
 --------------------------------------------------------
   Core                      21.99237 ( 99.9653% of  22)
   Valence                   59.78279 ( 99.6380% of  60)
   Natural Minimal Basis     81.77516 ( 99.7258% of  82)
   Natural Rydberg Basis      0.22484 (  0.2742% of  82)
 --------------------------------------------------------

    Atom  No          Natural Electron Configuration
 ----------------------------------------------------------------------------
      C    1      [core]2S( 0.91)2p( 3.19)4p( 0.01)
      C    2      [core]2S( 0.94)2p( 3.23)4p( 0.01)
      C    3      [core]2S( 0.96)2p( 3.22)4p( 0.01)
      C    4      [core]2S( 0.96)2p( 3.24)4p( 0.01)
      C    5      [core]2S( 0.86)2p( 2.98)4p( 0.01)
      C    6      [core]2S( 0.95)2p( 3.23)4p( 0.01)
      H    7            1S( 0.79)
      H    8            1S( 0.79)
      H    9            1S( 0.76)
      N   10      [core]2S( 1.40)2p( 4.43)3p( 0.01)
      H   11            1S( 0.64)
      H   12            1S( 0.64)
      H   13            1S( 0.77)
      C   14      [core]2S( 0.78)2p( 2.09)3d( 0.02)4p( 0.03)
      F   15      [core]2S( 1.85)2p( 5.49)
      F   16      [core]2S( 1.85)2p( 5.49)
      F   17      [core]2S( 1.85)2p( 5.50)


 NBO analysis skipped by request.
 Calling FoFJK, ICntrl=      2127 FMM=F ISym2X=0 I1Cent= 0 IOpClX= 0 NMat=1 NMatS=1 NMatT=0.
 ***** Axes restored to original set *****
 -------------------------------------------------------------------
 Center     Atomic                   Forces (Hartrees/Bohr)
 Number     Number              X              Y              Z
 -------------------------------------------------------------------
      1        6          -0.003061977   -0.006788196    0.000031500
      2        6           0.000880783    0.006453554    0.000012218
      3        6           0.006979771   -0.001809523   -0.000058060
      4        6           0.007885362   -0.005554539    0.000050308
      5        6           0.002230311    0.018956751    0.000001187
      6        6          -0.009995823    0.006843788   -0.000043515
      7        1          -0.009009588    0.004896627   -0.000016874
      8        1          -0.008988653   -0.003954961   -0.000011107
      9        1           0.010463416   -0.003088206    0.000006864
     10        7          -0.019615123   -0.026676767   -0.000008966
     11        1           0.006744161    0.006375832    0.008895001
     12        1           0.006795180    0.006346122   -0.008866225
     13        1          -0.000059155   -0.008298694    0.000032180
     14        6           0.041245715    0.019601741   -0.000007568
     15        9          -0.009036348   -0.007049726    0.005330484
     16        9          -0.009013328   -0.007074725   -0.005324697
     17        9          -0.014444705    0.000820921   -0.000022730
 -------------------------------------------------------------------
 Cartesian Forces:  Max     0.041245715 RMS     0.010082376

 GradGradGradGradGradGradGradGradGradGradGradGradGradGradGradGradGradGrad
 Berny optimization.
 FormGI is forming the generalized inverse of G from B-inverse, IUseBI=4.
 Internal  Forces:  Max     0.019555565 RMS     0.006279540
 Search for a local minimum.
 Step number   1 out of a maximum of   88
 All quantities printed in internal units (Hartrees-Bohrs-Radians)
 Mixed Optimization -- RFO/linear search
 Second derivative matrix not updated -- first step.
 ITU=  0
     Eigenvalues ---    0.00237   0.00766   0.01387   0.01730   0.02152
     Eigenvalues ---    0.02153   0.02154   0.02155   0.02155   0.02156
     Eigenvalues ---    0.02156   0.05453   0.11243   0.11243   0.16000
     Eigenvalues ---    0.16000   0.16000   0.16000   0.16000   0.16000
     Eigenvalues ---    0.22000   0.23479   0.23493   0.25000   0.25000
     Eigenvalues ---    0.25000   0.25000   0.25000   0.28519   0.33718
     Eigenvalues ---    0.33718   0.33726   0.35740   0.37230   0.42209
     Eigenvalues ---    0.42404   0.46412   0.46453   0.46466   0.46497
     Eigenvalues ---    0.47688   0.47688   0.55021   0.55021   0.55021
 RFO step:  Lambda=-1.06151791D-02 EMin= 2.36824123D-03
 Linear search not attempted -- first point.
 Iteration  1 RMS(Cart)=  0.03559818 RMS(Int)=  0.00169453
 Iteration  2 RMS(Cart)=  0.00194876 RMS(Int)=  0.00056627
 Iteration  3 RMS(Cart)=  0.00000131 RMS(Int)=  0.00056627
 Iteration  4 RMS(Cart)=  0.00000000 RMS(Int)=  0.00056627
 Variable       Old X    -DE/DX   Delta X   Delta X   Delta X     New X
                                 (Linear)    (Quad)   (Total)
    R1        2.63647  -0.00121   0.00000  -0.00246  -0.00246   2.63401
    R2        2.63584   0.00096   0.00000   0.00201   0.00202   2.63787
    R3        2.91018  -0.01070   0.00000  -0.03616  -0.03616   2.87402
    R4        2.63562  -0.00167   0.00000  -0.00342  -0.00343   2.63220
    R5        2.02201   0.00830   0.00000   0.02167   0.02167   2.04368
    R6        2.63697  -0.00183   0.00000  -0.00385  -0.00386   2.63311
    R7        2.07809  -0.01024   0.00000  -0.02944  -0.02944   2.04865
    R8        2.63584   0.00356   0.00000   0.00739   0.00739   2.64323
    R9        2.07809  -0.00979   0.00000  -0.02814  -0.02814   2.04995
   R10        2.63643  -0.00514   0.00000  -0.01091  -0.01091   2.62552
   R11        2.77790  -0.01411   0.00000  -0.03834  -0.03834   2.73956
   R12        2.07795  -0.01053   0.00000  -0.03028  -0.03028   2.04767
   R13        1.88973   0.01255   0.00000   0.02574   0.02574   1.91546
   R14        1.88973   0.01254   0.00000   0.02572   0.02572   1.91545
   R15        2.55113  -0.00147   0.00000  -0.00262  -0.00262   2.54851
   R16        2.55113  -0.00149   0.00000  -0.00265  -0.00265   2.54848
   R17        2.55113  -0.00308   0.00000  -0.00549  -0.00549   2.54564
    A1        2.09437   0.00256   0.00000   0.00995   0.00996   2.10433
    A2        2.09441   0.00353   0.00000   0.01348   0.01348   2.10789
    A3        2.09441  -0.00609   0.00000  -0.02344  -0.02344   2.07097
    A4        2.09455  -0.00303   0.00000  -0.01279  -0.01280   2.08175
    A5        2.09432   0.00167   0.00000   0.00733   0.00733   2.10165
    A6        2.09432   0.00135   0.00000   0.00546   0.00546   2.09978
    A7        2.09429   0.00085   0.00000   0.00381   0.00380   2.09809
    A8        2.09462  -0.00098   0.00000  -0.00515  -0.00514   2.08947
    A9        2.09427   0.00013   0.00000   0.00134   0.00134   2.09562
   A10        2.09429   0.00194   0.00000   0.00818   0.00817   2.10246
   A11        2.09407  -0.00013   0.00000   0.00084   0.00084   2.09491
   A12        2.09483  -0.00181   0.00000  -0.00901  -0.00901   2.08582
   A13        2.09448  -0.00313   0.00000  -0.01241  -0.01241   2.08207
   A14        2.09459   0.01116   0.00000   0.04300   0.04300   2.13760
   A15        2.09411  -0.00803   0.00000  -0.03060  -0.03060   2.06352
   A16        2.09440   0.00081   0.00000   0.00326   0.00327   2.09767
   A17        2.09453   0.00254   0.00000   0.01564   0.01564   2.11017
   A18        2.09426  -0.00335   0.00000  -0.01890  -0.01891   2.07535
   A19        1.91063   0.00321   0.00000   0.01933   0.01922   1.92986
   A20        1.91063   0.00319   0.00000   0.01921   0.01910   1.92974
   A21        1.91063  -0.00304   0.00000  -0.01676  -0.01696   1.89368
   A22        1.91063   0.01520   0.00000   0.05684   0.05499   1.96562
   A23        1.91063   0.01519   0.00000   0.05680   0.05494   1.96558
   A24        1.91063   0.01956   0.00000   0.07800   0.07550   1.98613
   A25        1.91063  -0.01692   0.00000  -0.07086  -0.07193   1.83870
   A26        1.91063  -0.01652   0.00000  -0.06043  -0.06265   1.84798
   A27        1.91063  -0.01651   0.00000  -0.06036  -0.06258   1.84805
    D1        0.00056  -0.00001   0.00000  -0.00037  -0.00037   0.00019
    D2       -3.14103  -0.00001   0.00000  -0.00022  -0.00022  -3.14125
    D3       -3.14103  -0.00002   0.00000  -0.00067  -0.00067   3.14149
    D4        0.00056  -0.00002   0.00000  -0.00052  -0.00052   0.00004
    D5        0.00026  -0.00001   0.00000  -0.00036  -0.00036  -0.00010
    D6        3.14140   0.00000   0.00000   0.00006   0.00007   3.14147
    D7       -3.14133   0.00000   0.00000  -0.00006  -0.00006  -3.14140
    D8       -0.00019   0.00001   0.00000   0.00036   0.00036   0.00017
    D9       -2.09156  -0.00105   0.00000  -0.00833  -0.00876  -2.10032
   D10        2.09723   0.00106   0.00000   0.00886   0.00929   2.10652
   D11        0.00284   0.00000   0.00000   0.00024   0.00023   0.00307
   D12        1.05004  -0.00106   0.00000  -0.00863  -0.00905   1.04098
   D13       -1.04436   0.00106   0.00000   0.00857   0.00899  -1.03537
   D14       -3.13875   0.00000   0.00000  -0.00006  -0.00006  -3.13881
   D15       -0.00099   0.00003   0.00000   0.00088   0.00088  -0.00012
   D16        3.14093   0.00001   0.00000   0.00041   0.00041   3.14133
   D17        3.14060   0.00002   0.00000   0.00073   0.00073   3.14133
   D18       -0.00067   0.00001   0.00000   0.00026   0.00026  -0.00040
   D19        0.00060  -0.00002   0.00000  -0.00065  -0.00065  -0.00006
   D20       -3.14153  -0.00001   0.00000  -0.00025  -0.00025   3.14140
   D21       -3.14132  -0.00001   0.00000  -0.00018  -0.00019  -3.14151
   D22       -0.00026   0.00001   0.00000   0.00022   0.00022  -0.00005
   D23        0.00023   0.00000   0.00000  -0.00007  -0.00007   0.00016
   D24       -3.14158   0.00000   0.00000   0.00020   0.00021  -3.14138
   D25       -3.14083  -0.00001   0.00000  -0.00047  -0.00047  -3.14130
   D26        0.00054  -0.00001   0.00000  -0.00020  -0.00020   0.00035
   D27       -0.00066   0.00002   0.00000   0.00058   0.00058  -0.00008
   D28        3.14138   0.00000   0.00000   0.00015   0.00015   3.14153
   D29        3.14116   0.00001   0.00000   0.00030   0.00030   3.14146
   D30        0.00001   0.00000   0.00000  -0.00013  -0.00013  -0.00011
   D31       -1.04940  -0.00011   0.00000  -0.00214  -0.00222  -1.05162
   D32        1.04499   0.00009   0.00000   0.00094   0.00102   1.04602
   D33        2.09197  -0.00011   0.00000  -0.00186  -0.00194   2.09003
   D34       -2.09682   0.00010   0.00000   0.00122   0.00130  -2.09552
         Item               Value     Threshold  Converged?
 Maximum Force            0.019556     0.000450     NO 
 RMS     Force            0.006280     0.000300     NO 
 Maximum Displacement     0.178123     0.001800     NO 
 RMS     Displacement     0.036211     0.001200     NO 
 Predicted change in Energy=-5.511902D-03
 GradGradGradGradGradGradGradGradGradGradGradGradGradGradGradGradGradGrad

                          Input orientation:                          
 ---------------------------------------------------------------------
 Center     Atomic      Atomic             Coordinates (Angstroms)
 Number     Number       Type             X           Y           Z
 ---------------------------------------------------------------------
      1          6           0       -1.889196    0.352461   -0.462252
      2          6           0       -0.705683   -0.383843   -0.462141
      3          6           0        0.514486    0.287985   -0.462804
      4          6           0        0.547913    1.680968   -0.463709
      5          6           0       -0.640392    2.418799   -0.464033
      6          6           0       -1.857091    1.747990   -0.463252
      7          1           0        1.439379   -0.277562   -0.462478
      8          1           0        1.499843    2.201157   -0.464044
      9          1           0       -2.773788    2.325753   -0.463453
     10          7           0       -0.656552    3.868422   -0.465233
     11          1           0       -0.189502    4.230513    0.358282
     12          1           0       -0.185273    4.229081   -1.286955
     13          1           0       -0.733451   -1.464954   -0.461683
     14          6           0       -3.240180   -0.346019   -0.461679
     15          9           0       -3.989963   -0.026181   -1.536057
     16          9           0       -3.992560   -0.019265    0.608774
     17          9           0       -3.156943   -1.690534   -0.457295
 ---------------------------------------------------------------------
                    Distance matrix (angstroms):
                    1          2          3          4          5
     1  C    0.000000
     2  C    1.393861   0.000000
     3  C    2.404547   1.392899   0.000000
     4  C    2.775686   2.415565   1.393384   0.000000
     5  C    2.414387   2.803403   2.423657   1.398737   0.000000
     6  C    1.395898   2.422902   2.784958   2.405938   1.389367
     7  H    3.387675   2.147694   1.084099   2.151872   3.405263
     8  H    3.860475   3.398025   2.152012   1.084789   2.151273
     9  H    2.162495   3.408661   3.868494   3.383703   2.135424
    10  N    3.725775   4.252550   3.767076   2.497137   1.449713
    11  H    4.312948   4.715063   4.088190   2.778421   2.040052
    12  H    4.314124   4.714893   4.086701   2.776360   2.039964
    13  H    2.153774   1.081467   2.151777   3.396870   3.884868
    14  C    1.520866   2.534780   3.807819   4.296316   3.795145
    15  F    2.389487   3.473861   4.641189   4.965542   4.283315
    16  F    2.389439   3.476110   4.642860   4.965573   4.281600
    17  F    2.404378   2.777794   4.170607   5.009294   4.818681
                    6          7          8          9         10
     6  C    0.000000
     7  H    3.869053   0.000000
     8  H    3.387383   2.479456   0.000000
     9  H    1.083579   4.952577   4.275447   0.000000
    10  N    2.436704   4.645655   2.725768   2.619641   0.000000
    11  H    3.101401   4.863089   2.765572   3.313894   1.013619
    12  H    3.103107   4.860975   2.762114   3.316809   1.013610
    13  H    3.403759   2.476104   4.292782   4.304931   5.333931
    14  C    2.509545   4.680060   5.381072   2.712175   4.943345
    15  F    2.974514   5.540173   6.020649   2.856773   5.237005
    16  F    2.971979   5.542587   6.020607   2.852050   5.234172
    17  F    3.676016   4.808607   6.068852   4.034527   6.095409
                   11         12         13         14         15
    11  H    0.000000
    12  H    1.645243   0.000000
    13  H    5.779841   5.779585   0.000000
    14  C    5.560901   5.562830   2.745124   0.000000
    15  F    6.012609   5.713578   3.718765   1.348614   0.000000
    16  F    5.708469   6.011461   3.722591   1.348596   2.144843
    17  F    6.673055   6.675402   2.433972   1.347096   2.151213
                   16         17
    16  F    0.000000
    17  F    2.151255   0.000000
 Stoichiometry    C7H6F3N
 Framework group  C1[X(C7H6F3N)]
 Deg. of freedom    45
 Full point group                 C1      NOp   1
 Largest Abelian subgroup         C1      NOp   1
 Largest concise Abelian subgroup C1      NOp   1
                         Standard orientation:                         
 ---------------------------------------------------------------------
[...]
 ! D31   D(4,5,10,11)         -160.1617         -DE/DX =    0.0                 !
 ! D32   D(4,5,10,12)          -23.3762         -DE/DX =    0.0                 !
 ! D33   D(6,5,10,11)           22.5034         -DE/DX =    0.0                 !
 ! D34   D(6,5,10,12)          159.2889         -DE/DX =    0.0                 !
 --------------------------------------------------------------------------------
 GradGradGradGradGradGradGradGradGradGradGradGradGradGradGradGradGradGrad

 1\1\GINC-COREV2-25-011\Freq\RB3LYP\6-311+G(d,p)\C7H6F3N1\ROOT\09-Jan-2
 023\0\\#N Geom=AllCheck Guess=TCheck SCRF=Check GenChk RB3LYP/6-311+G(
 d,p) Freq\\Title Card Required\\0,1\C,-1.8692786041,0.3721878716,-0.42
 75558591\C,-0.7165568247,-0.4011948917,-0.5598992602\C,0.512124223,0.2
 486534466,-0.6587959659\C,0.5916826534,1.6352012722,-0.6293724676\C,-0
 .5685735368,2.4144486746,-0.495497965\C,-1.8054905508,1.7629264294,-0.
 3973745991\H,1.4207783862,-0.3340223537,-0.7576197465\H,1.5569252697,2
 .1243738846,-0.7110200009\H,-2.7145218628,2.343878911,-0.2927142364\N,
 -0.499682771,3.8047754066,-0.5149878162\H,-1.2834220218,4.2985785095,-
 0.1154350625\H,0.3883423229,4.2123062577,-0.2641843462\H,-0.777305612,
 -1.4808332584,-0.5759507611\C,-3.2158224907,-0.2973898506,-0.374679794
 8\F,-3.7756678455,-0.4049524817,-1.6081952547\F,-4.1032005916,0.386706
 5342,0.386612593\F,-3.1492825434,-1.5508723221,0.1266577933\\Version=E
 S64L-G09RevD.01\State=1-A\HF=-624.8381439\RMSD=6.096e-09\RMSF=7.826e-0
 6\ZeroPoint=0.1211631\Thermal=0.1305497\Dipole=1.1933148,1.119427,0.32
 58381\DipoleDeriv=-0.1407231,-0.1418507,0.0093241,-0.2785051,0.1292251
 ,0.0381523,0.0737013,0.0606085,-0.1431276,-0.2617368,0.0731341,0.00725
 65,-0.0341465,-0.1628713,0.0046335,0.007046,-0.02017,-0.1262312,0.1851
 114,-0.0531203,-0.0275844,0.121219,0.170837,-0.0060629,-0.0291568,0.00
 45914,-0.1150807,0.0746563,0.3186598,-0.0279835,-0.1104927,-0.3377878,
 0.0075139,-0.0340815,-0.0513821,-0.1518734,-0.0830638,0.1412313,0.0144
 226,0.1228795,1.6310336,-0.0091473,0.0047687,-0.0173379,0.0591116,-0.0
 069496,-0.416671,-0.0134986,0.1334485,-0.3682081,-0.0230135,-0.0220637
 ,0.0155541,-0.1233937,-0.0442099,0.0711446,0.0180633,0.0710857,0.02650
 92,-0.0100501,0.0185526,-0.0075353,0.1324592,-0.0518485,-0.0766491,0.0
 153982,-0.0863509,0.0106161,0.0028998,0.0146315,0.0040662,0.1391227,0.
 0129933,0.0642715,0.0123463,0.0675319,0.0197225,-0.0108957,0.0163467,-
 0.009622,0.1372591,-0.1264584,-0.0448801,-0.0248549,-0.1052558,-1.5061
 226,0.0783499,0.0052072,0.3934519,-0.4525358,0.121713,-0.054699,0.0513
 777,-0.0421871,0.2145426,-0.0268727,0.0545932,-0.1643843,0.2444828,0.1
 177947,0.0341233,-0.0303989,0.049693,0.2012532,-0.0306051,-0.056146,-0
 .170962,0.2619027,0.08567,-0.0048215,0.0053594,-0.0048868,-0.0256974,-
 0.0060209,0.0057768,-0.0010096,0.1460735,2.0625458,0.3317688,-0.026861
 5,0.2478484,1.6836036,-0.0255281,0.0314595,-0.0014483,1.681189,-0.6945
 169,-0.1873573,-0.2880511,-0.1528915,-0.3523654,-0.0696757,-0.3426775,
 -0.1097723,-0.808423,-0.8130122,0.0855543,0.2863675,0.1323682,-0.42529
 7,-0.162525,0.2541743,-0.1471643,-0.4996053,-0.4379654,-0.1398387,0.01
 93173,-0.1313581,-0.9089934,0.2488476,-0.0021323,0.2225161,-0.3813297\
 Polar=102.3525886,5.9845345,114.019076,-3.6049797,1.240606,58.0905851\
 PG=C01 [X(C7H6F3N1)]\NImag=0\\0.64690101,-0.02686979,0.68953245,-0.035
 50289,0.02162685,0.17653407,-0.25211478,0.06110879,0.01840713,0.646946
 85,0.12221247,-0.18879218,-0.01557913,0.01331882,0.74730746,0.02027920
 ,-0.00858174,-0.06417172,-0.04787724,0.01379215,0.13084850,-0.06124507
 ,0.03042478,0.00699476,-0.28419984,-0.11597264,0.01743477,0.70862829,-
 0.01805033,0.05849956,0.00425630,-0.05231118,-0.16978533,0.00136634,-0
 .03193306,0.68688140,0.00574626,-0.00139274,0.00593093,0.01941577,0.00
 764773,-0.06402363,-0.05447412,0.01684296,0.14076470,-0.01433446,0.021
 15294,0.00200075,0.02537828,-0.03073549,-0.00276999,-0.12725389,-0.043
 09935,0.00515963,0.69032702,0.02726557,-0.04939062,-0.00364918,-0.0765
 3817,-0.02460135,0.00687284,0.01777921,-0.34500083,-0.00902183,0.03917
 798,0.70222011,0.00162203,-0.00396058,-0.00468027,-0.00419908,0.001990
 05,0.00864450,0.00732291,-0.00262198,-0.05757400,-0.05346844,0.0105816
 4,0.12934301,0.02981796,-0.08183025,-0.00460335,-0.07302859,0.00538547
 ,0.00758744,0.04469789,0.07451062,-0.00157057,-0.25630734,0.03895955,0
 .01889845,0.67848134,-0.03415990,-0.02244407,0.00097427,0.00469967,0.0
 0721172,0.00030938,0.02782692,-0.03471124,-0.00417014,0.10444072,-0.16
 841602,-0.01400351,0.00454404,0.69573374,-0.00308221,0.00711853,0.0019
 7438,0.00623375,-0.00103609,-0.00557426,-0.00368973,-0.00746025,0.0021
 9510,0.02262457,-0.00722228,-0.06946037,-0.04866486,0.02199393,0.16501
 622,-0.12297186,0.02427462,0.00613815,0.03385641,0.02356199,-0.0023927
 1,-0.01948144,-0.02332391,0.00066765,-0.04673168,0.02230380,0.00595768
 ,-0.27525904,-0.09685910,0.01475483,0.69605063,-0.03399496,-0.33008391
 ,-0.00469553,0.07050198,-0.03648104,-0.00874255,-0.03216996,-0.0439956
 5,0.00192006,-0.01194511,0.05712176,0.00308742,-0.03142143,-0.15587109
 ,0.00047696,-0.02994545,0.70178823,0.00495979,-0.00959232,-0.05770584,
 -0.00040514,-0.00382127,0.01020482,0.00085327,0.00113365,-0.00388967,0
 .00492118,-0.00101456,0.00595622,0.01771518,0.00596101,-0.06789844,-0.
 05510313,0.01863382,0.12909746,-0.00360097,-0.00374203,0.00071724,-0.0
 1814912,0.01694024,0.00244450,-0.25371811,0.12500847,0.02328387,0.0048
 6095,-0.00303610,-0.00021476,0.00168113,-0.00151184,0.00057702,0.00032
 335,-0.00084237,-0.00017415,0.26766347,-0.00339923,-0.00044956,0.00006
 026,-0.01342196,0.01152321,0.00145129,0.12478447,-0.13914888,-0.014126
 44,0.02744273,-0.01234693,-0.00290630,-0.00172464,-0.00505568,-0.00004
 630,-0.00070664,-0.00071796,0.00007355,-0.13411548,0.14473910,0.001055
 34,0.00016456,0.00660433,0.00165243,-0.00123368,0.00342343,0.02320048,
 -0.01409115,-0.03990264,0.00064068,-0.00025130,0.00340391,0.00042803,-
 0.00022942,0.00760726,-0.00005110,0.00011337,-0.00114468,-0.02582942,0
 .01541231,0.02864224,0.00017691,0.00112408,-0.00006929,0.00219102,0.00
 014195,0.00052891,0.00187787,0.00105006,0.00006670,-0.27576037,-0.1078
 2355,0.02095566,-0.01892869,-0.01595108,0.00175933,-0.00264819,0.00394
 547,0.00090881,0.00074463,-0.00027880,-0.00051288,0.29178281,0.0007136
 3,-0.00098231,-0.00008984,0.00095713,-0.00543014,-0.00039411,-0.029799
 27,-0.00950067,0.00255127,-0.10819902,-0.11259311,0.00835040,0.0155651
 0,0.00953935,-0.00137527,0.00326790,-0.00138261,-0.00046349,0.00031865
 ,0.00100122,0.00008511,0.11769314,0.11734784,0.00005117,-0.00012223,-0
 .00054112,0.00040284,-0.00036241,0.00718032,-0.00083005,-0.00040644,0.
 00260957,0.02122823,0.00861868,-0.03595159,0.00256202,0.00173575,0.004
 07338,0.00082957,-0.00065550,0.00551850,-0.00046086,0.00015761,-0.0042
 1750,-0.02345306,-0.00880746,0.02520040,0.00479786,-0.00084161,-0.0000
 5613,0.00183028,-0.00132968,0.00040234,-0.00016993,-0.00118159,-0.0001
 2035,-0.00314878,-0.00361302,0.00079235,-0.01795047,0.01787937,0.00272
 433,-0.25366544,0.12411354,0.02442450,-0.00003660,0.00006156,-0.000074
 35,-0.00096179,0.00080356,0.00011368,0.26868180,0.02731872,-0.01186018
 ,-0.00286645,-0.00237070,-0.00531761,-0.00011095,-0.00064113,-0.000431
 81,0.00007423,-0.00307637,-0.00092305,0.00009222,-0.01269775,0.0099569
 7,0.00133951,0.12294083,-0.13802177,-0.01521862,0.00008326,0.00003676,
 0.00001948,-0.00069542,0.00053029,0.00012614,-0.13326786,0.14458648,0.
 00077305,-0.00016980,0.00232567,0.00045224,-0.00017386,0.00616300,-0.0
 0016908,-0.00000130,-0.00095866,0.00068095,0.00017034,0.00565182,0.001
 90514,-0.00138261,0.00436038,0.02484464,-0.01565537,-0.03628616,-0.000
 06214,0.00001548,-0.00074106,0.00002525,-0.00003087,-0.00027019,-0.027
 44487,0.01696157,0.02600046,-0.00836348,0.00661878,0.00208216,0.007103
 70,-0.00078516,-0.00099118,-0.00950052,-0.00515522,0.00028467,0.004517
 67,0.04414736,0.00033272,-0.12173631,-0.01175940,0.00828137,-0.0018549
 4,-0.04856098,0.00088095,0.00007306,0.00148959,0.00006172,0.00177500,0
 .00061225,0.00038847,0.00172050,-0.00050112,-0.00124875,0.79167500,0.0
 0095207,0.00467093,-0.00042667,-0.00209677,-0.00799045,-0.00022788,0.0
 0117397,0.00759200,-0.00046187,0.01148278,-0.04265764,-0.00118191,-0.0
 0811119,-0.29871860,0.01001620,-0.01623069,-0.03554468,0.00147518,0.00
 019693,-0.00047459,0.00007111,-0.00078680,0.00191403,0.00050619,0.0010
 9751,0.00174307,0.00046749,0.00661197,0.63598014,0.00017205,-0.0022358
 6,0.00449790,-0.00039686,0.00239076,-0.00127321,0.00215813,-0.00170337
 ,0.00465136,-0.00313075,-0.00346074,0.00780879,0.00585970,-0.03262181,
 -0.03943079,0.00457182,0.00489595,0.00717760,-0.00007441,-0.00036462,0
 .00008780,-0.00072057,0.00033986,-0.00274500,-0.00022565,0.00045950,-0
 .00288560,-0.05089907,0.16573157,0.13236848,-0.00052873,0.00053601,-0.
 00077165,-0.00003592,-0.00061296,-0.00005225,0.00012077,0.00039345,0.0
 0009819,0.00144309,-0.00180499,0.00052762,0.00452240,0.00193343,-0.002
 13050,0.00129159,-0.00309673,-0.00068115,0.00004249,-0.00002296,-0.000
 02382,0.00032144,-0.00015753,0.00001766,-0.00049009,0.00018151,0.00073
 843,-0.29857971,0.13642211,0.12052512,0.31067948,0.00014251,-0.0007214
 6,0.00065036,-0.00048129,0.00053571,-0.00005082,0.00197304,-0.00008411
 ,0.00015894,-0.00341021,-0.00532041,-0.00049406,0.03181076,-0.01769262
 ,-0.01479728,0.00198595,0.00251988,0.00058879,-0.00008604,-0.00046295,
 0.00002477,0.00011257,0.00012610,-0.00007583,-0.00148780,-0.00006475,-
 0.00039254,0.13377058,-0.14715091,-0.08327834,-0.15116416,0.15850624,0
 .00016168,-0.00029662,-0.00048489,-0.00080791,-0.00058326,0.00009735,0
 .00019440,0.00138627,0.00170483,0.00109609,-0.00036338,0.00191479,-0.0
 0466764,0.01073290,-0.00415922,-0.00088935,-0.00035089,-0.00017366,-0.
 00000451,0.00008987,-0.00017145,0.00000408,0.00002987,-0.00063080,-0.0
 0032850,-0.00035636,0.00033960,0.14937861,-0.10669715,-0.07580232,-0.1
 3346134,0.08942203,0.07664628,-0.00016787,-0.00003234,0.00024001,0.000
 43796,0.00056819,0.00001435,-0.00051636,-0.00087481,0.00083591,0.00173
 651,0.00333335,0.00047018,0.00173962,-0.00202430,-0.00051451,0.0015695
 0,0.00092014,-0.00049849,-0.00002222,0.00005568,-0.00004060,-0.0004438
 5,-0.00032980,-0.00063821,0.00027599,0.00014394,-0.00021668,-0.3671416
 3,-0.13134091,-0.07760199,-0.01885480,-0.01304000,-0.01071846,0.381409
 87,-0.00168865,0.00015248,0.00039761,0.00040027,0.00038927,-0.00017346
 ,0.00003705,-0.00060605,0.00060642,-0.00173233,0.00234622,0.00095153,-
 0.03584732,-0.01411265,-0.00879200,0.00231512,-0.00574408,-0.00096733,
 -0.00001706,0.00007083,-0.00002161,0.00140603,-0.00013281,-0.00061353,
 -0.00010545,0.00010902,-0.00007241,-0.12489699,-0.11968404,-0.04981601
 ,0.01734259,0.00973777,0.00692154,0.14267950,0.12798148,0.00045436,0.0
 0135497,0.00164237,0.00049640,-0.00083069,-0.00007297,-0.00020370,0.00
 008532,-0.00073539,0.00038994,-0.00109518,-0.00034774,0.00441511,0.010
 74051,-0.00509607,-0.00106702,-0.00046080,0.00215056,0.00002107,-0.000
 01353,0.00002455,0.00049903,-0.00032263,0.00033230,-0.00018019,0.00000
 699,-0.00062250,-0.10871069,-0.06944887,-0.03439862,0.01503323,0.00830
 449,0.00088636,0.08887430,0.05151136,0.03636223,0.00579670,0.02602600,
 0.00039408,-0.05853481,-0.01535912,0.00188469,0.00306465,-0.02875181,-
 0.00077352,-0.00447920,-0.00164635,0.00096517,-0.00129486,-0.00003216,
 0.00004154,-0.00444405,0.00193427,0.00101341,0.00095882,0.00052070,-0.
 00047521,-0.00003754,-0.00136826,0.00000985,0.00021198,0.00141053,0.00
 010702,0.00037303,0.00002380,-0.00009131,-0.00001047,-0.00010281,-0.00
 002988,-0.00004282,0.00009132,0.00003615,0.05896067,-0.00233316,-0.012
 77193,-0.00003595,-0.01399145,-0.34230528,-0.00524776,0.00168807,-0.00
 875454,-0.00040629,-0.00234004,0.00109011,0.00016782,-0.00007707,0.000
 24560,0.00006844,0.00297046,0.00075999,-0.00031775,-0.00018226,0.00073
 212,0.00007502,0.00014289,-0.00048149,-0.00003587,-0.00022620,-0.00059
 176,-0.00002682,-0.00000487,0.00027937,-0.00010222,0.00005962,0.000025
 27,0.00003511,-0.00005378,0.00001545,0.00004974,0.01682203,0.36208913,
 -0.00013206,-0.00292325,0.00207532,0.00181236,-0.00428256,-0.03251891,
 -0.00006661,0.00225840,0.00225972,0.00089798,0.00003202,0.00632961,0.0
 0000326,-0.00002240,-0.00082347,0.00112727,-0.00033050,0.00553585,-0.0
 0045969,0.00006766,-0.00395092,0.00005073,0.00008825,0.00035432,0.0000
 4471,-0.00018366,0.00084477,-0.00004312,0.00019794,-0.00046714,0.00016
 825,-0.00004782,-0.00010749,-0.00018944,-0.00004424,-0.00001259,-0.002
 70549,0.00508165,0.02425873,-0.17461306,-0.04071074,0.00255386,-0.0271
 5805,-0.00660467,0.00067376,-0.00204481,0.00325302,0.00117152,0.000421
 94,0.00394809,0.00022947,0.00466223,-0.00207901,0.00065959,0.00286927,
 -0.01495839,0.00048560,0.00026257,-0.00042384,0.00002660,0.00007901,0.
 00035959,-0.00014890,-0.00039412,0.00382792,-0.00032081,0.00053242,0.0
 0518553,-0.00136338,0.00056433,-0.00032720,0.00055086,-0.00012846,-0.0
 0007561,0.00026492,0.00026720,-0.00087250,-0.00017648,0.55512743,-0.04
 240105,-0.11164680,-0.00037793,0.00742470,0.01840950,0.00253834,0.0073
 5097,-0.00159799,-0.00070853,0.00206808,-0.00205771,-0.00016675,-0.000
 48856,-0.00742940,-0.00024844,-0.02914471,-0.01367889,-0.00053415,0.00
 151478,0.00072162,-0.00039975,0.00023702,-0.00024144,-0.00005334,-0.00
 063076,-0.00181217,0.00037672,-0.00059985,0.00077201,-0.00025025,-0.00
 025789,-0.00036127,0.00003163,-0.00003233,-0.00044712,0.00023715,0.003
 41206,-0.00246923,-0.00066776,0.03785212,0.50955021,0.00804950,0.00203
 349,-0.06630780,0.00340693,0.00068497,0.00009225,0.00153802,0.00045743
 ,0.00583258,0.00004628,-0.00027324,-0.00086367,0.00128986,-0.00062310,
 0.00633144,-0.00104006,0.00178668,-0.00107546,0.00016358,0.00000652,0.
 00040557,0.00000988,0.00001643,-0.00065313,-0.00029875,-0.00099278,-0.
 00199011,-0.00007024,-0.00005290,0.00007731,-0.00001552,-0.00010343,0.
 00025128,-0.00002118,0.00002386,0.00006065,-0.00070187,0.00034583,-0.0
 0206365,-0.01324279,-0.00514655,0.43945306,-0.01975255,-0.01043577,-0.
 03550426,0.00068422,-0.00253301,-0.00083085,0.00021184,-0.00043689,0.0
 0170446,-0.00045572,-0.00100883,-0.00034651,-0.00101775,0.00120542,0.0
 0195171,-0.00216873,0.00295241,-0.00090910,-0.00028397,-0.00000731,0.0
 0004929,-0.00007066,-0.00009924,-0.00019307,0.00003163,-0.00063546,-0.
 00115188,-0.00005514,-0.00138521,0.00054168,-0.00012394,0.00013309,-0.
 00023048,0.00003005,0.00009354,-0.00013877,-0.00015598,0.00030290,-0.0
 0094622,-0.11478829,-0.01359384,-0.06703228,0.11314759,-0.01300474,0.0
 0688642,-0.01441053,0.00036762,-0.00221330,-0.00126935,-0.00115605,-0.
 00048197,0.00101054,-0.00067022,0.00058526,-0.00003377,0.00084347,0.00
 105768,0.00042783,0.00001773,0.00049822,0.00022452,-0.00020968,-0.0000
 9528,0.00014920,-0.00005672,0.00001853,-0.00007465,0.00006909,0.000093
 62,-0.00021100,-0.00010659,-0.00031809,0.00009114,0.00002447,0.0000780
 3,-0.00001943,0.00000687,0.00005561,-0.00007958,-0.00044784,0.00028737
 ,-0.00039570,-0.01355688,-0.07413556,-0.01859879,0.00509821,0.07570787
 ,-0.01600187,-0.00449145,-0.01248166,0.00019760,-0.00212625,0.00005417
 ,-0.00077823,-0.00038194,0.00106636,-0.00024294,-0.00023526,-0.0001736
 8,-0.00061812,0.00055363,0.00084221,-0.00111949,0.00145322,0.00083343,
 -0.00029662,-0.00006917,0.00003413,-0.00008694,-0.00006298,-0.00016332
 ,0.00018855,-0.00008282,-0.00113449,-0.00011293,-0.00084187,0.00042160
 ,-0.00004909,0.00012797,-0.00023334,0.00002306,0.00003331,-0.00012790,
 0.00007018,0.00021009,-0.00101117,-0.06637096,-0.01850813,-0.17451234,
 0.09891962,0.01781381,0.30340185,-0.03403709,0.02435280,0.02743099,-0.
 00253510,-0.00781941,0.00222271,-0.00176104,0.00128885,-0.00133638,-0.
 00026162,-0.00036818,0.00015443,0.00012179,0.00213526,-0.00077820,-0.0
 0161153,0.00183843,0.00008210,-0.00076335,-0.00034596,-0.00014934,-0.0
 0004009,-0.00018431,0.00013725,-0.00097303,-0.00163469,0.00085253,-0.0
 0006046,-0.00190537,0.00047743,-0.00024652,0.00008267,-0.00014774,0.00
 006263,0.00008415,-0.00010427,0.00056098,0.00016606,0.00039670,-0.1654
 8237,0.03972466,0.06276988,0.01857376,0.00092996,0.00869354,0.19094463
 ,-0.00126600,0.00689545,-0.00104317,-0.00055637,-0.00027578,-0.0000644
 1,-0.00065111,0.00040708,0.00009126,-0.00034067,0.00026745,0.00000933,
 0.00030038,0.00124635,0.00045087,-0.00088520,-0.00318186,0.00157353,-0
 .00004012,-0.00002518,0.00000586,-0.00012861,0.00014269,-0.00003170,-0
 .00182236,0.00127696,-0.00013704,-0.00002504,0.00021285,-0.00000313,0.
 00014317,0.00011866,0.00000657,0.00000289,0.00001746,-0.00004024,-0.00
 063992,0.00033721,0.00008917,0.04681266,-0.09878119,-0.03399877,0.0061
 2540,0.00000937,-0.03069065,-0.09205174,0.15256203,0.01247517,-0.01014
 185,-0.00029115,0.00189077,0.00320034,0.00018365,0.00023408,-0.0012354
 3,-0.00009939,-0.00023339,0.00053396,0.00003398,0.00035529,-0.00045340
 ,0.00018773,-0.00004011,-0.00142729,0.00114135,0.00029926,0.00017208,-
 0.00007029,-0.00000488,0.00009650,-0.00004623,0.00007012,0.00077060,-0
 .00071275,0.00003372,0.00068556,-0.00006271,0.00009179,0.00002002,-0.0
 0003855,-0.00001205,-0.00001069,-0.00000210,-0.00021130,0.00004821,-0.
 00009478,0.06585327,-0.02972259,-0.11413257,0.02280981,-0.03524143,-0.
 06894770,-0.10225004,0.08145868,0.16651782,0.00423948,-0.03115627,0.00
 954842,-0.00267251,-0.00037700,0.00144156,0.00128970,-0.00038632,-0.00
 015969,0.00004760,-0.00107573,0.00000014,-0.00020132,-0.00028803,-0.00
 074802,-0.00512385,0.00072915,0.00152637,-0.00003612,0.00009208,0.0000
 4215,-0.00005751,-0.00015351,-0.00001660,0.00024020,-0.00038622,0.0002
 3498,-0.00047818,-0.00128974,0.00019806,-0.00011539,0.00008833,-0.0000
 9992,0.00005589,-0.00008617,-0.00007985,-0.00119430,-0.00207069,0.0002
 1787,-0.08017724,-0.01243539,0.00514878,0.00619363,0.02185131,-0.02241
 536,-0.00249158,0.04502264,-0.00136152,0.08048149,-0.00143716,-0.03749
 427,0.01520872,0.00298892,-0.00218443,-0.00146731,-0.00071526,0.000719
 03,-0.00061557,-0.00021643,-0.00032325,0.00013846,0.00027881,-0.000540
 04,-0.00091435,-0.00654269,0.00201545,0.00226545,-0.00027935,-0.000047
 85,0.00010612,-0.00013225,0.00012452,0.00009457,0.00048170,0.00068993,
 0.00026204,-0.00085532,-0.00062540,-0.00007240,0.00008086,0.00021082,0
 .00001131,0.00001771,-0.00014882,0.00000097,-0.00189244,0.00151261,0.0
 0108281,-0.02163008,-0.21479455,0.05443436,0.01422459,-0.00803378,0.03
 729848,0.03370681,-0.06122954,-0.00875327,-0.01807842,0.32014959,-0.00
 108057,0.01161004,0.00507947,-0.00068198,0.00032319,0.00074270,0.00028
 069,0.00011519,0.00016822,0.00015925,-0.00022253,-0.00003531,-0.000894
 94,0.00050500,-0.00014550,0.00281138,-0.00004905,0.00055812,0.00007001
 ,0.00001974,-0.00003468,0.00003926,-0.00001104,-0.00004991,-0.00003179
 ,-0.00003859,-0.00008418,0.00035159,0.00018788,-0.00002546,-0.00001498
 ,-0.00005725,-0.00003876,-0.00000619,0.00006566,-0.00004316,0.00046650
 ,0.00009077,-0.00060820,0.00915390,0.05360034,-0.09090542,-0.01869317,
 0.05061720,-0.04786815,0.00154840,-0.01767615,0.01643369,0.00652264,-0
 .09908039,0.11685653\\-0.00000125,0.00000927,-0.00001099,-0.00000064,-
 0.00000411,0.00000259,-0.00000097,-0.00000675,0.00000013,0.00000125,0.
 00000515,-0.00000375,0.00001033,-0.00000609,-0.00000074,-0.00001041,-0
 .00000281,0.00000373,-0.00000511,-0.00000127,-0.00000603,-0.00000315,-
 0.00000568,-0.00000921,0.00000855,-0.00000036,0.00000247,0.00000455,0.
 00000108,-0.00000503,0.00000393,0.00000111,-0.00000257,0.00000646,-0.0
 0000067,-0.00000566,-0.00000674,-0.00000372,-0.00000079,-0.00000710,0.
 00000625,0.00003323,-0.00001134,0.00000608,-0.00001181,0.00001405,-0.0
 0000782,0.00000096,-0.00000240,0.00001035,0.00001349\\\@


 FLOATING POINT NUMBERS ARE LIKE SANDPILES:
 EVERY TIME THAT YOU MOVE ONE, YOU LOSE A LITTLE SAND 
 AND YOU PICK UP A LITTLE DIRT.
 Job cpu time:       0 days  0 hours 37 minutes 21.4 seconds.
 File lengths (MBytes):  RWF=    186 Int=      0 D2E=      0 Chk=      7 Scr=      1
 Normal termination of Gaussian 09 at Mon Jan  9 18:04:40 2023.
