 Entering Gaussian System, Link 0=g09
 Initial command:
 /cm/shared/apps/gaussian/g09revD.01/g09/l1.exe "//home/sweav003/CHB/validation/G09-Traceless3_Smith.com.o9822901.tmp/Gau-218882.inp" -scrdir="//home/sweav003/CHB/validation/G09-Traceless3_Smith.com.o9822901.tmp/"
 Entering Link 1 = /cm/shared/apps/gaussian/g09revD.01/g09/l1.exe PID=    218883.
  
 Copyright (c) 1988,1990,1992,1993,1995,1998,2003,2009,2013,
            Gaussian, Inc.  All Rights Reserved.
  
 This is part of the Gaussian(R) 09 program.  It is based on
 the Gaussian(R) 03 system (copyright 2003, Gaussian, Inc.),
 the Gaussian(R) 98 system (copyright 1998, Gaussian, Inc.),
 the Gaussian(R) 94 system (copyright 1995, Gaussian, Inc.),
 the Gaussian 92(TM) system (copyright 1992, Gaussian, Inc.),
 the Gaussian 90(TM) system (copyright 1990, Gaussian, Inc.),
 the Gaussian 88(TM) system (copyright 1988, Gaussian, Inc.),
 the Gaussian 86(TM) system (copyright 1986, Carnegie Mellon
 University), and the Gaussian 82(TM) system (copyright 1983,
 Carnegie Mellon University). Gaussian is a federally registered
 trademark of Gaussian, Inc.
  
 This software contains proprietary and confidential information,
 including trade secrets, belonging to Gaussian, Inc.
  
 This software is provided under written license and may be
 used, copied, transmitted, or stored only in accord with that
 written license.
  
 The following legend is applicable only to US Government
 contracts under FAR:
  
                    RESTRICTED RIGHTS LEGEND
  
 Use, reproduction and disclosure by the US Government is
 subject to restrictions as set forth in subparagraphs (a)
 and (c) of the Commercial Computer Software - Restricted
 Rights clause in FAR 52.227-19.
  
 Gaussian, Inc.
 340 Quinnipiac St., Bldg. 40, Wallingford CT 06492
  
  
 ---------------------------------------------------------------
 Warning -- This program may not be used in any manner that
 competes with the business of Gaussian, Inc. or will provide
 assistance to any competitor of Gaussian, Inc.  The licensee
 of this program is prohibited from giving any competitor of
 Gaussian, Inc. access to this program.  By using this program,
 the user acknowledges that Gaussian, Inc. is engaged in the
 business of creating and licensing software in the field of
 computational chemistry and represents and warrants to the
 licensee that it is not a competitor of Gaussian, Inc. and that
 it will not use this program in any manner prohibited above.
 ---------------------------------------------------------------
  

 Cite this work as:
 Gaussian 09, Revision D.01,
 M. J. Frisch, G. W. Trucks, H. B. Schlegel, G. E. Scuseria, 
 M. A. Robb, J. R. Cheeseman, G. Scalmani, V. Barone, B. Mennucci, 
 G. A. Petersson, H. Nakatsuji, M. Caricato, X. Li, H. P. Hratchian, 
 A. F. Izmaylov, J. Bloino, G. Zheng, J. L. Sonnenberg, M. Hada, 
 M. Ehara, K. Toyota, R. Fukuda, J. Hasegawa, M. Ishida, T. Nakajima, 
 Y. Honda, O. Kitao, H. Nakai, T. Vreven, J. A. Montgomery, Jr., 
 J. E. Peralta, F. Ogliaro, M. Bearpark, J. J. Heyd, E. Brothers, 
 K. N. Kudin, V. N. Staroverov, T. Keith, R. Kobayashi, J. Normand, 
 K. Raghavachari, A. Rendell, J. C. Burant, S. S. Iyengar, J. Tomasi, 
 M. Cossi, N. Rega, J. M. Millam, M. Klene, J. E. Knox, J. B. Cross, 
 V. Bakken, C. Adamo, J. Jaramillo, R. Gomperts, R. E. Stratmann, 
 O. Yazyev, A. J. Austin, R. Cammi, C. Pomelli, J. W. Ochterski, 
 R. L. Martin, K. Morokuma, V. G. Zakrzewski, G. A. Voth, 
 P. Salvador, J. J. Dannenberg, S. Dapprich, A. D. Daniels, 
 O. Farkas, J. B. Foresman, J. V. Ortiz, J. Cioslowski, 
 and D. J. Fox, Gaussian, Inc., Wallingford CT, 2013.
 
 ******************************************
 Gaussian 09:  ES64L-G09RevD.01 24-Apr-2013
                 9-Jan-2023 
 ******************************************
 %nprocshared=20
 Will use up to   20 processors via shared memory.
 %mem=4GB
 %chk=Traceless3_Smith.chk
 ----------------------------------------------------------------------
 # opt freq b3lyp/6-311+g(d,p) geom=connectivity pop=(hirshfeld,chelpg,
 mbs,npa)
 ----------------------------------------------------------------------
 1/14=-1,18=20,19=15,26=3,38=1,57=2/1,3;
 2/9=110,12=2,17=6,18=5,40=1/2;
 3/5=4,6=6,7=111,11=2,16=1,25=1,30=1,71=1,74=-5/1,2,3;
 4//1;
 5/5=2,38=5/2;
 6/7=2,8=2,9=2,10=2,15=8,20=3,27=100,28=1,40=-1,79=1/1,2,7;
 7//1,2,3,16;
 1/14=-1,18=20,19=15,26=3/3(2);
 2/9=110/2;
 99//99;
 2/9=110/2;
 3/5=4,6=6,7=111,11=2,16=1,25=1,30=1,71=1,74=-5/1,2,3;
 4/5=5,16=3,69=1/1;
 5/5=2,38=5/2;
 7//1,2,3,16;
 1/14=-1,18=20,19=15,26=3/3(-5);
 2/9=110/2;
 6/7=2,8=2,9=2,10=2,15=8,19=2,20=3,27=100,28=1,40=-1,79=1/1,2,7;
 99/9=1/99;
 -------------------
 Title Card Required
 -------------------
 Symbolic Z-matrix:
 Charge =  0 Multiplicity = 1
 C                    -1.96154  -1.2356    0. 
 C                    -0.77197  -1.96457   0. 
 C                     0.45383  -1.29925   0. 
 C                     0.49042   0.09569  -0.0012 
 C                    -0.6989    0.82442  -0.00168 
 C                    -1.92499   0.15875  -0.00068 
 H                     1.3915   -1.87377   0.00063 
 H                     1.45704   0.62005  -0.00126 
 H                    -2.86246   0.73345  -0.00086 
 N                    -0.66079   2.29393  -0.00295 
 H                    -0.1826    2.61568   0.81424 
 H                    -0.17921   2.61418  -0.81875 
 H                    -2.90188  -1.74615   0.00052 
 C                    -0.8124   -3.50404   0. 
 F                    -1.97124  -3.92376  -0.55084 
 F                     0.22618  -3.98147  -0.71828 
 F                    -0.72757  -3.95642   1.26912 
 

 GradGradGradGradGradGradGradGradGradGradGradGradGradGradGradGradGradGrad
 Berny optimization.
 Initialization pass.
                           ----------------------------
                           !    Initial Parameters    !
                           ! (Angstroms and Degrees)  !
 --------------------------                            --------------------------
 ! Name  Definition              Value          Derivative Info.                !
 --------------------------------------------------------------------------------
 ! R1    R(1,2)                  1.3952         estimate D2E/DX2                !
 ! R2    R(1,6)                  1.3948         estimate D2E/DX2                !
 ! R3    R(1,13)                 1.07           estimate D2E/DX2                !
 ! R4    R(2,3)                  1.3947         estimate D2E/DX2                !
 ! R5    R(2,14)                 1.54           estimate D2E/DX2                !
 ! R6    R(3,4)                  1.3954         estimate D2E/DX2                !
 ! R7    R(3,7)                  1.0997         estimate D2E/DX2                !
 ! R8    R(4,5)                  1.3948         estimate D2E/DX2                !
 ! R9    R(4,8)                  1.0997         estimate D2E/DX2                !
 ! R10   R(5,6)                  1.3951         estimate D2E/DX2                !
 ! R11   R(5,10)                 1.47           estimate D2E/DX2                !
 ! R12   R(6,9)                  1.0996         estimate D2E/DX2                !
 ! R13   R(10,11)                1.0            estimate D2E/DX2                !
 ! R14   R(10,12)                1.0            estimate D2E/DX2                !
 ! R15   R(14,15)                1.35           estimate D2E/DX2                !
 ! R16   R(14,16)                1.35           estimate D2E/DX2                !
 ! R17   R(14,17)                1.35           estimate D2E/DX2                !
 ! A1    A(2,1,6)              119.9985         estimate D2E/DX2                !
 ! A2    A(2,1,13)             120.0008         estimate D2E/DX2                !
 ! A3    A(6,1,13)             120.0008         estimate D2E/DX2                !
 ! A4    A(1,2,3)              120.0086         estimate D2E/DX2                !
 ! A5    A(1,2,14)             119.9957         estimate D2E/DX2                !
 ! A6    A(3,2,14)             119.9957         estimate D2E/DX2                !
 ! A7    A(2,3,4)              119.9942         estimate D2E/DX2                !
 ! A8    A(2,3,7)              120.0128         estimate D2E/DX2                !
 ! A9    A(4,3,7)              119.993          estimate D2E/DX2                !
 ! A10   A(3,4,5)              119.994          estimate D2E/DX2                !
 ! A11   A(3,4,8)              119.9811         estimate D2E/DX2                !
 ! A12   A(5,4,8)              120.0249         estimate D2E/DX2                !
 ! A13   A(4,5,6)              120.0047         estimate D2E/DX2                !
 ! A14   A(4,5,10)             120.0113         estimate D2E/DX2                !
 ! A15   A(6,5,10)             119.984          estimate D2E/DX2                !
 ! A16   A(1,6,5)              120.0            estimate D2E/DX2                !
 ! A17   A(1,6,9)              120.008          estimate D2E/DX2                !
 ! A18   A(5,6,9)              119.992          estimate D2E/DX2                !
 ! A19   A(5,10,11)            109.4712         estimate D2E/DX2                !
 ! A20   A(5,10,12)            109.4712         estimate D2E/DX2                !
 ! A21   A(11,10,12)           109.4713         estimate D2E/DX2                !
 ! A22   A(2,14,15)            109.4712         estimate D2E/DX2                !
 ! A23   A(2,14,16)            109.4712         estimate D2E/DX2                !
 ! A24   A(2,14,17)            109.4712         estimate D2E/DX2                !
 ! A25   A(15,14,16)           109.4712         estimate D2E/DX2                !
 ! A26   A(15,14,17)           109.4712         estimate D2E/DX2                !
 ! A27   A(16,14,17)           109.4713         estimate D2E/DX2                !
 ! D1    D(6,1,2,3)              0.0323         estimate D2E/DX2                !
 ! D2    D(6,1,2,14)          -179.9677         estimate D2E/DX2                !
 ! D3    D(13,1,2,3)          -179.9677         estimate D2E/DX2                !
 ! D4    D(13,1,2,14)            0.0323         estimate D2E/DX2                !
 ! D5    D(2,1,6,5)              0.0149         estimate D2E/DX2                !
 ! D6    D(2,1,6,9)            179.9892         estimate D2E/DX2                !
 ! D7    D(13,1,6,5)          -179.9851         estimate D2E/DX2                !
 ! D8    D(13,1,6,9)            -0.0108         estimate D2E/DX2                !
 ! D9    D(1,2,3,4)             -0.0568         estimate D2E/DX2                !
 ! D10   D(1,2,3,7)            179.9619         estimate D2E/DX2                !
 ! D11   D(14,2,3,4)           179.9432         estimate D2E/DX2                !
 ! D12   D(14,2,3,7)            -0.0381         estimate D2E/DX2                !
 ! D13   D(1,2,14,15)           25.644          estimate D2E/DX2                !
 ! D14   D(1,2,14,16)          145.644          estimate D2E/DX2                !
 ! D15   D(1,2,14,17)          -94.356          estimate D2E/DX2                !
 ! D16   D(3,2,14,15)         -154.356          estimate D2E/DX2                !
 ! D17   D(3,2,14,16)          -34.356          estimate D2E/DX2                !
 ! D18   D(3,2,14,17)           85.644          estimate D2E/DX2                !
 ! D19   D(2,3,4,5)              0.0341         estimate D2E/DX2                !
 ! D20   D(2,3,4,8)           -179.9964         estimate D2E/DX2                !
 ! D21   D(7,3,4,5)           -179.9846         estimate D2E/DX2                !
 ! D22   D(7,3,4,8)             -0.0151         estimate D2E/DX2                !
 ! D23   D(3,4,5,6)              0.0131         estimate D2E/DX2                !
 ! D24   D(3,4,5,10)          -179.9995         estimate D2E/DX2                !
 ! D25   D(8,4,5,6)           -179.9563         estimate D2E/DX2                !
 ! D26   D(8,4,5,10)             0.0311         estimate D2E/DX2                !
 ! D27   D(4,5,6,1)             -0.0376         estimate D2E/DX2                !
 ! D28   D(4,5,6,9)            179.9881         estimate D2E/DX2                !
 ! D29   D(10,5,6,1)           179.975          estimate D2E/DX2                !
 ! D30   D(10,5,6,9)             0.0007         estimate D2E/DX2                !
 ! D31   D(4,5,10,11)          -60.1262         estimate D2E/DX2                !
 ! D32   D(4,5,10,12)           59.8738         estimate D2E/DX2                !
 ! D33   D(6,5,10,11)          119.8611         estimate D2E/DX2                !
 ! D34   D(6,5,10,12)         -120.1389         estimate D2E/DX2                !
 --------------------------------------------------------------------------------
 Trust Radius=3.00D-01 FncErr=1.00D-07 GrdErr=1.00D-06
 Number of steps in this run=     88 maximum allowed number of steps=    102.
 GradGradGradGradGradGradGradGradGradGradGradGradGradGradGradGradGradGrad

                          Input orientation:                          
 ---------------------------------------------------------------------
 Center     Atomic      Atomic             Coordinates (Angstroms)
 Number     Number       Type             X           Y           Z
 ---------------------------------------------------------------------
      1          6           0       -1.961540   -1.235600    0.000000
      2          6           0       -0.771971   -1.964569    0.000000
      3          6           0        0.453826   -1.299254    0.000000
      4          6           0        0.490423    0.095692   -0.001199
      5          6           0       -0.698902    0.824420   -0.001678
      6          6           0       -1.924990    0.158750   -0.000682
      7          1           0        1.391499   -1.873767    0.000634
      8          1           0        1.457039    0.620049   -0.001258
      9          1           0       -2.862461    0.733448   -0.000862
     10          7           0       -0.660795    2.293925   -0.002952
     11          1           0       -0.182604    2.615678    0.814244
     12          1           0       -0.179213    2.614175   -0.818746
     13          1           0       -2.901881   -1.746147    0.000523
     14          6           0       -0.812399   -3.504038    0.000000
     15          9           0       -1.971240   -3.923761   -0.550837
     16          9           0        0.226175   -3.981467   -0.718279
     17          9           0       -0.727573   -3.956420    1.269116
 ---------------------------------------------------------------------
                    Distance matrix (angstroms):
                    1          2          3          4          5
     1  C    0.000000
     2  C    1.395160   0.000000
     3  C    2.416205   1.394712   0.000000
     4  C    2.790065   2.416260   1.395427   0.000000
     5  C    2.416183   2.789946   2.416356   1.394825   0.000000
     6  C    1.394829   2.416183   2.790080   2.416236   1.395138
     7  H    3.413229   2.165375   1.099680   2.165806   3.413209
     8  H    3.889745   3.413024   2.165678   1.099680   2.165606
     9  H    2.165365   3.413128   3.889684   3.412999   2.165471
    10  N    3.761581   4.259946   3.762091   2.481438   1.470000
    11  H    4.319716   4.689244   4.049041   2.732808   2.034920
    12  H    4.320625   4.688987   4.047964   2.731218   2.034920
    13  H    1.070000   2.141081   3.385334   3.860065   3.385400
    14  C    2.542899   1.540000   2.542518   3.828238   4.329946
    15  F    2.744034   2.362224   3.615578   4.745301   4.946275
    16  F    3.583547   2.362223   2.786039   4.148163   4.946295
    17  F    3.245950   2.362223   3.172836   4.417786   4.946936
                    6          7          8          9         10
     6  C    0.000000
     7  H    3.889760   0.000000
     8  H    3.413344   2.494678   0.000000
     9  H    1.099604   4.989364   4.320988   0.000000
    10  N    2.481364   4.645598   2.699460   2.698598   0.000000
    11  H    3.120338   4.826477   2.708507   3.374733   1.000000
    12  H    3.121870   4.824951   2.705946   3.377260   1.000000
    13  H    2.140783   4.295277   4.959745   2.479908   4.620028
    14  C    3.828038   2.741341   4.707275   4.707339   5.799946
    15  F    4.119673   3.976759   5.718508   4.773504   6.377857
    16  F    4.720578   2.513407   4.816959   5.681970   6.378006
    17  F    4.469991   3.230628   5.227853   5.307113   6.378827
                   11         12         13         14         15
    11  H    0.000000
    12  H    1.632993   0.000000
    13  H    5.204049   5.205432   0.000000
    14  C    6.205688   6.205143   2.730589   0.000000
    15  F    6.915701   6.784374   2.431480   1.350000   0.000000
    16  F    6.785135   6.608852   3.911275   1.350000   2.204541
    17  F    6.610324   6.916111   3.349963   1.350000   2.204541
                   16         17
    16  F    0.000000
    17  F    2.204541   0.000000
 Stoichiometry    C7H6F3N
 Framework group  C1[X(C7H6F3N)]
 Deg. of freedom    45
 Full point group                 C1      NOp   1
 Largest Abelian subgroup         C1      NOp   1
 Largest concise Abelian subgroup C1      NOp   1
                         Standard orientation:                         
 ---------------------------------------------------------------------
 Center     Atomic      Atomic             Coordinates (Angstroms)
 Number     Number       Type             X           Y           Z
 ---------------------------------------------------------------------
      1          6           0        0.294272    1.223607    0.000533
      2          6           0       -0.388518    0.006944    0.000426
      3          6           0        0.323339   -1.192423    0.000863
      4          6           0        1.718663   -1.175470    0.000207
      5          6           0        2.401221    0.040939   -0.000165
      6          6           0        1.688998    1.240584    0.000395
      7          1           0       -0.214773   -2.151449    0.001412
      8          1           0        2.279722   -2.121255    0.000492
      9          1           0        2.227302    2.199415    0.000299
     10          7           0        3.871107    0.059243   -0.000866
     11          1           0        4.210651   -0.406142    0.816524
     12          1           0        4.209918   -0.409803   -0.816465
     13          1           0       -0.251979    2.143667    0.000721
     14          6           0       -1.928404   -0.011725   -0.000174
     15          9           0       -2.392066    1.130085   -0.551342
     16          9           0       -2.365352   -1.067948   -0.718485
     17          9           0       -2.377696   -0.113679    1.268779
 ---------------------------------------------------------------------
 Rotational constants (GHZ):      2.7638343      0.6230757      0.5621955
 Standard basis: 6-311+G(d,p) (5D, 7F)
 There are   289 symmetry adapted cartesian basis functions of A   symmetry.
 There are   278 symmetry adapted basis functions of A   symmetry.
   278 basis functions,   444 primitive gaussians,   289 cartesian basis functions
    41 alpha electrons       41 beta electrons
       nuclear repulsion energy       613.2109455440 Hartrees.
 NAtoms=   17 NActive=   17 NUniq=   17 SFac= 1.00D+00 NAtFMM=   60 NAOKFM=F Big=F
 Integral buffers will be    131072 words long.
 Raffenetti 2 integral format.
 Two-electron integral symmetry is turned on.
 One-electron integrals computed using PRISM.
 NBasis=   278 RedAO= T EigKep=  2.38D-06  NBF=   278
 NBsUse=   278 1.00D-06 EigRej= -1.00D+00 NBFU=   278
 ExpMin= 4.38D-02 ExpMax= 1.14D+04 ExpMxC= 1.72D+03 IAcc=2 IRadAn=         4 AccDes= 0.00D+00
 Harris functional with IExCor=  402 and IRadAn=       4 diagonalized for initial guess.
 HarFok:  IExCor=  402 AccDes= 0.00D+00 IRadAn=         4 IDoV= 1 UseB2=F ITyADJ=14
 ICtDFT=  3500011 ScaDFX=  1.000000  1.000000  1.000000  1.000000
 FoFCou: FMM=F IPFlag=           0 FMFlag=      100000 FMFlg1=           0
         NFxFlg=           0 DoJE=T BraDBF=F KetDBF=T FulRan=T
         wScrn=  0.000000 ICntrl=     500 IOpCl=  0 I1Cent=   200000004 NGrid=           0
         NMat0=    1 NMatS0=      1 NMatT0=    0 NMatD0=    1 NMtDS0=    0 NMtDT0=    0
 Petite list used in FoFCou.
 Requested convergence on RMS density matrix=1.00D-08 within 128 cycles.
 Requested convergence on MAX density matrix=1.00D-06.
 Requested convergence on             energy=1.00D-06.
 No special actions if energy rises.
 SCF Done:  E(RB3LYP) =  -624.823723275     A.U. after   14 cycles
            NFock= 14  Conv=0.48D-08     -V/T= 2.0036

 **********************************************************************

            Population analysis using the SCF density.

 **********************************************************************

 Orbital symmetries:
       Occupied  (A) (A) (A) (A) (A) (A) (A) (A) (A) (A) (A) (A)
                 (A) (A) (A) (A) (A) (A) (A) (A) (A) (A) (A) (A)
                 (A) (A) (A) (A) (A) (A) (A) (A) (A) (A) (A) (A)
                 (A) (A) (A) (A) (A)
       Virtual   (A) (A) (A) (A) (A) (A) (A) (A) (A) (A) (A) (A)
                 (A) (A) (A) (A) (A) (A) (A) (A) (A) (A) (A) (A)
                 (A) (A) (A) (A) (A) (A) (A) (A) (A) (A) (A) (A)
                 (A) (A) (A) (A) (A) (A) (A) (A) (A) (A) (A) (A)
                 (A) (A) (A) (A) (A) (A) (A) (A) (A) (A) (A) (A)
                 (A) (A) (A) (A) (A) (A) (A) (A) (A) (A) (A) (A)
                 (A) (A) (A) (A) (A) (A) (A) (A) (A) (A) (A) (A)
                 (A) (A) (A) (A) (A) (A) (A) (A) (A) (A) (A) (A)
                 (A) (A) (A) (A) (A) (A) (A) (A) (A) (A) (A) (A)
                 (A) (A) (A) (A) (A) (A) (A) (A) (A) (A) (A) (A)
                 (A) (A) (A) (A) (A) (A) (A) (A) (A) (A) (A) (A)
                 (A) (A) (A) (A) (A) (A) (A) (A) (A) (A) (A) (A)
                 (A) (A) (A) (A) (A) (A) (A) (A) (A) (A) (A) (A)
                 (A) (A) (A) (A) (A) (A) (A) (A) (A) (A) (A) (A)
                 (A) (A) (A) (A) (A) (A) (A) (A) (A) (A) (A) (A)
                 (A) (A) (A) (A) (A) (A) (A) (A) (A) (A) (A) (A)
                 (A) (A) (A) (A) (A) (A) (A) (A) (A) (A) (A) (A)
                 (A) (A) (A) (A) (A) (A) (A) (A) (A) (A) (A) (A)
                 (A) (A) (A) (A) (A) (A) (A) (A) (A) (A) (A) (A)
                 (A) (A) (A) (A) (A) (A) (A) (A) (A)
 The electronic state is 1-A.
 Alpha  occ. eigenvalues --  -24.72352 -24.72325 -24.72128 -14.31473 -10.43886
 Alpha  occ. eigenvalues --  -10.22943 -10.21224 -10.20354 -10.19944 -10.19757
 Alpha  occ. eigenvalues --  -10.19465  -1.32541  -1.24331  -1.24130  -0.91998
 Alpha  occ. eigenvalues --   -0.87047  -0.78022  -0.77246  -0.70902  -0.64026
 Alpha  occ. eigenvalues --   -0.63113  -0.60724  -0.60240  -0.57921  -0.51679
 Alpha  occ. eigenvalues --   -0.51116  -0.49099  -0.48484  -0.47857  -0.46955
 Alpha  occ. eigenvalues --   -0.45269  -0.45212  -0.43722  -0.42744  -0.42567
 Alpha  occ. eigenvalues --   -0.38721  -0.37479  -0.37375  -0.27932  -0.27647
 Alpha  occ. eigenvalues --   -0.27342
 Alpha virt. eigenvalues --   -0.04164  -0.03639  -0.00883   0.01013   0.01898
 Alpha virt. eigenvalues --    0.03341   0.04305   0.04634   0.05462   0.06352
 Alpha virt. eigenvalues --    0.06849   0.08101   0.08143   0.09740   0.09809
 Alpha virt. eigenvalues --    0.10917   0.11515   0.12116   0.12745   0.13146
 Alpha virt. eigenvalues --    0.13933   0.14081   0.14670   0.14921   0.15492
 Alpha virt. eigenvalues --    0.16373   0.17180   0.17527   0.18815   0.19101
 Alpha virt. eigenvalues --    0.19651   0.19768   0.20203   0.20413   0.20787
 Alpha virt. eigenvalues --    0.21425   0.21952   0.22343   0.23607   0.24379
 Alpha virt. eigenvalues --    0.24969   0.25434   0.26365   0.27492   0.27510
 Alpha virt. eigenvalues --    0.28044   0.29274   0.31382   0.33067   0.33523
 Alpha virt. eigenvalues --    0.34349   0.34748   0.35181   0.35650   0.36223
 Alpha virt. eigenvalues --    0.37386   0.40438   0.40709   0.42923   0.44285
 Alpha virt. eigenvalues --    0.45720   0.46594   0.48616   0.49857   0.51343
 Alpha virt. eigenvalues --    0.52153   0.53344   0.53752   0.54293   0.55737
 Alpha virt. eigenvalues --    0.56881   0.58748   0.58934   0.60771   0.62763
 Alpha virt. eigenvalues --    0.63594   0.64598   0.65549   0.67781   0.68849
 Alpha virt. eigenvalues --    0.69428   0.71879   0.72187   0.73665   0.76121
 Alpha virt. eigenvalues --    0.76910   0.79119   0.81653   0.82763   0.84053
 Alpha virt. eigenvalues --    0.85502   0.86287   0.88727   0.89084   0.92246
 Alpha virt. eigenvalues --    0.93096   0.94982   1.00214   1.01585   1.02042
 Alpha virt. eigenvalues --    1.03637   1.04685   1.06237   1.08106   1.11588
 Alpha virt. eigenvalues --    1.13794   1.19947   1.29489   1.33016   1.34495
 Alpha virt. eigenvalues --    1.36941   1.39181   1.40494   1.41581   1.42006
 Alpha virt. eigenvalues --    1.42918   1.44461   1.47228   1.48519   1.49198
 Alpha virt. eigenvalues --    1.50708   1.50894   1.52757   1.54228   1.54268
 Alpha virt. eigenvalues --    1.55048   1.56292   1.57870   1.63640   1.65293
 Alpha virt. eigenvalues --    1.67480   1.68340   1.69684   1.71121   1.75445
 Alpha virt. eigenvalues --    1.77930   1.79108   1.79795   1.83844   1.88230
 Alpha virt. eigenvalues --    1.88779   1.90890   1.91928   1.92886   1.94848
 Alpha virt. eigenvalues --    1.96143   1.99211   2.00454   2.00889   2.03447
 Alpha virt. eigenvalues --    2.05187   2.06161   2.11491   2.16055   2.18557
 Alpha virt. eigenvalues --    2.21576   2.31532   2.36442   2.36952   2.37432
 Alpha virt. eigenvalues --    2.40134   2.51813   2.54227   2.55951   2.59312
 Alpha virt. eigenvalues --    2.61920   2.63072   2.67375   2.67838   2.72312
 Alpha virt. eigenvalues --    2.73629   2.74389   2.78624   2.79182   2.79780
 Alpha virt. eigenvalues --    2.82665   2.86570   2.87298   2.89408   2.92576
 Alpha virt. eigenvalues --    2.92958   2.96549   2.99873   3.06264   3.07178
 Alpha virt. eigenvalues --    3.10672   3.15227   3.31366   3.33418   3.40288
 Alpha virt. eigenvalues --    3.46485   3.48116   3.58339   3.70683   3.73826
 Alpha virt. eigenvalues --    3.74348   3.74933   3.76000   3.76954   3.77267
 Alpha virt. eigenvalues --    3.81474   3.92614   3.92874   3.93617   3.96194
 Alpha virt. eigenvalues --    4.09482   4.11987   4.15385   4.16039   4.17715
 Alpha virt. eigenvalues --    4.20344   4.65256   4.75919   4.83087   4.88444
 Alpha virt. eigenvalues --    4.90430   4.93245   6.30461   6.33252   6.35159
 Alpha virt. eigenvalues --    6.37278   6.37866   6.39318   6.43313   6.73599
 Alpha virt. eigenvalues --    6.75579  23.46768  23.56642  23.89630  23.93440
 Alpha virt. eigenvalues --   24.03892  24.07303  24.16214  35.62187  66.74150
 Alpha virt. eigenvalues --   66.75256  66.80681
          Condensed to atoms (all electrons):
               1          2          3          4          5          6
     1  C   21.192197  -2.838373  -9.502525  -1.762923   0.787764  -1.883807
     2  C   -2.838373  16.092066  -2.210204  -0.866481  -2.300984  -0.217278
     3  C   -9.502525  -2.210204  21.738769  -2.285660   1.128850  -2.016936
     4  C   -1.762923  -0.866481  -2.285660   9.782492   0.185316   0.600740
     5  C    0.787764  -2.300984   1.128850   0.185316   8.705028  -1.808905
     6  C   -1.883807  -0.217278  -2.016936   0.600740  -1.808905  10.543904
     7  H   -0.014047  -0.063118   0.372434  -0.003333   0.001486  -0.007528
     8  H    0.003366   0.013295   0.049740   0.410573  -0.060237  -0.061895
     9  H   -0.033897   0.003276  -0.001884  -0.006934   0.034290   0.353560
    10  N   -0.031875   0.100186  -0.267649  -0.159554   0.179793   0.153792
    11  H    0.004185  -0.003006   0.000182   0.002999  -0.026942  -0.007225
    12  H    0.003810  -0.000945   0.003425  -0.000412  -0.029775  -0.006181
    13  H    0.347140  -0.017242   0.004748  -0.002962  -0.020764  -0.026866
    14  C    0.310608  -1.629193  -0.380272  -0.172791  -0.369064  -0.047541
    15  F   -0.042544  -0.139945  -0.005758   0.022788  -0.004279   0.092200
    16  F   -0.022683  -0.085102  -0.070753   0.091136  -0.006565   0.024838
    17  F   -0.147538   0.417480  -0.222615  -0.011420  -0.016425  -0.006915
               7          8          9         10         11         12
     1  C   -0.014047   0.003366  -0.033897  -0.031875   0.004185   0.003810
     2  C   -0.063118   0.013295   0.003276   0.100186  -0.003006  -0.000945
     3  C    0.372434   0.049740  -0.001884  -0.267649   0.000182   0.003425
     4  C   -0.003333   0.410573  -0.006934  -0.159554   0.002999  -0.000412
     5  C    0.001486  -0.060237   0.034290   0.179793  -0.026942  -0.029775
     6  C   -0.007528  -0.061895   0.353560   0.153792  -0.007225  -0.006181
     7  H    0.517528  -0.007158   0.000055  -0.000857   0.000018   0.000005
     8  H   -0.007158   0.537423  -0.000132  -0.029813   0.001062   0.001223
     9  H    0.000055  -0.000132   0.512859  -0.005960   0.000430   0.000418
    10  N   -0.000857  -0.029813  -0.005960   6.639830   0.399119   0.398905
    11  H    0.000018   0.001062   0.000430   0.399119   0.445545  -0.052749
    12  H    0.000005   0.001223   0.000418   0.398905  -0.052749   0.446504
    13  H   -0.000238   0.000053  -0.007446  -0.000197   0.000013   0.000013
    14  C    0.057793   0.008531   0.009982   0.031194  -0.000103  -0.000178
    15  F    0.000530   0.000012   0.000049   0.000086   0.000000  -0.000001
    16  F    0.003821   0.000051   0.000015   0.000072   0.000000   0.000000
    17  F    0.000308   0.000032   0.000033   0.000011  -0.000001   0.000001
              13         14         15         16         17
     1  C    0.347140   0.310608  -0.042544  -0.022683  -0.147538
     2  C   -0.017242  -1.629193  -0.139945  -0.085102   0.417480
     3  C    0.004748  -0.380272  -0.005758  -0.070753  -0.222615
     4  C   -0.002962  -0.172791   0.022788   0.091136  -0.011420
     5  C   -0.020764  -0.369064  -0.004279  -0.006565  -0.016425
     6  C   -0.026866  -0.047541   0.092200   0.024838  -0.006915
     7  H   -0.000238   0.057793   0.000530   0.003821   0.000308
     8  H    0.000053   0.008531   0.000012   0.000051   0.000032
     9  H   -0.007446   0.009982   0.000049   0.000015   0.000033
    10  N   -0.000197   0.031194   0.000086   0.000072   0.000011
    11  H    0.000013  -0.000103   0.000000   0.000000  -0.000001
    12  H    0.000013  -0.000178  -0.000001   0.000000   0.000001
    13  H    0.512081   0.062734   0.005212   0.000597   0.000194
    14  C    0.062734   7.031847   0.222643   0.216879   0.162305
    15  F    0.005212   0.222643   9.028532  -0.022107  -0.040565
    16  F    0.000597   0.216879  -0.022107   9.018153  -0.045312
    17  F    0.000194   0.162305  -0.040565  -0.045312   8.963572
 Mulliken charges:
               1
     1  C   -0.368858
     2  C   -0.254434
     3  C   -0.333892
     4  C    0.176426
     5  C   -0.378588
     6  C    0.322042
     7  H    0.142303
     8  H    0.133875
     9  H    0.141287
    10  N   -0.407085
    11  H    0.236473
    12  H    0.235936
    13  H    0.142930
    14  C    0.484626
    15  F   -0.116853
    16  F   -0.103041
    17  F   -0.053145
 Sum of Mulliken charges =   0.00000
 Mulliken charges with hydrogens summed into heavy atoms:
               1
     1  C   -0.225928
     2  C   -0.254434
     3  C   -0.191589
     4  C    0.310300
     5  C   -0.378588
     6  C    0.463329
    10  N    0.065324
    14  C    0.484626
    15  F   -0.116853
    16  F   -0.103041
    17  F   -0.053145
 Electronic spatial extent (au):  <R**2>=           1910.9081
 Charge=              0.0000 electrons
 Dipole moment (field-independent basis, Debye):
    X=              2.4215    Y=             -1.2413    Z=              0.0050  Tot=              2.7212
 Quadrupole moment (field-independent basis, Debye-Ang):
   XX=            -64.0629   YY=            -58.1703   ZZ=            -64.6628
   XY=             -6.3648   XZ=              0.0169   YZ=              0.0049
 Traceless Quadrupole moment (field-independent basis, Debye-Ang):
   XX=             -1.7643   YY=              4.1284   ZZ=             -2.3642
   XY=             -6.3648   XZ=              0.0169   YZ=              0.0049
 Octapole moment (field-independent basis, Debye-Ang**2):
  XXX=            -22.8393  YYY=             -0.3507  ZZZ=             -1.4284  XYY=             -9.7307
  XXY=            -29.0893  XXZ=              0.0395  XZZ=             -7.2024  YZZ=             -0.8483
  YYZ=              1.3470  XYZ=              0.0119
 Hexadecapole moment (field-independent basis, Debye-Ang**3):
 XXXX=          -1752.2500 YYYY=           -361.2710 ZZZZ=           -142.3186 XXXY=           -132.1504
 XXXZ=              0.5725 YYYX=             -2.3433 YYYZ=             -0.0705 ZZZX=              3.0031
 ZZZY=              0.0279 XXYY=           -366.6091 XXZZ=           -300.4784 YYZZ=            -96.0453
 XXYZ=              0.1897 YYXZ=             -2.9005 ZZXY=             -5.7409
 N-N= 6.132109455440D+02 E-N=-2.696615387234D+03  KE= 6.225820954876D+02
 There are a total of      139996 grid points.
 ElSum from          density=       81.9999793953
 ElSum from atomic densities=       81.9997449226

 Hirshfeld populations at iteration   1 (CX, CA, CB, DipXYZ):
               1          2          3          4          5          6
     1  C    0.000000   3.020416   3.020416  -0.015384   0.061036   0.002051
     2  C    0.000000   3.017347   3.017347  -0.051011   0.000485   0.006241
     3  C    0.000000   3.021518   3.021518  -0.015659  -0.054517   0.002103
     4  C    0.000000   3.025950   3.025950   0.029825  -0.052111  -0.000607
     5  C    0.000000   2.973723   2.973723   0.107544  -0.001034  -0.000564
     6  C    0.000000   3.020229   3.020229   0.021637   0.053226  -0.000484
     7  H    0.000001   0.473383   0.473383  -0.060330  -0.149148   0.003495
     8  H    0.000001   0.474976   0.474976   0.070250  -0.140853   0.000173
     9  H    0.000001   0.472010   0.472010   0.059481   0.147801   0.000100
    10  N    0.000000   3.617586   3.617586  -0.090081  -0.178348   0.000482
    11  H    0.000001   0.444689   0.444689   0.068299  -0.097473   0.166183
    12  H    0.000001   0.444729   0.444729   0.068061  -0.098200  -0.165737
    13  H    0.000001   0.474367   0.474367  -0.062096   0.151461   0.003538
    14  C    0.000000   2.883661   2.883661  -0.075337   0.000138  -0.000124
    15  F    0.000007   4.543020   4.543020   0.063838  -0.076713   0.044827
    16  F    0.000008   4.544413   4.544413   0.057492   0.073689   0.057262
    17  F    0.000009   4.547971   4.547971   0.045343   0.008046  -0.097704
       Tot   0.000032  40.999990  40.999990   0.221873  -0.352515   0.021233

 Dip from Atomic Chgs              0.730881  -0.135955  -0.019261
         Total Dipole              0.952754  -0.488470   0.001972

 Hirshfeld charges, spin densities, dipoles, and CM5 charges using IRadAn=      4:
              Q-H        S-H        Dx         Dy         Dz        Q-CM5   
     1  C   -0.040832   0.000000  -0.015384   0.061036   0.002051  -0.095240
     2  C   -0.034694   0.000000  -0.051011   0.000485   0.006241  -0.046332
     3  C   -0.043036   0.000000  -0.015659  -0.054517   0.002103  -0.093899
     4  C   -0.051900   0.000000   0.029825  -0.052111  -0.000607  -0.099319
     5  C    0.052553   0.000000   0.107544  -0.001034  -0.000564   0.090568
     6  C   -0.040458   0.000000   0.021637   0.053226  -0.000484  -0.087079
     7  H    0.053234   0.000000  -0.060330  -0.149148   0.003495   0.106144
     8  H    0.050047   0.000000   0.070250  -0.140853   0.000173   0.106530
     9  H    0.055980   0.000000   0.059481   0.147801   0.000100   0.112481
    10  N   -0.235172   0.000000  -0.090081  -0.178348   0.000482  -0.680718
    11  H    0.110622   0.000000   0.068299  -0.097473   0.166183   0.304584
    12  H    0.110542   0.000000   0.068061  -0.098200  -0.165737   0.304506
    13  H    0.051266   0.000000  -0.062096   0.151461   0.003538   0.107952
    14  C    0.232678   0.000000  -0.075337   0.000138  -0.000124   0.176138
    15  F   -0.086040   0.000000   0.063838  -0.076713   0.044827  -0.063900
    16  F   -0.088827   0.000000   0.057492   0.073689   0.057262  -0.067033
    17  F   -0.095943   0.000000   0.045343   0.008046  -0.097704  -0.075362
       Tot   0.000021   0.000000   0.221873  -0.352515   0.021233   0.000021
 Hirshfeld charges with hydrogens summed into heavy atoms:
              Q-H       Q-CM5   
     1  C    0.010434   0.012712
     2  C   -0.034694  -0.046332
     3  C    0.010198   0.012245
     4  C   -0.001853   0.007210
     5  C    0.052553   0.090568
     6  C    0.015521   0.025402
    10  N   -0.014008  -0.071628
    14  C    0.232678   0.176138
    15  F   -0.086040  -0.063900
    16  F   -0.088827  -0.067033
    17  F   -0.095943  -0.075362
 
 EQQ= 0.000000000000E+00 EQD= 0.000000000000E+00 EDD= 0.727131861594E-02
 EQQ+QD+DD= 0.727131861594E-02
 
          MBS Condensed to atoms (all electrons):
               1          2          3          4          5          6
     1  C    4.823412   0.501084  -0.031225  -0.010771  -0.028804   0.502714
     2  C    0.501084   4.840689   0.500916  -0.029891  -0.012085  -0.029558
     3  C   -0.031225   0.500916   4.824062   0.501889  -0.028703  -0.010681
     4  C   -0.010771  -0.029891   0.501889   4.852417   0.500800  -0.036456
     5  C   -0.028804  -0.012085  -0.028703   0.500800   4.717500   0.503414
     6  C    0.502714  -0.029558  -0.010681  -0.036456   0.503414   4.830913
     7  H    0.001448  -0.025546   0.384634  -0.023670   0.001377   0.000027
     8  H    0.000052   0.001432  -0.024214   0.384932  -0.025405   0.001424
     9  H   -0.023835   0.001422   0.000044   0.001462  -0.024552   0.384113
    10  N    0.000616   0.000013   0.000650  -0.028749   0.341052  -0.030252
    11  H   -0.000045   0.000003  -0.000003  -0.001944  -0.029436   0.001166
    12  H   -0.000045   0.000004  -0.000003  -0.001957  -0.029443   0.001177
    13  H    0.390809  -0.026303   0.001500   0.000034   0.001443  -0.024446
    14  C   -0.024122   0.362851  -0.024198   0.000801   0.000013   0.000808
    15  F   -0.001606  -0.020595   0.000182  -0.000001   0.000000   0.000006
    16  F    0.000174  -0.020678  -0.001260   0.000004   0.000000  -0.000001
    17  F   -0.000069  -0.020782  -0.000159  -0.000002   0.000000  -0.000001
               7          8          9         10         11         12
     1  C    0.001448   0.000052  -0.023835   0.000616  -0.000045  -0.000045
     2  C   -0.025546   0.001432   0.001422   0.000013   0.000003   0.000004
     3  C    0.384634  -0.024214   0.000044   0.000650  -0.000003  -0.000003
     4  C   -0.023670   0.384932   0.001462  -0.028749  -0.001944  -0.001957
     5  C    0.001377  -0.025405  -0.024552   0.341052  -0.029436  -0.029443
     6  C    0.000027   0.001424   0.384113  -0.030252   0.001166   0.001177
     7  H    0.548237  -0.003882   0.000002  -0.000011   0.000000   0.000000
     8  H   -0.003882   0.559142  -0.000042  -0.002153   0.000696   0.000702
     9  H    0.000002  -0.000042   0.541897  -0.000782   0.000052   0.000052
    10  N   -0.000011  -0.002153  -0.000782   6.662509   0.333043   0.333020
    11  H    0.000000   0.000696   0.000052   0.333043   0.467489  -0.030555
    12  H    0.000000   0.000702   0.000052   0.333020  -0.030555   0.467612
    13  H   -0.000044   0.000002  -0.003922  -0.000011   0.000001   0.000001
    14  C   -0.003534  -0.000015  -0.000015   0.000000   0.000000   0.000000
    15  F    0.000011   0.000000   0.000000   0.000000   0.000000   0.000000
    16  F    0.001172   0.000000   0.000000   0.000000   0.000000   0.000000
    17  F    0.000094   0.000000   0.000000   0.000000   0.000000   0.000000
              13         14         15         16         17
     1  C    0.390809  -0.024122  -0.001606   0.000174  -0.000069
     2  C   -0.026303   0.362851  -0.020595  -0.020678  -0.020782
     3  C    0.001500  -0.024198   0.000182  -0.001260  -0.000159
     4  C    0.000034   0.000801  -0.000001   0.000004  -0.000002
     5  C    0.001443   0.000013   0.000000   0.000000   0.000000
     6  C   -0.024446   0.000808   0.000006  -0.000001  -0.000001
     7  H   -0.000044  -0.003534   0.000011   0.001172   0.000094
     8  H    0.000002  -0.000015   0.000000   0.000000   0.000000
     9  H   -0.003922  -0.000015   0.000000   0.000000   0.000000
    10  N   -0.000011   0.000000   0.000000   0.000000   0.000000
    11  H    0.000001   0.000000   0.000000   0.000000   0.000000
    12  H    0.000001   0.000000   0.000000   0.000000   0.000000
    13  H    0.532574  -0.003747   0.001605   0.000014   0.000066
    14  C   -0.003747   4.333636   0.224658   0.223900   0.220696
    15  F    0.001605   0.224658   9.074468  -0.010422  -0.010649
    16  F    0.000014   0.223900  -0.010422   9.075948  -0.010690
    17  F    0.000066   0.220696  -0.010649  -0.010690   9.078880
 MBS Mulliken charges:
               1
     1  C   -0.099786
     2  C   -0.022974
     3  C   -0.093431
     4  C   -0.108899
     5  C    0.112828
     6  C   -0.094368
     7  H    0.119687
     8  H    0.107330
     9  H    0.124102
    10  N   -0.608946
    11  H    0.259533
    12  H    0.259435
    13  H    0.130425
    14  C    0.688266
    15  F   -0.257658
    16  F   -0.258161
    17  F   -0.257385
 Sum of MBS Mulliken charges =   0.00000
 MBS Mulliken charges with hydrogens summed into heavy atoms:
               1
     1  C    0.030640
     2  C   -0.022974
     3  C    0.026256
     4  C   -0.001569
     5  C    0.112828
     6  C    0.029734
    10  N   -0.089978
    14  C    0.688266
    15  F   -0.257658
    16  F   -0.258161
    17  F   -0.257385
 Breneman (CHELPG) radii used.
 Generate Potential Derived Charges using the Breneman model, NDens= 1.
 Grid spacing= 0.300 Box extension= 2.800
 NStep X,Y,Z=   42     35     26   Total possible points=       38220
 Number of Points to Fit=   11985

 **********************************************************************

            Electrostatic Properties Using The SCF Density

 **********************************************************************

       Atomic Center    1 is at   0.294272  1.223607  0.000533
       Atomic Center    2 is at  -0.388518  0.006944  0.000426
       Atomic Center    3 is at   0.323339 -1.192423  0.000863
       Atomic Center    4 is at   1.718663 -1.175470  0.000207
       Atomic Center    5 is at   2.401221  0.040939 -0.000165
       Atomic Center    6 is at   1.688998  1.240584  0.000395
       Atomic Center    7 is at  -0.214773 -2.151449  0.001412
       Atomic Center    8 is at   2.279722 -2.121255  0.000492
       Atomic Center    9 is at   2.227302  2.199415  0.000299
       Atomic Center   10 is at   3.871107  0.059243 -0.000866
       Atomic Center   11 is at   4.210651 -0.406142  0.816524
       Atomic Center   12 is at   4.209918 -0.409803 -0.816465
       Atomic Center   13 is at  -0.251979  2.143667  0.000721
       Atomic Center   14 is at  -1.928404 -0.011725 -0.000174
       Atomic Center   15 is at  -2.392066  1.130085 -0.551342
       Atomic Center   16 is at  -2.365352 -1.067948 -0.718485
       Atomic Center   17 is at  -2.377696 -0.113679  1.268779
   11985 points will be used for fitting atomic charges
 Fitting point charges to electrostatic potential
 Charges from ESP fit, RMS=   0.00392 RRMS=   0.29927:
 ESP charges:
               1
     1  C   -0.066953
     2  C   -0.174439
     3  C   -0.010822
     4  C   -0.317096
     5  C    0.536743
     6  C   -0.209043
     7  H    0.107892
     8  H    0.127278
     9  H    0.124300
    10  N   -0.974804
    11  H    0.360457
    12  H    0.359975
    13  H    0.117168
    14  C    0.820757
    15  F   -0.260842
    16  F   -0.270387
    17  F   -0.270183
 Sum of ESP charges =   0.00000
 ESP charges with hydrogens summed into heavy atoms:
               1
     1  C    0.050214
     2  C   -0.174439
     3  C    0.097069
     4  C   -0.189818
     5  C    0.536743
     6  C   -0.084742
    10  N   -0.254372
    14  C    0.820757
    15  F   -0.260842
    16  F   -0.270387
    17  F   -0.270183
 Charge=   0.00000 Dipole=     2.5577    -1.1960    -0.0174 Tot=     2.8236
 -----------------------------------------------------------------

              Electrostatic Properties (Atomic Units)

 -----------------------------------------------------------------
    Center     Electric         -------- Electric Field --------
               Potential          X             Y             Z
 -----------------------------------------------------------------
    1 Atom    -14.752332
    2 Atom    -14.738695
    3 Atom    -14.747644
    4 Atom    -14.754138
    5 Atom    -14.720071
    6 Atom    -14.757050
    7 Atom     -1.083941
    8 Atom     -1.082977
    9 Atom     -1.091743
   10 Atom    -18.397527
   11 Atom     -1.043539
   12 Atom     -1.043590
   13 Atom     -1.089520
   14 Atom    -14.502040
   15 Atom    -26.559921
   16 Atom    -26.560239
   17 Atom    -26.562472
 -----------------------------------------------------------------
 ******************************Gaussian NBO Version 3.1******************************
             N A T U R A L   A T O M I C   O R B I T A L   A N D
          N A T U R A L   B O N D   O R B I T A L   A N A L Y S I S
 ******************************Gaussian NBO Version 3.1******************************
       /RESON  / : Allow strongly delocalized NBO set

 Analyzing the SCF density

 Job title: Title Card Required                                             

 Storage needed:    233084 in NPA ( 536869297 available)


 NATURAL POPULATIONS:  Natural atomic orbital occupancies 
                                                          
   NAO  Atom  No  lang   Type(AO)    Occupancy      Energy
 ----------------------------------------------------------
     1    C    1  S      Cor( 1S)     1.99908     -10.04938
     2    C    1  S      Val( 2S)     0.94314      -0.17455
     3    C    1  S      Ryd( 3S)     0.00153       0.72734
     4    C    1  S      Ryd( 4S)     0.00012       1.05422
     5    C    1  S      Ryd( 5S)     0.00001      22.76641
     6    C    1  px     Val( 2p)     1.09856      -0.07025
     7    C    1  px     Ryd( 4p)     0.00451       0.92624
     8    C    1  px     Ryd( 3p)     0.00049       0.45377
     9    C    1  px     Ryd( 5p)     0.00016       3.14199
    10    C    1  py     Val( 2p)     1.14764      -0.07269
    11    C    1  py     Ryd( 4p)     0.00578       0.94203
    12    C    1  py     Ryd( 3p)     0.00032       0.32272
    13    C    1  py     Ryd( 5p)     0.00010       3.17609
    14    C    1  pz     Val( 2p)     0.97280      -0.12699
    15    C    1  pz     Ryd( 4p)     0.00094       0.51471
    16    C    1  pz     Ryd( 3p)     0.00037       0.31907
    17    C    1  pz     Ryd( 5p)     0.00001       2.69040
    18    C    1  dxy    Ryd( 3d)     0.00078       2.51302
    19    C    1  dxz    Ryd( 3d)     0.00052       1.64021
    20    C    1  dyz    Ryd( 3d)     0.00045       1.62783
    21    C    1  dx2y2  Ryd( 3d)     0.00061       2.57640
    22    C    1  dz2    Ryd( 3d)     0.00042       2.04474

    23    C    2  S      Cor( 1S)     1.99888     -10.07136
    24    C    2  S      Val( 2S)     0.91274      -0.18167
    25    C    2  S      Ryd( 3S)     0.00122       0.77116
    26    C    2  S      Ryd( 4S)     0.00014       1.26925
    27    C    2  S      Ryd( 5S)     0.00001      22.71779
    28    C    2  px     Val( 2p)     1.03900      -0.11241
    29    C    2  px     Ryd( 4p)     0.00571       1.11195
    30    C    2  px     Ryd( 3p)     0.00016       0.57979
    31    C    2  px     Ryd( 5p)     0.00016       3.25467
    32    C    2  py     Val( 2p)     1.10698      -0.08926
    33    C    2  py     Ryd( 4p)     0.00440       1.01172
    34    C    2  py     Ryd( 3p)     0.00062       0.55746
    35    C    2  py     Ryd( 5p)     0.00018       3.28655
    36    C    2  pz     Val( 2p)     1.06110      -0.13680
    37    C    2  pz     Ryd( 4p)     0.00204       0.56774
    38    C    2  pz     Ryd( 3p)     0.00033       0.43461
    39    C    2  pz     Ryd( 5p)     0.00002       2.69941
    40    C    2  dxy    Ryd( 3d)     0.00064       2.57495
    41    C    2  dxz    Ryd( 3d)     0.00046       1.65913
    42    C    2  dyz    Ryd( 3d)     0.00065       1.65267
    43    C    2  dx2y2  Ryd( 3d)     0.00104       2.47033
    44    C    2  dz2    Ryd( 3d)     0.00054       2.05461

    45    C    3  S      Cor( 1S)     1.99907     -10.05561
    46    C    3  S      Val( 2S)     0.94714      -0.18239
    47    C    3  S      Ryd( 3S)     0.00186       0.71621
    48    C    3  S      Ryd( 4S)     0.00015       1.16743
    49    C    3  S      Ryd( 5S)     0.00001      22.67976
    50    C    3  px     Val( 2p)     1.09310      -0.07233
    51    C    3  px     Ryd( 4p)     0.00468       0.90044
    52    C    3  px     Ryd( 3p)     0.00044       0.45334
    53    C    3  px     Ryd( 5p)     0.00016       3.16422
    54    C    3  py     Val( 2p)     1.14986      -0.08013
    55    C    3  py     Ryd( 4p)     0.00619       0.92676
    56    C    3  py     Ryd( 3p)     0.00030       0.31832
    57    C    3  py     Ryd( 5p)     0.00010       3.18135
    58    C    3  pz     Val( 2p)     0.97433      -0.12848
    59    C    3  pz     Ryd( 4p)     0.00089       0.50672
    60    C    3  pz     Ryd( 3p)     0.00035       0.32286
    61    C    3  pz     Ryd( 5p)     0.00002       2.68667
    62    C    3  dxy    Ryd( 3d)     0.00077       2.48808
    63    C    3  dxz    Ryd( 3d)     0.00053       1.63862
    64    C    3  dyz    Ryd( 3d)     0.00045       1.61815
    65    C    3  dx2y2  Ryd( 3d)     0.00063       2.55153
    66    C    3  dz2    Ryd( 3d)     0.00042       2.03976

    67    C    4  S      Cor( 1S)     1.99901     -10.04937
    68    C    4  S      Val( 2S)     0.95478      -0.17991
    69    C    4  S      Ryd( 3S)     0.00200       0.76862
    70    C    4  S      Ryd( 4S)     0.00015       1.38499
    71    C    4  S      Ryd( 5S)     0.00001      22.41088
    72    C    4  px     Val( 2p)     1.09333      -0.07091
    73    C    4  px     Ryd( 4p)     0.00646       0.88037
    74    C    4  px     Ryd( 3p)     0.00040       0.38638
    75    C    4  px     Ryd( 5p)     0.00014       3.14407
    76    C    4  py     Val( 2p)     1.15127      -0.08038
    77    C    4  py     Ryd( 4p)     0.00496       0.95533
    78    C    4  py     Ryd( 3p)     0.00037       0.32545
    79    C    4  py     Ryd( 5p)     0.00011       3.15416
    80    C    4  pz     Val( 2p)     1.00562      -0.12951
    81    C    4  pz     Ryd( 4p)     0.00106       0.48719
    82    C    4  pz     Ryd( 3p)     0.00029       0.28986
    83    C    4  pz     Ryd( 5p)     0.00001       2.69248
    84    C    4  dxy    Ryd( 3d)     0.00073       2.48672
    85    C    4  dxz    Ryd( 3d)     0.00046       1.63666
    86    C    4  dyz    Ryd( 3d)     0.00047       1.61699
    87    C    4  dx2y2  Ryd( 3d)     0.00069       2.54034
    88    C    4  dz2    Ryd( 3d)     0.00041       2.04787

    89    C    5  S      Cor( 1S)     1.99889     -10.09111
    90    C    5  S      Val( 2S)     0.86289      -0.15575
    91    C    5  S      Ryd( 3S)     0.00109       0.67335
    92    C    5  S      Ryd( 4S)     0.00015       0.99003
    93    C    5  S      Ryd( 5S)     0.00001      22.77691
    94    C    5  px     Val( 2p)     0.89771      -0.06209
    95    C    5  px     Ryd( 4p)     0.00618       1.07091
    96    C    5  px     Ryd( 3p)     0.00042       0.60515
    97    C    5  px     Ryd( 5p)     0.00013       3.00226
    98    C    5  py     Val( 2p)     1.08480      -0.06713
    99    C    5  py     Ryd( 4p)     0.00495       0.96055
   100    C    5  py     Ryd( 3p)     0.00091       0.62186
   101    C    5  py     Ryd( 5p)     0.00013       2.92061
   102    C    5  pz     Val( 2p)     0.98269      -0.12586
   103    C    5  pz     Ryd( 4p)     0.00149       0.56473
   104    C    5  pz     Ryd( 3p)     0.00029       0.55432
   105    C    5  pz     Ryd( 5p)     0.00002       2.41671
   106    C    5  dxy    Ryd( 3d)     0.00144       2.58854
   107    C    5  dxz    Ryd( 3d)     0.00095       1.60911
   108    C    5  dyz    Ryd( 3d)     0.00056       1.65502
   109    C    5  dx2y2  Ryd( 3d)     0.00122       2.43222
   110    C    5  dz2    Ryd( 3d)     0.00046       2.03611

   111    C    6  S      Cor( 1S)     1.99902     -10.04671
   112    C    6  S      Val( 2S)     0.95597      -0.17595
   113    C    6  S      Ryd( 3S)     0.00167       0.80953
   114    C    6  S      Ryd( 4S)     0.00025       0.87271
   115    C    6  S      Ryd( 5S)     0.00001      22.90361
   116    C    6  px     Val( 2p)     1.08429      -0.06170
   117    C    6  px     Ryd( 4p)     0.00565       0.88791
   118    C    6  px     Ryd( 3p)     0.00041       0.39952
   119    C    6  px     Ryd( 5p)     0.00014       3.11592
   120    C    6  py     Val( 2p)     1.15829      -0.07651
   121    C    6  py     Ryd( 4p)     0.00559       0.97697
   122    C    6  py     Ryd( 3p)     0.00028       0.30944
   123    C    6  py     Ryd( 5p)     0.00008       3.16247
   124    C    6  pz     Val( 2p)     0.98688      -0.12293
   125    C    6  pz     Ryd( 4p)     0.00096       0.51316
   126    C    6  pz     Ryd( 3p)     0.00026       0.31424
   127    C    6  pz     Ryd( 5p)     0.00002       2.66914
   128    C    6  dxy    Ryd( 3d)     0.00076       2.49852
   129    C    6  dxz    Ryd( 3d)     0.00046       1.64392
   130    C    6  dyz    Ryd( 3d)     0.00049       1.61906
   131    C    6  dx2y2  Ryd( 3d)     0.00074       2.54607
   132    C    6  dz2    Ryd( 3d)     0.00040       2.05297

   133    H    7  S      Val( 1S)     0.77350       0.02547
   134    H    7  S      Ryd( 2S)     0.00083       0.71259
   135    H    7  S      Ryd( 3S)     0.00016       1.95165
   136    H    7  px     Ryd( 2p)     0.00023       2.14804
   137    H    7  py     Ryd( 2p)     0.00039       2.51161
   138    H    7  pz     Ryd( 2p)     0.00019       1.58574

   139    H    8  S      Val( 1S)     0.78420       0.01737
   140    H    8  S      Ryd( 2S)     0.00096       0.78586
   141    H    8  S      Ryd( 3S)     0.00016       1.88822
   142    H    8  px     Ryd( 2p)     0.00020       2.15611
   143    H    8  py     Ryd( 2p)     0.00036       2.48035
   144    H    8  pz     Ryd( 2p)     0.00018       1.57959

   145    H    9  S      Val( 1S)     0.77043       0.03415
   146    H    9  S      Ryd( 2S)     0.00090       0.91491
   147    H    9  S      Ryd( 3S)     0.00017       1.78018
   148    H    9  px     Ryd( 2p)     0.00022       2.14835
   149    H    9  py     Ryd( 2p)     0.00034       2.51154
   150    H    9  pz     Ryd( 2p)     0.00015       1.58911

   151    N   10  S      Cor( 1S)     1.99950     -14.13945
   152    N   10  S      Val( 2S)     1.40268      -0.58045
   153    N   10  S      Ryd( 3S)     0.00064       0.62505
   154    N   10  S      Ryd( 4S)     0.00014       1.21105
   155    N   10  S      Ryd( 5S)     0.00000      35.43271
   156    N   10  px     Val( 2p)     1.29301      -0.20562
   157    N   10  px     Ryd( 3p)     0.00314       0.48254
   158    N   10  px     Ryd( 4p)     0.00052       0.64528
   159    N   10  px     Ryd( 5p)     0.00001       4.10977
   160    N   10  py     Val( 2p)     1.79039      -0.23436
   161    N   10  py     Ryd( 3p)     0.00934       0.49322
   162    N   10  py     Ryd( 4p)     0.00014       0.66410
   163    N   10  py     Ryd( 5p)     0.00002       3.94442
   164    N   10  pz     Val( 2p)     1.34507      -0.19547
   165    N   10  pz     Ryd( 3p)     0.00262       0.45868
   166    N   10  pz     Ryd( 4p)     0.00003       0.60338
   167    N   10  pz     Ryd( 5p)     0.00003       4.16511
   168    N   10  dxy    Ryd( 3d)     0.00081       2.45706
   169    N   10  dxz    Ryd( 3d)     0.00027       2.50569
   170    N   10  dyz    Ryd( 3d)     0.00163       2.73509
   171    N   10  dx2y2  Ryd( 3d)     0.00124       2.60977
   172    N   10  dz2    Ryd( 3d)     0.00057       2.59429

   173    H   11  S      Val( 1S)     0.63535       0.08715
   174    H   11  S      Ryd( 2S)     0.00061       0.79570
   175    H   11  S      Ryd( 3S)     0.00023       2.06155
   176    H   11  px     Ryd( 2p)     0.00047       1.84352
   177    H   11  py     Ryd( 2p)     0.00100       1.82300
   178    H   11  pz     Ryd( 2p)     0.00030       2.37240

   179    H   12  S      Val( 1S)     0.63542       0.08714
   180    H   12  S      Ryd( 2S)     0.00062       0.79278
   181    H   12  S      Ryd( 3S)     0.00023       2.06544
   182    H   12  px     Ryd( 2p)     0.00046       1.84267
   183    H   12  py     Ryd( 2p)     0.00100       1.82572
   184    H   12  pz     Ryd( 2p)     0.00030       2.36981

   185    H   13  S      Val( 1S)     0.77580       0.04644
   186    H   13  S      Ryd( 2S)     0.00075       0.76257
   187    H   13  S      Ryd( 3S)     0.00018       1.89858
   188    H   13  px     Ryd( 2p)     0.00024       2.19124
   189    H   13  py     Ryd( 2p)     0.00037       2.54077
   190    H   13  pz     Ryd( 2p)     0.00018       1.60341

   191    C   14  S      Cor( 1S)     1.99918     -10.35148
   192    C   14  S      Val( 2S)     0.78293      -0.27542
   193    C   14  S      Ryd( 4S)     0.00380       1.03558
   194    C   14  S      Ryd( 3S)     0.00054       0.61484
   195    C   14  S      Ryd( 5S)     0.00002      22.76782
   196    C   14  px     Val( 2p)     0.90405      -0.16319
   197    C   14  px     Ryd( 4p)     0.00820       1.19049
   198    C   14  px     Ryd( 3p)     0.00075       0.42866
   199    C   14  px     Ryd( 5p)     0.00021       1.81623
   200    C   14  py     Val( 2p)     0.58646      -0.13495
   201    C   14  py     Ryd( 4p)     0.01266       1.19006
   202    C   14  py     Ryd( 3p)     0.00083       0.48935
   203    C   14  py     Ryd( 5p)     0.00010       2.16938
   204    C   14  pz     Val( 2p)     0.59719      -0.12901
   205    C   14  pz     Ryd( 4p)     0.01077       1.07035
   206    C   14  pz     Ryd( 3p)     0.00083       0.48788
   207    C   14  pz     Ryd( 5p)     0.00006       2.28749
   208    C   14  dxy    Ryd( 3d)     0.00351       1.87235
   209    C   14  dxz    Ryd( 3d)     0.00395       1.76334
   210    C   14  dyz    Ryd( 3d)     0.00529       1.97474
   211    C   14  dx2y2  Ryd( 3d)     0.00387       2.14579
   212    C   14  dz2    Ryd( 3d)     0.00490       2.00726

   213    F   15  S      Cor( 1S)     1.99992     -24.46038
   214    F   15  S      Val( 2S)     1.85095      -1.32103
   215    F   15  S      Ryd( 3S)     0.00046       1.09529
   216    F   15  S      Ryd( 4S)     0.00027       1.99942
   217    F   15  S      Ryd( 5S)     0.00000      66.57822
   218    F   15  px     Val( 2p)     1.91652      -0.45433
   219    F   15  px     Ryd( 3p)     0.00132       0.51355
   220    F   15  px     Ryd( 4p)     0.00010       1.37348
   221    F   15  px     Ryd( 5p)     0.00001       6.23936
   222    F   15  py     Val( 2p)     1.69913      -0.46248
   223    F   15  py     Ryd( 3p)     0.00072       0.45309
   224    F   15  py     Ryd( 4p)     0.00018       1.41087
   225    F   15  py     Ryd( 5p)     0.00005       6.27427
   226    F   15  pz     Val( 2p)     1.88186      -0.45443
   227    F   15  pz     Ryd( 3p)     0.00065       0.45486
   228    F   15  pz     Ryd( 4p)     0.00007       1.36774
   229    F   15  pz     Ryd( 5p)     0.00002       6.19538
   230    F   15  dxy    Ryd( 3d)     0.00067       3.94010
   231    F   15  dxz    Ryd( 3d)     0.00023       3.80378
   232    F   15  dyz    Ryd( 3d)     0.00079       3.98583
   233    F   15  dx2y2  Ryd( 3d)     0.00068       3.94965
   234    F   15  dz2    Ryd( 3d)     0.00037       3.84572

   235    F   16  S      Cor( 1S)     1.99992     -24.46002
   236    F   16  S      Val( 2S)     1.85127      -1.32087
   237    F   16  S      Ryd( 3S)     0.00048       0.98960
   238    F   16  S      Ryd( 4S)     0.00030       2.05361
   239    F   16  S      Ryd( 5S)     0.00000      66.57508
   240    F   16  px     Val( 2p)     1.92086      -0.45369
   241    F   16  px     Ryd( 3p)     0.00135       0.50585
   242    F   16  px     Ryd( 4p)     0.00010       1.37259
   243    F   16  px     Ryd( 5p)     0.00001       6.24405
   244    F   16  py     Val( 2p)     1.73367      -0.46069
   245    F   16  py     Ryd( 3p)     0.00071       0.45728
   246    F   16  py     Ryd( 4p)     0.00017       1.39265
   247    F   16  py     Ryd( 5p)     0.00004       6.26829
   248    F   16  pz     Val( 2p)     1.84234      -0.45576
   249    F   16  pz     Ryd( 3p)     0.00064       0.45381
   250    F   16  pz     Ryd( 4p)     0.00009       1.37020
   251    F   16  pz     Ryd( 5p)     0.00002       6.21719
   252    F   16  dxy    Ryd( 3d)     0.00056       3.90451
   253    F   16  dxz    Ryd( 3d)     0.00031       3.82871
   254    F   16  dyz    Ryd( 3d)     0.00090       4.04643
   255    F   16  dx2y2  Ryd( 3d)     0.00056       3.90818
   256    F   16  dz2    Ryd( 3d)     0.00041       3.84030

   257    F   17  S      Cor( 1S)     1.99992     -24.45772
   258    F   17  S      Val( 2S)     1.85264      -1.31930
   259    F   17  S      Ryd( 3S)     0.00043       0.96414
   260    F   17  S      Ryd( 4S)     0.00038       2.11443
   261    F   17  S      Ryd( 5S)     0.00000      66.58593
   262    F   17  px     Val( 2p)     1.91710      -0.45107
   263    F   17  px     Ryd( 3p)     0.00134       0.48076
   264    F   17  px     Ryd( 4p)     0.00007       1.41363
   265    F   17  px     Ryd( 5p)     0.00001       6.18557
   266    F   17  py     Val( 2p)     1.93387      -0.44961
   267    F   17  py     Ryd( 3p)     0.00065       0.49627
   268    F   17  py     Ryd( 4p)     0.00004       1.39355
   269    F   17  py     Ryd( 5p)     0.00000       6.15768
   270    F   17  pz     Val( 2p)     1.64155      -0.46206
   271    F   17  pz     Ryd( 3p)     0.00076       0.44017
   272    F   17  pz     Ryd( 4p)     0.00019       1.44473
   273    F   17  pz     Ryd( 5p)     0.00007       6.23481
   274    F   17  dxy    Ryd( 3d)     0.00009       3.76696
   275    F   17  dxz    Ryd( 3d)     0.00079       3.97747
   276    F   17  dyz    Ryd( 3d)     0.00060       3.87388
   277    F   17  dx2y2  Ryd( 3d)     0.00009       3.78413
   278    F   17  dz2    Ryd( 3d)     0.00121       4.14095

 WARNING:  1 low occupancy (<1.9990e) core orbital  found on  C    2
           1 low occupancy (<1.9990e) core orbital  found on  C    5

 WARNING:  Population inversion found on atom  C    1
           Population inversion found on atom  C    2
           Population inversion found on atom  C    3
           Population inversion found on atom  C    4
           Population inversion found on atom  C    5
           Population inversion found on atom  C    6
           Population inversion found on atom  C   14


 Summary of Natural Population Analysis:                  
                                                          
                                       Natural Population 
                Natural  -----------------------------------------------
    Atom  No    Charge         Core      Valence    Rydberg      Total
 -----------------------------------------------------------------------
      C    1   -0.17833      1.99908     4.16214    0.01711     6.17833
      C    2   -0.13700      1.99888     4.11981    0.01831     6.13700
      C    3   -0.18146      1.99907     4.16442    0.01797     6.18146
      C    4   -0.22274      1.99901     4.20500    0.01873     6.22274
      C    5    0.15261      1.99889     3.82809    0.02040     5.84739
      C    6   -0.20262      1.99902     4.18543    0.01817     6.20262
      H    7    0.22471      0.00000     0.77350    0.00179     0.77529
      H    8    0.21393      0.00000     0.78420    0.00187     0.78607
      H    9    0.22779      0.00000     0.77043    0.00178     0.77221
      N   10   -0.85179      1.99950     5.83116    0.02114     7.85179
      H   11    0.36205      0.00000     0.63535    0.00260     0.63795
      H   12    0.36197      0.00000     0.63542    0.00261     0.63803
      H   13    0.22248      0.00000     0.77580    0.00172     0.77752
      C   14    1.06990      1.99918     2.87063    0.06030     4.93010
      F   15   -0.35497      1.99992     7.34846    0.00659     9.35497
      F   16   -0.35473      1.99992     7.34815    0.00666     9.35473
      F   17   -0.35180      1.99992     7.34517    0.00672     9.35180
 =======================================================================
   * Total *    0.00000     21.99236    59.78316    0.22447    82.00000

                                 Natural Population      
 --------------------------------------------------------
   Core                      21.99236 ( 99.9653% of  22)
   Valence                   59.78316 ( 99.6386% of  60)
   Natural Minimal Basis     81.77553 ( 99.7263% of  82)
   Natural Rydberg Basis      0.22447 (  0.2737% of  82)
 --------------------------------------------------------

    Atom  No          Natural Electron Configuration
 ----------------------------------------------------------------------------
      C    1      [core]2S( 0.94)2p( 3.22)4p( 0.01)
      C    2      [core]2S( 0.91)2p( 3.21)4p( 0.01)
      C    3      [core]2S( 0.95)2p( 3.22)4p( 0.01)
      C    4      [core]2S( 0.95)2p( 3.25)4p( 0.01)
      C    5      [core]2S( 0.86)2p( 2.97)4p( 0.01)
      C    6      [core]2S( 0.96)2p( 3.23)4p( 0.01)
      H    7            1S( 0.77)
      H    8            1S( 0.78)
      H    9            1S( 0.77)
      N   10      [core]2S( 1.40)2p( 4.43)3p( 0.02)
      H   11            1S( 0.64)
      H   12            1S( 0.64)
      H   13            1S( 0.78)
      C   14      [core]2S( 0.78)2p( 2.09)3d( 0.02)4p( 0.03)
      F   15      [core]2S( 1.85)2p( 5.50)
      F   16      [core]2S( 1.85)2p( 5.50)
      F   17      [core]2S( 1.85)2p( 5.49)


 NBO analysis skipped by request.
 Calling FoFJK, ICntrl=      2127 FMM=F ISym2X=0 I1Cent= 0 IOpClX= 0 NMat=1 NMatS=1 NMatT=0.
 ***** Axes restored to original set *****
 -------------------------------------------------------------------
 Center     Atomic                   Forces (Hartrees/Bohr)
 Number     Number              X              Y              Z
 -------------------------------------------------------------------
      1        6           0.008557537    0.004843329    0.001132549
      2        6          -0.001067171   -0.009551859   -0.002710418
      3        6           0.010518928   -0.004073624    0.001037043
      4        6           0.006343936   -0.005578693    0.000482583
      5        6           0.003151112    0.020226937    0.000078866
      6        6          -0.007182054    0.003648772    0.000369959
      7        1          -0.008979737    0.005499922   -0.000550824
      8        1          -0.008979678   -0.004609260   -0.000094911
      9        1           0.010450070   -0.003885367   -0.000080416
     10        7          -0.019423669   -0.026572971   -0.000144710
     11        1           0.006950812    0.006396026    0.008881912
     12        1           0.006991821    0.006431328   -0.008850518
     13        1          -0.007925059   -0.004044439   -0.000573046
     14        6           0.000420130    0.046896826   -0.002729688
     15        9           0.005440529   -0.011813671    0.003767010
     16        9          -0.004836716   -0.011534245    0.004477854
     17        9          -0.000430791   -0.012279011   -0.004493246
 -------------------------------------------------------------------
 Cartesian Forces:  Max     0.046896826 RMS     0.010343725

 GradGradGradGradGradGradGradGradGradGradGradGradGradGradGradGradGradGrad
 Berny optimization.
 FormGI is forming the generalized inverse of G from B-inverse, IUseBI=4.
 Internal  Forces:  Max     0.017353867 RMS     0.006216338
 Search for a local minimum.
 Step number   1 out of a maximum of   88
 All quantities printed in internal units (Hartrees-Bohrs-Radians)
 Mixed Optimization -- RFO/linear search
 Second derivative matrix not updated -- first step.
 ITU=  0
     Eigenvalues ---    0.00237   0.00766   0.01384   0.01736   0.02152
     Eigenvalues ---    0.02153   0.02154   0.02155   0.02155   0.02156
     Eigenvalues ---    0.02157   0.05453   0.11243   0.11243   0.16000
     Eigenvalues ---    0.16000   0.16000   0.16000   0.16000   0.16000
     Eigenvalues ---    0.22000   0.22982   0.24000   0.25000   0.25000
     Eigenvalues ---    0.25000   0.25000   0.25000   0.28519   0.33718
     Eigenvalues ---    0.33718   0.33726   0.35740   0.37230   0.42107
     Eigenvalues ---    0.42496   0.46412   0.46453   0.46466   0.46497
     Eigenvalues ---    0.47688   0.47688   0.55021   0.55021   0.55021
 RFO step:  Lambda=-1.04419757D-02 EMin= 2.36824112D-03
 Linear search not attempted -- first point.
 Iteration  1 RMS(Cart)=  0.03242683 RMS(Int)=  0.00138946
 Iteration  2 RMS(Cart)=  0.00142973 RMS(Int)=  0.00055439
 Iteration  3 RMS(Cart)=  0.00000161 RMS(Int)=  0.00055438
 Iteration  4 RMS(Cart)=  0.00000000 RMS(Int)=  0.00055438
 Variable       Old X    -DE/DX   Delta X   Delta X   Delta X     New X
                                 (Linear)    (Quad)   (Total)
    R1        2.63647  -0.00094   0.00000  -0.00201  -0.00200   2.63447
    R2        2.63584  -0.00116   0.00000  -0.00254  -0.00254   2.63331
    R3        2.02201   0.00889   0.00000   0.02324   0.02324   2.04525
    R4        2.63562  -0.00100   0.00000  -0.00204  -0.00203   2.63359
    R5        2.91018  -0.01128   0.00000  -0.03816  -0.03816   2.87202
    R6        2.63697  -0.00283   0.00000  -0.00586  -0.00586   2.63111
    R7        2.07809  -0.01053   0.00000  -0.03029  -0.03029   2.04780
    R8        2.63584   0.00328   0.00000   0.00694   0.00693   2.64277
    R9        2.07809  -0.01009   0.00000  -0.02903  -0.02903   2.04907
   R10        2.63643  -0.00310   0.00000  -0.00660  -0.00661   2.62982
   R11        2.77790  -0.01388   0.00000  -0.03774  -0.03774   2.74016
   R12        2.07795  -0.01094   0.00000  -0.03146  -0.03146   2.04649
   R13        1.88973   0.01264   0.00000   0.02594   0.02594   1.91567
   R14        1.88973   0.01264   0.00000   0.02595   0.02595   1.91567
   R15        2.55113  -0.00253   0.00000  -0.00452  -0.00452   2.54661
   R16        2.55113  -0.00202   0.00000  -0.00361  -0.00361   2.54752
   R17        2.55113  -0.00014   0.00000  -0.00025  -0.00025   2.55088
    A1        2.09437  -0.00007   0.00000  -0.00091  -0.00088   2.09349
    A2        2.09441   0.00027   0.00000   0.00180   0.00178   2.09618
    A3        2.09441  -0.00019   0.00000  -0.00089  -0.00091   2.09350
    A4        2.09455   0.00010   0.00000   0.00018   0.00010   2.09464
    A5        2.09432   0.00082   0.00000   0.00324   0.00310   2.09742
    A6        2.09432  -0.00092   0.00000  -0.00342  -0.00356   2.09076
    A7        2.09429  -0.00107   0.00000  -0.00456  -0.00454   2.08976
    A8        2.09462   0.00053   0.00000   0.00228   0.00226   2.09688
    A9        2.09427   0.00053   0.00000   0.00228   0.00227   2.09654
   A10        2.09429   0.00238   0.00000   0.01036   0.01037   2.10466
   A11        2.09407  -0.00095   0.00000  -0.00377  -0.00377   2.09029
   A12        2.09483  -0.00143   0.00000  -0.00659  -0.00659   2.08823
   A13        2.09448  -0.00338   0.00000  -0.01329  -0.01329   2.08118
   A14        2.09459   0.01040   0.00000   0.04009   0.04009   2.13468
   A15        2.09411  -0.00702   0.00000  -0.02680  -0.02680   2.06732
   A16        2.09440   0.00204   0.00000   0.00822   0.00823   2.10263
   A17        2.09453   0.00121   0.00000   0.00898   0.00898   2.10351
   A18        2.09426  -0.00325   0.00000  -0.01720  -0.01721   2.07704
   A19        1.91063   0.00313   0.00000   0.01834   0.01825   1.92889
   A20        1.91063   0.00323   0.00000   0.01894   0.01886   1.92949
   A21        1.91063  -0.00318   0.00000  -0.01865  -0.01882   1.89182
   A22        1.91063   0.01735   0.00000   0.06804   0.06579   1.97642
   A23        1.91063   0.01676   0.00000   0.06494   0.06279   1.97342
   A24        1.91063   0.01618   0.00000   0.06014   0.05830   1.96894
   A25        1.91063  -0.01591   0.00000  -0.05713  -0.05940   1.85124
   A26        1.91063  -0.01709   0.00000  -0.06677  -0.06851   1.84212
   A27        1.91063  -0.01729   0.00000  -0.06922  -0.07076   1.83987
    D1        0.00056   0.00004   0.00000   0.00446   0.00447   0.00503
    D2       -3.14103  -0.00067   0.00000  -0.02473  -0.02479   3.11737
    D3       -3.14103  -0.00008   0.00000   0.00011   0.00013  -3.14090
    D4        0.00056  -0.00080   0.00000  -0.02909  -0.02913  -0.02856
    D5        0.00026  -0.00002   0.00000  -0.00209  -0.00209  -0.00183
    D6        3.14140  -0.00010   0.00000  -0.00404  -0.00404   3.13736
    D7       -3.14133   0.00010   0.00000   0.00226   0.00225  -3.13909
    D8       -0.00019   0.00002   0.00000   0.00031   0.00029   0.00011
    D9       -0.00099  -0.00002   0.00000  -0.00387  -0.00387  -0.00486
   D10        3.14093   0.00008   0.00000  -0.00037  -0.00035   3.14058
   D11        3.14060   0.00069   0.00000   0.02533   0.02527  -3.11731
   D12       -0.00067   0.00079   0.00000   0.02883   0.02879   0.02813
   D13        0.44757  -0.00025   0.00000   0.00950   0.00930   0.45687
   D14        2.54197   0.00116   0.00000   0.02096   0.02123   2.56320
   D15       -1.64682   0.00015   0.00000   0.01278   0.01270  -1.63412
   D16       -2.69402  -0.00096   0.00000  -0.01970  -0.01989  -2.71391
   D17       -0.59963   0.00045   0.00000  -0.00823  -0.00796  -0.60758
   D18        1.49477  -0.00056   0.00000  -0.01642  -0.01649   1.47828
   D19        0.00060  -0.00002   0.00000   0.00092   0.00091   0.00151
   D20       -3.14153   0.00009   0.00000   0.00380   0.00381  -3.13772
   D21       -3.14132  -0.00011   0.00000  -0.00259  -0.00261   3.13925
   D22       -0.00026  -0.00001   0.00000   0.00029   0.00029   0.00002
   D23        0.00023   0.00003   0.00000   0.00145   0.00145   0.00168
   D24       -3.14158   0.00009   0.00000   0.00298   0.00300  -3.13858
   D25       -3.14083  -0.00008   0.00000  -0.00144  -0.00145   3.14091
   D26        0.00054  -0.00001   0.00000   0.00009   0.00011   0.00065
   D27       -0.00066  -0.00001   0.00000  -0.00086  -0.00086  -0.00152
   D28        3.14138   0.00006   0.00000   0.00108   0.00106  -3.14074
   D29        3.14116  -0.00008   0.00000  -0.00240  -0.00236   3.13880
   D30        0.00001   0.00000   0.00000  -0.00045  -0.00044  -0.00043
   D31       -1.04940  -0.00003   0.00000  -0.00101  -0.00108  -1.05048
   D32        1.04499  -0.00004   0.00000  -0.00102  -0.00096   1.04404
   D33        2.09197   0.00003   0.00000   0.00052   0.00046   2.09243
   D34       -2.09682   0.00003   0.00000   0.00051   0.00059  -2.09623
         Item               Value     Threshold  Converged?
 Maximum Force            0.017354     0.000450     NO 
 RMS     Force            0.006216     0.000300     NO 
 Maximum Displacement     0.118175     0.001800     NO 
 RMS     Displacement     0.032512     0.001200     NO 
 Predicted change in Energy=-5.434893D-03
 GradGradGradGradGradGradGradGradGradGradGradGradGradGradGradGradGradGrad

                          Input orientation:                          
 ---------------------------------------------------------------------
 Center     Atomic      Atomic             Coordinates (Angstroms)
 Number     Number       Type             X           Y           Z
 ---------------------------------------------------------------------
      1          6           0       -1.952309   -1.220160   -0.011725
      2          6           0       -0.768611   -1.956577   -0.019887
      3          6           0        0.460786   -1.300255   -0.012750
      4          6           0        0.500566    0.091469   -0.003343
      5          6           0       -0.682503    0.837200    0.000823
      6          6           0       -1.905133    0.172496   -0.002505
      7          1           0        1.382167   -1.870628   -0.018118
      8          1           0        1.456823    0.602659   -0.001431
      9          1           0       -2.818869    0.753763   -0.000064
     10          7           0       -0.684610    2.287215    0.006904
     11          1           0       -0.212391    2.639741    0.831754
     12          1           0       -0.208648    2.647218   -0.812551
     13          1           0       -2.907842   -1.728393   -0.016602
     14          6           0       -0.813811   -3.475555    0.001863
     15          9           0       -1.948732   -3.981300   -0.519887
     16          9           0        0.197924   -4.044002   -0.684147
     17          9           0       -0.731415   -3.983775    1.249690
 ---------------------------------------------------------------------
                    Distance matrix (angstroms):
                    1          2          3          4          5
     1  C    0.000000
     2  C    1.394101   0.000000
     3  C    2.414424   1.393637   0.000000
     4  C    2.781553   2.409476   1.392325   0.000000
     5  C    2.417705   2.795180   2.424048   1.398493   0.000000
     6  C    1.393486   2.413491   2.786876   2.407063   1.391642
     7  H    3.397334   2.152495   1.083649   2.151108   3.405224
     8  H    3.865871   3.391546   2.147860   1.084319   2.152145
     9  H    2.155791   3.398514   3.869792   3.384862   2.137995
    10  N    3.729489   4.244707   3.765934   2.495204   1.450029
    11  H    4.317130   4.707527   4.085330   2.774776   2.039756
    12  H    4.317209   4.704977   4.082937   2.773022   2.040167
    13  H    1.082297   2.151369   3.395728   3.863847   3.396278
    14  C    2.526493   1.519806   2.521257   3.801483   4.314754
    15  F    2.807514   2.396287   3.640187   4.780515   5.009233
    16  F    3.612442   2.394322   2.836903   4.202048   5.007042
    17  F    3.274036   2.392225   3.196306   4.437960   4.980348
                    6          7          8          9         10
     6  C    0.000000
     7  H    3.870522   0.000000
     8  H    3.389364   2.474469   0.000000
     9  H    1.082954   4.953429   4.278362   0.000000
    10  N    2.441680   4.643258   2.724616   2.628038   0.000000
    11  H    3.106229   4.858840   2.762277   3.323035   1.013727
    12  H    3.107811   4.855177   2.758973   3.325442   1.013731
    13  H    2.149187   4.292366   4.948165   2.483805   4.590035
    14  C    3.807792   2.720020   4.667721   4.680534   5.764220
    15  F    4.186121   3.975122   5.734045   4.842332   6.416369
    16  F    4.760919   2.563119   4.862344   5.708552   6.429675
    17  F    4.496687   3.246530   5.233456   5.325750   6.393122
                   11         12         13         14         15
    11  H    0.000000
    12  H    1.644326   0.000000
    13  H    5.202476   5.202418   0.000000
    14  C    6.200586   6.206275   2.727249   0.000000
    15  F    6.977105   6.859358   2.499756   1.347608   0.000000
    16  F    6.865765   6.704791   3.931087   1.348091   2.153844
    17  F    6.656953   6.963921   3.380396   1.349870   2.147852
                   16         17
    16  F    0.000000
    17  F    2.146398   0.000000
 Stoichiometry    C7H6F3N
 Framework group  C1[X(C7H6F3N)]
 Deg. of freedom    45
 Full point group                 C1      NOp   1
 Largest Abelian subgroup         C1      NOp   1
 Largest concise Abelian subgroup C1      NOp   1
                         Standard orientation:                         
 ---------------------------------------------------------------------
 Center     Atomic      Atomic             Coordinates (Angstroms)
[...]
 ! D31   D(4,5,10,11)         -161.213          -DE/DX =    0.0                 !
 ! D32   D(4,5,10,12)          -21.6133         -DE/DX =    0.0                 !
 ! D33   D(6,5,10,11)           21.6123         -DE/DX =    0.0                 !
 ! D34   D(6,5,10,12)          161.2121         -DE/DX =    0.0                 !
 --------------------------------------------------------------------------------
 GradGradGradGradGradGradGradGradGradGradGradGradGradGradGradGradGradGrad

 1\1\GINC-COREV2-25-010\Freq\RB3LYP\6-311+G(d,p)\C7H6F3N1\ROOT\09-Jan-2
 023\0\\#N Geom=AllCheck Guess=TCheck SCRF=Check GenChk RB3LYP/6-311+G(
 d,p) Freq\\Title Card Required\\0,1\C,-1.9123870349,-1.1978130851,0.07
 33207571\C,-0.7547062312,-1.9707323358,-0.0404008872\C,0.4826771634,-1
 .3332500953,-0.1545376101\C,0.5630155665,0.0511191573,-0.1611785783\C,
 -0.5966622486,0.8361436675,-0.0475674745\C,-1.8373489824,0.1868404382,
 0.0671755152\H,1.3871295809,-1.9219806723,-0.2462352455\H,1.5294935407
 ,0.5336508115,-0.2613556254\H,-2.7453384237,0.7753968379,0.1453414674\
 N,-0.5239719891,2.2201272728,-0.1059036467\H,-1.3080307524,2.735612251
 8,0.263124087\H,0.3680459753,2.6408782651,0.1036831022\H,-2.8779571692
 ,-1.6808144176,0.1595150714\C,-0.8329136762,-3.4636806827,0.0251664899
 \F,-2.0024144402,-3.9418459617,-0.4638931595\F,0.1633552152,-4.0643369
 64,-0.6691974041\F,-0.7385946343,-3.9341978776,1.3009673311\\Version=E
 S64L-G09RevD.01\State=1-A\HF=-624.8398489\RMSD=7.020e-09\RMSF=3.085e-0
 6\ZeroPoint=0.1210324\Thermal=0.1304819\Dipole=0.1365191,1.9604799,0.2
 690096\DipoleDeriv=0.1077739,-0.1028166,-0.0209996,-0.0742539,0.322391
 6,0.010954,-0.0093595,0.0265877,-0.0673827,-0.2800906,-0.0313336,0.008
 6418,-0.0209834,-0.6425168,-0.0045331,0.0024634,-0.1137509,-0.1855565,
 0.1299133,0.1275083,-0.0142707,0.0963763,0.2996866,-0.0057776,-0.02438
 19,0.0053841,-0.0667995,0.0409565,0.3866471,-0.0374278,-0.024085,-0.48
 24266,0.0073966,-0.0281996,-0.0503139,-0.1676002,0.0573908,0.0891586,-
 0.0013207,0.0898751,1.7419838,-0.0592296,-0.001739,-0.0666424,0.073787
 4,-0.0013197,-0.4432512,0.001406,-0.0291403,-0.4350383,0.0059101,-0.00
 98567,0.0278274,-0.1726472,0.0034929,0.059648,0.0101013,0.05671,0.0600
 446,-0.0047639,0.0127165,-0.0060468,0.1295325,-0.0489931,-0.0750274,0.
 018357,-0.0790423,0.0011426,0.006374,0.020065,0.0050275,0.1408362,-0.0
 31668,0.0784907,0.0163524,0.0826788,-0.0167456,-0.0089921,0.0145542,-0
 .0093646,0.1413902,-0.1326945,-0.0410674,-0.0270541,-0.0728602,-1.5994
 745,0.1086272,-0.0081543,0.442967,-0.4767565,0.1264178,-0.0647931,0.05
 07603,-0.0419822,0.2103993,-0.0239617,0.057945,-0.166709,0.2582837,0.1
 198261,0.0420018,-0.0262056,0.046343,0.1993915,-0.0279782,-0.0495321,-
 0.1707615,0.2758928,-0.008447,-0.0518599,0.0152684,-0.0487641,0.072335
 ,0.0050429,0.012552,0.0046316,0.1291614,1.5256116,0.0413084,0.016071,0
 .0527352,2.4855401,-0.0186361,0.0092062,-0.1399866,1.7017801,-0.737065
 9,-0.3261016,-0.2109509,-0.2709234,-0.671671,-0.1031179,-0.1890148,-0.
 0687881,-0.3798355,-0.5890743,0.3005218,0.2409778,0.2397338,-0.7363672
 ,-0.1778799,0.2224502,-0.1522522,-0.4629938,-0.2820299,0.0109661,-0.03
 97065,-0.0024174,-0.8086751,0.2905656,-0.0317145,0.4321906,-0.8710922\
 Polar=92.7575999,1.8112367,126.1903559,-3.370793,-0.7090417,57.9650944
 \PG=C01 [X(C7H6F3N1)]\NImag=0\\0.71013466,0.03584285,0.69162508,-0.053
 08612,-0.00421210,0.14216246,-0.25944985,0.05683650,0.01756845,0.68340
 218,0.11581701,-0.17507219,-0.01015345,-0.00351794,0.64702545,0.018738
 48,-0.00302085,-0.06320607,-0.05035531,-0.01259169,0.16657636,-0.06122
 377,0.03054639,0.00715363,-0.27724217,-0.10395698,0.02087789,0.7013440
 1,-0.01689152,0.05793418,0.00256396,-0.04467845,-0.15685617,0.00661259
 ,-0.03766215,0.69993172,0.00628793,-0.00189982,0.00819954,0.02186923,0
 .01060777,-0.06365152,-0.05515959,0.00294402,0.14263733,-0.01361005,0.
 01934655,0.00119415,0.02266915,-0.02885125,0.00012437,-0.12593166,-0.0
 4338414,0.00583988,0.68940643,0.02811137,-0.04803555,-0.00349488,-0.07
 532425,-0.02818740,0.00607438,0.01729233,-0.35112956,-0.00072854,0.038
 52006,0.70607588,0.00129726,-0.00239096,-0.00389462,-0.00236010,0.0025
 7074,0.00800828,0.00681627,0.00570967,-0.05730911,-0.05655510,-0.00524
 124,0.12668722,0.03250803,-0.08100670,-0.00429501,-0.07167368,0.004643
 16,0.00632156,0.04477195,0.07319083,-0.00284092,-0.25559142,0.03988980
 ,0.01859507,0.67538569,-0.03487816,-0.02465580,0.00270925,0.00482733,0
 .01146367,0.00081841,0.02690621,-0.03690931,-0.00331653,0.10319852,-0.
 16661663,-0.01131506,0.00180701,0.70090152,-0.00227390,0.00781154,0.00
 188162,0.00621159,-0.00112971,-0.00657382,-0.00476950,-0.00678294,0.00
 186910,0.01980214,-0.00425489,-0.06906677,-0.04840990,0.00668420,0.167
 05664,-0.12568992,0.01840966,0.00740194,0.03346733,0.02184257,-0.00406
 886,-0.01945133,-0.02265193,0.00114837,-0.04568692,0.02165093,0.005022
 11,-0.27083468,-0.09156379,0.01746825,0.68182514,-0.04240118,-0.351286
 63,0.00486230,0.06817081,-0.03920491,-0.00739790,-0.03146851,-0.042273
 13,0.00220728,-0.01013407,0.05571460,0.00129183,-0.02804531,-0.1517063
 2,0.00242185,-0.03665246,0.71463926,0.00650648,-0.00015171,-0.05742780
 ,-0.00149731,-0.00235913,0.00822844,0.00107600,0.00164880,-0.00381658,
 0.00499329,-0.00173046,0.00627861,0.01855199,0.00729838,-0.06870483,-0
 .05105607,0.00164149,0.12571050,-0.00345619,-0.00394392,0.00097054,-0.
 01775271,0.01634164,0.00222021,-0.25573005,0.12614044,0.02187390,0.005
 62872,-0.00310696,-0.00012343,0.00149658,-0.00164727,0.00075283,0.0003
 9223,-0.00068829,-0.00015740,0.26867853,-0.00326147,-0.00100939,0.0002
 7015,-0.01171176,0.01181881,0.00097707,0.12699613,-0.14057100,-0.01256
 681,0.02671156,-0.01206475,-0.00259399,-0.00164662,-0.00497164,0.00024
 800,-0.00060353,-0.00060214,0.00005271,-0.13625031,0.14750124,0.000850
 10,0.00032544,0.00589817,0.00192181,-0.00176336,0.00388837,0.02271865,
 -0.01267348,-0.04023536,-0.00024819,0.00023640,0.00394313,0.00056164,0
 .00018439,0.00786507,-0.00004403,0.00011447,-0.00106434,-0.02486341,0.
 01374027,0.02834001,0.00007941,0.00106834,-0.00011086,0.00232408,0.000
 24588,0.00054805,0.00179164,0.00090806,-0.00001237,-0.27732780,-0.1070
 0497,0.02539400,-0.01899151,-0.01569923,0.00228694,-0.00246424,0.00407
 221,0.00077927,0.00075212,-0.00023723,-0.00054637,0.29318419,0.0006997
 4,-0.00087849,-0.00007385,0.00104097,-0.00543297,0.00011497,-0.0297050
 2,-0.01020888,0.00303349,-0.10705626,-0.11097694,0.01082912,0.01579301
 ,0.00947310,-0.00162806,0.00320285,-0.00148382,-0.00026747,0.00022859,
 0.00105811,-0.00005289,0.11646491,0.11628641,-0.00011858,-0.00017194,-
 0.00093351,0.00034218,-0.00024002,0.00698936,0.00006011,-0.00022221,0.
 00210103,0.02577966,0.01119154,-0.03526849,0.00195241,0.00180016,0.003
 64977,0.00077466,-0.00037191,0.00535376,-0.00055257,0.00006974,-0.0044
 0380,-0.02814238,-0.01183273,0.02560917,0.00484304,-0.00262826,-0.0001
 9580,0.00208588,-0.00112812,0.00039503,-0.00012415,-0.00116724,-0.0000
 6582,-0.00326762,-0.00386018,0.00080362,-0.01862160,0.01893795,0.00201
 014,-0.25227588,0.12328810,0.01887271,-0.00001854,0.00007352,-0.000072
 47,-0.00103184,0.00084706,0.00009871,0.26594576,0.02804835,-0.01328440
 ,-0.00246723,-0.00184019,-0.00519150,0.00039903,-0.00078662,-0.0006674
 3,0.00006608,-0.00298665,-0.00068266,0.00032432,-0.01263216,0.00912008
 ,0.00108987,0.12326709,-0.13711021,-0.01085046,0.00009155,0.00001727,-
 0.00001500,-0.00066781,0.00052839,0.00007806,-0.13366024,0.14466826,-0
 .00030649,0.00011896,0.00212600,0.00055152,-0.00011979,0.00698708,-0.0
 0006519,0.00003873,-0.00094095,0.00080556,0.00038529,0.00535523,0.0023
 9035,-0.00152203,0.00363118,0.01853129,-0.01044472,-0.03418599,-0.0000
 8055,-0.00000355,-0.00075341,0.00007685,-0.00006481,-0.00012635,-0.020
 83362,0.01169814,0.02446536,-0.00893379,0.00649949,0.00226125,0.007024
 08,-0.00074090,-0.00082213,-0.00954542,-0.00498181,0.00039009,0.004792
 62,0.04417638,-0.00097988,-0.12432302,-0.01255982,0.00901764,-0.001067
 31,-0.04857921,0.00227728,0.00015229,0.00141538,-0.00000084,0.00179709
 ,0.00064572,0.00028240,0.00174589,-0.00057993,-0.00111425,0.80047452,0
 .00033185,0.00800211,-0.00028341,-0.00123934,-0.01214159,-0.00157610,0
 .00161445,0.00858105,-0.00029633,0.01228602,-0.04457557,0.00020754,-0.
 00868998,-0.30645998,0.01680825,-0.01686456,-0.03766482,0.00282765,0.0
 0013203,-0.00036946,0.00010577,-0.00081826,0.00200594,0.00025835,0.000
 88042,0.00197936,0.00017615,0.00566378,0.66262738,0.00040721,-0.003045
 46,0.00468202,-0.00052556,0.00367434,-0.00056099,0.00198949,-0.0020394
 6,0.00471562,-0.00348083,-0.00175043,0.00836795,0.00671746,-0.02388515
 ,-0.03966286,0.00488207,0.00663180,0.00731527,-0.00009074,-0.00036677,
 0.00001005,-0.00070663,0.00019736,-0.00273077,-0.00012267,0.00028120,-
 0.00265280,-0.05799983,0.14449360,0.11010587,-0.00056032,0.00095835,-0
 .00073091,0.00003752,-0.00106044,-0.00019451,0.00017535,0.00054761,0.0
 0012785,0.00154980,-0.00199744,0.00064456,0.00492366,0.00215130,-0.002
 23511,0.00129137,-0.00346971,-0.00062859,0.00003253,-0.00001528,-0.000
 03355,0.00030727,-0.00015923,0.00000673,-0.00052363,0.00037050,0.00065
 159,-0.30065064,0.14355680,0.11335576,0.31164461,0.00009584,-0.0006754
 7,0.00060038,-0.00044159,0.00062228,-0.00000832,0.00191106,-0.00012726
 ,0.00018375,-0.00350577,-0.00511278,-0.00019839,0.03161498,-0.01760452
 ,-0.01384638,0.00193008,0.00246256,0.00061181,-0.00010294,-0.00044346,
 0.00002819,0.00012008,0.00013260,-0.00009038,-0.00149462,-0.00011713,-
 0.00038375,0.14276118,-0.15831811,-0.07988330,-0.15928892,0.16856338,0
 .00011234,0.00002328,-0.00059984,-0.00068258,-0.00096967,-0.00000016,0
 .00019635,0.00151458,0.00172039,0.00129040,-0.00027496,0.00223085,-0.0
 0547903,0.01085602,-0.00405247,-0.00095073,-0.00053251,-0.00045167,-0.
 00001548,0.00009357,-0.00022949,-0.00001156,0.00000391,-0.00064231,-0.
 00031075,-0.00029755,0.00034319,0.14026915,-0.10213266,-0.06423804,-0.
 12497842,0.08526204,0.06603316,-0.00006557,-0.00025570,0.00023288,0.00
 034735,0.00089029,0.00013543,-0.00055146,-0.00094234,0.00077504,0.0017
 0337,0.00339482,0.00031832,0.00199810,-0.00226772,-0.00053608,0.001725
 55,0.00113475,-0.00055399,-0.00001780,0.00005509,-0.00003973,-0.000442
 30,-0.00038939,-0.00054491,0.00027494,0.00013904,-0.00019103,-0.372063
 00,-0.13695753,-0.06428235,-0.01819997,-0.01347903,-0.00941057,0.38532
 427,-0.00184566,0.00013128,0.00053644,0.00046837,0.00045960,-0.0001151
 6,0.00000419,-0.00056290,0.00052398,-0.00168905,0.00227797,0.00090046,
 -0.03581275,-0.01353261,-0.00751230,0.00262365,-0.00563683,-0.00071472
 ,-0.00000795,0.00004952,-0.00003068,0.00143625,-0.00024012,-0.00059542
 ,-0.00015279,0.00013127,-0.00005305,-0.13228112,-0.12668967,-0.0432950
 9,0.01810698,0.01064173,0.00613979,0.14898494,0.13347853,0.00029907,0.
 00158644,0.00170270,0.00050657,-0.00122422,-0.00014757,-0.00011821,0.0
 0021715,-0.00072122,0.00045349,-0.00126736,-0.00067900,0.00513334,0.01
 069255,-0.00519731,-0.00118819,-0.00043354,0.00257897,0.00001934,-0.00
 000388,0.00005140,0.00044071,-0.00026820,0.00038466,-0.00016530,-0.000
 01557,-0.00060855,-0.09350264,-0.06185100,-0.02445491,0.01369765,0.007
 83828,-0.00015349,0.07437775,0.04427257,0.02743776,-0.28298292,-0.1100
 2185,0.02210379,-0.01790020,-0.01301961,0.00193428,-0.00263112,0.00412
 491,0.00074338,0.00050967,0.00057104,-0.00013267,0.00176793,0.00089970
 ,0.00045685,0.00279367,0.00142590,0.00006294,-0.00090154,-0.00074288,0
 .00012569,-0.00003438,-0.00008756,-0.00005894,0.00077655,-0.00020756,-
 0.00043675,-0.00001664,-0.00014881,0.00005194,-0.00001664,0.00000937,-
 0.00000653,0.00004177,0.00005159,-0.00002534,0.29807914,-0.11085074,-0
 .11368534,0.01019291,0.01505178,0.01196630,-0.00155237,0.00344535,-0.0
 0184759,-0.00035951,0.00047497,-0.00073463,-0.00005196,0.00091325,-0.0
 0526109,0.00001975,-0.02839053,-0.00919578,0.00265259,0.00090826,0.000
 53039,-0.00007029,-0.00006780,0.00003546,0.00000877,0.00027307,0.00105
 388,0.00001455,-0.00149899,-0.00018828,-0.00009668,-0.00004688,0.00005
 432,0.00000727,-0.00002199,-0.00045185,0.00009473,0.11921165,0.1185188
 7,0.02124246,0.01002150,-0.03986953,0.00222278,0.00101368,0.00388790,0
 .00086212,-0.00044738,0.00591104,-0.00023936,0.00000506,-0.00104920,0.
 00063975,-0.00006371,0.00788397,0.00018660,-0.00020377,0.00390975,0.00
 011861,0.00008721,0.00036102,-0.00006807,0.00000187,-0.00075586,-0.000
 45180,-0.00001686,-0.00442448,0.00000177,0.00013328,-0.00000223,0.0000
 4851,-0.00003733,0.00004545,-0.00001561,0.00001244,-0.00023035,-0.0240
 6609,-0.01076461,0.02792104,0.01161053,0.02310030,-0.00489331,-0.09574
 880,-0.00564432,0.00337224,0.00776129,-0.02698521,0.00276379,-0.006216
 79,-0.00442721,0.00099693,-0.00416855,-0.00036157,0.00041629,-0.005232
 64,0.00586104,0.00111446,-0.00282268,-0.00161918,-0.00020217,0.0000470
 7,-0.00144714,-0.00019240,0.00022820,0.00151912,0.00035194,0.00006596,
 0.00061695,-0.00025662,0.00011671,-0.00002678,0.00004311,-0.00001285,-
 0.00003393,0.00007479,-0.00292939,0.00208534,0.00036768,0.48312271,0.0
 1255977,-0.02711715,-0.00071850,-0.00486794,-0.19642199,0.00871701,-0.
 01640614,-0.02263444,0.00162478,-0.00410355,0.00992807,0.00031767,-0.0
 0035748,-0.01220993,0.00101541,0.00579531,0.00878412,-0.00063604,0.002
 66626,0.00058716,-0.00014191,0.00052536,0.00098162,0.00006726,-0.00041
 699,0.00086663,0.00012522,0.00035849,0.01282442,-0.00382136,0.00109731
 ,-0.00049804,0.00110732,-0.00092371,-0.00038296,0.00129854,-0.00225329
 ,0.00065595,0.00029442,0.00590733,0.57449048,-0.00075862,-0.00215988,-
 0.00124866,0.00290551,0.00045722,-0.06548413,-0.00139341,0.00266238,-0
 .00187702,0.00193646,-0.00108917,0.00524421,0.00041397,0.00097887,-0.0
 0041682,0.00002014,-0.00196482,0.00540547,0.00058001,0.00050926,-0.002
 09293,0.00000173,0.00005020,0.00094230,0.00013620,-0.00024057,0.000876
 53,-0.00010333,-0.00111711,-0.00036684,0.00007394,-0.00003377,-0.00005
 553,-0.00009547,-0.00002279,-0.00004126,-0.00038244,0.00021194,-0.0020
 5297,-0.00469301,0.00813878,0.42921942,-0.00436835,0.00421324,0.001835
 64,-0.01680932,-0.01460417,-0.00914782,0.00261538,-0.00251703,-0.00187
 016,0.00019559,-0.00077438,0.00059046,0.00020268,0.00220931,-0.0003673
 8,0.00057903,-0.00197308,0.00050534,0.00059477,0.00061092,-0.00023741,
 -0.00002335,-0.00043852,0.00017024,0.00002109,-0.00026031,-0.00004245,
 0.00026135,-0.00207321,0.00060921,-0.00020170,0.00002290,-0.00021938,0
 .00009216,0.00014475,-0.00022196,0.00260089,-0.00059601,-0.00100020,-0
 .17385534,-0.06458023,-0.04293490,0.28511351,-0.00148707,0.00033140,-0
 .00024785,-0.04175629,-0.01761721,-0.01349988,0.00468773,-0.00503362,-
 0.00293546,-0.00115429,-0.00195313,0.00120792,-0.00055285,0.00241518,-
 0.00033616,-0.00119468,-0.00068236,0.00047987,-0.00021271,0.00029957,-
 0.00033550,-0.00004485,-0.00079943,0.00028631,0.00011483,-0.00015560,-
 0.00006842,0.00007516,-0.00254308,0.00071813,-0.00019465,0.00009805,-0
 .00026115,0.00011846,0.00012123,-0.00021632,-0.00044164,-0.00173731,-0
 .00052336,-0.05746795,-0.11601832,-0.02519036,0.08079914,0.10891763,-0
 .00063065,0.00078301,0.00059296,-0.00771027,-0.00198948,0.00674269,0.0
 0073839,-0.00227459,0.00084870,-0.00084133,0.00051330,-0.00021851,0.00
 041170,0.00014710,-0.00004507,0.00000258,-0.00041646,0.00009968,0.0000
 3669,0.00000856,-0.00003743,-0.00001559,-0.00020984,-0.00014047,-0.000
 00011,-0.00007159,-0.00005717,-0.00000608,-0.00012473,0.00007072,-0.00
 001451,0.00000722,-0.00002514,0.00000843,0.00002846,-0.00004869,0.0000
 9314,-0.00025661,-0.00046992,-0.04087315,-0.02887284,-0.08724038,0.089
 19770,0.03435228,0.11423735,0.00232020,0.00123146,0.00125613,-0.007089
 92,0.01289021,0.01033097,-0.00464349,-0.00344251,-0.00088710,0.0008010
 4,0.00168575,-0.00056281,0.00002904,-0.00187016,0.00029229,0.00044520,
 0.00058077,-0.00056971,0.00270310,0.00004093,0.00032703,0.00003683,0.0
 0022071,0.00001881,-0.00001116,0.00030088,-0.00015805,0.00033937,0.001
 68181,-0.00055671,0.00009401,-0.00013196,0.00016710,-0.00013542,0.0000
 0739,0.00020939,0.00055540,-0.00062615,0.00007709,-0.14262325,0.061539
 46,0.05103168,-0.07958576,0.01213278,0.01356457,0.22814651,-0.00599953
 ,-0.00464458,-0.00209162,0.03739443,-0.02367502,-0.02216168,0.00199045
 ,0.00056686,-0.00042361,0.00109530,-0.00101914,0.00032101,0.00074271,0
 .00257208,-0.00049555,0.00110244,-0.00215684,0.00105629,-0.00017190,-0
 .00179110,-0.00062433,-0.00014762,-0.00016799,-0.00004697,0.00000915,-
 0.00084457,0.00029935,-0.00026256,-0.00273542,0.00081540,-0.00015446,0
 .00015229,-0.00021226,0.00016834,0.00007817,-0.00032013,0.00011502,0.0
 0035124,-0.00038370,0.05521488,-0.12963784,-0.04136253,0.00004195,0.01
 786941,0.00567176,-0.08744667,0.12814585,-0.00133672,-0.00251036,0.000
 75538,0.01047531,-0.00567634,0.00308134,0.00173788,0.00137754,0.000627
 91,-0.00017242,-0.00075499,0.00021571,-0.00039840,0.00058088,-0.000028
 71,0.00077883,0.00029209,-0.00026535,-0.00073025,-0.00027121,-0.000518
 52,-0.00002756,-0.00011577,-0.00006041,-0.00003306,-0.00027897,-0.0001
 0811,-0.00006226,-0.00047812,0.00018587,-0.00003408,0.00005712,-0.0000
 8159,0.00003810,0.00000532,-0.00007138,-0.00014752,0.00013658,-0.00004
 948,0.04849710,-0.04606228,-0.10491153,0.00539591,0.00498738,0.0160026
 4,-0.10739553,0.06173677,0.15203402,-0.00115516,-0.00019669,0.00133360
 ,0.01230907,-0.00014703,-0.00040989,-0.00138498,0.00039250,-0.00098352
 ,0.00037587,0.00120292,0.00023537,0.00112079,-0.00008963,-0.00012309,0
 .00018340,-0.00112176,-0.00027669,0.00026865,0.00018475,-0.00021675,-0
 .00000429,0.00013956,0.00012387,-0.00004693,-0.00011506,-0.00013072,-0
 .00005336,0.00002758,0.00000881,-0.00001991,0.00000612,-0.00001342,-0.
 00001915,-0.00000486,0.00000954,0.00028782,-0.00026459,0.00007374,-0.0
 6934218,0.00346005,-0.00673845,-0.01743263,0.00657888,-0.05396150,-0.0
 0138169,-0.00369192,0.04341467,0.07629466,-0.00389144,0.00232094,0.002
 00749,0.00158758,-0.02355515,0.03821049,0.00459112,0.00180747,0.001335
 46,0.00123206,-0.00290780,-0.00188870,0.00014911,0.00398218,-0.0001128
 8,-0.00190309,-0.00259675,-0.00155960,-0.00037655,-0.00003912,0.000972
 52,-0.00015330,-0.00031299,-0.00018860,0.00008434,-0.00031164,-0.00019
 629,-0.00011125,-0.00433429,0.00137189,-0.00040183,0.00016956,-0.00032
 701,0.00035169,0.00012765,-0.00040004,0.00051402,-0.00006454,0.0008712
 4,0.00370834,-0.10419778,0.06017236,-0.00022527,0.01648760,-0.00729555
 ,0.00120528,0.01693660,-0.01302563,-0.00636080,0.09648808,0.00276974,-
 0.00110711,-0.00082081,-0.00144381,0.01989312,-0.01476556,-0.00272089,
 -0.00084934,-0.00007889,-0.00068218,0.00218095,0.00115453,-0.00026597,
 -0.00264774,-0.00008867,0.00109106,0.00230254,0.00103612,0.00004170,-0
 .00025033,-0.00102193,0.00011386,0.00028271,0.00003191,-0.00006502,0.0
 0031711,0.00007326,0.00009167,0.00284885,-0.00078392,0.00024308,-0.000
 10717,0.00015671,-0.00021622,-0.00008023,0.00019825,-0.00031574,-0.000
 18705,-0.00101614,-0.00688768,0.05754650,-0.17589984,-0.04226286,0.001
 58257,-0.05031198,0.03285484,-0.00177821,-0.06680780,0.01765444,-0.079
 94716,0.30894476\\-0.00000361,0.00000231,-0.00000009,0.00000189,0.0000
 0107,0.00000668,-0.00000300,-0.00000557,-0.00000253,-0.00000185,0.0000
 0771,0.00000224,0.00000339,0.00000116,-0.00000418,-0.00000032,-0.00000
 406,-0.00000027,0.00000039,0.00000111,0.00000035,0.00000048,-0.0000006
 2,-0.00000036,0.00000075,0.00000151,0.00000050,0.00000082,-0.00000316,
 0.00000180,0.00000123,-0.00000124,-0.00000008,-0.00000196,0.00000024,0
 .00000015,0.00000163,-0.00000036,-0.00000055,0.00000714,-0.00000218,-0
 .00001016,-0.00000332,-0.00000103,0.00000095,-0.00000402,0.00000201,0.
 00000581,0.00000038,0.00000109,-0.00000028\\\@


 EXPERIENCE IS A WONDERFUL THING.  IT ENABLES
 YOU TO RECOGNIZE A MISTAKE WHEN YOU MAKE IT AGAIN.
           - BACK OF A SUGAR PACKET
 Job cpu time:       0 days  0 hours 39 minutes 58.2 seconds.
 File lengths (MBytes):  RWF=    186 Int=      0 D2E=      0 Chk=      7 Scr=      1
 Normal termination of Gaussian 09 at Mon Jan  9 17:57:00 2023.
