	You are loading a legacy vmd module, please load an up to date module instead.


	 module load container_env vmd

	Please run vmd command with crun.vmd prepend to it:
	
	 crun.vmd vmd

	 
module: Command not found.
module: Command not found.
 Entering Gaussian System, Link 0=g09
 Initial command:
 /opt/gaussian/g09/l1.exe "/tmp/G09-29.com.o10577416.tmp/Gau-3700002.inp" -scrdir="/tmp/G09-29.com.o10577416.tmp/"
 Entering Link 1 = /opt/gaussian/g09/l1.exe PID=   3700003.
  
 Copyright (c) 1988,1990,1992,1993,1995,1998,2003,2009,2013,
            Gaussian, Inc.  All Rights Reserved.
  
 This is part of the Gaussian(R) 09 program.  It is based on
 the Gaussian(R) 03 system (copyright 2003, Gaussian, Inc.),
 the Gaussian(R) 98 system (copyright 1998, Gaussian, Inc.),
 the Gaussian(R) 94 system (copyright 1995, Gaussian, Inc.),
 the Gaussian 92(TM) system (copyright 1992, Gaussian, Inc.),
 the Gaussian 90(TM) system (copyright 1990, Gaussian, Inc.),
 the Gaussian 88(TM) system (copyright 1988, Gaussian, Inc.),
 the Gaussian 86(TM) system (copyright 1986, Carnegie Mellon
 University), and the Gaussian 82(TM) system (copyright 1983,
 Carnegie Mellon University). Gaussian is a federally registered
 trademark of Gaussian, Inc.
  
 This software contains proprietary and confidential information,
 including trade secrets, belonging to Gaussian, Inc.
  
 This software is provided under written license and may be
 used, copied, transmitted, or stored only in accord with that
 written license.
  
 The following legend is applicable only to US Government
 contracts under FAR:
  
                    RESTRICTED RIGHTS LEGEND
  
 Use, reproduction and disclosure by the US Government is
 subject to restrictions as set forth in subparagraphs (a)
 and (c) of the Commercial Computer Software - Restricted
 Rights clause in FAR 52.227-19.
  
 Gaussian, Inc.
 340 Quinnipiac St., Bldg. 40, Wallingford CT 06492
  
  
 ---------------------------------------------------------------
 Warning -- This program may not be used in any manner that
 competes with the business of Gaussian, Inc. or will provide
 assistance to any competitor of Gaussian, Inc.  The licensee
 of this program is prohibited from giving any competitor of
 Gaussian, Inc. access to this program.  By using this program,
 the user acknowledges that Gaussian, Inc. is engaged in the
 business of creating and licensing software in the field of
 computational chemistry and represents and warrants to the
 licensee that it is not a competitor of Gaussian, Inc. and that
 it will not use this program in any manner prohibited above.
 ---------------------------------------------------------------
  

 Cite this work as:
 Gaussian 09, Revision D.01,
 M. J. Frisch, G. W. Trucks, H. B. Schlegel, G. E. Scuseria, 
 M. A. Robb, J. R. Cheeseman, G. Scalmani, V. Barone, B. Mennucci, 
 G. A. Petersson, H. Nakatsuji, M. Caricato, X. Li, H. P. Hratchian, 
 A. F. Izmaylov, J. Bloino, G. Zheng, J. L. Sonnenberg, M. Hada, 
 M. Ehara, K. Toyota, R. Fukuda, J. Hasegawa, M. Ishida, T. Nakajima, 
 Y. Honda, O. Kitao, H. Nakai, T. Vreven, J. A. Montgomery, Jr., 
 J. E. Peralta, F. Ogliaro, M. Bearpark, J. J. Heyd, E. Brothers, 
 K. N. Kudin, V. N. Staroverov, T. Keith, R. Kobayashi, J. Normand, 
 K. Raghavachari, A. Rendell, J. C. Burant, S. S. Iyengar, J. Tomasi, 
 M. Cossi, N. Rega, J. M. Millam, M. Klene, J. E. Knox, J. B. Cross, 
 V. Bakken, C. Adamo, J. Jaramillo, R. Gomperts, R. E. Stratmann, 
 O. Yazyev, A. J. Austin, R. Cammi, C. Pomelli, J. W. Ochterski, 
 R. L. Martin, K. Morokuma, V. G. Zakrzewski, G. A. Voth, 
 P. Salvador, J. J. Dannenberg, S. Dapprich, A. D. Daniels, 
 O. Farkas, J. B. Foresman, J. V. Ortiz, J. Cioslowski, 
 and D. J. Fox, Gaussian, Inc., Wallingford CT, 2013.
 
 ******************************************
 Gaussian 09:  ES64L-G09RevD.01 24-Apr-2013
                23-Apr-2024 
 ******************************************
 %nprocshared=20
 Will use up to   20 processors via shared memory.
 %mem=4GB
 %chk=29.chk
 ----------------------------------------------------------------------
 # opt freq=noraman b3lyp/6-311+g(d,p) pop=(npa,hirshfeld,chelpg,mbs) g
 eom=connectivity
 ----------------------------------------------------------------------
 1/14=-1,18=20,19=15,26=3,38=1,57=2/1,3;
 2/9=110,12=2,17=6,18=5,40=1/2;
 3/5=4,6=6,7=111,11=2,16=1,25=1,30=1,71=1,74=-5/1,2,3;
 4//1;
 5/5=2,38=5/2;
 6/7=2,8=2,9=2,10=2,15=8,20=3,27=100,28=1,40=-1,79=1/1,2,7;
 7//1,2,3,16;
 1/14=-1,18=20,19=15,26=3/3(2);
 2/9=110/2;
 99//99;
 2/9=110/2;
 3/5=4,6=6,7=111,11=2,16=1,25=1,30=1,71=1,74=-5/1,2,3;
 4/5=5,16=3,69=1/1;
 5/5=2,38=5/2;
 7//1,2,3,16;
 1/14=-1,18=20,19=15,26=3/3(-5);
 2/9=110/2;
 6/7=2,8=2,9=2,10=2,15=8,19=2,20=3,27=100,28=1,40=-1,79=1/1,2,7;
 99/9=1/99;
 -------------------
 Title Card Required
 -------------------
 Symbolic Z-matrix:
 Charge =  0 Multiplicity = 1
 C                     0.08755  -0.03891   0. 
 C                     1.48271  -0.03891   0. 
 C                     2.18025   1.16884   0. 
 C                     1.48259   2.37735  -0.0012 
 C                     0.08777   2.37727  -0.00168 
 C                    -0.60983   1.16907  -0.00068 
 H                    -0.46221  -0.99123   0.00045 
 H                     2.03222  -0.99142   0.00132 
 H                    -1.70944   1.16925  -0.00086 
 Cl                   -0.79262   3.90125  -0.0032 
 H                     2.01759   3.304    -0.00175 
 O                     3.61025   1.16894   0.00082 
 H                     3.93117   0.66755  -0.75231 
 

 GradGradGradGradGradGradGradGradGradGradGradGradGradGradGradGradGradGrad
 Berny optimization.
 Initialization pass.
                           ----------------------------
                           !    Initial Parameters    !
                           ! (Angstroms and Degrees)  !
 --------------------------                            --------------------------
 ! Name  Definition              Value          Derivative Info.                !
 --------------------------------------------------------------------------------
 ! R1    R(1,2)                  1.3952         estimate D2E/DX2                !
 ! R2    R(1,6)                  1.3948         estimate D2E/DX2                !
 ! R3    R(1,7)                  1.0996         estimate D2E/DX2                !
 ! R4    R(2,3)                  1.3947         estimate D2E/DX2                !
 ! R5    R(2,8)                  1.0997         estimate D2E/DX2                !
 ! R6    R(3,4)                  1.3954         estimate D2E/DX2                !
 ! R7    R(3,12)                 1.43           estimate D2E/DX2                !
 ! R8    R(4,5)                  1.3948         estimate D2E/DX2                !
 ! R9    R(4,11)                 1.07           estimate D2E/DX2                !
 ! R10   R(5,6)                  1.3951         estimate D2E/DX2                !
 ! R11   R(5,10)                 1.76           estimate D2E/DX2                !
 ! R12   R(6,9)                  1.0996         estimate D2E/DX2                !
 ! R13   R(12,13)                0.96           estimate D2E/DX2                !
 ! A1    A(2,1,6)              119.9985         estimate D2E/DX2                !
 ! A2    A(2,1,7)              119.9972         estimate D2E/DX2                !
 ! A3    A(6,1,7)              120.0043         estimate D2E/DX2                !
 ! A4    A(1,2,3)              120.0086         estimate D2E/DX2                !
 ! A5    A(1,2,8)              119.9808         estimate D2E/DX2                !
 ! A6    A(3,2,8)              120.0106         estimate D2E/DX2                !
 ! A7    A(2,3,4)              119.9942         estimate D2E/DX2                !
 ! A8    A(2,3,12)             120.0128         estimate D2E/DX2                !
 ! A9    A(4,3,12)             119.993          estimate D2E/DX2                !
 ! A10   A(3,4,5)              119.994          estimate D2E/DX2                !
 ! A11   A(3,4,11)             120.003          estimate D2E/DX2                !
 ! A12   A(5,4,11)             120.003          estimate D2E/DX2                !
 ! A13   A(4,5,6)              120.0047         estimate D2E/DX2                !
 ! A14   A(4,5,10)             120.0113         estimate D2E/DX2                !
 ! A15   A(6,5,10)             119.984          estimate D2E/DX2                !
 ! A16   A(1,6,5)              120.0            estimate D2E/DX2                !
 ! A17   A(1,6,9)              120.008          estimate D2E/DX2                !
 ! A18   A(5,6,9)              119.992          estimate D2E/DX2                !
 ! A19   A(3,12,13)            109.5            estimate D2E/DX2                !
 ! D1    D(6,1,2,3)              0.0323         estimate D2E/DX2                !
 ! D2    D(6,1,2,8)            179.9532         estimate D2E/DX2                !
 ! D3    D(7,1,2,3)           -179.9729         estimate D2E/DX2                !
 ! D4    D(7,1,2,8)             -0.052          estimate D2E/DX2                !
 ! D5    D(2,1,6,5)              0.0149         estimate D2E/DX2                !
 ! D6    D(2,1,6,9)            179.9892         estimate D2E/DX2                !
 ! D7    D(7,1,6,5)           -179.9798         estimate D2E/DX2                !
 ! D8    D(7,1,6,9)             -0.0056         estimate D2E/DX2                !
 ! D9    D(1,2,3,4)             -0.0568         estimate D2E/DX2                !
 ! D10   D(1,2,3,12)           179.9619         estimate D2E/DX2                !
 ! D11   D(8,2,3,4)           -179.9777         estimate D2E/DX2                !
 ! D12   D(8,2,3,12)             0.041          estimate D2E/DX2                !
 ! D13   D(2,3,4,5)              0.0341         estimate D2E/DX2                !
 ! D14   D(2,3,4,11)          -179.9659         estimate D2E/DX2                !
 ! D15   D(12,3,4,5)          -179.9846         estimate D2E/DX2                !
 ! D16   D(12,3,4,11)            0.0154         estimate D2E/DX2                !
 ! D17   D(2,3,12,13)           56.3711         estimate D2E/DX2                !
 ! D18   D(4,3,12,13)         -123.6102         estimate D2E/DX2                !
 ! D19   D(3,4,5,6)              0.0131         estimate D2E/DX2                !
 ! D20   D(3,4,5,10)          -179.9995         estimate D2E/DX2                !
 ! D21   D(11,4,5,6)          -179.9869         estimate D2E/DX2                !
 ! D22   D(11,4,5,10)            0.0005         estimate D2E/DX2                !
 ! D23   D(4,5,6,1)             -0.0376         estimate D2E/DX2                !
 ! D24   D(4,5,6,9)            179.9881         estimate D2E/DX2                !
 ! D25   D(10,5,6,1)           179.975          estimate D2E/DX2                !
 ! D26   D(10,5,6,9)             0.0007         estimate D2E/DX2                !
 --------------------------------------------------------------------------------
 Trust Radius=3.00D-01 FncErr=1.00D-07 GrdErr=1.00D-06
 Number of steps in this run=     68 maximum allowed number of steps=    100.
 GradGradGradGradGradGradGradGradGradGradGradGradGradGradGradGradGradGrad

                          Input orientation:                          
 ---------------------------------------------------------------------
 Center     Atomic      Atomic             Coordinates (Angstroms)
 Number     Number       Type             X           Y           Z
 ---------------------------------------------------------------------
      1          6           0        0.087549   -0.038911    0.000000
      2          6           0        1.482709   -0.038911    0.000000
      3          6           0        2.180247    1.168840    0.000000
      4          6           0        1.482593    2.377349   -0.001199
      5          6           0        0.087768    2.377271   -0.001678
      6          6           0       -0.609833    1.169065   -0.000682
      7          1           0       -0.462210   -0.991228    0.000450
      8          1           0        2.032217   -0.991424    0.001315
      9          1           0       -1.709437    1.169248   -0.000862
     10         17           0       -0.792619    3.901252   -0.003203
     11          1           0        2.017590    3.303998   -0.001751
     12          8           0        3.610246    1.168945    0.000824
     13          1           0        3.931172    0.667553   -0.752311
 ---------------------------------------------------------------------
                    Distance matrix (angstroms):
                    1          2          3          4          5
     1  C    0.000000
     2  C    1.395160   0.000000
     3  C    2.416205   1.394712   0.000000
     4  C    2.790065   2.416260   1.395427   0.000000
     5  C    2.416183   2.789946   2.416356   1.394825   0.000000
     6  C    1.394829   2.416183   2.790080   2.416236   1.395138
     7  H    1.099610   2.165553   3.412986   3.889675   3.413102
     8  H    2.165414   1.099655   2.165330   3.413316   3.889601
     9  H    2.165365   3.413128   3.889684   3.412999   2.165471
    10  Cl   4.037275   4.549946   4.037823   2.738407   1.760000
    11  H    3.860065   3.385431   2.141345   1.070000   2.140803
    12  O    3.724019   2.446494   1.430000   2.446867   3.723965
    13  H    3.979761   2.657073   1.970533   3.079466   4.272978
                    6          7          8          9         10
     6  C    0.000000
     7  H    2.165331   0.000000
     8  H    3.412938   2.494427   0.000000
     9  H    1.099604   2.494641   4.320704   0.000000
    10  Cl   2.738295   4.903625   5.649601   2.881737   0.000000
    11  H    3.385453   4.959675   4.295448   4.295100   2.872975
    12  O    4.220080   4.609908   2.675326   5.319684   5.181770
    13  H    4.630031   4.756050   2.631765   5.712517   5.773402
                   11         12         13
    11  H    0.000000
    12  O    2.663647   0.000000
    13  H    3.343050   0.960000   0.000000
 Stoichiometry    C6H5ClO
 Framework group  C1[X(C6H5ClO)]
 Deg. of freedom    33
 Full point group                 C1      NOp   1
 Largest Abelian subgroup         C1      NOp   1
 Largest concise Abelian subgroup C1      NOp   1
                         Standard orientation:                         
 ---------------------------------------------------------------------
 Center     Atomic      Atomic             Coordinates (Angstroms)
 Number     Number       Type             X           Y           Z
 ---------------------------------------------------------------------
      1          6           0        0.759907    1.833551    0.001669
      2          6           0        1.796555    0.900070   -0.019413
      3          6           0        1.506639   -0.464113   -0.032614
      4          6           0        0.179555   -0.895371   -0.023535
      5          6           0       -0.856787    0.037938   -0.001979
      6          6           0       -0.566623    1.402514    0.010228
      7          1           0        0.988690    2.909052    0.011624
      8          1           0        2.842251    1.240223   -0.026933
      9          1           0       -1.383785    2.138105    0.027023
     10         17           0       -2.530753   -0.505484    0.009492
     11          1           0       -0.043019   -1.941922   -0.033109
     12          8           0        2.569096   -1.420973   -0.055047
     13          1           0        3.150424   -1.271968    0.694256
 ---------------------------------------------------------------------
 Rotational constants (GHZ):      3.4219763      1.1574927      0.8665532
 Standard basis: 6-311+G(d,p) (5D, 7F)
 There are   222 symmetry adapted cartesian basis functions of A   symmetry.
 There are   214 symmetry adapted basis functions of A   symmetry.
   214 basis functions,   345 primitive gaussians,   222 cartesian basis functions
    33 alpha electrons       33 beta electrons
       nuclear repulsion energy       392.6742698411 Hartrees.
 NAtoms=   13 NActive=   13 NUniq=   13 SFac= 1.00D+00 NAtFMM=   60 NAOKFM=F Big=F
 Integral buffers will be    131072 words long.
 Raffenetti 2 integral format.
 Two-electron integral symmetry is turned on.
 One-electron integrals computed using PRISM.
 NBasis=   214 RedAO= T EigKep=  3.13D-06  NBF=   214
 NBsUse=   214 1.00D-06 EigRej= -1.00D+00 NBFU=   214
 ExpMin= 4.38D-02 ExpMax= 1.06D+05 ExpMxC= 3.62D+03 IAcc=2 IRadAn=         4 AccDes= 0.00D+00
 Harris functional with IExCor=  402 and IRadAn=       4 diagonalized for initial guess.
 HarFok:  IExCor=  402 AccDes= 0.00D+00 IRadAn=         4 IDoV= 1 UseB2=F ITyADJ=14
 ICtDFT=  3500011 ScaDFX=  1.000000  1.000000  1.000000  1.000000
 FoFCou: FMM=F IPFlag=           0 FMFlag=      100000 FMFlg1=           0
         NFxFlg=           0 DoJE=T BraDBF=F KetDBF=T FulRan=T
         wScrn=  0.000000 ICntrl=     500 IOpCl=  0 I1Cent=   200000004 NGrid=           0
         NMat0=    1 NMatS0=      1 NMatT0=    0 NMatD0=    1 NMtDS0=    0 NMtDT0=    0
 Petite list used in FoFCou.
 Keep R1 ints in memory in canonical form, NReq=270343676.
 Requested convergence on RMS density matrix=1.00D-08 within 128 cycles.
 Requested convergence on MAX density matrix=1.00D-06.
 Requested convergence on             energy=1.00D-06.
 No special actions if energy rises.
 SCF Done:  E(RB3LYP) =  -767.174259250     A.U. after   15 cycles
            NFock= 15  Conv=0.22D-08     -V/T= 2.0033

 **********************************************************************

            Population analysis using the SCF density.

 **********************************************************************

 Orbital symmetries:
       Occupied  (A) (A) (A) (A) (A) (A) (A) (A) (A) (A) (A) (A)
                 (A) (A) (A) (A) (A) (A) (A) (A) (A) (A) (A) (A)
                 (A) (A) (A) (A) (A) (A) (A) (A) (A)
       Virtual   (A) (A) (A) (A) (A) (A) (A) (A) (A) (A) (A) (A)
                 (A) (A) (A) (A) (A) (A) (A) (A) (A) (A) (A) (A)
                 (A) (A) (A) (A) (A) (A) (A) (A) (A) (A) (A) (A)
                 (A) (A) (A) (A) (A) (A) (A) (A) (A) (A) (A) (A)
                 (A) (A) (A) (A) (A) (A) (A) (A) (A) (A) (A) (A)
                 (A) (A) (A) (A) (A) (A) (A) (A) (A) (A) (A) (A)
                 (A) (A) (A) (A) (A) (A) (A) (A) (A) (A) (A) (A)
                 (A) (A) (A) (A) (A) (A) (A) (A) (A) (A) (A) (A)
                 (A) (A) (A) (A) (A) (A) (A) (A) (A) (A) (A) (A)
                 (A) (A) (A) (A) (A) (A) (A) (A) (A) (A) (A) (A)
                 (A) (A) (A) (A) (A) (A) (A) (A) (A) (A) (A) (A)
                 (A) (A) (A) (A) (A) (A) (A) (A) (A) (A) (A) (A)
                 (A) (A) (A) (A) (A) (A) (A) (A) (A) (A) (A) (A)
                 (A) (A) (A) (A) (A) (A) (A) (A) (A) (A) (A) (A)
                 (A) (A) (A) (A) (A) (A) (A) (A) (A) (A) (A) (A)
                 (A)
 The electronic state is 1-A.
 Alpha  occ. eigenvalues -- -101.56167 -19.15822 -10.25636 -10.25204 -10.20169
 Alpha  occ. eigenvalues --  -10.19713 -10.19634 -10.19530  -9.47605  -7.24074
 Alpha  occ. eigenvalues --   -7.23087  -7.23052  -1.05377  -0.90192  -0.84745
 Alpha  occ. eigenvalues --   -0.76863  -0.74805  -0.63195  -0.62524  -0.55161
 Alpha  occ. eigenvalues --   -0.51611  -0.49568  -0.46549  -0.44677  -0.43405
 Alpha  occ. eigenvalues --   -0.40362  -0.38718  -0.38473  -0.34661  -0.32943
 Alpha  occ. eigenvalues --   -0.32348  -0.26967  -0.25713
 Alpha virt. eigenvalues --   -0.03691  -0.02904  -0.00667  -0.00266   0.01426
 Alpha virt. eigenvalues --    0.02259   0.03609   0.04993   0.05082   0.05552
 Alpha virt. eigenvalues --    0.07963   0.08020   0.08530   0.08892   0.11206
 Alpha virt. eigenvalues --    0.11927   0.11951   0.12224   0.12803   0.13380
 Alpha virt. eigenvalues --    0.13597   0.14976   0.15180   0.16184   0.16655
 Alpha virt. eigenvalues --    0.17860   0.18648   0.18870   0.19436   0.19820
 Alpha virt. eigenvalues --    0.20441   0.21348   0.22142   0.22873   0.23429
 Alpha virt. eigenvalues --    0.24667   0.26209   0.27156   0.27533   0.28430
 Alpha virt. eigenvalues --    0.29597   0.30005   0.31609   0.33214   0.33818
 Alpha virt. eigenvalues --    0.35455   0.43432   0.45171   0.46113   0.46399
 Alpha virt. eigenvalues --    0.48400   0.50267   0.51351   0.52477   0.53785
 Alpha virt. eigenvalues --    0.55442   0.56654   0.57555   0.58573   0.59796
 Alpha virt. eigenvalues --    0.60143   0.61148   0.64125   0.66565   0.66915
 Alpha virt. eigenvalues --    0.69601   0.70579   0.72216   0.77848   0.79380
 Alpha virt. eigenvalues --    0.81026   0.81917   0.83196   0.83808   0.84568
 Alpha virt. eigenvalues --    0.84854   0.85910   0.87858   0.90991   0.93021
 Alpha virt. eigenvalues --    0.94117   0.98232   0.99082   0.99538   1.02132
 Alpha virt. eigenvalues --    1.03571   1.08596   1.09865   1.11390   1.17816
 Alpha virt. eigenvalues --    1.18734   1.21127   1.24303   1.28196   1.28833
 Alpha virt. eigenvalues --    1.36492   1.40654   1.47107   1.48537   1.52041
 Alpha virt. eigenvalues --    1.53241   1.54473   1.58078   1.61140   1.61785
 Alpha virt. eigenvalues --    1.64495   1.65421   1.67715   1.72472   1.73249
 Alpha virt. eigenvalues --    1.75407   1.87461   1.88562   1.89822   1.90068
 Alpha virt. eigenvalues --    1.93171   1.94970   1.96679   1.98539   2.00530
 Alpha virt. eigenvalues --    2.02218   2.05674   2.07860   2.18173   2.20558
 Alpha virt. eigenvalues --    2.28207   2.29605   2.30932   2.35717   2.38846
 Alpha virt. eigenvalues --    2.44800   2.50366   2.52927   2.55696   2.61606
 Alpha virt. eigenvalues --    2.62587   2.66625   2.68470   2.72211   2.73241
 Alpha virt. eigenvalues --    2.73695   2.75465   2.75777   2.78414   2.81821
 Alpha virt. eigenvalues --    2.85000   2.87770   2.98919   3.05498   3.09056
 Alpha virt. eigenvalues --    3.10984   3.18148   3.22531   3.28293   3.33120
 Alpha virt. eigenvalues --    3.36139   3.46466   3.57692   3.58524   3.76629
 Alpha virt. eigenvalues --    3.83199   3.96931   4.06201   4.09111   4.11785
 Alpha virt. eigenvalues --    4.81529   5.07038   5.35390   5.66980   9.76775
 Alpha virt. eigenvalues --   23.48213  23.85182  23.91102  24.03270  24.05776
 Alpha virt. eigenvalues --   24.14825  25.82210  26.11256  26.59063  49.90912
 Alpha virt. eigenvalues --  215.75711
          Condensed to atoms (all electrons):
               1          2          3          4          5          6
     1  C    6.074645   0.462767   0.029867  -1.361385  -1.041405   1.731165
     2  C    0.462767   6.573457   0.941540  -0.753170  -0.938670  -0.582542
     3  C    0.029867   0.941540   9.063405  -1.586136  -0.584699  -1.714649
     4  C   -1.361385  -0.753170  -1.586136  14.875827  -1.506240  -3.997708
     5  C   -1.041405  -0.938670  -0.584699  -1.506240  11.015052  -0.829669
     6  C    1.731165  -0.582542  -1.714649  -3.997708  -0.829669  11.615590
     7  H    0.394858  -0.013565   0.014621  -0.009485   0.013021  -0.052571
     8  H    0.021111   0.431285  -0.069396  -0.042620   0.022574  -0.009385
     9  H   -0.027819  -0.008597   0.011551   0.018662   0.047418   0.302190
    10  Cl   0.098253   0.019396  -0.033861   0.353839  -1.008404   0.139678
    11  H    0.005998  -0.024581  -0.034586   0.312488   0.062014   0.033699
    12  O    0.023083  -0.148741   0.437622  -0.290784   0.048852  -0.003434
    13  H    0.008205  -0.048685  -0.024453   0.084139  -0.017621   0.000480
               7          8          9         10         11         12
     1  C    0.394858   0.021111  -0.027819   0.098253   0.005998   0.023083
     2  C   -0.013565   0.431285  -0.008597   0.019396  -0.024581  -0.148741
     3  C    0.014621  -0.069396   0.011551  -0.033861  -0.034586   0.437622
     4  C   -0.009485  -0.042620   0.018662   0.353839   0.312488  -0.290784
     5  C    0.013021   0.022574   0.047418  -1.008404   0.062014   0.048852
     6  C   -0.052571  -0.009385   0.302190   0.139678   0.033699  -0.003434
     7  H    0.528744  -0.007325  -0.007905   0.001682   0.000039  -0.000521
     8  H   -0.007325   0.529205  -0.000214   0.000799  -0.000115  -0.007459
     9  H   -0.007905  -0.000214   0.514129   0.000388  -0.000273   0.000122
    10  Cl   0.001682   0.000799   0.000388  17.141938  -0.001005  -0.000992
    11  H    0.000039  -0.000115  -0.000273  -0.001005   0.492857  -0.002882
    12  O   -0.000521  -0.007459   0.000122  -0.000992  -0.002882   8.030915
    13  H   -0.000010   0.001864  -0.000004   0.000299  -0.000155   0.245123
              13
     1  C    0.008205
     2  C   -0.048685
     3  C   -0.024453
     4  C    0.084139
     5  C   -0.017621
     6  C    0.000480
     7  H   -0.000010
     8  H    0.001864
     9  H   -0.000004
    10  Cl   0.000299
    11  H   -0.000155
    12  O    0.245123
    13  H    0.490300
 Mulliken charges:
               1
     1  C   -0.419342
     2  C    0.090106
     3  C   -0.450823
     4  C   -0.097426
     5  C    0.717777
     6  C   -0.632843
     7  H    0.138417
     8  H    0.129679
     9  H    0.150351
    10  Cl   0.287990
    11  H    0.156503
    12  O   -0.330903
    13  H    0.260516
 Sum of Mulliken charges =   0.00000
 Mulliken charges with hydrogens summed into heavy atoms:
               1
     1  C   -0.280926
     2  C    0.219785
     3  C   -0.450823
     4  C    0.059077
     5  C    0.717777
     6  C   -0.482492
    10  Cl   0.287990
    12  O   -0.070387
 Electronic spatial extent (au):  <R**2>=           1222.2774
 Charge=              0.0000 electrons
 Dipole moment (field-independent basis, Debye):
    X=              1.6465    Y=              1.5998    Z=              1.2361  Tot=              2.6074
 Quadrupole moment (field-independent basis, Debye-Ang):
   XX=            -50.7102   YY=            -50.8667   ZZ=            -55.9257
   XY=              1.7403   XZ=              4.5044   YZ=             -1.7495
 Traceless Quadrupole moment (field-independent basis, Debye-Ang):
   XX=              1.7906   YY=              1.6342   ZZ=             -3.4248
   XY=              1.7403   XZ=              4.5044   YZ=             -1.7495
 Octapole moment (field-independent basis, Debye-Ang**2):
  XXX=             23.4127  YYY=              5.7010  ZZZ=              1.1703  XYY=             -4.0965
  XXY=              3.1286  XXZ=             15.3521  XZZ=              1.6743  YZZ=             -6.3198
  YYZ=              2.3830  XYZ=             -6.3006
 Hexadecapole moment (field-independent basis, Debye-Ang**3):
 XXXX=           -974.2506 YYYY=           -424.7801 ZZZZ=            -66.2616 XXXY=             -3.8408
 XXXZ=             51.7929 YYYX=              7.6717 YYYZ=             -3.2436 ZZZX=              4.4428
 ZZZY=             -1.8080 XXYY=           -253.8559 XXZZ=           -188.9914 YYZZ=            -92.7190
 XXYZ=            -20.9283 YYXZ=              8.3180 ZZXY=             -8.7485
 N-N= 3.926742698411D+02 E-N=-2.594393409841D+03  KE= 7.646519876329D+02
 There are a total of      106278 grid points.
 ElSum from          density=       66.0000788778
 ElSum from atomic densities=       66.0003496112

 Hirshfeld populations at iteration   1 (CX, CA, CB, DipXYZ):
               1          2          3          4          5          6
     1  C    0.000000   3.019169   3.019169   0.013230   0.068845  -0.004486
     2  C    0.000000   3.030861   3.030861   0.051155   0.022182  -0.006142
     3  C    0.000000   2.962758   2.962758   0.105943  -0.105566  -0.012742
     4  C    0.000000   3.026756   3.026756  -0.005311  -0.053221  -0.011226
     5  C    0.000001   2.982005   2.982005  -0.093932  -0.035995  -0.001113
     6  C    0.000000   3.027172   3.027172  -0.033108   0.042886  -0.001716
     7  H    0.000002   0.471327   0.471327   0.034265   0.161194   0.000527
     8  H    0.000001   0.473791   0.473791   0.151110   0.059582  -0.002272
     9  H    0.000003   0.472857   0.472857  -0.109232   0.120117   0.002125
    10  Cl   0.000009   8.536518   8.536518   0.003355   0.000402  -0.002590
    11  H    0.000003   0.471017   0.471017  -0.030645  -0.163829  -0.003790
    12  O    0.000003   4.113086   4.113086  -0.037788   0.139325   0.116205
    13  H    0.000001   0.412723   0.412723   0.136485   0.024978   0.165777
       Tot   0.000023  33.000039  33.000039   0.185527   0.280901   0.238557

 Dip from Atomic Chgs              0.461691   0.348199   0.247708
         Total Dipole              0.647218   0.629100   0.486265

 Hirshfeld charges, spin densities, dipoles, and CM5 charges using IRadAn=      4:
              Q-H        S-H        Dx         Dy         Dz        Q-CM5   
     1  C   -0.038338   0.000000   0.013230   0.068845  -0.004486  -0.091687
     2  C   -0.061722   0.000000   0.051155   0.022182  -0.006142  -0.111301
     3  C    0.074484   0.000000   0.105943  -0.105566  -0.012742   0.083186
     4  C   -0.053512   0.000000  -0.005311  -0.053221  -0.011226  -0.102682
     5  C    0.035991   0.000000  -0.093932  -0.035995  -0.001113   0.029152
     6  C   -0.054344   0.000000  -0.033108   0.042886  -0.001716  -0.104624
     7  H    0.057347   0.000000   0.034265   0.161194   0.000527   0.111045
     8  H    0.052419   0.000000   0.151110   0.059582  -0.002272   0.108498
     9  H    0.054285   0.000000  -0.109232   0.120117   0.002125   0.106926
    10  Cl  -0.073036   0.000000   0.003355   0.000402  -0.002590  -0.073277
    11  H    0.057966   0.000000  -0.030645  -0.163829  -0.003790   0.119179
    12  O   -0.226172   0.000000  -0.037788   0.139325   0.116205  -0.422957
    13  H    0.174553   0.000000   0.136485   0.024978   0.165777   0.348464
       Tot  -0.000079   0.000000   0.185527   0.280901   0.238557  -0.000079
 Hirshfeld charges with hydrogens summed into heavy atoms:
              Q-H       Q-CM5   
     1  C    0.019009   0.019358
     2  C   -0.009303  -0.002803
     3  C    0.074484   0.083186
     4  C    0.004454   0.016497
     5  C    0.035991   0.029152
     6  C   -0.000058   0.002302
    10  Cl  -0.073036  -0.073277
    12  O   -0.051619  -0.074493
 
 EQQ= 0.000000000000E+00 EQD= 0.000000000000E+00 EDD= 0.783007083685E-02
 EQQ+QD+DD= 0.783007083685E-02
 
          MBS Condensed to atoms (all electrons):
               1          2          3          4          5          6
     1  C    4.811956   0.501919  -0.028380  -0.009794  -0.029039   0.503878
     2  C    0.501919   4.860766   0.496899  -0.036671  -0.010760  -0.031853
     3  C   -0.028380   0.496899   4.689314   0.496294  -0.025235  -0.011204
     4  C   -0.009794  -0.036671   0.496294   4.850653   0.502314  -0.033251
     5  C   -0.029039  -0.010760  -0.025235   0.502314   4.715478   0.503726
     6  C    0.503878  -0.031853  -0.011204  -0.033251   0.503726   4.833584
     7  H    0.387752  -0.024510   0.001370   0.000003   0.001388  -0.024513
     8  H   -0.023389   0.384051  -0.025182   0.001385   0.000078   0.001469
     9  H   -0.023552   0.001453   0.000071   0.001398  -0.025117   0.385430
    10  Cl   0.000654   0.000002   0.000598  -0.028170   0.264666  -0.028434
    11  H    0.000074   0.001427  -0.023519   0.387088  -0.023683   0.001417
    12  O    0.000333  -0.021899   0.290214  -0.021961   0.000290   0.000004
    13  H   -0.000015  -0.001962  -0.032810   0.001580  -0.000050   0.000006
               7          8          9         10         11         12
     1  C    0.387752  -0.023389  -0.023552   0.000654   0.000074   0.000333
     2  C   -0.024510   0.384051   0.001453   0.000002   0.001427  -0.021899
     3  C    0.001370  -0.025182   0.000071   0.000598  -0.023519   0.290214
     4  C    0.000003   0.001385   0.001398  -0.028170   0.387088  -0.021961
     5  C    0.001388   0.000078  -0.025117   0.264666  -0.023683   0.000290
     6  C   -0.024513   0.001469   0.385430  -0.028434   0.001417   0.000004
     7  H    0.551289  -0.003869  -0.003837  -0.000013   0.000002  -0.000005
     8  H   -0.003869   0.555535  -0.000035   0.000000  -0.000044  -0.001090
     9  H   -0.003837  -0.000035   0.546964  -0.001861  -0.000042   0.000000
    10  Cl  -0.000013   0.000000  -0.001861  16.996849  -0.002155   0.000000
    11  H    0.000002  -0.000044  -0.000042  -0.002155   0.518965  -0.000648
    12  O   -0.000005  -0.001090   0.000000   0.000000  -0.000648   7.996284
    13  H    0.000000   0.000743   0.000000   0.000000   0.000048   0.266014
              13
     1  C   -0.000015
     2  C   -0.001962
     3  C   -0.032810
     4  C    0.001580
     5  C   -0.000050
     6  C    0.000006
     7  H    0.000000
     8  H    0.000743
     9  H    0.000000
    10  Cl   0.000000
    11  H    0.000048
    12  O    0.266014
    13  H    0.417384
 MBS Mulliken charges:
               1
     1  C   -0.092397
     2  C   -0.118862
     3  C    0.171569
     4  C   -0.110869
     5  C    0.125943
     6  C   -0.100259
     7  H    0.114942
     8  H    0.110348
     9  H    0.119128
    10  Cl  -0.202138
    11  H    0.141069
    12  O   -0.507534
    13  H    0.349062
 Sum of MBS Mulliken charges =   0.00000
 MBS Mulliken charges with hydrogens summed into heavy atoms:
               1
     1  C    0.022545
     2  C   -0.008514
     3  C    0.171569
     4  C    0.030200
     5  C    0.125943
     6  C    0.018868
    10  Cl  -0.202138
    12  O   -0.158472
 Breneman (CHELPG) radii used.
 Generate Potential Derived Charges using the Breneman model, NDens= 1.
 Grid spacing= 0.300 Box extension= 2.800
 NStep X,Y,Z=   39     36     23   Total possible points=       32292
 Number of Points to Fit=    9931

 **********************************************************************

            Electrostatic Properties Using The SCF Density

 **********************************************************************

       Atomic Center    1 is at   0.759907  1.833551  0.001669
       Atomic Center    2 is at   1.796555  0.900070 -0.019413
       Atomic Center    3 is at   1.506639 -0.464113 -0.032614
       Atomic Center    4 is at   0.179555 -0.895371 -0.023535
       Atomic Center    5 is at  -0.856787  0.037938 -0.001979
       Atomic Center    6 is at  -0.566623  1.402514  0.010228
       Atomic Center    7 is at   0.988690  2.909052  0.011624
       Atomic Center    8 is at   2.842251  1.240223 -0.026933
       Atomic Center    9 is at  -1.383785  2.138105  0.027023
       Atomic Center   10 is at  -2.530753 -0.505484  0.009492
       Atomic Center   11 is at  -0.043019 -1.941922 -0.033109
       Atomic Center   12 is at   2.569096 -1.420973 -0.055047
       Atomic Center   13 is at   3.150424 -1.271968  0.694256
    9931 points will be used for fitting atomic charges
 Fitting point charges to electrostatic potential
 Charges from ESP fit, RMS=   0.00467 RRMS=   0.34158:
 ESP charges:
               1
     1  C   -0.060863
     2  C   -0.272415
     3  C    0.407880
     4  C   -0.222777
     5  C    0.142045
     6  C   -0.132215
     7  H    0.108959
     8  H    0.141014
     9  H    0.101225
    10  Cl  -0.135097
    11  H    0.137259
    12  O   -0.579110
    13  H    0.364094
 Sum of ESP charges =   0.00000
 ESP charges with hydrogens summed into heavy atoms:
               1
     1  C    0.048096
     2  C   -0.131401
     3  C    0.407880
     4  C   -0.085517
     5  C    0.142045
     6  C   -0.030990
    10  Cl  -0.135097
    12  O   -0.215016
 Charge=   0.00000 Dipole=     1.7089     1.6482     1.3186 Tot=     2.7158
 -----------------------------------------------------------------

              Electrostatic Properties (Atomic Units)

 -----------------------------------------------------------------
    Center     Electric         -------- Electric Field --------
               Potential          X             Y             Z
 -----------------------------------------------------------------
    1 Atom    -14.749260
    2 Atom    -14.755778
    3 Atom    -14.692236
    4 Atom    -14.755292
    5 Atom    -14.697982
    6 Atom    -14.753739
    7 Atom     -1.085237
    8 Atom     -1.083635
    9 Atom     -1.087783
   10 Atom    -64.389106
   11 Atom     -1.087277
   12 Atom    -22.336059
   13 Atom     -0.971933
 -----------------------------------------------------------------
 ******************************Gaussian NBO Version 3.1******************************
             N A T U R A L   A T O M I C   O R B I T A L   A N D
          N A T U R A L   B O N D   O R B I T A L   A N A L Y S I S
 ******************************Gaussian NBO Version 3.1******************************
       /RESON  / : Allow strongly delocalized NBO set

 Analyzing the SCF density

 Job title: Title Card Required                                             

 Storage needed:    138454 in NPA ( 536869963 available)


 NATURAL POPULATIONS:  Natural atomic orbital occupancies 
                                                          
   NAO  Atom  No  lang   Type(AO)    Occupancy      Energy
 ----------------------------------------------------------
     1    C    1  S      Cor( 1S)     1.99915     -10.05679
     2    C    1  S      Val( 2S)     0.95448      -0.18608
     3    C    1  S      Ryd( 3S)     0.00173       0.74128
     4    C    1  S      Ryd( 4S)     0.00012       1.76652
     5    C    1  S      Ryd( 5S)     0.00001      22.04655
     6    C    1  px     Val( 2p)     1.05612      -0.06286
     7    C    1  px     Ryd( 4p)     0.00490       0.76497
     8    C    1  px     Ryd( 3p)     0.00039       0.40277
     9    C    1  px     Ryd( 5p)     0.00014       3.03284
    10    C    1  py     Val( 2p)     1.16749      -0.07721
    11    C    1  py     Ryd( 4p)     0.00669       1.05016
    12    C    1  py     Ryd( 3p)     0.00030       0.27153
    13    C    1  py     Ryd( 5p)     0.00008       3.15337
    14    C    1  pz     Val( 2p)     0.98679      -0.12667
    15    C    1  pz     Ryd( 4p)     0.00067       0.51726
    16    C    1  pz     Ryd( 3p)     0.00027       0.33609
    17    C    1  pz     Ryd( 5p)     0.00001       2.60909
    18    C    1  dxy    Ryd( 3d)     0.00065       2.54197
    19    C    1  dxz    Ryd( 3d)     0.00055       1.65480
    20    C    1  dyz    Ryd( 3d)     0.00042       1.58873
    21    C    1  dx2y2  Ryd( 3d)     0.00072       2.46879
    22    C    1  dz2    Ryd( 3d)     0.00042       2.01754

    23    C    2  S      Cor( 1S)     1.99902     -10.04905
    24    C    2  S      Val( 2S)     0.95863      -0.18537
    25    C    2  S      Ryd( 3S)     0.00192       0.65688
    26    C    2  S      Ryd( 4S)     0.00014       1.20377
    27    C    2  S      Ryd( 5S)     0.00001      22.67677
    28    C    2  px     Val( 2p)     1.17363      -0.08332
    29    C    2  px     Ryd( 4p)     0.00639       1.02136
    30    C    2  px     Ryd( 3p)     0.00036       0.41219
    31    C    2  px     Ryd( 5p)     0.00007       3.05356
    32    C    2  py     Val( 2p)     1.07716      -0.07510
    33    C    2  py     Ryd( 4p)     0.00475       0.74998
    34    C    2  py     Ryd( 3p)     0.00038       0.38966
    35    C    2  py     Ryd( 5p)     0.00020       3.10325
    36    C    2  pz     Val( 2p)     1.03296      -0.12946
    37    C    2  pz     Ryd( 4p)     0.00138       0.47552
    38    C    2  pz     Ryd( 3p)     0.00028       0.29586
    39    C    2  pz     Ryd( 5p)     0.00002       2.69842
    40    C    2  dxy    Ryd( 3d)     0.00063       2.52439
    41    C    2  dxz    Ryd( 3d)     0.00046       1.59593
    42    C    2  dyz    Ryd( 3d)     0.00052       1.65697
    43    C    2  dx2y2  Ryd( 3d)     0.00078       2.50469
    44    C    2  dz2    Ryd( 3d)     0.00044       2.03305

    45    C    3  S      Cor( 1S)     1.99866     -10.12714
    46    C    3  S      Val( 2S)     0.84601      -0.16445
    47    C    3  S      Ryd( 4S)     0.00118       0.86013
    48    C    3  S      Ryd( 3S)     0.00022       0.54524
    49    C    3  S      Ryd( 5S)     0.00002      22.94733
    50    C    3  px     Val( 2p)     0.89790      -0.07020
    51    C    3  px     Ryd( 4p)     0.00448       1.03191
    52    C    3  px     Ryd( 3p)     0.00071       0.41068
    53    C    3  px     Ryd( 5p)     0.00025       2.94791
    54    C    3  py     Val( 2p)     0.93245      -0.07312
    55    C    3  py     Ryd( 4p)     0.00694       1.02777
    56    C    3  py     Ryd( 3p)     0.00068       0.40010
    57    C    3  py     Ryd( 5p)     0.00024       2.91752
    58    C    3  pz     Val( 2p)     0.99019      -0.13490
    59    C    3  pz     Ryd( 4p)     0.00128       0.60305
    60    C    3  pz     Ryd( 3p)     0.00061       0.34123
    61    C    3  pz     Ryd( 5p)     0.00004       2.57176
    62    C    3  dxy    Ryd( 3d)     0.00164       2.42178
    63    C    3  dxz    Ryd( 3d)     0.00141       1.59225
    64    C    3  dyz    Ryd( 3d)     0.00104       1.62484
    65    C    3  dx2y2  Ryd( 3d)     0.00167       2.57308
    66    C    3  dz2    Ryd( 3d)     0.00056       2.01052

    67    C    4  S      Cor( 1S)     1.99885     -10.04385
    68    C    4  S      Val( 2S)     0.95033      -0.17447
    69    C    4  S      Ryd( 3S)     0.00191       0.75263
    70    C    4  S      Ryd( 4S)     0.00025       0.94209
    71    C    4  S      Ryd( 5S)     0.00001      22.90028
    72    C    4  px     Val( 2p)     1.07801      -0.08087
    73    C    4  px     Ryd( 4p)     0.00511       0.79332
    74    C    4  px     Ryd( 3p)     0.00021       0.38419
    75    C    4  px     Ryd( 5p)     0.00014       3.12712
    76    C    4  py     Val( 2p)     1.19573      -0.09201
    77    C    4  py     Ryd( 4p)     0.00549       0.99416
    78    C    4  py     Ryd( 3p)     0.00039       0.38901
    79    C    4  py     Ryd( 5p)     0.00009       3.13197
    80    C    4  pz     Val( 2p)     1.02305      -0.12866
    81    C    4  pz     Ryd( 4p)     0.00142       0.50195
    82    C    4  pz     Ryd( 3p)     0.00046       0.27601
    83    C    4  pz     Ryd( 5p)     0.00002       2.71560
    84    C    4  dxy    Ryd( 3d)     0.00074       2.55272
    85    C    4  dxz    Ryd( 3d)     0.00051       1.65468
    86    C    4  dyz    Ryd( 3d)     0.00053       1.60326
    87    C    4  dx2y2  Ryd( 3d)     0.00069       2.51031
    88    C    4  dz2    Ryd( 3d)     0.00045       2.02531

    89    C    5  S      Cor( 1S)     1.99857     -10.12310
    90    C    5  S      Val( 2S)     0.93462      -0.22933
    91    C    5  S      Ryd( 4S)     0.00066       0.81554
    92    C    5  S      Ryd( 3S)     0.00023       0.57853
    93    C    5  S      Ryd( 5S)     0.00001      23.24683
    94    C    5  px     Val( 2p)     0.93681      -0.15744
    95    C    5  px     Ryd( 4p)     0.00678       0.93942
    96    C    5  px     Ryd( 3p)     0.00030       0.43124
    97    C    5  px     Ryd( 5p)     0.00040       3.00484
    98    C    5  py     Val( 2p)     1.07500      -0.09885
    99    C    5  py     Ryd( 4p)     0.00683       0.79706
   100    C    5  py     Ryd( 3p)     0.00023       0.43317
   101    C    5  py     Ryd( 5p)     0.00018       3.21173
   102    C    5  pz     Val( 2p)     1.06204      -0.15498
   103    C    5  pz     Ryd( 4p)     0.00098       0.59182
   104    C    5  pz     Ryd( 3p)     0.00041       0.36930
   105    C    5  pz     Ryd( 5p)     0.00003       2.57305
   106    C    5  dxy    Ryd( 3d)     0.00143       2.35365
   107    C    5  dxz    Ryd( 3d)     0.00140       1.48976
   108    C    5  dyz    Ryd( 3d)     0.00072       1.61451
   109    C    5  dx2y2  Ryd( 3d)     0.00163       2.27233
   110    C    5  dz2    Ryd( 3d)     0.00083       1.96170

   111    C    6  S      Cor( 1S)     1.99896     -10.04800
   112    C    6  S      Val( 2S)     0.94987      -0.17888
   113    C    6  S      Ryd( 3S)     0.00196       0.74557
   114    C    6  S      Ryd( 4S)     0.00033       0.91965
   115    C    6  S      Ryd( 5S)     0.00001      22.91836
   116    C    6  px     Val( 2p)     1.13538      -0.07770
   117    C    6  px     Ryd( 4p)     0.00673       0.90207
   118    C    6  px     Ryd( 3p)     0.00041       0.37592
   119    C    6  px     Ryd( 5p)     0.00010       3.15098
   120    C    6  py     Val( 2p)     1.11962      -0.08511
   121    C    6  py     Ryd( 4p)     0.00492       0.82052
   122    C    6  py     Ryd( 3p)     0.00029       0.33292
   123    C    6  py     Ryd( 5p)     0.00012       3.15117
   124    C    6  pz     Val( 2p)     1.01719      -0.12635
   125    C    6  pz     Ryd( 4p)     0.00120       0.49746
   126    C    6  pz     Ryd( 3p)     0.00040       0.29027
   127    C    6  pz     Ryd( 5p)     0.00001       2.68953
   128    C    6  dxy    Ryd( 3d)     0.00072       2.44492
   129    C    6  dxz    Ryd( 3d)     0.00047       1.61764
   130    C    6  dyz    Ryd( 3d)     0.00048       1.62623
   131    C    6  dx2y2  Ryd( 3d)     0.00078       2.55525
   132    C    6  dz2    Ryd( 3d)     0.00042       2.00848

   133    H    7  S      Val( 1S)     0.78147       0.02349
   134    H    7  S      Ryd( 2S)     0.00060       0.57280
   135    H    7  S      Ryd( 3S)     0.00017       2.15111
   136    H    7  px     Ryd( 2p)     0.00013       1.97387
   137    H    7  py     Ryd( 2p)     0.00043       2.62313
   138    H    7  pz     Ryd( 2p)     0.00020       1.57096

   139    H    8  S      Val( 1S)     0.78097       0.01891
   140    H    8  S      Ryd( 2S)     0.00088       0.67333
   141    H    8  S      Ryd( 3S)     0.00017       1.97253
   142    H    8  px     Ryd( 2p)     0.00043       2.58452
   143    H    8  py     Ryd( 2p)     0.00013       2.02528
   144    H    8  pz     Ryd( 2p)     0.00018       1.57826

   145    H    9  S      Val( 1S)     0.77315       0.02726
   146    H    9  S      Ryd( 2S)     0.00066       0.81645
   147    H    9  S      Ryd( 3S)     0.00018       1.90217
   148    H    9  px     Ryd( 2p)     0.00032       2.34841
   149    H    9  py     Ryd( 2p)     0.00026       2.25883
   150    H    9  pz     Ryd( 2p)     0.00019       1.57885

   151   Cl   10  S      Cor( 1S)     2.00000    -100.22730
   152   Cl   10  S      Cor( 2S)     1.99971     -10.48601
   153   Cl   10  S      Val( 3S)     1.83773      -1.01023
   154   Cl   10  S      Ryd( 4S)     0.00226       0.74687
   155   Cl   10  S      Ryd( 5S)     0.00008       1.06676
   156   Cl   10  S      Ryd( 6S)     0.00000      17.29178
   157   Cl   10  S      Ryd( 7S)     0.00000     207.76911
   158   Cl   10  px     Cor( 2p)     1.99992      -7.23312
   159   Cl   10  px     Val( 3p)     1.30398      -0.28239
   160   Cl   10  px     Ryd( 4p)     0.00364       0.35205
   161   Cl   10  px     Ryd( 5p)     0.00014       0.46620
   162   Cl   10  px     Ryd( 6p)     0.00002       5.94575
   163   Cl   10  px     Ryd( 7p)     0.00000      22.62164
   164   Cl   10  py     Cor( 2p)     1.99999      -7.22637
   165   Cl   10  py     Val( 3p)     1.90136      -0.32275
   166   Cl   10  py     Ryd( 4p)     0.00219       0.38097
   167   Cl   10  py     Ryd( 5p)     0.00012       0.52648
   168   Cl   10  py     Ryd( 6p)     0.00001       5.27425
   169   Cl   10  py     Ryd( 7p)     0.00000      22.78324
   170   Cl   10  pz     Cor( 2p)     1.99999      -7.22595
   171   Cl   10  pz     Val( 3p)     1.92720      -0.32598
   172   Cl   10  pz     Ryd( 4p)     0.00193       0.37976
   173   Cl   10  pz     Ryd( 5p)     0.00012       0.49143
   174   Cl   10  pz     Ryd( 6p)     0.00001       4.90992
   175   Cl   10  pz     Ryd( 7p)     0.00000      22.84991
   176   Cl   10  dxy    Ryd( 3d)     0.00221       1.14852
   177   Cl   10  dxz    Ryd( 3d)     0.00214       0.92310
   178   Cl   10  dyz    Ryd( 3d)     0.00027       0.86888
   179   Cl   10  dx2y2  Ryd( 3d)     0.00325       1.17628
   180   Cl   10  dz2    Ryd( 3d)     0.00140       0.97302

   181    H   11  S      Val( 1S)     0.76344       0.04498
   182    H   11  S      Ryd( 2S)     0.00107       0.89418
   183    H   11  S      Ryd( 3S)     0.00019       1.73475
   184    H   11  px     Ryd( 2p)     0.00015       2.01666
   185    H   11  py     Ryd( 2p)     0.00042       2.68334
   186    H   11  pz     Ryd( 2p)     0.00015       1.60197

   187    O   12  S      Cor( 1S)     1.99977     -18.95357
   188    O   12  S      Val( 2S)     1.67704      -0.92424
   189    O   12  S      Ryd( 4S)     0.00044       1.95169
   190    O   12  S      Ryd( 3S)     0.00038       0.94571
   191    O   12  S      Ryd( 5S)     0.00000      49.53870
   192    O   12  px     Val( 2p)     1.55910      -0.31199
   193    O   12  px     Ryd( 3p)     0.00302       0.52086
   194    O   12  px     Ryd( 4p)     0.00008       1.13764
   195    O   12  px     Ryd( 5p)     0.00001       4.90897
   196    O   12  py     Val( 2p)     1.76229      -0.32817
   197    O   12  py     Ryd( 3p)     0.00234       0.54274
   198    O   12  py     Ryd( 4p)     0.00014       1.15662
   199    O   12  py     Ryd( 5p)     0.00002       4.81564
   200    O   12  pz     Val( 2p)     1.70184      -0.31618
   201    O   12  pz     Ryd( 3p)     0.00193       0.52738
   202    O   12  pz     Ryd( 4p)     0.00010       1.12000
   203    O   12  pz     Ryd( 5p)     0.00002       4.86329
   204    O   12  dxy    Ryd( 3d)     0.00093       3.26810
   205    O   12  dxz    Ryd( 3d)     0.00097       3.33061
   206    O   12  dyz    Ryd( 3d)     0.00092       3.01083
   207    O   12  dx2y2  Ryd( 3d)     0.00049       3.08814
   208    O   12  dz2    Ryd( 3d)     0.00095       3.13743

   209    H   13  S      Val( 1S)     0.52181       0.09923
   210    H   13  S      Ryd( 2S)     0.00066       1.12075
   211    H   13  S      Ryd( 3S)     0.00037       1.56152
   212    H   13  px     Ryd( 2p)     0.00110       2.02333
   213    H   13  py     Ryd( 2p)     0.00141       1.58998
   214    H   13  pz     Ryd( 2p)     0.00103       2.16829

 WARNING:  1 low occupancy (<1.9990e) core orbital  found on  C    3
           1 low occupancy (<1.9990e) core orbital  found on  C    4
           1 low occupancy (<1.9990e) core orbital  found on  C    5
           1 low occupancy (<1.9990e) core orbital  found on  C    6

 WARNING:  Population inversion found on atom  C    1
           Population inversion found on atom  C    2
           Population inversion found on atom  C    3
           Population inversion found on atom  C    4
           Population inversion found on atom  C    5
           Population inversion found on atom  C    6
           Population inversion found on atom  O   12


 Summary of Natural Population Analysis:                  
                                                          
                                       Natural Population 
                Natural  -----------------------------------------------
    Atom  No    Charge         Core      Valence    Rydberg      Total
 -----------------------------------------------------------------------
      C    1   -0.18210      1.99915     4.16488    0.01808     6.18210
      C    2   -0.26013      1.99902     4.24237    0.01874     6.26013
      C    3    0.31182      1.99866     3.66655    0.02297     5.68818
      C    4   -0.26439      1.99885     4.24712    0.01841     6.26439
      C    5   -0.03009      1.99857     4.00846    0.02305     6.03009
      C    6   -0.24036      1.99896     4.22206    0.01934     6.24036
      H    7    0.21701      0.00000     0.78147    0.00152     0.78299
      H    8    0.21724      0.00000     0.78097    0.00178     0.78276
      H    9    0.22524      0.00000     0.77315    0.00161     0.77476
     Cl   10    0.01035      9.99961     6.97027    0.01977    16.98965
      H   11    0.23456      0.00000     0.76344    0.00200     0.76544
      O   12   -0.71277      1.99977     6.70026    0.01274     8.71277
      H   13    0.47362      0.00000     0.52181    0.00457     0.52638
 =======================================================================
   * Total *    0.00000     23.99259    41.84282    0.16458    66.00000

                                 Natural Population      
 --------------------------------------------------------
   Core                      23.99259 ( 99.9691% of  24)
   Valence                   41.84282 ( 99.6258% of  42)
   Natural Minimal Basis     65.83542 ( 99.7506% of  66)
   Natural Rydberg Basis      0.16458 (  0.2494% of  66)
 --------------------------------------------------------

    Atom  No          Natural Electron Configuration
 ----------------------------------------------------------------------------
      C    1      [core]2S( 0.95)2p( 3.21)4p( 0.01)
      C    2      [core]2S( 0.96)2p( 3.28)4p( 0.01)
      C    3      [core]2S( 0.85)2p( 2.82)3d( 0.01)4p( 0.01)
      C    4      [core]2S( 0.95)2p( 3.30)4p( 0.01)
      C    5      [core]2S( 0.93)2p( 3.07)3d( 0.01)4p( 0.01)
      C    6      [core]2S( 0.95)2p( 3.27)4p( 0.01)
      H    7            1S( 0.78)
      H    8            1S( 0.78)
      H    9            1S( 0.77)
     Cl   10      [core]3S( 1.84)3p( 5.13)3d( 0.01)4p( 0.01)
      H   11            1S( 0.76)
      O   12      [core]2S( 1.68)2p( 5.02)3p( 0.01)
      H   13            1S( 0.52)


 NBO analysis skipped by request.
 Calling FoFJK, ICntrl=      2127 FMM=F ISym2X=0 I1Cent= 0 IOpClX= 0 NMat=1 NMatS=1 NMatT=0.
 ***** Axes restored to original set *****
 -------------------------------------------------------------------
 Center     Atomic                   Forces (Hartrees/Bohr)
 Number     Number              X              Y              Z
 -------------------------------------------------------------------
      1        6          -0.000131357   -0.002013140   -0.000533125
      2        6           0.004408653   -0.011588489   -0.000000267
      3        6           0.019258183   -0.006527169   -0.005976762
      4        6           0.001477963   -0.000357214    0.001695544
      5        6           0.004063998   -0.010819046    0.001471928
      6        6          -0.017253729    0.000750725   -0.000078006
      7        1           0.004996279    0.009510951    0.000052301
      8        1          -0.003995928    0.009196656    0.000525762
      9        1           0.010815228    0.000759899    0.000066229
     10       17           0.002339090   -0.002753385   -0.000088560
     11        1           0.005840093    0.007066576   -0.000463626
     12        8          -0.030085054    0.010360156    0.004790013
     13        1          -0.001733418   -0.003586520   -0.001461432
 -------------------------------------------------------------------
 Cartesian Forces:  Max     0.030085054 RMS     0.008055856

 GradGradGradGradGradGradGradGradGradGradGradGradGradGradGradGradGradGrad
 Berny optimization.
 FormGI is forming the generalized inverse of G from B-inverse, IUseBI=4.
 Internal  Forces:  Max     0.031816474 RMS     0.005691381
 Search for a local minimum.
 Step number   1 out of a maximum of   68
 All quantities printed in internal units (Hartrees-Bohrs-Radians)
 Mixed Optimization -- RFO/linear search
 Second derivative matrix not updated -- first step.
 ITU=  0
     Eigenvalues ---    0.01295   0.01998   0.02152   0.02153   0.02154
     Eigenvalues ---    0.02155   0.02155   0.02155   0.02156   0.02157
     Eigenvalues ---    0.16000   0.16000   0.16000   0.16000   0.16000
     Eigenvalues ---    0.22000   0.23479   0.23493   0.25000   0.25000
     Eigenvalues ---    0.29539   0.33720   0.33725   0.33726   0.37230
     Eigenvalues ---    0.40989   0.42204   0.42409   0.46412   0.46453
     Eigenvalues ---    0.46466   0.46497   0.55473
 RFO step:  Lambda=-5.97663873D-03 EMin= 1.29493780D-02
 Linear search not attempted -- first point.
 Iteration  1 RMS(Cart)=  0.03094484 RMS(Int)=  0.00125966
 Iteration  2 RMS(Cart)=  0.00105011 RMS(Int)=  0.00027695
 Iteration  3 RMS(Cart)=  0.00000336 RMS(Int)=  0.00027693
 Iteration  4 RMS(Cart)=  0.00000000 RMS(Int)=  0.00027693
 Variable       Old X    -DE/DX   Delta X   Delta X   Delta X     New X
                                 (Linear)    (Quad)   (Total)
    R1        2.63647  -0.00188   0.00000  -0.00399  -0.00402   2.63245
    R2        2.63584  -0.00204   0.00000  -0.00423  -0.00429   2.63155
    R3        2.07796  -0.01074   0.00000  -0.03128  -0.03128   2.04669
    R4        2.63562  -0.00204   0.00000  -0.00443  -0.00438   2.63125
    R5        2.07805  -0.00996   0.00000  -0.02903  -0.02903   2.04902
    R6        2.63697  -0.00623   0.00000  -0.01338  -0.01331   2.62366
    R7        2.70231  -0.03182   0.00000  -0.07651  -0.07651   2.62580
    R8        2.63584  -0.00295   0.00000  -0.00627  -0.00625   2.62959
    R9        2.02201   0.00904   0.00000   0.02390   0.02390   2.04591
   R10        2.63643  -0.00311   0.00000  -0.00652  -0.00656   2.62986
   R11        3.32592  -0.00355   0.00000  -0.01179  -0.01179   3.31413
   R12        2.07795  -0.01082   0.00000  -0.03151  -0.03151   2.04644
   R13        1.81414   0.00244   0.00000   0.00435   0.00435   1.81849
    A1        2.09437   0.00235   0.00000   0.01169   0.01162   2.10599
    A2        2.09435  -0.00072   0.00000  -0.00314  -0.00315   2.09120
    A3        2.09447  -0.00162   0.00000  -0.00855  -0.00857   2.08591
    A4        2.09455  -0.00319   0.00000  -0.01326  -0.01318   2.08136
    A5        2.09406   0.00277   0.00000   0.01370   0.01364   2.10770
    A6        2.09458   0.00042   0.00000  -0.00045  -0.00050   2.09408
    A7        2.09429   0.00499   0.00000   0.02004   0.01973   2.11402
    A8        2.09462   0.00474   0.00000   0.01824   0.01765   2.11227
    A9        2.09427  -0.00973   0.00000  -0.03826  -0.03875   2.05552
   A10        2.09429  -0.00574   0.00000  -0.02463  -0.02449   2.06980
   A11        2.09445   0.00132   0.00000   0.00301   0.00293   2.09738
   A12        2.09445   0.00442   0.00000   0.02163   0.02155   2.11600
   A13        2.09448   0.00652   0.00000   0.02653   0.02654   2.12102
   A14        2.09459  -0.00435   0.00000  -0.01751  -0.01754   2.07706
   A15        2.09411  -0.00217   0.00000  -0.00901  -0.00904   2.08507
   A16        2.09440  -0.00493   0.00000  -0.02034  -0.02040   2.07399
   A17        2.09453   0.00326   0.00000   0.01497   0.01499   2.10953
   A18        2.09426   0.00167   0.00000   0.00537   0.00540   2.09965
   A19        1.91114  -0.00491   0.00000  -0.02956  -0.02956   1.88157
    D1        0.00056  -0.00048   0.00000  -0.01799  -0.01804  -0.01747
    D2        3.14078  -0.00069   0.00000  -0.02556  -0.02588   3.11489
    D3       -3.14112  -0.00008   0.00000  -0.00340  -0.00323   3.13883
    D4       -0.00091  -0.00030   0.00000  -0.01097  -0.01108  -0.01199
    D5        0.00026   0.00007   0.00000   0.00221   0.00242   0.00268
    D6        3.14140   0.00025   0.00000   0.00908   0.00926  -3.13252
    D7       -3.14124  -0.00033   0.00000  -0.01238  -0.01234   3.12961
    D8       -0.00010  -0.00015   0.00000  -0.00551  -0.00550  -0.00560
    D9       -0.00099   0.00051   0.00000   0.02017   0.02029   0.01930
   D10        3.14093  -0.00096   0.00000  -0.03662  -0.03761   3.10331
   D11       -3.14120   0.00072   0.00000   0.02773   0.02806  -3.11314
   D12        0.00072  -0.00075   0.00000  -0.02906  -0.02984  -0.02912
   D13        0.00060  -0.00014   0.00000  -0.00660  -0.00674  -0.00615
   D14       -3.14100  -0.00030   0.00000  -0.01241  -0.01233   3.12986
   D15       -3.14132   0.00133   0.00000   0.05019   0.04934  -3.09198
   D16        0.00027   0.00117   0.00000   0.04438   0.04376   0.04403
   D17        0.98386  -0.00113   0.00000  -0.07015  -0.07053   0.91333
   D18       -2.15741  -0.00260   0.00000  -0.12695  -0.12656  -2.28397
   D19        0.00023  -0.00027   0.00000  -0.00916  -0.00937  -0.00914
   D20       -3.14158   0.00000   0.00000   0.00032   0.00032  -3.14126
   D21       -3.14136  -0.00010   0.00000  -0.00335  -0.00373   3.13810
   D22        0.00001   0.00016   0.00000   0.00613   0.00597   0.00598
   D23       -0.00066   0.00030   0.00000   0.01136   0.01151   0.01085
   D24        3.14138   0.00012   0.00000   0.00448   0.00471  -3.13709
   D25        3.14116   0.00004   0.00000   0.00189   0.00177  -3.14026
   D26        0.00001  -0.00014   0.00000  -0.00499  -0.00503  -0.00502
         Item               Value     Threshold  Converged?
 Maximum Force            0.031816     0.000450     NO 
 RMS     Force            0.005691     0.000300     NO 
 Maximum Displacement     0.109966     0.001800     NO 
 RMS     Displacement     0.031506     0.001200     NO 
 Predicted change in Energy=-3.128288D-03
 GradGradGradGradGradGradGradGradGradGradGradGradGradGradGradGradGradGrad

                          Input orientation:                          
 ---------------------------------------------------------------------
 Center     Atomic      Atomic             Coordinates (Angstroms)
 Number     Number       Type             X           Y           Z
 ---------------------------------------------------------------------
      1          6           0        0.093968   -0.038123   -0.011471
      2          6           0        1.486980   -0.042893   -0.017775
      3          6           0        2.171497    1.169527   -0.033255
      4          6           0        1.489638    2.378860   -0.019537
      5          6           0        0.098444    2.358709    0.002689
      6          6           0       -0.612094    1.162105    0.000443
      7          1           0       -0.447738   -0.975931   -0.002038
      8          1           0        2.038457   -0.976339   -0.002177
      9          1           0       -1.694915    1.169601    0.013801
     10         17           0       -0.773935    3.880005    0.019674
     11          1           0        2.037673    3.312551   -0.020919
     12          8           0        3.559919    1.208594    0.005587
     13          1           0        3.890095    0.636386   -0.694120
 ---------------------------------------------------------------------
                    Distance matrix (angstroms):
                    1          2          3          4          5
     1  C    0.000000
     2  C    1.393035   0.000000
     3  C    2.403127   1.392395   0.000000
     4  C    2.791016   2.421755   1.388383   0.000000
     5  C    2.396879   2.774193   2.390187   1.391517   0.000000
     6  C    1.392557   2.420426   2.783804   2.428614   1.391664
     7  H    1.083059   2.148008   3.385905   3.874062   3.379077
     8  H    2.159022   1.084293   2.150210   3.399833   3.858267
     9  H    2.158550   3.405231   3.866698   3.406581   2.151799
    10  Cl   4.013222   4.527943   4.003131   2.716383   1.753760
    11  H    3.873642   3.400335   2.147234   1.082647   2.161246
    12  O    3.683397   2.421537   1.389515   2.378281   3.647545
    13  H    3.915553   2.587243   1.916915   3.041952   4.222388
                    6          7          8          9         10
     6  C    0.000000
     7  H    2.144346   0.000000
     8  H    3.405638   2.486195   0.000000
     9  H    1.082930   2.481735   4.306203   0.000000
    10  Cl   2.722782   4.866928   5.611961   2.862609   0.000000
    11  H    3.412644   4.956683   4.288931   4.304144   2.868587
    12  O    4.172275   4.564375   2.662487   5.254986   5.091063
    13  H    4.585684   4.679245   2.551123   5.654893   5.725709
                   11         12         13
    11  H    0.000000
    12  O    2.597031   0.000000
    13  H    3.323632   0.962304   0.000000
 Stoichiometry    C6H5ClO
 Framework group  C1[X(C6H5ClO)]
 Deg. of freedom    33
 Full point group                 C1      NOp   1
 Largest Abelian subgroup         C1      NOp   1
 Largest concise Abelian subgroup C1      NOp   1
                         Standard orientation:                         
 ---------------------------------------------------------------------
 Center     Atomic      Atomic             Coordinates (Angstroms)
 Number     Number       Type             X           Y           Z
 ---------------------------------------------------------------------
      1          6           0        0.770066    1.823303    0.001870
      2          6           0        1.804134    0.890064   -0.015872
      3          6           0        1.495569   -0.467679   -0.006484
      4          6           0        0.177565   -0.904094   -0.002741
      5          6           0       -0.838653    0.046496   -0.001067
      6          6           0       -0.559695    1.409886    0.007791
      7          1           0        0.999731    2.881722   -0.002641
      8          1           0        2.839668    1.210204   -0.045377
      9          1           0       -1.366183    2.132580    0.013143
     10         17           0       -2.507470   -0.492665    0.004165
     11          1           0       -0.044776   -1.963657   -0.006408
     12          8           0        2.496042   -1.429909   -0.069079
     13          1           0        3.136299   -1.234111    0.622126
 ---------------------------------------------------------------------
 Rotational constants (GHZ):      3.4352422      1.1862876      0.8831979
 Standard basis: 6-311+G(d,p) (5D, 7F)
 There are   222 symmetry adapted cartesian basis functions of A   symmetry.
 There are   214 symmetry adapted basis functions of A   symmetry.
   214 basis functions,   345 primitive gaussians,   222 cartesian basis functions
    33 alpha electrons       33 beta electrons
       nuclear repulsion energy       395.5511245037 Hartrees.
 NAtoms=   13 NActive=   13 NUniq=   13 SFac= 1.00D+00 NAtFMM=   60 NAOKFM=F Big=F
 Integral buffers will be    131072 words long.
 Raffenetti 2 integral format.
 Two-electron integral symmetry is turned on.
 One-electron integrals computed using PRISM.
 NBasis=   214 RedAO= T EigKep=  3.31D-06  NBF=   214
 NBsUse=   214 1.00D-06 EigRej= -1.00D+00 NBFU=   214
 Initial guess from the checkpoint file:  "29.chk"
 B after Tr=     0.000000    0.000000    0.000000
         Rot=    0.999995    0.000412   -0.000140    0.003201 Ang=   0.37 deg.
 ExpMin= 4.38D-02 ExpMax= 1.06D+05 ExpMxC= 3.62D+03 IAcc=2 IRadAn=         4 AccDes= 0.00D+00
 Harris functional with IExCor=  402 and IRadAn=       4 diagonalized for initial guess.
 HarFok:  IExCor=  402 AccDes= 0.00D+00 IRadAn=         4 IDoV= 1 UseB2=F ITyADJ=14
 ICtDFT=  3500011 ScaDFX=  1.000000  1.000000  1.000000  1.000000
 FoFCou: FMM=F IPFlag=           0 FMFlag=      100000 FMFlg1=           0
         NFxFlg=           0 DoJE=T BraDBF=F KetDBF=T FulRan=T
         wScrn=  0.000000 ICntrl=     500 IOpCl=  0 I1Cent=   200000004 NGrid=           0
         NMat0=    1 NMatS0=      1 NMatT0=    0 NMatD0=    1 NMtDS0=    0 NMtDT0=    0
 Petite list used in FoFCou.
 Keep R1 ints in memory in canonical form, NReq=270343676.
 Requested convergence on RMS density matrix=1.00D-08 within 128 cycles.
 Requested convergence on MAX density matrix=1.00D-06.
 Requested convergence on             energy=1.00D-06.
 No special actions if energy rises.
 SCF Done:  E(RB3LYP) =  -767.177665052     A.U. after   13 cycles
            NFock= 13  Conv=0.29D-08     -V/T= 2.0030
 Calling FoFJK, ICntrl=      2127 FMM=F ISym2X=0 I1Cent= 0 IOpClX= 0 NMat=1 NMatS=1 NMatT=0.
 ***** Axes restored to original set *****
 -------------------------------------------------------------------
 Center     Atomic                   Forces (Hartrees/Bohr)
 Number     Number              X              Y              Z
 -------------------------------------------------------------------
      1        6           0.001696604    0.000594965   -0.000190308
      2        6          -0.002476750   -0.001841622   -0.001425166
      3        6           0.009387747   -0.001519640    0.002743847
      4        6          -0.002592585    0.003760370    0.001480988
      5        6           0.001514376   -0.002269764   -0.000386537
      6        6          -0.002759145    0.000427484    0.000291846
      7        1          -0.000252556   -0.000402858   -0.000076991
      8        1           0.000098928    0.000198235    0.000123863
      9        1           0.000582878    0.000283880   -0.000008236
     10       17          -0.000922046    0.001479387    0.000082822
     11        1           0.000168812   -0.000860719   -0.000232720
     12        8          -0.007323990    0.002399063   -0.004527638
     13        1           0.002877726   -0.002248780    0.002124231
 -------------------------------------------------------------------
 Cartesian Forces:  Max     0.009387747 RMS     0.002550296

 GradGradGradGradGradGradGradGradGradGradGradGradGradGradGradGradGradGrad
 Berny optimization.
 Using GEDIIS/GDIIS optimizer.
 FormGI is forming the generalized inverse of G from B-inverse, IUseBI=4.
 Internal  Forces:  Max     0.005025132 RMS     0.001276023
 Search for a local minimum.
 Step number   2 out of a maximum of   68
 All quantities printed in internal units (Hartrees-Bohrs-Radians)
 Mixed Optimization -- RFO/linear search
 Update second derivatives using D2CorX and points    1    2
 DE= -3.41D-03 DEPred=-3.13D-03 R= 1.09D+00
 TightC=F SS=  1.41D+00  RLast= 2.17D-01 DXNew= 5.0454D-01 6.5017D-01
 Trust test= 1.09D+00 RLast= 2.17D-01 DXMaxT set to 5.05D-01
 ITU=  1  0
 Use linear search instead of GDIIS.
     Eigenvalues ---    0.01105   0.02067   0.02152   0.02154   0.02155
     Eigenvalues ---    0.02155   0.02156   0.02156   0.02157   0.02178
     Eigenvalues ---    0.15793   0.15998   0.15999   0.16000   0.16572
     Eigenvalues ---    0.21768   0.23181   0.24289   0.24722   0.25035
     Eigenvalues ---    0.29701   0.33614   0.33722   0.34416   0.37663
     Eigenvalues ---    0.37969   0.42250   0.42926   0.46431   0.46464
     Eigenvalues ---    0.46473   0.48771   0.55439
 RFO step:  Lambda=-1.42159888D-03 EMin= 1.10526852D-02
 Quartic linear search produced a step of  0.12167.
 Iteration  1 RMS(Cart)=  0.03677049 RMS(Int)=  0.00516762
 Iteration  2 RMS(Cart)=  0.00490875 RMS(Int)=  0.00007699
 Iteration  3 RMS(Cart)=  0.00007195 RMS(Int)=  0.00003076
 Iteration  4 RMS(Cart)=  0.00000001 RMS(Int)=  0.00003076
 Variable       Old X    -DE/DX   Delta X   Delta X   Delta X     New X
                                 (Linear)    (Quad)   (Total)
    R1        2.63245   0.00006  -0.00049  -0.00025  -0.00074   2.63171
    R2        2.63155   0.00105  -0.00052   0.00191   0.00138   2.63293
    R3        2.04669   0.00047  -0.00381  -0.00120  -0.00501   2.04168
    R4        2.63125   0.00216  -0.00053   0.00492   0.00439   2.63563
    R5        2.04902  -0.00012  -0.00353  -0.00295  -0.00648   2.04253
    R6        2.62366   0.00341  -0.00162   0.00716   0.00555   2.62921
    R7        2.62580  -0.00451  -0.00931  -0.01900  -0.02831   2.59749
    R8        2.62959   0.00008  -0.00076  -0.00033  -0.00109   2.62850
    R9        2.04591  -0.00066   0.00291   0.00017   0.00308   2.04898
   R10        2.62986   0.00002  -0.00080  -0.00072  -0.00152   2.62834
   R11        3.31413   0.00174  -0.00143   0.00549   0.00406   3.31819
   R12        2.04644  -0.00058  -0.00383  -0.00468  -0.00852   2.03792
   R13        1.81849   0.00078   0.00053   0.00196   0.00249   1.82098
    A1        2.10599   0.00102   0.00141   0.00547   0.00687   2.11286
    A2        2.09120  -0.00049  -0.00038  -0.00237  -0.00275   2.08845
    A3        2.08591  -0.00053  -0.00104  -0.00311  -0.00415   2.08175
    A4        2.08136   0.00020  -0.00160   0.00003  -0.00157   2.07979
    A5        2.10770   0.00009   0.00166   0.00183   0.00349   2.11119
    A6        2.09408  -0.00028  -0.00006  -0.00187  -0.00193   2.09215
    A7        2.11402  -0.00166   0.00240  -0.00482  -0.00246   2.11156
    A8        2.11227   0.00215   0.00215   0.01095   0.01302   2.12529
    A9        2.05552  -0.00049  -0.00471  -0.00559  -0.01036   2.04516
   A10        2.06980   0.00041  -0.00298   0.00035  -0.00261   2.06718
   A11        2.09738  -0.00081   0.00036  -0.00507  -0.00473   2.09265
   A12        2.11600   0.00040   0.00262   0.00475   0.00736   2.12336
   A13        2.12102   0.00077   0.00323   0.00534   0.00858   2.12959
   A14        2.07706  -0.00029  -0.00213  -0.00260  -0.00474   2.07232
   A15        2.08507  -0.00048  -0.00110  -0.00272  -0.00383   2.08125
   A16        2.07399  -0.00073  -0.00248  -0.00633  -0.00882   2.06517
   A17        2.10953   0.00067   0.00182   0.00563   0.00746   2.11698
   A18        2.09965   0.00007   0.00066   0.00072   0.00138   2.10103
   A19        1.88157   0.00503  -0.00360   0.03217   0.02857   1.91014
    D1       -0.01747  -0.00005  -0.00219  -0.00177  -0.00397  -0.02144
    D2        3.11489  -0.00007  -0.00315  -0.00242  -0.00561   3.10928
    D3        3.13883  -0.00002  -0.00039  -0.00091  -0.00128   3.13755
    D4       -0.01199  -0.00004  -0.00135  -0.00156  -0.00293  -0.01492
    D5        0.00268   0.00011   0.00029   0.00544   0.00576   0.00844
    D6       -3.13252   0.00003   0.00113   0.00113   0.00228  -3.13025
    D7        3.12961   0.00009  -0.00150   0.00459   0.00309   3.13270
    D8       -0.00560   0.00000  -0.00067   0.00028  -0.00039  -0.00599
    D9        0.01930  -0.00006   0.00247  -0.00272  -0.00025   0.01905
   D10        3.10331   0.00014  -0.00458   0.00842   0.00374   3.10706
   D11       -3.11314  -0.00004   0.00341  -0.00209   0.00134  -3.11180
   D12       -0.02912   0.00015  -0.00363   0.00905   0.00534  -0.02379
   D13       -0.00615   0.00006  -0.00082   0.00323   0.00239  -0.00376
   D14        3.12986   0.00019  -0.00150   0.00885   0.00734   3.13720
   D15       -3.09198  -0.00021   0.00600  -0.00809  -0.00216  -3.09414
   D16        0.04403  -0.00008   0.00532  -0.00247   0.00278   0.04681
   D17        0.91333  -0.00276  -0.00858  -0.20840  -0.21703   0.69630
   D18       -2.28397  -0.00261  -0.01540  -0.19762  -0.21297  -2.49693
   D19       -0.00914   0.00001  -0.00114   0.00058  -0.00058  -0.00972
   D20       -3.14126  -0.00004   0.00004  -0.00204  -0.00199   3.13993
   D21        3.13810  -0.00012  -0.00045  -0.00507  -0.00557   3.13252
   D22        0.00598  -0.00016   0.00073  -0.00768  -0.00699  -0.00101
   D23        0.01085  -0.00009   0.00140  -0.00485  -0.00343   0.00742
   D24       -3.13709  -0.00001   0.00057  -0.00055   0.00004  -3.13706
   D25       -3.14026  -0.00004   0.00022  -0.00223  -0.00202   3.14091
   D26       -0.00502   0.00004  -0.00061   0.00207   0.00145  -0.00356
         Item               Value     Threshold  Converged?
 Maximum Force            0.005025     0.000450     NO 
 RMS     Force            0.001276     0.000300     NO 
 Maximum Displacement     0.185168     0.001800     NO 
 RMS     Displacement     0.039598     0.001200     NO 
 Predicted change in Energy=-8.655988D-04
 GradGradGradGradGradGradGradGradGradGradGradGradGradGradGradGradGradGrad

                          Input orientation:                          
 ---------------------------------------------------------------------
 Center     Atomic      Atomic             Coordinates (Angstroms)
 Number     Number       Type             X           Y           Z
 ---------------------------------------------------------------------
      1          6           0        0.099446   -0.033276   -0.018503
      2          6           0        1.491945   -0.035571   -0.038204
      3          6           0        2.173418    1.181199   -0.055510
      4          6           0        1.483313    2.389048   -0.030620
      5          6           0        0.093261    2.357115    0.007478
      6          6           0       -0.617062    1.161322    0.009720
      7          1           0       -0.436646   -0.971250   -0.008810
      8          1           0        2.046663   -0.963196   -0.030146
      9          1           0       -1.695159    1.167416    0.035496
     10         17           0       -0.785433    3.876964    0.041637
     11          1           0        2.031010    3.324774   -0.040523
     12          8           0        3.546452    1.242043   -0.034978
     13          1           0        3.906781    0.546463   -0.596133
 ---------------------------------------------------------------------
                    Distance matrix (angstroms):
                    1          2          3          4          5
     1  C    0.000000
     2  C    1.392641   0.000000
     3  C    2.403681   1.394717   0.000000
     4  C    2.789783   2.424646   1.391318   0.000000
     5  C    2.390540   2.771886   2.390356   1.390941   0.000000
     6  C    1.393285   2.425440   2.791313   2.433210   1.390857
     7  H    1.080409   2.143786   3.383438   3.870183   3.370324
     8  H    2.157902   1.080863   2.148287   3.399250   3.852487
     9  H    2.159904   3.407381   3.869673   3.405795   2.148166
    10  Cl   4.009565   4.527777   4.003923   2.714098   1.755908
    11  H    3.874006   3.403309   2.148353   1.084276   2.166458
    12  O    3.675400   2.419361   1.374534   2.360547   3.629010
    13  H    3.894298   2.545875   1.923462   3.096469   4.264474
                    6          7          8          9         10
     6  C    0.000000
     7  H    2.140271   0.000000
     8  H    3.407432   2.483413   0.000000
     9  H    1.078423   2.481877   4.306396   0.000000
    10  Cl   2.721044   4.861006   5.608304   2.858197   0.000000
    11  H    3.419844   4.954408   4.288011   4.306311   2.871240
    12  O    4.164536   4.556799   2.666922   5.242616   5.070889
    13  H    4.605460   4.638292   2.461595   5.671531   5.789289
                   11         12         13
    11  H    0.000000
    12  O    2.575725   0.000000
    13  H    3.397974   0.963620   0.000000
 Stoichiometry    C6H5ClO
 Framework group  C1[X(C6H5ClO)]
 Deg. of freedom    33
 Full point group                 C1      NOp   1
 Largest Abelian subgroup         C1      NOp   1
 Largest concise Abelian subgroup C1      NOp   1
                         Standard orientation:                         
 ---------------------------------------------------------------------
 Center     Atomic      Atomic             Coordinates (Angstroms)
 Number     Number       Type             X           Y           Z
 ---------------------------------------------------------------------
      1          6           0        0.771653    1.819426    0.002706
      2          6           0        1.806960    0.888125   -0.013611
      3          6           0        1.497972   -0.471888   -0.002287
      4          6           0        0.176139   -0.906056    0.002221
      5          6           0       -0.834893    0.049205   -0.000243
      6          6           0       -0.560979    1.412816    0.004438
      7          1           0        1.001951    2.874994   -0.002099
      8          1           0        2.839770    1.205284   -0.044875
      9          1           0       -1.365692    2.130748    0.006593
     10         17           0       -2.505905   -0.490167    0.002858
     11          1           0       -0.044035   -1.967731    0.006915
     12          8           0        2.475508   -1.436613   -0.057715
     13          1           0        3.223203   -1.167322    0.487261
 ---------------------------------------------------------------------
 Rotational constants (GHZ):      3.4393335      1.1900819      0.8850415
 Standard basis: 6-311+G(d,p) (5D, 7F)
 There are   222 symmetry adapted cartesian basis functions of A   symmetry.
 There are   214 symmetry adapted basis functions of A   symmetry.
   214 basis functions,   345 primitive gaussians,   222 cartesian basis functions
    33 alpha electrons       33 beta electrons
       nuclear repulsion energy       395.9087337693 Hartrees.
 NAtoms=   13 NActive=   13 NUniq=   13 SFac= 1.00D+00 NAtFMM=   60 NAOKFM=F Big=F
 Integral buffers will be    131072 words long.
 Raffenetti 2 integral format.
 Two-electron integral symmetry is turned on.
 One-electron integrals computed using PRISM.
 NBasis=   214 RedAO= T EigKep=  3.39D-06  NBF=   214
 NBsUse=   214 1.00D-06 EigRej= -1.00D+00 NBFU=   214
 Initial guess from the checkpoint file:  "29.chk"
 B after Tr=     0.000000    0.000000    0.000000
[...]
   A18        2.10272   0.00000   0.00000   0.00001   0.00001   2.10273
   A19        1.91771   0.00002   0.00000   0.00014   0.00014   1.91786
    D1        0.00015   0.00000   0.00000  -0.00015  -0.00015   0.00000
    D2       -3.14147   0.00000   0.00000  -0.00012  -0.00012  -3.14159
    D3       -3.14159   0.00000   0.00000   0.00000   0.00000   3.14159
    D4       -0.00003   0.00000   0.00000   0.00003   0.00003   0.00000
    D5       -0.00011   0.00000   0.00000   0.00011   0.00011   0.00000
    D6        3.14137   0.00001   0.00000   0.00022   0.00022   3.14159
    D7       -3.14156   0.00000   0.00000  -0.00004  -0.00004  -3.14159
    D8       -0.00007   0.00000   0.00000   0.00007   0.00007   0.00000
    D9       -0.00018   0.00000   0.00000   0.00018   0.00018   0.00000
   D10       -3.14155   0.00000   0.00000  -0.00004  -0.00004  -3.14159
   D11        3.14144   0.00000   0.00000   0.00015   0.00015   3.14159
   D12        0.00007   0.00000   0.00000  -0.00007  -0.00007   0.00000
   D13        0.00016   0.00000   0.00000  -0.00016  -0.00016   0.00000
   D14       -3.14147   0.00000   0.00000  -0.00012  -0.00012   3.14159
   D15        3.14155   0.00000   0.00000   0.00004   0.00004   3.14159
   D16       -0.00008   0.00000   0.00000   0.00008   0.00008   0.00000
   D17       -0.00034   0.00000   0.00000   0.00034   0.00034   0.00000
   D18        3.14146   0.00000   0.00000   0.00013   0.00013   3.14159
   D19       -0.00013   0.00000   0.00000   0.00013   0.00013   0.00000
   D20       -3.14149   0.00000   0.00000  -0.00011  -0.00011   3.14159
   D21        3.14151   0.00000   0.00000   0.00009   0.00009  -3.14159
   D22        0.00015   0.00000   0.00000  -0.00015  -0.00015   0.00000
   D23        0.00010   0.00000   0.00000  -0.00010  -0.00010   0.00000
   D24       -3.14138  -0.00001   0.00000  -0.00021  -0.00021   3.14159
   D25        3.14146   0.00000   0.00000   0.00013   0.00013  -3.14159
   D26       -0.00002   0.00000   0.00000   0.00002   0.00002   0.00000
         Item               Value     Threshold  Converged?
 Maximum Force            0.000037     0.000450     YES
 RMS     Force            0.000010     0.000300     YES
 Maximum Displacement     0.000262     0.001800     YES
 RMS     Displacement     0.000084     0.001200     YES
 Predicted change in Energy=-1.895867D-08
 Optimization completed.
    -- Stationary point found.
                           ----------------------------
                           !   Optimized Parameters   !
                           ! (Angstroms and Degrees)  !
 --------------------------                            --------------------------
 ! Name  Definition              Value          Derivative Info.                !
 --------------------------------------------------------------------------------
 ! R1    R(1,2)                  1.393          -DE/DX =    0.0                 !
 ! R2    R(1,6)                  1.3922         -DE/DX =    0.0                 !
 ! R3    R(1,7)                  1.0839         -DE/DX =    0.0                 !
 ! R4    R(2,3)                  1.396          -DE/DX =    0.0                 !
 ! R5    R(2,8)                  1.0855         -DE/DX =    0.0                 !
 ! R6    R(3,4)                  1.3961         -DE/DX =    0.0                 !
 ! R7    R(3,12)                 1.3666         -DE/DX =    0.0                 !
 ! R8    R(4,5)                  1.388          -DE/DX =    0.0                 !
 ! R9    R(4,11)                 1.0817         -DE/DX =    0.0                 !
 ! R10   R(5,6)                  1.3929         -DE/DX =    0.0                 !
 ! R11   R(5,10)                 1.7592         -DE/DX =    0.0                 !
 ! R12   R(6,9)                  1.0815         -DE/DX =    0.0                 !
 ! R13   R(12,13)                0.9629         -DE/DX =    0.0                 !
 ! A1    A(2,1,6)              121.0675         -DE/DX =    0.0                 !
 ! A2    A(2,1,7)              119.4707         -DE/DX =    0.0                 !
 ! A3    A(6,1,7)              119.4618         -DE/DX =    0.0                 !
 ! A4    A(1,2,3)              119.4859         -DE/DX =    0.0                 !
 ! A5    A(1,2,8)              120.3273         -DE/DX =    0.0                 !
 ! A6    A(3,2,8)              120.1868         -DE/DX =    0.0                 !
 ! A7    A(2,3,4)              120.4473         -DE/DX =    0.0                 !
 ! A8    A(2,3,12)             122.7678         -DE/DX =    0.0                 !
 ! A9    A(4,3,12)             116.7849         -DE/DX =    0.0                 !
 ! A10   A(3,4,5)              118.6874         -DE/DX =    0.0                 !
 ! A11   A(3,4,11)             119.8101         -DE/DX =    0.0                 !
 ! A12   A(5,4,11)             121.5025         -DE/DX =    0.0                 !
 ! A13   A(4,5,6)              122.096          -DE/DX =    0.0                 !
 ! A14   A(4,5,10)             118.7343         -DE/DX =    0.0                 !
 ! A15   A(6,5,10)             119.1697         -DE/DX =    0.0                 !
 ! A16   A(1,6,5)              118.2158         -DE/DX =    0.0                 !
 ! A17   A(1,6,9)              121.3074         -DE/DX =    0.0                 !
 ! A18   A(5,6,9)              120.4767         -DE/DX =    0.0                 !
 ! A19   A(3,12,13)            109.8769         -DE/DX =    0.0                 !
 ! D1    D(6,1,2,3)              0.0087         -DE/DX =    0.0                 !
 ! D2    D(6,1,2,8)           -179.9929         -DE/DX =    0.0                 !
 ! D3    D(7,1,2,3)            180.0            -DE/DX =    0.0                 !
 ! D4    D(7,1,2,8)             -0.0015         -DE/DX =    0.0                 !
 ! D5    D(2,1,6,5)             -0.0065         -DE/DX =    0.0                 !
 ! D6    D(2,1,6,9)            179.9871         -DE/DX =    0.0                 !
 ! D7    D(7,1,6,5)           -179.9979         -DE/DX =    0.0                 !
 ! D8    D(7,1,6,9)             -0.0043         -DE/DX =    0.0                 !
 ! D9    D(1,2,3,4)             -0.0101         -DE/DX =    0.0                 !
 ! D10   D(1,2,3,12)          -179.9978         -DE/DX =    0.0                 !
 ! D11   D(8,2,3,4)            179.9914         -DE/DX =    0.0                 !
 ! D12   D(8,2,3,12)             0.0038         -DE/DX =    0.0                 !
 ! D13   D(2,3,4,5)              0.0094         -DE/DX =    0.0                 !
 ! D14   D(2,3,4,11)           180.0069         -DE/DX =    0.0                 !
 ! D15   D(12,3,4,5)           179.9978         -DE/DX =    0.0                 !
 ! D16   D(12,3,4,11)           -0.0047         -DE/DX =    0.0                 !
 ! D17   D(2,3,12,13)           -0.0194         -DE/DX =    0.0                 !
 ! D18   D(4,3,12,13)          179.9925         -DE/DX =    0.0                 !
 ! D19   D(3,4,5,6)             -0.0074         -DE/DX =    0.0                 !
 ! D20   D(3,4,5,10)           180.0062         -DE/DX =    0.0                 !
 ! D21   D(11,4,5,6)          -180.0049         -DE/DX =    0.0                 !
 ! D22   D(11,4,5,10)            0.0087         -DE/DX =    0.0                 !
 ! D23   D(4,5,6,1)              0.0059         -DE/DX =    0.0                 !
 ! D24   D(4,5,6,9)            180.0123         -DE/DX =    0.0                 !
 ! D25   D(10,5,6,1)          -180.0077         -DE/DX =    0.0                 !
 ! D26   D(10,5,6,9)            -0.0014         -DE/DX =    0.0                 !
 --------------------------------------------------------------------------------
 GradGradGradGradGradGradGradGradGradGradGradGradGradGradGradGradGradGrad

 1\1\GINC-COREV4-21-K80-003\Freq\RB3LYP\6-311+G(d,p)\C6H5Cl1O1\SWEAV003
 \23-Apr-2024\0\\#N Geom=AllCheck Guess=TCheck SCRF=Check GenChk RB3LYP
 /6-311+G(d,p) Freq\\Title Card Required\\0,1\C,0.1087248554,-0.0266584
 789,-0.0216196124\C,1.4992323452,-0.0172135087,-0.1036872433\C,2.17796
 46029,1.2024618286,-0.1259205477\C,1.4725846356,2.4058166202,-0.066777
 6266\C,0.0876263028,2.3630008704,0.0144622573\C,-0.6155272348,1.160858
 0863,0.0384383124\H,-0.4180058345,-0.9737775533,-0.0043733547\H,2.0519
 161748,-0.9503363132,-0.150025866\H,-1.6951973603,1.1580564987,0.10201
 80051\Cl,-0.8024766588,3.8786293353,0.0888857882\H,2.0089470622,3.3449
 713532,-0.0848210706\O,3.5394646216,1.2899390451,-0.2051732459\H,3.922
 7351379,0.4073035464,-0.2405026358\\Version=ES64L-G09RevD.01\State=1-A
 \HF=-767.1812058\RMSD=1.466e-09\RMSF=2.185e-05\ZeroPoint=0.0946208\The
 rmal=0.1013602\Dipole=0.3508169,-1.1641447,-0.0376377\DipoleDeriv=0.22
 62474,-0.1886369,-0.0223608,0.0090261,0.1712084,0.0035162,-0.0194695,0
 .0152731,-0.1044334,-0.3432056,0.0790176,0.0104153,-0.2814553,-0.05384
 76,0.018591,0.0051484,-0.0028302,-0.1864297,1.609938,-0.0392271,-0.089
 7454,-0.0663994,0.1998598,0.0053886,-0.0902172,0.0038889,0.1058617,-0.
 4316249,0.0818302,0.018128,0.3746721,-0.1992401,-0.022936,0.0223597,-0
 .0056677,-0.1458743,0.5559617,-0.3625991,-0.0384392,-0.4838627,1.04433
 86,0.0437922,-0.0401575,0.0366278,-0.003305,-0.137696,0.0847498,0.0005
 003,0.0865515,-0.4806666,-0.0098968,0.0005472,-0.009853,-0.15082,0.033
 204,-0.0556857,0.0052739,-0.0594566,-0.0568047,0.0006927,0.005209,0.00
 04378,0.1359968,-0.0146051,0.0921559,0.011413,0.0874629,-0.0322579,-0.
 0079198,0.0113508,-0.0081851,0.1549807,-0.0304961,0.0032235,0.0108321,
 0.0120003,0.0782852,-0.0017867,0.0109269,-0.0012601,0.1516209,-0.29065
 36,0.3217231,0.0175694,0.3412736,-0.6528291,-0.0285765,0.0178094,-0.02
 73505,-0.0735396,0.0720657,-0.030858,0.0044631,-0.0389747,0.0242008,0.
 0003962,0.0043406,-0.0000876,0.1549431,-1.6288355,0.0803746,0.0755097,
 0.0422404,-0.1926941,0.0000393,0.0751294,-0.0022446,-0.3746429,0.37969
 98,-0.0660678,-0.0035595,-0.0230783,0.1504474,-0.0013002,-0.0029772,0.
 0012511,0.3356416\Polar=101.9134928,-11.9237594,103.645048,-3.3293527,
 1.5063577,48.6903847\PG=C01 [X(C6H5Cl1O1)]\NImag=0\\0.67427728,0.03077
 452,0.71479677,-0.03159741,0.00669626,0.13369307,-0.33476961,-0.032420
 26,0.01607722,0.69141787,0.02941241,-0.12456480,-0.00275867,-0.0365930
 7,0.70190282,0.01698386,0.00089199,-0.05578190,-0.03463579,0.01076230,
 0.11671294,-0.02777267,-0.03154103,0.00117771,-0.15797356,-0.10504973,
 0.00414180,0.66785259,-0.08433748,0.03723337,0.00552570,-0.02988739,-0
 .28070171,-0.00144275,-0.00974045,0.69885677,0.00041111,0.00240925,-0.
 00000794,0.00524057,0.00300116,-0.06209187,-0.03065466,0.00855325,0.15
 327619,-0.04782756,0.02760723,0.00322382,0.05694729,0.02219510,-0.0026
 8935,-0.15428397,0.03633020,0.00589594,0.70265977,0.02434381,-0.016552
 71,-0.00167794,-0.01768827,-0.04825264,0.00025532,0.10763066,-0.280655
 46,-0.00951306,0.04307960,0.72034805,0.00317543,-0.00187066,-0.0002817
 8,-0.00327171,-0.00210356,0.00610316,0.00693395,-0.00529686,-0.0638714
 5,-0.03396580,0.00621782,0.11931332,0.06253343,-0.02670014,-0.00376726
 ,-0.05029965,-0.02850115,0.00241403,-0.03224131,0.08736256,0.00314689,
 -0.33393014,-0.05177731,0.01559720,0.61671537,0.03231493,-0.06283665,-
 0.00290328,-0.03366001,-0.01905911,0.00174422,0.02849699,0.04113892,-0
 .00107827,0.00792697,-0.11388334,-0.00128781,0.06769719,0.53271541,-0.
 00290635,0.00058539,0.00550445,0.00234134,0.00143968,-0.00248835,0.002
 28456,-0.00455391,-0.00075999,0.01646226,0.00223871,-0.05827365,-0.028
 06613,0.00193530,0.12645320,-0.18291940,0.12584432,0.00914565,-0.02917
 492,0.02642282,0.00250116,0.00488332,0.00084590,-0.00036942,-0.0255632
 0,-0.02614497,0.00157858,-0.17669285,-0.12925326,0.00488472,0.75223461
 ,0.05992097,-0.27551688,-0.00669381,0.07285951,0.03187272,-0.00393224,
 0.00014039,-0.07469459,-0.00107467,-0.06959732,0.02980553,0.00443244,-
 0.06578788,-0.25096021,0.00112945,-0.00676269,0.64306867,0.00817781,-0
 .01058227,-0.05967791,0.00318054,-0.00119048,0.00642529,-0.00038045,-0
 .00111714,-0.00156022,0.00094741,0.00186620,0.00758549,0.00580482,0.00
 487379,-0.06227746,-0.03735043,0.00801155,0.12292320,-0.12418040,-0.11
 827593,0.00345295,-0.01056848,-0.02829177,0.00040432,-0.00484200,0.001
 54254,0.00072295,-0.00067750,0.00062690,-0.00002624,-0.00042947,0.0028
 2459,0.00047471,0.01141578,0.01554463,-0.00022452,0.12866371,-0.118462
 78,-0.27094022,0.00356460,0.00204836,0.00336615,-0.00012010,0.00080234
 ,0.00182955,-0.00012325,0.00076405,0.00021012,-0.00002345,0.00315389,-
 0.00207796,-0.00031725,-0.01500875,-0.01872336,0.00055689,0.12687553,0
 .28607520,0.00344802,0.00355132,-0.03656857,0.00084971,0.00167282,0.00
 327357,0.00071195,-0.00016689,0.00696134,-0.00002449,-0.00001562,-0.00
 127534,0.00047984,-0.00029743,0.00688364,-0.00067124,-0.00124640,0.003
 78198,-0.00424598,-0.00367782,0.02553259,-0.01102847,0.02900293,0.0011
 7658,-0.12631364,0.11759480,0.00738981,0.00745810,-0.01371327,-0.00045
 767,-0.00076328,-0.00314994,0.00029680,-0.00102515,-0.00110306,0.00000
 814,-0.00516646,-0.00146407,0.00067298,0.00102204,-0.00031453,-0.00030
 271,0.13222957,-0.00184846,0.00388167,0.00014126,0.11763820,-0.2621888
 0,-0.01034862,0.01894101,-0.01879967,-0.00143999,-0.00394456,-0.003232
 80,0.00011194,-0.00139931,0.00014611,0.00009378,-0.00066626,0.00195342
 ,-0.00002871,0.00030622,0.00072599,0.00005163,-0.12824367,0.27671600,0
 .00072599,-0.00168303,0.00164096,0.00739065,-0.01034528,-0.03103845,0.
 00002060,0.00048897,0.00312241,0.00028384,0.00006569,0.00501427,0.0000
 0383,0.00007660,-0.00061211,0.00068437,0.00001964,0.00654012,-0.000293
 59,0.00008813,-0.00400375,-0.00840795,0.01131515,0.02242590,-0.0102686
 9,-0.00231717,0.00069224,0.00096589,0.00255753,0.00037022,0.00045497,-
 0.00006003,-0.00007473,0.00076765,-0.00264858,0.00021860,-0.01206380,0
 .00356354,0.00084091,-0.34233912,-0.00363600,0.01826807,0.00070274,0.0
 0018377,-0.00028639,-0.00054948,-0.00016168,0.00005827,0.36131854,0.02
 776669,0.00450664,-0.00160157,0.00193982,-0.00411767,-0.00027139,0.000
 19735,-0.00157340,-0.00002278,-0.00181456,-0.00467905,-0.00003594,-0.0
 2785155,0.00220920,0.00165581,-0.00094130,-0.05589208,-0.00030056,-0.0
 0048352,0.00095438,0.00010390,0.00133909,0.00004538,-0.00008570,0.0019
 0283,0.05686868,0.00113260,0.00017124,0.00197476,0.00036216,-0.0003083
 1,0.00659753,-0.00007078,-0.00000697,-0.00079451,0.00023231,0.00001367
 ,0.00512314,0.00038303,-0.00019736,0.00128846,0.01830380,-0.00014001,-
 0.03255132,-0.00029675,0.00006451,-0.00418721,0.00008014,0.00000307,0.
 00047323,-0.01989187,0.00037657,0.02451904,-0.00034809,-0.00051044,0.0
 0027671,0.00069864,0.00210248,-0.00006134,-0.00200617,-0.00628421,0.00
 033221,-0.02023911,0.03779760,0.00200891,-0.06880760,0.04747628,0.0033
 5697,0.00472504,-0.00160311,-0.00003510,-0.00005421,-0.00003577,0.0000
 0507,0.00007978,0.00017787,-0.00003528,0.00127363,-0.00059401,-0.00023
 189,0.08523604,-0.00745678,-0.00084559,0.00036307,0.00214318,-0.001272
 70,-0.00013261,-0.00115882,0.00325429,0.00004100,0.01246962,-0.0150468
 9,-0.00101944,0.04751549,-0.12149989,-0.00422176,0.02513973,-0.0392919
 9,-0.00211762,0.00108683,-0.00142089,-0.00008563,0.00029862,-0.0000373
 3,-0.00000998,0.00045214,0.00105404,0.00002498,-0.08127077,0.17475999,
 0.00017569,-0.00004758,0.00444861,-0.00006111,-0.00012985,-0.00085503,
 0.00040714,0.00034326,0.00514703,0.00164407,-0.00251573,0.00440243,0.0
 0335479,-0.00421664,-0.02383509,0.00035313,-0.00054080,0.00450303,0.00
 002138,-0.00001909,0.00003950,-0.00003358,-0.00000282,-0.00055902,-0.0
 0021648,0.00008689,-0.00249871,-0.00552009,0.00715778,0.01206852,-0.00
 064507,0.00075096,-0.00002598,-0.00157118,0.00306975,0.00044513,0.0116
 1974,0.01427305,-0.00018111,-0.12531782,-0.12265747,0.00370065,-0.0105
 1973,-0.02733616,0.00032082,-0.00516473,0.00156172,0.00066646,0.000035
 88,-0.00005942,-0.00002748,0.00051786,0.00087259,-0.00001335,-0.000433
 67,-0.00131335,0.00004302,0.00104237,-0.00056505,-0.00023438,0.1293014
 5,0.00108029,0.00015731,-0.00004324,0.00358734,-0.00271952,-0.00032670
 ,-0.01619645,-0.01823623,0.00061783,-0.12370571,-0.27429549,0.00379664
 ,0.00254024,0.00258376,-0.00013662,0.00094832,0.00162687,-0.00011537,-
 0.00005655,-0.00002398,0.00000900,-0.00061188,-0.00090148,0.00002183,0
 .00012937,0.00026668,-0.00001267,0.00070648,0.00115198,0.00001537,0.13
 240253,0.28822297,-0.00002184,-0.00002344,-0.00126648,0.00045238,-0.00
 029622,0.00517051,-0.00062283,-0.00118186,0.00506334,0.00368322,0.0037
 3330,-0.03268763,0.00075746,0.00163041,0.00162198,0.00065728,-0.000153
 48,0.00569024,-0.00002739,0.00000926,-0.00041238,-0.00003503,-0.000065
 61,0.00007436,0.00006393,0.00007267,0.00061515,-0.00021584,0.00009046,
 -0.00277340,-0.00437350,-0.00396495,0.02292036,0.00388404,-0.00267456,
 0.00016624,-0.04297919,-0.00610157,0.00295571,-0.28893682,-0.04210579,
 0.01406559,-0.04491176,0.01341583,0.00326983,0.00633928,-0.00126890,-0
 .00011092,-0.00673308,-0.00028042,0.00030913,-0.00136615,0.00000701,0.
 00007880,0.00368160,0.00017976,-0.00042809,0.00011921,-0.00001243,-0.0
 0004216,-0.00132092,0.00155903,0.00010342,0.00103109,-0.00084026,-0.00
 026727,0.47974432,0.00634909,-0.00834452,-0.00060459,-0.04448371,0.002
 16063,0.00253890,0.00997835,-0.10897890,-0.00157765,0.05005367,0.00418
 098,-0.00300181,-0.00663834,-0.00837585,0.00020013,0.00008506,0.006802
 07,0.00011586,-0.00153856,0.00003966,0.00009194,-0.00049267,0.00251028
 ,0.00011793,-0.00004144,0.00040613,0.00001675,0.00203776,-0.00080409,-
 0.00013267,-0.00078759,0.00179121,0.00012045,-0.15000630,0.56011740,0.
 00029919,-0.00007257,0.00735878,0.00239001,0.00026848,0.00833296,0.014
 81850,0.00150358,-0.04153428,0.00380148,-0.00083667,0.00685538,-0.0001
 8971,-0.00011638,0.00481353,0.00031353,0.00013794,-0.00148346,0.000056
 20,0.00000067,-0.00003748,-0.00043793,0.00007923,-0.00358061,-0.000042
 28,0.00001521,-0.00058434,0.00011041,-0.00010447,0.00003808,-0.0002664
 2,0.00012342,-0.00326464,-0.02905233,0.01656566,0.02657390,-0.00093478
 ,0.00045957,0.00000154,0.00362056,0.00118240,-0.00021955,-0.02421223,0
 .04577439,0.00192233,-0.00686036,-0.00282786,0.00048379,0.00042161,0.0
 0232089,0.00010896,0.00049501,-0.00089573,-0.00003672,0.00027807,0.000
 04631,-0.00001510,-0.00014248,-0.00185171,0.00001070,0.00005214,-0.000
 13507,-0.00000361,-0.00027940,-0.00021322,0.00000600,0.00010379,0.0000
 1629,-0.00005059,-0.10855160,0.13548467,0.00819937,0.13600967,0.000142
 78,-0.00097438,-0.00000782,-0.00548369,0.00357463,0.00038166,-0.002500
 61,0.00132707,0.00020718,-0.00136429,0.00205371,0.00008069,0.00038630,
 -0.00010041,-0.00004870,-0.00050892,-0.00005019,0.00002785,-0.00016093
 ,-0.00001465,0.00000917,0.00085765,-0.00081878,-0.00006995,0.00007574,
 -0.00004894,-0.00000547,-0.00000017,-0.00000094,0.00000188,-0.00021156
 ,0.00037592,0.00002898,0.18812862,-0.45150500,-0.01756410,-0.17936092,
 0.44618194,-0.00000411,-0.00002589,-0.00103604,-0.00031597,-0.00001209
 ,-0.00036036,0.00123250,-0.00264840,-0.00295005,0.00050529,0.00016829,
 0.00199265,0.00008121,-0.00016315,0.00168139,-0.00003113,0.00005038,0.
 00010101,-0.00001804,-0.00000311,0.00001211,0.00005042,0.00008969,0.00
 050270,-0.00000049,0.00000688,0.00002477,0.00000927,0.00001422,-0.0001
 2597,-0.00005387,0.00001546,-0.00075142,0.00895203,-0.01445089,-0.0034
 8782,-0.01040712,0.01695862,0.00439703\\-0.00002988,-0.00001272,0.0000
 1214,0.00001819,0.00004611,-0.00001344,-0.00005615,-0.00002846,0.00002
 253,0.00000172,0.00000320,-0.00001450,0.00005633,-0.00005050,0.0000153
 7,0.00000931,0.00001493,-0.00000401,0.00000184,0.00000515,-0.00000057,
 -0.00000402,-0.00001766,-0.00000219,-0.00000624,0.00000757,-0.00000573
 ,-0.00001688,0.00003348,-0.00000295,0.00000191,-0.00000131,-0.00000068
 ,0.00003880,0.00000708,-0.00000761,-0.00001493,-0.00000687,0.00000165\
 \\@


 IT IS A SIMPLE TASK TO MAKE THINGS COMPLEX,
 BUT A COMPLEX TASK TO MAKE THEM SIMPLE.
 Job cpu time:       0 days  0 hours 14 minutes  0.8 seconds.
 File lengths (MBytes):  RWF=     66 Int=      0 D2E=      0 Chk=      5 Scr=      1
 Normal termination of Gaussian 09 at Tue Apr 23 11:54:16 2024.
