 Entering Gaussian System, Link 0=g09
 Initial command:
 /cm/shared/apps/gaussian/g09revD.01/g09/l1.exe "//home/sweav003/CHB/validation/G09-Traceless1_Smith.com.o9822952.tmp/Gau-213708.inp" -scrdir="//home/sweav003/CHB/validation/G09-Traceless1_Smith.com.o9822952.tmp/"
 Entering Link 1 = /cm/shared/apps/gaussian/g09revD.01/g09/l1.exe PID=    213709.
  
 Copyright (c) 1988,1990,1992,1993,1995,1998,2003,2009,2013,
            Gaussian, Inc.  All Rights Reserved.
  
 This is part of the Gaussian(R) 09 program.  It is based on
 the Gaussian(R) 03 system (copyright 2003, Gaussian, Inc.),
 the Gaussian(R) 98 system (copyright 1998, Gaussian, Inc.),
 the Gaussian(R) 94 system (copyright 1995, Gaussian, Inc.),
 the Gaussian 92(TM) system (copyright 1992, Gaussian, Inc.),
 the Gaussian 90(TM) system (copyright 1990, Gaussian, Inc.),
 the Gaussian 88(TM) system (copyright 1988, Gaussian, Inc.),
 the Gaussian 86(TM) system (copyright 1986, Carnegie Mellon
 University), and the Gaussian 82(TM) system (copyright 1983,
 Carnegie Mellon University). Gaussian is a federally registered
 trademark of Gaussian, Inc.
  
 This software contains proprietary and confidential information,
 including trade secrets, belonging to Gaussian, Inc.
  
 This software is provided under written license and may be
 used, copied, transmitted, or stored only in accord with that
 written license.
  
 The following legend is applicable only to US Government
 contracts under FAR:
  
                    RESTRICTED RIGHTS LEGEND
  
 Use, reproduction and disclosure by the US Government is
 subject to restrictions as set forth in subparagraphs (a)
 and (c) of the Commercial Computer Software - Restricted
 Rights clause in FAR 52.227-19.
  
 Gaussian, Inc.
 340 Quinnipiac St., Bldg. 40, Wallingford CT 06492
  
  
 ---------------------------------------------------------------
 Warning -- This program may not be used in any manner that
 competes with the business of Gaussian, Inc. or will provide
 assistance to any competitor of Gaussian, Inc.  The licensee
 of this program is prohibited from giving any competitor of
 Gaussian, Inc. access to this program.  By using this program,
 the user acknowledges that Gaussian, Inc. is engaged in the
 business of creating and licensing software in the field of
 computational chemistry and represents and warrants to the
 licensee that it is not a competitor of Gaussian, Inc. and that
 it will not use this program in any manner prohibited above.
 ---------------------------------------------------------------
  

 Cite this work as:
 Gaussian 09, Revision D.01,
 M. J. Frisch, G. W. Trucks, H. B. Schlegel, G. E. Scuseria, 
 M. A. Robb, J. R. Cheeseman, G. Scalmani, V. Barone, B. Mennucci, 
 G. A. Petersson, H. Nakatsuji, M. Caricato, X. Li, H. P. Hratchian, 
 A. F. Izmaylov, J. Bloino, G. Zheng, J. L. Sonnenberg, M. Hada, 
 M. Ehara, K. Toyota, R. Fukuda, J. Hasegawa, M. Ishida, T. Nakajima, 
 Y. Honda, O. Kitao, H. Nakai, T. Vreven, J. A. Montgomery, Jr., 
 J. E. Peralta, F. Ogliaro, M. Bearpark, J. J. Heyd, E. Brothers, 
 K. N. Kudin, V. N. Staroverov, T. Keith, R. Kobayashi, J. Normand, 
 K. Raghavachari, A. Rendell, J. C. Burant, S. S. Iyengar, J. Tomasi, 
 M. Cossi, N. Rega, J. M. Millam, M. Klene, J. E. Knox, J. B. Cross, 
 V. Bakken, C. Adamo, J. Jaramillo, R. Gomperts, R. E. Stratmann, 
 O. Yazyev, A. J. Austin, R. Cammi, C. Pomelli, J. W. Ochterski, 
 R. L. Martin, K. Morokuma, V. G. Zakrzewski, G. A. Voth, 
 P. Salvador, J. J. Dannenberg, S. Dapprich, A. D. Daniels, 
 O. Farkas, J. B. Foresman, J. V. Ortiz, J. Cioslowski, 
 and D. J. Fox, Gaussian, Inc., Wallingford CT, 2013.
 
 ******************************************
 Gaussian 09:  ES64L-G09RevD.01 24-Apr-2013
                10-Jan-2023 
 ******************************************
 %nprocshared=20
 Will use up to   20 processors via shared memory.
 %mem=4GB
 %chk=Traceless1_Smith.chk
 ----------------------------------------------------------------------
 # opt freq b3lyp/6-311+g(d,p) geom=connectivity pop=(hirshfeld,mbs,npa
 )
 ----------------------------------------------------------------------
 1/14=-1,18=20,19=15,26=3,38=1,57=2/1,3;
 2/9=110,12=2,17=6,18=5,40=1/2;
 3/5=4,6=6,7=111,11=2,16=1,25=1,30=1,71=1,74=-5/1,2,3;
 4//1;
 5/5=2,38=5/2;
 6/7=2,8=2,9=2,10=2,27=100,28=1,40=-1,79=1/1,7;
 7//1,2,3,16;
 1/14=-1,18=20,19=15,26=3/3(2);
 2/9=110/2;
 99//99;
 2/9=110/2;
 3/5=4,6=6,7=111,11=2,16=1,25=1,30=1,71=1,74=-5/1,2,3;
 4/5=5,16=3,69=1/1;
 5/5=2,38=5/2;
 7//1,2,3,16;
 1/14=-1,18=20,19=15,26=3/3(-5);
 2/9=110/2;
 6/7=2,8=2,9=2,10=2,19=2,27=100,28=1,40=-1,79=1/1,7;
 99/9=1/99;
 -------------------
 Title Card Required
 -------------------
 Symbolic Z-matrix:
 Charge =  0 Multiplicity = 1
 C                    -1.96154  -1.2356    0. 
 C                    -0.77197  -1.96457   0. 
 C                     0.45383  -1.29925   0. 
 C                     0.49042   0.09569  -0.0012 
 C                    -0.6989    0.82442  -0.00168 
 C                    -1.92499   0.15875  -0.00068 
 H                    -2.92787  -1.76033   0.00045 
 H                     1.3915   -1.87377   0.00063 
 H                     1.45704   0.62005  -0.00126 
 H                    -2.86246   0.73345  -0.00086 
 N                    -0.66079   2.29393  -0.00295 
 H                    -0.1826    2.61568   0.81424 
 H                    -0.17921   2.61418  -0.81875 
 Br                   -0.82261  -3.8739    0.00228 
 

 GradGradGradGradGradGradGradGradGradGradGradGradGradGradGradGradGradGrad
 Berny optimization.
 Initialization pass.
                           ----------------------------
                           !    Initial Parameters    !
                           ! (Angstroms and Degrees)  !
 --------------------------                            --------------------------
 ! Name  Definition              Value          Derivative Info.                !
 --------------------------------------------------------------------------------
 ! R1    R(1,2)                  1.3952         estimate D2E/DX2                !
 ! R2    R(1,6)                  1.3948         estimate D2E/DX2                !
 ! R3    R(1,7)                  1.0996         estimate D2E/DX2                !
 ! R4    R(2,3)                  1.3947         estimate D2E/DX2                !
 ! R5    R(2,14)                 1.91           estimate D2E/DX2                !
 ! R6    R(3,4)                  1.3954         estimate D2E/DX2                !
 ! R7    R(3,8)                  1.0997         estimate D2E/DX2                !
 ! R8    R(4,5)                  1.3948         estimate D2E/DX2                !
 ! R9    R(4,9)                  1.0997         estimate D2E/DX2                !
 ! R10   R(5,6)                  1.3951         estimate D2E/DX2                !
 ! R11   R(5,11)                 1.47           estimate D2E/DX2                !
 ! R12   R(6,10)                 1.0996         estimate D2E/DX2                !
 ! R13   R(11,12)                1.0            estimate D2E/DX2                !
 ! R14   R(11,13)                1.0            estimate D2E/DX2                !
 ! A1    A(2,1,6)              119.9985         estimate D2E/DX2                !
 ! A2    A(2,1,7)              119.9972         estimate D2E/DX2                !
 ! A3    A(6,1,7)              120.0043         estimate D2E/DX2                !
 ! A4    A(1,2,3)              120.0086         estimate D2E/DX2                !
 ! A5    A(1,2,14)             119.9808         estimate D2E/DX2                !
 ! A6    A(3,2,14)             120.0106         estimate D2E/DX2                !
 ! A7    A(2,3,4)              119.9942         estimate D2E/DX2                !
 ! A8    A(2,3,8)              120.0128         estimate D2E/DX2                !
 ! A9    A(4,3,8)              119.993          estimate D2E/DX2                !
 ! A10   A(3,4,5)              119.994          estimate D2E/DX2                !
 ! A11   A(3,4,9)              119.9811         estimate D2E/DX2                !
 ! A12   A(5,4,9)              120.0249         estimate D2E/DX2                !
 ! A13   A(4,5,6)              120.0047         estimate D2E/DX2                !
 ! A14   A(4,5,11)             120.0113         estimate D2E/DX2                !
 ! A15   A(6,5,11)             119.984          estimate D2E/DX2                !
 ! A16   A(1,6,5)              120.0            estimate D2E/DX2                !
 ! A17   A(1,6,10)             120.008          estimate D2E/DX2                !
 ! A18   A(5,6,10)             119.992          estimate D2E/DX2                !
 ! A19   A(5,11,12)            109.4712         estimate D2E/DX2                !
 ! A20   A(5,11,13)            109.4712         estimate D2E/DX2                !
 ! A21   A(12,11,13)           109.4713         estimate D2E/DX2                !
 ! D1    D(6,1,2,3)              0.0323         estimate D2E/DX2                !
 ! D2    D(6,1,2,14)           179.9532         estimate D2E/DX2                !
 ! D3    D(7,1,2,3)           -179.9729         estimate D2E/DX2                !
 ! D4    D(7,1,2,14)            -0.052          estimate D2E/DX2                !
 ! D5    D(2,1,6,5)              0.0149         estimate D2E/DX2                !
 ! D6    D(2,1,6,10)           179.9892         estimate D2E/DX2                !
 ! D7    D(7,1,6,5)           -179.9798         estimate D2E/DX2                !
 ! D8    D(7,1,6,10)            -0.0056         estimate D2E/DX2                !
 ! D9    D(1,2,3,4)             -0.0568         estimate D2E/DX2                !
 ! D10   D(1,2,3,8)            179.9619         estimate D2E/DX2                !
 ! D11   D(14,2,3,4)          -179.9777         estimate D2E/DX2                !
 ! D12   D(14,2,3,8)             0.041          estimate D2E/DX2                !
 ! D13   D(2,3,4,5)              0.0341         estimate D2E/DX2                !
 ! D14   D(2,3,4,9)           -179.9964         estimate D2E/DX2                !
 ! D15   D(8,3,4,5)           -179.9846         estimate D2E/DX2                !
 ! D16   D(8,3,4,9)             -0.0151         estimate D2E/DX2                !
 ! D17   D(3,4,5,6)              0.0131         estimate D2E/DX2                !
 ! D18   D(3,4,5,11)          -179.9995         estimate D2E/DX2                !
 ! D19   D(9,4,5,6)           -179.9563         estimate D2E/DX2                !
 ! D20   D(9,4,5,11)             0.0311         estimate D2E/DX2                !
 ! D21   D(4,5,6,1)             -0.0376         estimate D2E/DX2                !
 ! D22   D(4,5,6,10)           179.9881         estimate D2E/DX2                !
 ! D23   D(11,5,6,1)           179.975          estimate D2E/DX2                !
 ! D24   D(11,5,6,10)            0.0007         estimate D2E/DX2                !
 ! D25   D(4,5,11,12)          -60.1262         estimate D2E/DX2                !
 ! D26   D(4,5,11,13)           59.8738         estimate D2E/DX2                !
 ! D27   D(6,5,11,12)          119.8611         estimate D2E/DX2                !
 ! D28   D(6,5,11,13)         -120.1389         estimate D2E/DX2                !
 --------------------------------------------------------------------------------
 Trust Radius=3.00D-01 FncErr=1.00D-07 GrdErr=1.00D-06
 Number of steps in this run=     73 maximum allowed number of steps=    100.
 GradGradGradGradGradGradGradGradGradGradGradGradGradGradGradGradGradGrad

                          Input orientation:                          
 ---------------------------------------------------------------------
 Center     Atomic      Atomic             Coordinates (Angstroms)
 Number     Number       Type             X           Y           Z
 ---------------------------------------------------------------------
      1          6           0       -1.961540   -1.235600    0.000000
      2          6           0       -0.771971   -1.964569    0.000000
      3          6           0        0.453826   -1.299254    0.000000
      4          6           0        0.490423    0.095692   -0.001199
      5          6           0       -0.698902    0.824420   -0.001678
      6          6           0       -1.924990    0.158750   -0.000682
      7          1           0       -2.927871   -1.760335    0.000450
      8          1           0        1.391499   -1.873767    0.000634
      9          1           0        1.457039    0.620049   -0.001258
     10          1           0       -2.862461    0.733448   -0.000862
     11          7           0       -0.660795    2.293925   -0.002952
     12          1           0       -0.182604    2.615678    0.814244
     13          1           0       -0.179213    2.614175   -0.818746
     14         35           0       -0.822609   -3.873896    0.002284
 ---------------------------------------------------------------------
                    Distance matrix (angstroms):
                    1          2          3          4          5
     1  C    0.000000
     2  C    1.395160   0.000000
     3  C    2.416205   1.394712   0.000000
     4  C    2.790065   2.416260   1.395427   0.000000
     5  C    2.416183   2.789946   2.416356   1.394825   0.000000
     6  C    1.394829   2.416183   2.790080   2.416236   1.395138
     7  H    1.099610   2.165553   3.412986   3.889675   3.413102
     8  H    3.413229   2.165375   1.099680   2.165806   3.413209
     9  H    3.889745   3.413024   2.165678   1.099680   2.165606
    10  H    2.165365   3.413128   3.889684   3.412999   2.165471
    11  N    3.761581   4.259946   3.762091   2.481438   1.470000
    12  H    4.319716   4.689244   4.049041   2.732808   2.034920
    13  H    4.320625   4.688987   4.047964   2.731218   2.034920
    14  Br   2.873635   1.910000   2.873686   4.181112   4.699946
                    6          7          8          9         10
     6  C    0.000000
     7  H    2.165331   0.000000
     8  H    3.889760   4.320860   0.000000
     9  H    3.413344   4.989355   2.494678   0.000000
    10  H    1.099604   2.494641   4.989364   4.320988   0.000000
    11  N    2.481364   4.645070   4.645598   2.699460   2.698598
    12  H    3.120338   5.229555   4.826477   2.708507   3.374733
    13  H    3.121870   5.230921   4.824951   2.705946   3.377260
    14  Br   4.180609   2.983165   2.983755   5.039082   5.038713
                   11         12         13         14
    11  N    0.000000
    12  H    1.000000   0.000000
    13  H    1.000000   1.632993   0.000000
    14  Br   6.169946   6.571412   6.571386   0.000000
 Stoichiometry    C6H6BrN
 Framework group  C1[X(C6H6BrN)]
 Deg. of freedom    36
 Full point group                 C1      NOp   1
 Largest Abelian subgroup         C1      NOp   1
 Largest concise Abelian subgroup C1      NOp   1
                         Standard orientation:                         
 ---------------------------------------------------------------------
 Center     Atomic      Atomic             Coordinates (Angstroms)
 Number     Number       Type             X           Y           Z
 ---------------------------------------------------------------------
      1          6           0        0.350765    1.223242   -0.000235
      2          6           0       -0.332892    0.007066   -0.000656
      3          6           0        0.378109   -1.192808    0.000051
      4          6           0        1.773445   -1.176850   -0.000020
      5          6           0        2.456870    0.039072   -0.000079
      6          6           0        1.745503    1.239225    0.000211
      7          1           0       -0.209987    2.169128   -0.000342
      8          1           0       -0.160687   -2.151450    0.000353
      9          1           0        2.333829   -2.123035    0.000478
     10          1           0        2.284491    2.197672    0.000362
     11          7           0        3.926769    0.056328   -0.000164
     12          1           0        4.265639   -0.409318    0.817357
     13          1           0        4.265587   -0.412941   -0.815633
     14         35           0       -2.242773   -0.014230    0.000084
 ---------------------------------------------------------------------
 Rotational constants (GHZ):      5.5760167      0.6264308      0.5648546
 Standard basis: 6-311+G(d,p) (5D, 7F)
 There are   248 symmetry adapted cartesian basis functions of A   symmetry.
 There are   238 symmetry adapted basis functions of A   symmetry.
   238 basis functions,   394 primitive gaussians,   248 cartesian basis functions
    42 alpha electrons       42 beta electrons
       nuclear repulsion energy       518.4755678581 Hartrees.
 NAtoms=   14 NActive=   14 NUniq=   14 SFac= 1.00D+00 NAtFMM=   60 NAOKFM=F Big=F
 Integral buffers will be    131072 words long.
 Raffenetti 2 integral format.
 Two-electron integral symmetry is turned on.
 One-electron integrals computed using PRISM.
 NBasis=   238 RedAO= T EigKep=  2.61D-06  NBF=   238
 NBsUse=   238 1.00D-06 EigRej= -1.00D+00 NBFU=   238
 ExpMin= 3.50D-02 ExpMax= 4.40D+05 ExpMxC= 1.51D+04 IAcc=3 IRadAn=         5 AccDes= 0.00D+00
 Harris functional with IExCor=  402 and IRadAn=       5 diagonalized for initial guess.
 HarFok:  IExCor=  402 AccDes= 0.00D+00 IRadAn=         5 IDoV= 1 UseB2=F ITyADJ=14
 ICtDFT=  3500011 ScaDFX=  1.000000  1.000000  1.000000  1.000000
 FoFCou: FMM=F IPFlag=           0 FMFlag=      100000 FMFlg1=           0
         NFxFlg=           0 DoJE=T BraDBF=F KetDBF=T FulRan=T
         wScrn=  0.000000 ICntrl=     500 IOpCl=  0 I1Cent=   200000004 NGrid=           0
         NMat0=    1 NMatS0=      1 NMatT0=    0 NMatD0=    1 NMtDS0=    0 NMtDT0=    0
 Petite list used in FoFCou.
 Keep R1 ints in memory in canonical form, NReq=412388322.
 Requested convergence on RMS density matrix=1.00D-08 within 128 cycles.
 Requested convergence on MAX density matrix=1.00D-06.
 Requested convergence on             energy=1.00D-06.
 No special actions if energy rises.
 SCF Done:  E(RB3LYP) =  -2861.21895917     A.U. after   14 cycles
            NFock= 14  Conv=0.75D-08     -V/T= 2.0016

 **********************************************************************

            Population analysis using the SCF density.

 **********************************************************************

 Orbital symmetries:
       Occupied  (A) (A) (A) (A) (A) (A) (A) (A) (A) (A) (A) (A)
                 (A) (A) (A) (A) (A) (A) (A) (A) (A) (A) (A) (A)
                 (A) (A) (A) (A) (A) (A) (A) (A) (A) (A) (A) (A)
                 (A) (A) (A) (A) (A) (A)
       Virtual   (A) (A) (A) (A) (A) (A) (A) (A) (A) (A) (A) (A)
                 (A) (A) (A) (A) (A) (A) (A) (A) (A) (A) (A) (A)
                 (A) (A) (A) (A) (A) (A) (A) (A) (A) (A) (A) (A)
                 (A) (A) (A) (A) (A) (A) (A) (A) (A) (A) (A) (A)
                 (A) (A) (A) (A) (A) (A) (A) (A) (A) (A) (A) (A)
                 (A) (A) (A) (A) (A) (A) (A) (A) (A) (A) (A) (A)
                 (A) (A) (A) (A) (A) (A) (A) (A) (A) (A) (A) (A)
                 (A) (A) (A) (A) (A) (A) (A) (A) (A) (A) (A) (A)
                 (A) (A) (A) (A) (A) (A) (A) (A) (A) (A) (A) (A)
                 (A) (A) (A) (A) (A) (A) (A) (A) (A) (A) (A) (A)
                 (A) (A) (A) (A) (A) (A) (A) (A) (A) (A) (A) (A)
                 (A) (A) (A) (A) (A) (A) (A) (A) (A) (A) (A) (A)
                 (A) (A) (A) (A) (A) (A) (A) (A) (A) (A) (A) (A)
                 (A) (A) (A) (A) (A) (A) (A) (A) (A) (A) (A) (A)
                 (A) (A) (A) (A) (A) (A) (A) (A) (A) (A) (A) (A)
                 (A) (A) (A) (A) (A) (A) (A) (A) (A) (A) (A) (A)
                 (A) (A) (A) (A)
 The electronic state is 1-A.
 Alpha  occ. eigenvalues -- -482.83382 -62.48668 -56.30704 -56.30316 -56.30305
 Alpha  occ. eigenvalues --  -14.31077 -10.23976 -10.22268 -10.19879 -10.19764
 Alpha  occ. eigenvalues --  -10.19436 -10.19175  -8.69639  -6.52782  -6.51486
 Alpha  occ. eigenvalues --   -6.51462  -2.63876  -2.63503  -2.63488  -2.62457
 Alpha  occ. eigenvalues --   -2.62456  -0.91590  -0.87120  -0.80400  -0.76813
 Alpha  occ. eigenvalues --   -0.72148  -0.63025  -0.60265  -0.52618  -0.50711
 Alpha  occ. eigenvalues --   -0.48608  -0.47122  -0.44125  -0.43811  -0.39542
 Alpha  occ. eigenvalues --   -0.37540  -0.37185  -0.32054  -0.29710  -0.27555
 Alpha  occ. eigenvalues --   -0.26933  -0.25124
 Alpha virt. eigenvalues --   -0.03479  -0.02962  -0.01988  -0.00416   0.00736
 Alpha virt. eigenvalues --    0.01951   0.03657   0.04766   0.04773   0.05485
 Alpha virt. eigenvalues --    0.05899   0.07422   0.07578   0.08235   0.09046
 Alpha virt. eigenvalues --    0.10168   0.11712   0.12180   0.12592   0.12721
 Alpha virt. eigenvalues --    0.13401   0.14244   0.14718   0.15534   0.15984
 Alpha virt. eigenvalues --    0.16015   0.16670   0.17997   0.18816   0.19283
 Alpha virt. eigenvalues --    0.19935   0.20460   0.20895   0.21420   0.21530
 Alpha virt. eigenvalues --    0.22685   0.23374   0.24791   0.24948   0.25934
 Alpha virt. eigenvalues --    0.27873   0.28660   0.28989   0.30429   0.33320
 Alpha virt. eigenvalues --    0.34496   0.35787   0.41846   0.42063   0.42334
 Alpha virt. eigenvalues --    0.47240   0.49516   0.50794   0.52222   0.53098
 Alpha virt. eigenvalues --    0.53588   0.54514   0.55030   0.55949   0.56192
 Alpha virt. eigenvalues --    0.58542   0.58965   0.58982   0.59883   0.60389
 Alpha virt. eigenvalues --    0.63448   0.65066   0.66914   0.68384   0.70947
 Alpha virt. eigenvalues --    0.72040   0.72623   0.73398   0.73745   0.77152
 Alpha virt. eigenvalues --    0.78092   0.80914   0.81748   0.83420   0.83732
 Alpha virt. eigenvalues --    0.85065   0.86013   0.87208   0.89921   0.91524
 Alpha virt. eigenvalues --    0.94290   0.98231   0.98394   0.99607   1.00298
 Alpha virt. eigenvalues --    1.06227   1.06293   1.10047   1.10566   1.13576
 Alpha virt. eigenvalues --    1.20445   1.24801   1.29224   1.37766   1.41980
 Alpha virt. eigenvalues --    1.44997   1.48022   1.50613   1.54552   1.56189
 Alpha virt. eigenvalues --    1.56383   1.57287   1.60505   1.65032   1.65584
 Alpha virt. eigenvalues --    1.67463   1.69599   1.70744   1.74977   1.82687
 Alpha virt. eigenvalues --    1.86034   1.87655   1.88886   1.89217   1.90931
 Alpha virt. eigenvalues --    1.94227   1.96474   1.97212   1.99153   2.00771
 Alpha virt. eigenvalues --    2.01323   2.03020   2.05491   2.11405   2.16025
 Alpha virt. eigenvalues --    2.18006   2.25633   2.30778   2.32908   2.35730
 Alpha virt. eigenvalues --    2.36314   2.37908   2.51886   2.53535   2.55998
 Alpha virt. eigenvalues --    2.57388   2.60558   2.62422   2.66957   2.67536
 Alpha virt. eigenvalues --    2.70409   2.72689   2.73183   2.78386   2.78450
 Alpha virt. eigenvalues --    2.79494   2.82072   2.87075   2.87912   2.89049
 Alpha virt. eigenvalues --    2.91821   3.04001   3.06504   3.08509   3.10917
 Alpha virt. eigenvalues --    3.12303   3.31068   3.33148   3.41659   3.46185
 Alpha virt. eigenvalues --    3.56799   3.69230   3.83248   3.94246   4.09642
 Alpha virt. eigenvalues --    4.10904   4.13829   4.15769   4.18895   4.21657
 Alpha virt. eigenvalues --    4.37369   4.57272   4.76296   4.82855   4.87774
 Alpha virt. eigenvalues --    6.73102   7.55389   7.67755   7.73419  23.48162
 Alpha virt. eigenvalues --   23.87451  23.93026  24.02715  24.06812  24.15610
 Alpha virt. eigenvalues --   35.62379  47.99101 289.75150 289.87679 289.95727
 Alpha virt. eigenvalues -- 1020.79510
          Condensed to atoms (all electrons):
               1          2          3          4          5          6
     1  C    6.109023   0.227893  -0.104203  -0.459362   0.341336  -0.129050
     2  C    0.227893   5.699295   0.258880  -0.203803  -0.638235   0.296342
     3  C   -0.104203   0.258880   6.168833   0.080707   0.441045  -0.705875
     4  C   -0.459362  -0.203803   0.080707   5.964783   0.373692  -0.038092
     5  C    0.341336  -0.638235   0.441045   0.373692   7.393270  -1.770034
     6  C   -0.129050   0.296342  -0.705875  -0.038092  -1.770034   7.691098
     7  H    0.392857  -0.012620  -0.005664   0.004788  -0.006960  -0.023282
     8  H   -0.008448  -0.030794   0.388995  -0.009539   0.012492  -0.002407
     9  H    0.011534   0.010875   0.025009   0.438343  -0.056192  -0.064119
    10  H   -0.037047   0.003462   0.002842  -0.008778   0.031283   0.368924
    11  N   -0.025573   0.044489  -0.129453  -0.221803   0.221857   0.131184
    12  H    0.002010  -0.000966  -0.007428   0.007452  -0.032134  -0.002140
    13  H    0.002173  -0.001116  -0.006895   0.006980  -0.032046  -0.002186
    14  Br   0.098937  -0.187920   0.102066   0.053851   0.026475   0.042351
               7          8          9         10         11         12
     1  C    0.392857  -0.008448   0.011534  -0.037047  -0.025573   0.002010
     2  C   -0.012620  -0.030794   0.010875   0.003462   0.044489  -0.000966
     3  C   -0.005664   0.388995   0.025009   0.002842  -0.129453  -0.007428
     4  C    0.004788  -0.009539   0.438343  -0.008778  -0.221803   0.007452
     5  C   -0.006960   0.012492  -0.056192   0.031283   0.221857  -0.032134
     6  C   -0.023282  -0.002407  -0.064119   0.368924   0.131184  -0.002140
     7  H    0.518741  -0.000186   0.000039  -0.007739  -0.000401   0.000012
     8  H   -0.000186   0.520180  -0.007368   0.000047  -0.001301   0.000022
     9  H    0.000039  -0.007368   0.535989  -0.000148  -0.029408   0.000961
    10  H   -0.007739   0.000047  -0.000148   0.511037  -0.006007   0.000433
    11  N   -0.000401  -0.001301  -0.029408  -0.006007   6.625973   0.402397
    12  H    0.000012   0.000022   0.000961   0.000433   0.402397   0.447230
    13  H    0.000012   0.000022   0.000967   0.000430   0.402204  -0.052853
    14  Br  -0.007228  -0.007735  -0.000413  -0.000207   0.001562   0.000005
              13         14
     1  C    0.002173   0.098937
     2  C   -0.001116  -0.187920
     3  C   -0.006895   0.102066
     4  C    0.006980   0.053851
     5  C   -0.032046   0.026475
     6  C   -0.002186   0.042351
     7  H    0.000012  -0.007228
     8  H    0.000022  -0.007735
     9  H    0.000967  -0.000413
    10  H    0.000430  -0.000207
    11  N    0.402204   0.001562
    12  H   -0.052853   0.000005
    13  H    0.447551   0.000003
    14  Br   0.000003  35.016835
 Mulliken charges:
               1
     1  C   -0.422080
     2  C    0.534216
     3  C   -0.508860
     4  C    0.010780
     5  C   -0.305847
     6  C    0.207287
     7  H    0.147632
     8  H    0.146021
     9  H    0.133932
    10  H    0.141468
    11  N   -0.415720
    12  H    0.234999
    13  H    0.234754
    14  Br  -0.138582
 Sum of Mulliken charges =   0.00000
 Mulliken charges with hydrogens summed into heavy atoms:
               1
     1  C   -0.274448
     2  C    0.534216
     3  C   -0.362839
     4  C    0.144712
     5  C   -0.305847
     6  C    0.348755
    11  N    0.054033
    14  Br  -0.138582
 Electronic spatial extent (au):  <R**2>=           1781.2336
 Charge=              0.0000 electrons
 Dipole moment (field-independent basis, Debye):
    X=              1.5640    Y=             -1.2637    Z=              0.0039  Tot=              2.0107
 Quadrupole moment (field-independent basis, Debye-Ang):
   XX=            -58.7710   YY=            -55.3445   ZZ=            -61.8398
   XY=             -6.4180   XZ=              0.0153   YZ=              0.0041
 Traceless Quadrupole moment (field-independent basis, Debye-Ang):
   XX=             -0.1192   YY=              3.3073   ZZ=             -3.1880
   XY=             -6.4180   XZ=              0.0153   YZ=              0.0041
 Octapole moment (field-independent basis, Debye-Ang**2):
  XXX=            -63.3533  YYY=             -0.3066  ZZZ=              0.0122  XYY=            -18.9783
  XXY=            -30.0174  XXZ=              0.0776  XZZ=            -17.0535  YZZ=             -1.3064
  YYZ=              0.0032  XYZ=              0.0241
 Hexadecapole moment (field-independent basis, Debye-Ang**3):
 XXXX=          -1669.8221 YYYY=           -299.0193 ZZZZ=            -78.1150 XXXY=           -136.6494
 XXXZ=              0.2935 YYYX=             -2.6618 YYYZ=             -0.0028 ZZZX=              0.0282
 ZZZY=              0.0047 XXYY=           -345.8769 XXZZ=           -280.1220 YYZZ=            -75.1145
 XXYZ=              0.1036 YYXZ=             -0.0034 ZZXY=             -4.9741
 N-N= 5.184755678581D+02 E-N=-7.856493566783D+03  KE= 2.856781345525D+03
 There are a total of      118424 grid points.
 ElSum from          density=       83.9999849571
 ElSum from atomic densities=       84.0001954187

 Hirshfeld populations at iteration   1 (CX, CA, CB, DipXYZ):
               1          2          3          4          5          6
     1  C    0.000000   3.014850   3.014850  -0.043667   0.052228   0.000005
     2  C    0.000001   2.990658   2.990658  -0.023508  -0.000261  -0.000170
     3  C    0.000000   3.015991   3.015991  -0.044370  -0.050282   0.000096
     4  C    0.000000   3.026235   3.026235   0.028704  -0.053602  -0.000046
     5  C    0.000000   2.977262   2.977262   0.106762  -0.001142  -0.000042
     6  C    0.000000   3.020884   3.020884   0.022128   0.052991   0.000091
     7  H    0.000010   0.468980   0.468980  -0.078971   0.141200  -0.000015
     8  H    0.000010   0.469641   0.469641  -0.075990  -0.141958   0.000055
     9  H    0.000001   0.474886   0.474886   0.070699  -0.140530   0.000078
    10  H    0.000001   0.471952   0.471952   0.060158   0.147386   0.000032
    11  N    0.000000   3.618447   3.618447  -0.091316  -0.179192   0.000416
    12  H    0.000001   0.445400   0.445400   0.067396  -0.098057   0.165571
    13  H    0.000001   0.445405   0.445405   0.067390  -0.098783  -0.165124
    14  Br   0.000065  17.559403  17.559403  -0.220319  -0.000287   0.000117
       Tot   0.000092  41.999992  41.999992  -0.154905  -0.370289   0.001064

 Dip from Atomic Chgs              0.769932  -0.126877   0.000475
         Total Dipole              0.615027  -0.497166   0.001539

 Hirshfeld charges, spin densities, dipoles, and CM5 charges using IRadAn=      4:
              Q-H        S-H        Dx         Dy         Dz        Q-CM5   
     1  C   -0.029699   0.000000  -0.043667   0.052228   0.000005  -0.078481
     2  C    0.018684   0.000000  -0.023508  -0.000261  -0.000170   0.025375
     3  C   -0.031981   0.000000  -0.044370  -0.050282   0.000096  -0.080784
     4  C   -0.052471   0.000000   0.028704  -0.053602  -0.000046  -0.099806
     5  C    0.045477   0.000000   0.106762  -0.001142  -0.000042   0.083524
     6  C   -0.041768   0.000000   0.022128   0.052991   0.000091  -0.088098
     7  H    0.062039   0.000000  -0.078971   0.141200  -0.000015   0.114830
     8  H    0.060718   0.000000  -0.075990  -0.141958   0.000055   0.113499
     9  H    0.050228   0.000000   0.070699  -0.140530   0.000078   0.106705
    10  H    0.056095   0.000000   0.060158   0.147386   0.000032   0.112591
    11  N   -0.236893   0.000000  -0.091316  -0.179192   0.000416  -0.682435
    12  H    0.109200   0.000000   0.067396  -0.098057   0.165571   0.303162
    13  H    0.109191   0.000000   0.067390  -0.098783  -0.165124   0.303154
    14  Br  -0.118805   0.000000  -0.220319  -0.000287   0.000117  -0.133221
       Tot   0.000015   0.000000  -0.154905  -0.370289   0.001064   0.000015
 Hirshfeld charges with hydrogens summed into heavy atoms:
              Q-H       Q-CM5   
     1  C    0.032340   0.036348
     2  C    0.018684   0.025375
     3  C    0.028737   0.032715
     4  C   -0.002243   0.006900
     5  C    0.045477   0.083524
     6  C    0.014327   0.024493
    11  N   -0.018502  -0.076119
    14  Br  -0.118805  -0.133221
 
 EQQ= 0.000000000000E+00 EQD= 0.000000000000E+00 EDD= 0.854087744407E-02
 EQQ+QD+DD= 0.854087744407E-02
 
          MBS Condensed to atoms (all electrons):
               1          2          3          4          5          6
     1  C    4.817497   0.497437  -0.032916  -0.010268  -0.029136   0.500007
     2  C    0.497437   4.783139   0.497978  -0.028465  -0.011688  -0.028260
     3  C   -0.032916   0.497978   4.820256   0.498521  -0.029118  -0.010180
     4  C   -0.010268  -0.028465   0.498521   4.854552   0.501067  -0.036872
     5  C   -0.029136  -0.011688  -0.029118   0.501067   4.725238   0.503107
     6  C    0.500007  -0.028260  -0.010180  -0.036872   0.503107   4.832279
     7  H    0.385022  -0.025391   0.001417   0.000031   0.001383  -0.023391
     8  H    0.001424  -0.025320   0.384347  -0.023263   0.001376   0.000026
     9  H    0.000042   0.001371  -0.023747   0.384443  -0.025255   0.001437
    10  H   -0.023386   0.001357   0.000034   0.001474  -0.024374   0.383571
    11  N    0.000612   0.000016   0.000648  -0.028700   0.340980  -0.030182
    12  H   -0.000044   0.000003  -0.000002  -0.001953  -0.029642   0.001168
    13  H   -0.000044   0.000003  -0.000001  -0.001971  -0.029646   0.001177
    14  Br  -0.020734   0.275951  -0.020771   0.000370  -0.000058   0.000379
               7          8          9         10         11         12
     1  C    0.385022   0.001424   0.000042  -0.023386   0.000612  -0.000044
     2  C   -0.025391  -0.025320   0.001371   0.001357   0.000016   0.000003
     3  C    0.001417   0.384347  -0.023747   0.000034   0.000648  -0.000002
     4  C    0.000031  -0.023263   0.384443   0.001474  -0.028700  -0.001953
     5  C    0.001383   0.001376  -0.025255  -0.024374   0.340980  -0.029642
     6  C   -0.023391   0.000026   0.001437   0.383571  -0.030182   0.001168
     7  H    0.545152  -0.000043   0.000002  -0.003993  -0.000010   0.000001
     8  H   -0.000043   0.547367  -0.003994   0.000002  -0.000011   0.000000
     9  H    0.000002  -0.003994   0.559218  -0.000043  -0.002136   0.000691
    10  H   -0.003993   0.000002  -0.000043   0.541454  -0.000779   0.000052
    11  N   -0.000010  -0.000011  -0.002136  -0.000779   6.662629   0.333163
    12  H    0.000001   0.000000   0.000691   0.000052   0.333163   0.469248
    13  H    0.000001   0.000000   0.000696   0.000051   0.333171  -0.030770
    14  Br  -0.001390  -0.001394   0.000000   0.000000   0.000000   0.000000
              13         14
     1  C   -0.000044  -0.020734
     2  C    0.000003   0.275951
     3  C   -0.000001  -0.020771
     4  C   -0.001971   0.000370
     5  C   -0.029646  -0.000058
     6  C    0.001177   0.000379
     7  H    0.000001  -0.001390
     8  H    0.000000  -0.001394
     9  H    0.000696   0.000000
    10  H    0.000051   0.000000
    11  N    0.333171   0.000000
    12  H   -0.030770   0.000000
    13  H    0.469284   0.000000
    14  Br   0.000000  34.939357
 MBS Mulliken charges:
               1
     1  C   -0.085512
     2  C    0.061869
     3  C   -0.086467
     4  C   -0.108966
     5  C    0.105766
     6  C   -0.094266
     7  H    0.121209
     8  H    0.119484
     9  H    0.107274
    10  H    0.124582
    11  N   -0.609400
    12  H    0.258085
    13  H    0.258049
    14  Br  -0.171710
 Sum of MBS Mulliken charges =   0.00000
 MBS Mulliken charges with hydrogens summed into heavy atoms:
               1
     1  C    0.035697
     2  C    0.061869
     3  C    0.033017
     4  C   -0.001692
     5  C    0.105766
     6  C    0.030317
    11  N   -0.093266
    14  Br  -0.171710
 ******************************Gaussian NBO Version 3.1******************************
             N A T U R A L   A T O M I C   O R B I T A L   A N D
          N A T U R A L   B O N D   O R B I T A L   A N A L Y S I S
 ******************************Gaussian NBO Version 3.1******************************
       /RESON  / : Allow strongly delocalized NBO set

 Analyzing the SCF density

 Job title: Title Card Required                                             

 Storage needed:    171208 in NPA ( 536869820 available)


 NATURAL POPULATIONS:  Natural atomic orbital occupancies 
                                                          
   NAO  Atom  No  lang   Type(AO)    Occupancy      Energy
 ----------------------------------------------------------
     1    C    1  S      Cor( 1S)     1.99895     -10.04739
     2    C    1  S      Val( 2S)     0.94992      -0.17698
     3    C    1  S      Ryd( 3S)     0.00196       0.73302
     4    C    1  S      Ryd( 4S)     0.00031       0.97795
     5    C    1  S      Ryd( 5S)     0.00001      22.91083
     6    C    1  px     Val( 2p)     1.09835      -0.07089
     7    C    1  px     Ryd( 4p)     0.00643       0.81517
     8    C    1  px     Ryd( 3p)     0.00030       0.40088
     9    C    1  px     Ryd( 5p)     0.00014       3.16873
    10    C    1  py     Val( 2p)     1.15992      -0.08802
    11    C    1  py     Ryd( 4p)     0.00590       0.90755
    12    C    1  py     Ryd( 3p)     0.00022       0.30899
    13    C    1  py     Ryd( 5p)     0.00008       3.20087
    14    C    1  pz     Val( 2p)     0.99194      -0.12352
    15    C    1  pz     Ryd( 4p)     0.00107       0.50024
    16    C    1  pz     Ryd( 3p)     0.00035       0.29931
    17    C    1  pz     Ryd( 5p)     0.00001       2.68913
    18    C    1  dxy    Ryd( 3d)     0.00081       2.46344
    19    C    1  dxz    Ryd( 3d)     0.00050       1.63902
    20    C    1  dyz    Ryd( 3d)     0.00046       1.60715
    21    C    1  dx2y2  Ryd( 3d)     0.00072       2.54057
    22    C    1  dz2    Ryd( 3d)     0.00041       2.00605

    23    C    2  S      Cor( 1S)     1.99859     -10.10838
    24    C    2  S      Val( 2S)     0.95644      -0.23666
    25    C    2  S      Ryd( 4S)     0.00129       0.86451
    26    C    2  S      Ryd( 3S)     0.00049       0.46685
    27    C    2  S      Ryd( 5S)     0.00001      23.41373
    28    C    2  px     Val( 2p)     0.97410      -0.17841
    29    C    2  px     Ryd( 4p)     0.00692       0.93507
    30    C    2  px     Ryd( 3p)     0.00019       0.87968
    31    C    2  px     Ryd( 5p)     0.00026       2.98078
    32    C    2  py     Val( 2p)     1.08579      -0.08538
    33    C    2  py     Ryd( 4p)     0.00688       0.71508
    34    C    2  py     Ryd( 3p)     0.00031       0.49162
    35    C    2  py     Ryd( 5p)     0.00010       3.24902
    36    C    2  pz     Val( 2p)     1.08004      -0.15176
    37    C    2  pz     Ryd( 4p)     0.00111       0.58951
    38    C    2  pz     Ryd( 3p)     0.00033       0.38079
    39    C    2  pz     Ryd( 5p)     0.00001       2.58319
    40    C    2  dxy    Ryd( 3d)     0.00110       2.42414
    41    C    2  dxz    Ryd( 3d)     0.00107       1.48976
    42    C    2  dyz    Ryd( 3d)     0.00060       1.63682
    43    C    2  dx2y2  Ryd( 3d)     0.00148       2.15482
    44    C    2  dz2    Ryd( 3d)     0.00067       1.97615

    45    C    3  S      Cor( 1S)     1.99895     -10.04836
    46    C    3  S      Val( 2S)     0.94902      -0.17791
    47    C    3  S      Ryd( 3S)     0.00208       0.73883
    48    C    3  S      Ryd( 4S)     0.00032       1.03024
    49    C    3  S      Ryd( 5S)     0.00001      22.86330
    50    C    3  px     Val( 2p)     1.09544      -0.07216
    51    C    3  px     Ryd( 4p)     0.00635       0.80683
    52    C    3  px     Ryd( 3p)     0.00027       0.39536
    53    C    3  px     Ryd( 5p)     0.00014       3.17304
    54    C    3  py     Val( 2p)     1.16304      -0.08945
    55    C    3  py     Ryd( 4p)     0.00620       0.90579
    56    C    3  py     Ryd( 3p)     0.00022       0.31128
    57    C    3  py     Ryd( 5p)     0.00008       3.19815
    58    C    3  pz     Val( 2p)     0.99340      -0.12478
    59    C    3  pz     Ryd( 4p)     0.00105       0.49456
    60    C    3  pz     Ryd( 3p)     0.00035       0.29184
    61    C    3  pz     Ryd( 5p)     0.00001       2.69601
    62    C    3  dxy    Ryd( 3d)     0.00081       2.46702
    63    C    3  dxz    Ryd( 3d)     0.00051       1.63895
    64    C    3  dyz    Ryd( 3d)     0.00046       1.60479
    65    C    3  dx2y2  Ryd( 3d)     0.00072       2.53524
    66    C    3  dz2    Ryd( 3d)     0.00042       2.00753

    67    C    4  S      Cor( 1S)     1.99899     -10.04609
    68    C    4  S      Val( 2S)     0.95356      -0.17543
    69    C    4  S      Ryd( 3S)     0.00203       0.68020
    70    C    4  S      Ryd( 4S)     0.00022       1.07020
    71    C    4  S      Ryd( 5S)     0.00001      22.74538
    72    C    4  px     Val( 2p)     1.08793      -0.06589
    73    C    4  px     Ryd( 4p)     0.00640       0.88513
    74    C    4  px     Ryd( 3p)     0.00043       0.36279
    75    C    4  px     Ryd( 5p)     0.00014       3.13121
    76    C    4  py     Val( 2p)     1.15150      -0.07712
    77    C    4  py     Ryd( 4p)     0.00497       0.94703
    78    C    4  py     Ryd( 3p)     0.00039       0.31833
    79    C    4  py     Ryd( 5p)     0.00011       3.15855
    80    C    4  pz     Val( 2p)     1.00569      -0.12576
    81    C    4  pz     Ryd( 4p)     0.00097       0.49747
    82    C    4  pz     Ryd( 3p)     0.00034       0.29328
    83    C    4  pz     Ryd( 5p)     0.00001       2.67644
    84    C    4  dxy    Ryd( 3d)     0.00070       2.48935
    85    C    4  dxz    Ryd( 3d)     0.00049       1.63851
    86    C    4  dyz    Ryd( 3d)     0.00047       1.61946
    87    C    4  dx2y2  Ryd( 3d)     0.00068       2.53906
    88    C    4  dz2    Ryd( 3d)     0.00041       2.04227

    89    C    5  S      Cor( 1S)     1.99889     -10.08454
    90    C    5  S      Val( 2S)     0.86063      -0.14976
    91    C    5  S      Ryd( 4S)     0.00093       0.74811
    92    C    5  S      Ryd( 3S)     0.00023       0.73478
    93    C    5  S      Ryd( 5S)     0.00001      22.95708
    94    C    5  px     Val( 2p)     0.89733      -0.05748
    95    C    5  px     Ryd( 4p)     0.00597       1.08273
    96    C    5  px     Ryd( 3p)     0.00039       0.55718
    97    C    5  px     Ryd( 5p)     0.00014       3.00986
    98    C    5  py     Val( 2p)     1.08420      -0.06250
    99    C    5  py     Ryd( 4p)     0.00496       0.97154
   100    C    5  py     Ryd( 3p)     0.00090       0.60775
   101    C    5  py     Ryd( 5p)     0.00014       2.93152
   102    C    5  pz     Val( 2p)     0.99918      -0.12106
   103    C    5  pz     Ryd( 4p)     0.00161       0.56709
   104    C    5  pz     Ryd( 3p)     0.00029       0.53399
   105    C    5  pz     Ryd( 5p)     0.00002       2.43750
   106    C    5  dxy    Ryd( 3d)     0.00144       2.59065
   107    C    5  dxz    Ryd( 3d)     0.00094       1.61414
   108    C    5  dyz    Ryd( 3d)     0.00056       1.65968
   109    C    5  dx2y2  Ryd( 3d)     0.00120       2.43609
   110    C    5  dz2    Ryd( 3d)     0.00046       2.02900

   111    C    6  S      Cor( 1S)     1.99900     -10.04344
   112    C    6  S      Val( 2S)     0.95440      -0.17151
   113    C    6  S      Ryd( 3S)     0.00172       0.70908
   114    C    6  S      Ryd( 4S)     0.00029       0.75462
   115    C    6  S      Ryd( 5S)     0.00001      23.05579
   116    C    6  px     Val( 2p)     1.08102      -0.05824
   117    C    6  px     Ryd( 4p)     0.00567       0.88890
   118    C    6  px     Ryd( 3p)     0.00046       0.38791
   119    C    6  px     Ryd( 5p)     0.00014       3.09642
   120    C    6  py     Val( 2p)     1.15868      -0.07365
   121    C    6  py     Ryd( 4p)     0.00564       0.96610
   122    C    6  py     Ryd( 3p)     0.00030       0.31020
   123    C    6  py     Ryd( 5p)     0.00008       3.16011
   124    C    6  pz     Val( 2p)     0.98654      -0.11921
   125    C    6  pz     Ryd( 4p)     0.00084       0.52295
   126    C    6  pz     Ryd( 3p)     0.00030       0.32663
   127    C    6  pz     Ryd( 5p)     0.00002       2.64416
   128    C    6  dxy    Ryd( 3d)     0.00074       2.49877
   129    C    6  dxz    Ryd( 3d)     0.00050       1.64522
   130    C    6  dyz    Ryd( 3d)     0.00050       1.62131
   131    C    6  dx2y2  Ryd( 3d)     0.00073       2.54386
   132    C    6  dz2    Ryd( 3d)     0.00040       2.04437

   133    H    7  S      Val( 1S)     0.77324       0.02910
   134    H    7  S      Ryd( 2S)     0.00079       0.75326
   135    H    7  S      Ryd( 3S)     0.00018       1.98156
   136    H    7  px     Ryd( 2p)     0.00023       2.13790
   137    H    7  py     Ryd( 2p)     0.00036       2.46639
   138    H    7  pz     Ryd( 2p)     0.00018       1.58075

   139    H    8  S      Val( 1S)     0.77424       0.02698
   140    H    8  S      Ryd( 2S)     0.00085       0.74401
   141    H    8  S      Ryd( 3S)     0.00018       1.98714
   142    H    8  px     Ryd( 2p)     0.00022       2.12454
   143    H    8  py     Ryd( 2p)     0.00037       2.48123
   144    H    8  pz     Ryd( 2p)     0.00019       1.57871

   145    H    9  S      Val( 1S)     0.78388       0.02028
   146    H    9  S      Ryd( 2S)     0.00103       0.75584
   147    H    9  S      Ryd( 3S)     0.00016       1.90311
   148    H    9  px     Ryd( 2p)     0.00020       2.14854
   149    H    9  py     Ryd( 2p)     0.00036       2.47923
   150    H    9  pz     Ryd( 2p)     0.00019       1.57988

   151    H   10  S      Val( 1S)     0.76950       0.03712
   152    H   10  S      Ryd( 2S)     0.00095       0.88146
   153    H   10  S      Ryd( 3S)     0.00018       1.80366
   154    H   10  px     Ryd( 2p)     0.00022       2.13951
   155    H   10  py     Ryd( 2p)     0.00034       2.50953
   156    H   10  pz     Ryd( 2p)     0.00016       1.58956

   157    N   11  S      Cor( 1S)     1.99950     -14.13547
   158    N   11  S      Val( 2S)     1.40225      -0.57604
   159    N   11  S      Ryd( 3S)     0.00062       0.62983
   160    N   11  S      Ryd( 4S)     0.00015       1.21472
   161    N   11  S      Ryd( 5S)     0.00000      35.43466
   162    N   11  px     Val( 2p)     1.29417      -0.20153
   163    N   11  px     Ryd( 3p)     0.00313       0.48304
   164    N   11  px     Ryd( 4p)     0.00053       0.65943
   165    N   11  px     Ryd( 5p)     0.00001       4.10196
   166    N   11  py     Val( 2p)     1.79001      -0.23040
   167    N   11  py     Ryd( 3p)     0.00937       0.49362
   168    N   11  py     Ryd( 4p)     0.00013       0.67538
   169    N   11  py     Ryd( 5p)     0.00002       3.94047
   170    N   11  pz     Val( 2p)     1.34438      -0.19119
   171    N   11  pz     Ryd( 3p)     0.00266       0.45777
   172    N   11  pz     Ryd( 4p)     0.00003       0.61443
   173    N   11  pz     Ryd( 5p)     0.00003       4.15793
   174    N   11  dxy    Ryd( 3d)     0.00081       2.45882
   175    N   11  dxz    Ryd( 3d)     0.00028       2.50936
   176    N   11  dyz    Ryd( 3d)     0.00163       2.73927
   177    N   11  dx2y2  Ryd( 3d)     0.00124       2.61399
   178    N   11  dz2    Ryd( 3d)     0.00056       2.59814

   179    H   12  S      Val( 1S)     0.63675       0.09061
   180    H   12  S      Ryd( 2S)     0.00062       0.78207
   181    H   12  S      Ryd( 3S)     0.00023       2.07809
   182    H   12  px     Ryd( 2p)     0.00047       1.84439
   183    H   12  py     Ryd( 2p)     0.00099       1.82645
   184    H   12  pz     Ryd( 2p)     0.00031       2.37442

   185    H   13  S      Val( 1S)     0.63677       0.09061
   186    H   13  S      Ryd( 2S)     0.00062       0.78218
   187    H   13  S      Ryd( 3S)     0.00023       2.07779
   188    H   13  px     Ryd( 2p)     0.00047       1.84421
   189    H   13  py     Ryd( 2p)     0.00099       1.82899
   190    H   13  pz     Ryd( 2p)     0.00031       2.37159

   191   Br   14  S      Cor( 1S)     2.00000    -481.81307
   192   Br   14  S      Cor( 2S)     2.00000     -60.23915
   193   Br   14  S      Cor( 3S)     1.99976     -11.56442
   194   Br   14  S      Val( 4S)     1.86205      -1.05169
   195   Br   14  S      Ryd( 6S)     0.00306       0.80243
   196   Br   14  S      Ryd( 5S)     0.00031       0.25287
   197   Br   14  S      Ryd( 7S)     0.00000      14.58972
   198   Br   14  S      Ryd( 8S)     0.00000      87.66975
   199   Br   14  S      Ryd( 9S)     0.00000     972.61294
   200   Br   14  px     Cor( 2p)     2.00000     -56.06420
   201   Br   14  px     Cor( 3p)     1.99985      -6.75945
   202   Br   14  px     Val( 4p)     1.13742      -0.24649
   203   Br   14  px     Ryd( 5p)     0.00512       0.34492
   204   Br   14  px     Ryd( 6p)     0.00010       0.37081
   205   Br   14  px     Ryd( 7p)     0.00002       3.64611
   206   Br   14  px     Ryd( 8p)     0.00000      10.49328
   207   Br   14  px     Ryd( 9p)     0.00000     285.26562
   208   Br   14  py     Cor( 2p)     2.00000     -56.06038
   209   Br   14  py     Cor( 3p)     1.99999      -6.74964
   210   Br   14  py     Val( 4p)     1.97480      -0.30065
   211   Br   14  py     Ryd( 5p)     0.00166       0.39375
   212   Br   14  py     Ryd( 6p)     0.00010       0.43096
   213   Br   14  py     Ryd( 7p)     0.00001       3.25862
   214   Br   14  py     Ryd( 8p)     0.00000      10.61270
   215   Br   14  py     Ryd( 9p)     0.00000     285.26461
   216   Br   14  pz     Cor( 2p)     2.00000     -56.06049
   217   Br   14  pz     Cor( 3p)     1.99999      -6.74991
   218   Br   14  pz     Val( 4p)     1.93736      -0.29916
   219   Br   14  pz     Ryd( 5p)     0.00164       0.38418
   220   Br   14  pz     Ryd( 6p)     0.00005       0.41072
   221   Br   14  pz     Ryd( 7p)     0.00000       3.06730
   222   Br   14  pz     Ryd( 8p)     0.00000      10.64088
   223   Br   14  pz     Ryd( 9p)     0.00000     285.26333
   224   Br   14  dxy    Cor( 3d)     1.99996      -2.63472
   225   Br   14  dxy    Ryd( 4d)     0.00073       1.00996
   226   Br   14  dxy    Ryd( 5d)     0.00000       4.34558
   227   Br   14  dxz    Cor( 3d)     1.99995      -2.63489
   228   Br   14  dxz    Ryd( 4d)     0.00234       0.75809
   229   Br   14  dxz    Ryd( 5d)     0.00002       4.17176
   230   Br   14  dyz    Cor( 3d)     2.00000      -2.62456
   231   Br   14  dyz    Ryd( 4d)     0.00006       0.67975
   232   Br   14  dyz    Ryd( 5d)     0.00000       4.08098
   233   Br   14  dx2y2  Cor( 3d)     1.99982      -2.63467
   234   Br   14  dx2y2  Ryd( 4d)     0.00316       1.08084
   235   Br   14  dx2y2  Ryd( 5d)     0.00001       4.41619
   236   Br   14  dz2    Cor( 3d)     1.99994      -2.62806
   237   Br   14  dz2    Ryd( 4d)     0.00107       0.80718
   238   Br   14  dz2    Ryd( 5d)     0.00000       4.20407

 WARNING:  1 low occupancy (<1.9990e) core orbital  found on  C    1
           1 low occupancy (<1.9990e) core orbital  found on  C    2
           1 low occupancy (<1.9990e) core orbital  found on  C    3
           1 low occupancy (<1.9990e) core orbital  found on  C    4
           1 low occupancy (<1.9990e) core orbital  found on  C    5
           1 low occupancy (<1.9990e) core orbital  found on  C    6

 WARNING:  Population inversion found on atom  C    1
           Population inversion found on atom  C    2
           Population inversion found on atom  C    3
           Population inversion found on atom  C    4
           Population inversion found on atom  C    5
           Population inversion found on atom  C    6
           Population inversion found on atom Br   14


 Summary of Natural Population Analysis:                  
                                                          
                                       Natural Population 
                Natural  -----------------------------------------------
    Atom  No    Charge         Core      Valence    Rydberg      Total
 -----------------------------------------------------------------------
      C    1   -0.21876      1.99895     4.20014    0.01967     6.21876
      C    2   -0.11779      1.99859     4.09637    0.02283     6.11779
      C    3   -0.21984      1.99895     4.20090    0.01999     6.21984
      C    4   -0.21644      1.99899     4.19868    0.01877     6.21644
      C    5    0.13958      1.99889     3.84134    0.02019     5.86042
      C    6   -0.19796      1.99900     4.18064    0.01832     6.19796
      H    7    0.22502      0.00000     0.77324    0.00174     0.77498
      H    8    0.22394      0.00000     0.77424    0.00181     0.77606
      H    9    0.21418      0.00000     0.78388    0.00194     0.78582
      H   10    0.22866      0.00000     0.76950    0.00184     0.77134
      N   11   -0.85150      1.99950     5.83081    0.02119     7.85150
      H   12    0.36064      0.00000     0.63675    0.00261     0.63936
      H   13    0.36062      0.00000     0.63677    0.00261     0.63938
     Br   14    0.06965     27.99925     6.91163    0.01947    34.93035
 =======================================================================
   * Total *    0.00000     41.99212    41.83490    0.17298    84.00000

                                 Natural Population      
 --------------------------------------------------------
   Core                      41.99212 ( 99.9812% of  42)
   Valence                   41.83490 ( 99.6069% of  42)
   Natural Minimal Basis     83.82702 ( 99.7941% of  84)
   Natural Rydberg Basis      0.17298 (  0.2059% of  84)
 --------------------------------------------------------

    Atom  No          Natural Electron Configuration
 ----------------------------------------------------------------------------
      C    1      [core]2S( 0.95)2p( 3.25)4p( 0.01)
      C    2      [core]2S( 0.96)2p( 3.14)4p( 0.01)
      C    3      [core]2S( 0.95)2p( 3.25)4p( 0.01)
      C    4      [core]2S( 0.95)2p( 3.25)4p( 0.01)
      C    5      [core]2S( 0.86)2p( 2.98)4p( 0.01)
      C    6      [core]2S( 0.95)2p( 3.23)4p( 0.01)
      H    7            1S( 0.77)
      H    8            1S( 0.77)
      H    9            1S( 0.78)
      H   10            1S( 0.77)
      N   11      [core]2S( 1.40)2p( 4.43)3p( 0.02)
      H   12            1S( 0.64)
      H   13            1S( 0.64)
     Br   14      [core]4S( 1.86)4p( 5.05)4d( 0.01)5p( 0.01)


 NBO analysis skipped by request.
 Calling FoFJK, ICntrl=      2127 FMM=F ISym2X=0 I1Cent= 0 IOpClX= 0 NMat=1 NMatS=1 NMatT=0.
 ***** Axes restored to original set *****
 -------------------------------------------------------------------
 Center     Atomic                   Forces (Hartrees/Bohr)
 Number     Number              X              Y              Z
 -------------------------------------------------------------------
      1        6          -0.010274900   -0.008101673   -0.000004985
      2        6          -0.000375838    0.009834220    0.000095614
      3        6           0.012410668   -0.008215433   -0.000055922
      4        6           0.003404452   -0.004572119    0.000027064
      5        6           0.003539074    0.020951574    0.000008076
      6        6          -0.005113607    0.003641578   -0.000051923
      7        1           0.009507111    0.005094976   -0.000000080
      8        1          -0.009234927    0.005281443   -0.000006727
      9        1          -0.008737680   -0.005052919   -0.000011013
     10        1           0.010217052   -0.004299730    0.000000497
     11        7          -0.019117824   -0.026024909   -0.000008167
     12        1           0.006824949    0.006520089    0.008816220
     13        1           0.006874092    0.006491657   -0.008787429
     14       35           0.000077379   -0.001548754   -0.000021226
 -------------------------------------------------------------------
 Cartesian Forces:  Max     0.026024909 RMS     0.008231611

 GradGradGradGradGradGradGradGradGradGradGradGradGradGradGradGradGradGrad
 Berny optimization.
 FormGI is forming the generalized inverse of G from B-inverse, IUseBI=4.
 Internal  Forces:  Max     0.013150458 RMS     0.004481935
 Search for a local minimum.
 Step number   1 out of a maximum of   73
 All quantities printed in internal units (Hartrees-Bohrs-Radians)
 Mixed Optimization -- RFO/linear search
 Second derivative matrix not updated -- first step.
 ITU=  0
     Eigenvalues ---    0.00766   0.01728   0.02152   0.02153   0.02154
     Eigenvalues ---    0.02155   0.02155   0.02155   0.02156   0.02157
     Eigenvalues ---    0.05453   0.16000   0.16000   0.16000   0.16000
     Eigenvalues ---    0.16000   0.16000   0.17771   0.22000   0.22982
     Eigenvalues ---    0.24000   0.25000   0.25000   0.33718   0.33718
     Eigenvalues ---    0.33725   0.33726   0.35740   0.42107   0.42496
     Eigenvalues ---    0.46412   0.46453   0.46466   0.46497   0.47688
     Eigenvalues ---    0.47688
 RFO step:  Lambda=-3.78886070D-03 EMin= 7.65814437D-03
 Linear search not attempted -- first point.
 Iteration  1 RMS(Cart)=  0.02312642 RMS(Int)=  0.00041384
 Iteration  2 RMS(Cart)=  0.00034108 RMS(Int)=  0.00004467
 Iteration  3 RMS(Cart)=  0.00000032 RMS(Int)=  0.00004467
 Variable       Old X    -DE/DX   Delta X   Delta X   Delta X     New X
                                 (Linear)    (Quad)   (Total)
    R1        2.63647  -0.00295   0.00000  -0.00643  -0.00643   2.63004
    R2        2.63584  -0.00075   0.00000  -0.00176  -0.00176   2.63408
    R3        2.07796  -0.01079   0.00000  -0.03163  -0.03163   2.04634
    R4        2.63562  -0.00286   0.00000  -0.00607  -0.00607   2.62955
    R5        3.60938   0.00155   0.00000   0.00852   0.00852   3.61790
    R6        2.63697  -0.00165   0.00000  -0.00336  -0.00337   2.63361
    R7        2.07809  -0.01063   0.00000  -0.03119  -0.03119   2.04691
    R8        2.63584   0.00308   0.00000   0.00671   0.00671   2.64255
    R9        2.07809  -0.01009   0.00000  -0.02959  -0.02959   2.04850
   R10        2.63643  -0.00289   0.00000  -0.00620  -0.00619   2.63023
   R11        2.77790  -0.01315   0.00000  -0.03641  -0.03641   2.74149
   R12        2.07795  -0.01096   0.00000  -0.03213  -0.03213   2.04582
   R13        1.88973   0.01257   0.00000   0.02615   0.02615   1.91587
   R14        1.88973   0.01256   0.00000   0.02613   0.02613   1.91586
    A1        2.09437  -0.00171   0.00000  -0.00835  -0.00835   2.08602
    A2        2.09435   0.00080   0.00000   0.00383   0.00383   2.09817
    A3        2.09447   0.00091   0.00000   0.00452   0.00452   2.09899
    A4        2.09455   0.00313   0.00000   0.01205   0.01204   2.10659
    A5        2.09406  -0.00136   0.00000  -0.00522  -0.00522   2.08884
    A6        2.09458  -0.00177   0.00000  -0.00682  -0.00682   2.08776
    A7        2.09429  -0.00319   0.00000  -0.01398  -0.01399   2.08030
    A8        2.09462   0.00126   0.00000   0.00493   0.00493   2.09955
    A9        2.09427   0.00193   0.00000   0.00906   0.00906   2.10333
   A10        2.09429   0.00333   0.00000   0.01539   0.01539   2.10968
   A11        2.09407  -0.00196   0.00000  -0.00946  -0.00946   2.08460
   A12        2.09483  -0.00138   0.00000  -0.00593  -0.00593   2.08890
   A13        2.09448  -0.00435   0.00000  -0.01707  -0.01706   2.07741
   A14        2.09459   0.01096   0.00000   0.04313   0.04312   2.13772
   A15        2.09411  -0.00660   0.00000  -0.02606  -0.02606   2.06805
   A16        2.09440   0.00279   0.00000   0.01196   0.01197   2.10637
   A17        2.09453   0.00035   0.00000   0.00466   0.00466   2.09919
   A18        2.09426  -0.00314   0.00000  -0.01663  -0.01663   2.07763
   A19        1.91063   0.00339   0.00000   0.02120   0.02107   1.93170
   A20        1.91063   0.00337   0.00000   0.02108   0.02096   1.93159
   A21        1.91063  -0.00324   0.00000  -0.01873  -0.01897   1.89167
    D1        0.00056  -0.00001   0.00000  -0.00055  -0.00055   0.00001
    D2        3.14078   0.00002   0.00000   0.00095   0.00095  -3.14146
    D3       -3.14112  -0.00002   0.00000  -0.00066  -0.00067   3.14140
    D4       -0.00091   0.00002   0.00000   0.00083   0.00083  -0.00008
    D5        0.00026  -0.00001   0.00000  -0.00043  -0.00044  -0.00018
    D6        3.14140   0.00000   0.00000   0.00006   0.00006   3.14147
    D7       -3.14124  -0.00001   0.00000  -0.00031  -0.00032  -3.14156
    D8       -0.00010   0.00000   0.00000   0.00018   0.00018   0.00008
    D9       -0.00099   0.00003   0.00000   0.00114   0.00114   0.00015
   D10        3.14093   0.00002   0.00000   0.00070   0.00071  -3.14155
   D11       -3.14120  -0.00001   0.00000  -0.00035  -0.00036  -3.14156
   D12        0.00072  -0.00002   0.00000  -0.00079  -0.00079  -0.00008
   D13        0.00060  -0.00002   0.00000  -0.00075  -0.00074  -0.00015
   D14       -3.14153  -0.00001   0.00000  -0.00028  -0.00028   3.14138
   D15       -3.14132  -0.00001   0.00000  -0.00031  -0.00031   3.14155
   D16       -0.00026   0.00000   0.00000   0.00015   0.00016  -0.00011
   D17        0.00023  -0.00001   0.00000  -0.00025  -0.00024  -0.00001
   D18       -3.14158   0.00000   0.00000   0.00019   0.00020  -3.14138
   D19       -3.14083  -0.00002   0.00000  -0.00071  -0.00071  -3.14154
   D20        0.00054  -0.00001   0.00000  -0.00027  -0.00027   0.00028
   D21       -0.00066   0.00002   0.00000   0.00083   0.00083   0.00018
   D22        3.14138   0.00001   0.00000   0.00034   0.00033  -3.14147
   D23        3.14116   0.00001   0.00000   0.00039   0.00040   3.14156
   D24        0.00001   0.00000   0.00000  -0.00011  -0.00010  -0.00009
   D25       -1.04940  -0.00010   0.00000  -0.00237  -0.00247  -1.05187
   D26        1.04499   0.00007   0.00000   0.00058   0.00068   1.04567
   D27        2.09197  -0.00009   0.00000  -0.00193  -0.00203   2.08994
   D28       -2.09682   0.00008   0.00000   0.00102   0.00112  -2.09570
         Item               Value     Threshold  Converged?
 Maximum Force            0.013150     0.000450     NO 
 RMS     Force            0.004482     0.000300     NO 
 Maximum Displacement     0.080235     0.001800     NO 
 RMS     Displacement     0.023201     0.001200     NO 
 Predicted change in Energy=-1.917891D-03
 GradGradGradGradGradGradGradGradGradGradGradGradGradGradGradGradGradGrad

                          Input orientation:                          
 ---------------------------------------------------------------------
 Center     Atomic      Atomic             Coordinates (Angstroms)
 Number     Number       Type             X           Y           Z
 ---------------------------------------------------------------------
      1          6           0       -1.955809   -1.230987    0.000275
      2          6           0       -0.770318   -1.960092    0.000688
      3          6           0        0.461605   -1.313075   -0.000124
      4          6           0        0.497691    0.080103   -0.001181
      5          6           0       -0.683525    0.828556   -0.001611
      6          6           0       -1.905399    0.161998   -0.000981
      7          1           0       -2.910231   -1.742549    0.000729
      8          1           0        1.380231   -1.887005    0.000167
      9          1           0        1.455222    0.588271   -0.001613
     10          1           0       -2.820003    0.741246   -0.001433
     11          7           0       -0.686630    2.279285   -0.002965
     12          1           0       -0.216793    2.639069    0.820243
     13          1           0       -0.212053    2.637435   -0.824154
     14         35           0       -0.834157   -3.873535    0.002197
 ---------------------------------------------------------------------
                    Distance matrix (angstroms):
                    1          2          3          4          5
     1  C    0.000000
     2  C    1.391756   0.000000
     3  C    2.418808   1.391498   0.000000
     4  C    2.781838   2.402134   1.393646   0.000000
     5  C    2.420831   2.789999   2.428561   1.398375   0.000000
     6  C    1.393897   2.406590   2.789005   2.404485   1.391860
     7  H    1.082875   2.150943   3.399078   3.864712   3.401295
     8  H    3.399931   2.151791   1.083176   2.156013   3.410772
     9  H    3.865855   3.383369   2.145319   1.084020   2.152202
    10  H    2.153261   3.390935   3.871587   3.382928   2.138261
    11  N    3.732671   4.240205   3.771406   2.497804   1.450733
    12  H    4.321326   4.704290   4.093003   2.780923   2.042362
    13  H    4.322621   4.704176   4.091377   2.778663   2.042280
    14  Br   2.870743   1.914508   2.869661   4.171939   4.704504
                    6          7          8          9         10
     6  C    0.000000
     7  H    2.153367   0.000000
     8  H    3.872180   4.292894   0.000000
     9  H    3.387547   4.948728   2.476412   0.000000
    10  H    1.082603   2.485434   4.954762   4.277960   0.000000
    11  N    2.443011   4.595603   4.650796   2.728930   2.629989
    12  H    3.108325   5.208147   4.869123   2.770714   3.324694
    13  H    3.110116   5.210072   4.866768   2.766849   3.327732
    14  Br   4.175295   2.975094   2.974865   5.014875   5.023922
                   11         12         13         14
    11  N    0.000000
    12  H    1.013836   0.000000
    13  H    1.013827   1.644405   0.000000
    14  Br   6.154590   6.592750   6.592616   0.000000
 Stoichiometry    C6H6BrN
 Framework group  C1[X(C6H6BrN)]
 Deg. of freedom    36
 Full point group                 C1      NOp   1
 Largest Abelian subgroup         C1      NOp   1
 Largest concise Abelian subgroup C1      NOp   1
                         Standard orientation:                         
 ---------------------------------------------------------------------
 Center     Atomic      Atomic             Coordinates (Angstroms)
 Number     Number       Type             X           Y           Z
 ---------------------------------------------------------------------
      1          6           0        0.356865    1.214801   -0.000029
      2          6           0       -0.326573    0.002408    0.000040
      3          6           0        0.366883   -1.203986   -0.000015
      4          6           0        1.760425   -1.186998    0.000040
      5          6           0        2.463358    0.021860   -0.000029
      6          6           0        1.750759    1.217467   -0.000170
      7          1           0       -0.190668    2.149052   -0.000170
      8          1           0       -0.171653   -2.143799    0.000001
      9          1           0        2.304684   -2.124485    0.000200
     10          1           0        2.294762    2.153464   -0.000343
     11          7           0        3.912918    0.080202   -0.000233
     12          1           0        4.289672   -0.375458    0.823353
     13          1           0        4.289535   -0.380532   -0.821044
     14         35           0       -2.241059   -0.006656    0.000018
 ---------------------------------------------------------------------
 Rotational constants (GHZ):      5.6129761      0.6278688      0.5664260
 Standard basis: 6-311+G(d,p) (5D, 7F)
 There are   248 symmetry adapted cartesian basis functions of A   symmetry.
 There are   238 symmetry adapted basis functions of A   symmetry.
   238 basis functions,   394 primitive gaussians,   248 cartesian basis functions
    42 alpha electrons       42 beta electrons
       nuclear repulsion energy       519.2817689295 Hartrees.
 NAtoms=   14 NActive=   14 NUniq=   14 SFac= 1.00D+00 NAtFMM=   60 NAOKFM=F Big=F
 Integral buffers will be    131072 words long.
 Raffenetti 2 integral format.
 Two-electron integral symmetry is turned on.
 One-electron integrals computed using PRISM.
 NBasis=   238 RedAO= T EigKep=  2.56D-06  NBF=   238
 NBsUse=   238 1.00D-06 EigRej= -1.00D+00 NBFU=   238
 Initial guess from the checkpoint file:  "Traceless1_Smith.chk"
 B after Tr=     0.000000    0.000000    0.000000
         Rot=    1.000000    0.000023    0.000000    0.000828 Ang=   0.09 deg.
 ExpMin= 3.50D-02 ExpMax= 4.40D+05 ExpMxC= 1.51D+04 IAcc=3 IRadAn=         5 AccDes= 0.00D+00
 Harris functional with IExCor=  402 and IRadAn=       5 diagonalized for initial guess.
 HarFok:  IExCor=  402 AccDes= 0.00D+00 IRadAn=         5 IDoV= 1 UseB2=F ITyADJ=14
 ICtDFT=  3500011 ScaDFX=  1.000000  1.000000  1.000000  1.000000
 FoFCou: FMM=F IPFlag=           0 FMFlag=      100000 FMFlg1=           0
         NFxFlg=           0 DoJE=T BraDBF=F KetDBF=T FulRan=T
         wScrn=  0.000000 ICntrl=     500 IOpCl=  0 I1Cent=   200000004 NGrid=           0
         NMat0=    1 NMatS0=      1 NMatT0=    0 NMatD0=    1 NMtDS0=    0 NMtDT0=    0
 Petite list used in FoFCou.
 Keep R1 ints in memory in canonical form, NReq=412388322.
 Requested convergence on RMS density matrix=1.00D-08 within 128 cycles.
 Requested convergence on MAX density matrix=1.00D-06.
 Requested convergence on             energy=1.00D-06.
 No special actions if energy rises.
 SCF Done:  E(RB3LYP) =  -2861.22110413     A.U. after   12 cycles
            NFock= 12  Conv=0.57D-08     -V/T= 2.0015
 Calling FoFJK, ICntrl=      2127 FMM=F ISym2X=0 I1Cent= 0 IOpClX= 0 NMat=1 NMatS=1 NMatT=0.
 ***** Axes restored to original set *****
 -------------------------------------------------------------------
 Center     Atomic                   Forces (Hartrees/Bohr)
 Number     Number              X              Y              Z
 -------------------------------------------------------------------
      1        6          -0.001270619   -0.002027471   -0.000001484
      2        6          -0.000904122    0.003324422   -0.000010644
      3        6           0.001480096   -0.000744809    0.000004813
      4        6          -0.001110191   -0.001727422   -0.000004957
      5        6           0.002453276    0.007731052   -0.000012156
      6        6          -0.000585533   -0.002049753    0.000023357
      7        1           0.000120172    0.000059343    0.000003656
      8        1          -0.000194965    0.000342051    0.000000087
      9        1           0.000553850    0.000317470   -0.000002796
     10        1          -0.000047980    0.000613801   -0.000006052
     11        7          -0.002381593   -0.007558004   -0.000010570
     12        1           0.000936464    0.001422675   -0.000253580
     13        1           0.000959300    0.001424433    0.000268444
     14       35          -0.000008155   -0.001127787    0.000001881
 -------------------------------------------------------------------
 Cartesian Forces:  Max     0.007731052 RMS     0.001987478

 GradGradGradGradGradGradGradGradGradGradGradGradGradGradGradGradGradGrad
 Berny optimization.
 Using GEDIIS/GDIIS optimizer.
 FormGI is forming the generalized inverse of G from B-inverse, IUseBI=4.
 Internal  Forces:  Max     0.004710762 RMS     0.000900057
 Search for a local minimum.
 Step number   2 out of a maximum of   73
 All quantities printed in internal units (Hartrees-Bohrs-Radians)
 Mixed Optimization -- En-DIIS/RFO-DIIS
 Update second derivatives using D2CorX and points    1    2
 DE= -2.14D-03 DEPred=-1.92D-03 R= 1.12D+00
 TightC=F SS=  1.41D+00  RLast= 1.11D-01 DXNew= 5.0454D-01 3.3330D-01
 Trust test= 1.12D+00 RLast= 1.11D-01 DXMaxT set to 3.33D-01
 ITU=  1  0
 Use linear search instead of GDIIS.
     Eigenvalues ---    0.00766   0.01720   0.02152   0.02153   0.02154
     Eigenvalues ---    0.02155   0.02155   0.02155   0.02156   0.02157
     Eigenvalues ---    0.05207   0.14808   0.16000   0.16000   0.16000
     Eigenvalues ---    0.16000   0.16014   0.17679   0.21592   0.22228
     Eigenvalues ---    0.24014   0.24606   0.25000   0.32666   0.33721
     Eigenvalues ---    0.33724   0.33830   0.36492   0.42142   0.42346
     Eigenvalues ---    0.46353   0.46454   0.46477   0.46562   0.47688
     Eigenvalues ---    0.49405
 RFO step:  Lambda=-1.61568265D-04 EMin= 7.65802321D-03
 Quartic linear search produced a step of  0.14136.
 Iteration  1 RMS(Cart)=  0.00468464 RMS(Int)=  0.00004229
 Iteration  2 RMS(Cart)=  0.00003334 RMS(Int)=  0.00000988
 Iteration  3 RMS(Cart)=  0.00000000 RMS(Int)=  0.00000988
 Variable       Old X    -DE/DX   Delta X   Delta X   Delta X     New X
                                 (Linear)    (Quad)   (Total)
    R1        2.63004  -0.00075  -0.00091  -0.00124  -0.00214   2.62789
    R2        2.63408   0.00038  -0.00025   0.00120   0.00095   2.63503
    R3        2.04634  -0.00013  -0.00447   0.00281  -0.00167   2.04467
    R4        2.62955   0.00065  -0.00086   0.00208   0.00122   2.63077
    R5        3.61790   0.00113   0.00120   0.00632   0.00753   3.62542
    R6        2.63361  -0.00018  -0.00048  -0.00017  -0.00065   2.63296
    R7        2.04691  -0.00035  -0.00441   0.00204  -0.00237   2.04453
    R8        2.64255   0.00040   0.00095   0.00036   0.00131   2.64385
    R9        2.04850   0.00064  -0.00418   0.00521   0.00102   2.04952
   R10        2.63023   0.00232  -0.00088   0.00645   0.00557   2.63581
   R11        2.74149  -0.00471  -0.00515  -0.01129  -0.01644   2.72505
   R12        2.04582   0.00037  -0.00454   0.00456   0.00002   2.04584
   R13        1.91587   0.00073   0.00370  -0.00090   0.00279   1.91866
   R14        1.91586   0.00074   0.00369  -0.00090   0.00279   1.91865
    A1        2.08602  -0.00124  -0.00118  -0.00549  -0.00667   2.07935
    A2        2.09817   0.00062   0.00054   0.00277   0.00331   2.10148
    A3        2.09899   0.00062   0.00064   0.00272   0.00336   2.10235
    A4        2.10659   0.00131   0.00170   0.00443   0.00613   2.11272
    A5        2.08884  -0.00061  -0.00074  -0.00209  -0.00282   2.08601
    A6        2.08776  -0.00070  -0.00096  -0.00234  -0.00330   2.08445
    A7        2.08030  -0.00028  -0.00198  -0.00034  -0.00232   2.07799
    A8        2.09955   0.00033   0.00070   0.00173   0.00243   2.10198
    A9        2.10333  -0.00005   0.00128  -0.00139  -0.00011   2.10322
   A10        2.10968   0.00029   0.00218  -0.00013   0.00205   2.11173
   A11        2.08460  -0.00013  -0.00134   0.00039  -0.00095   2.08365
   A12        2.08890  -0.00016  -0.00084  -0.00026  -0.00110   2.08780
   A13        2.07741  -0.00097  -0.00241  -0.00228  -0.00470   2.07272
   A14        2.13772   0.00178   0.00610   0.00343   0.00952   2.14724
   A15        2.06805  -0.00081  -0.00368  -0.00114  -0.00483   2.06323
   A16        2.10637   0.00089   0.00169   0.00381   0.00550   2.11187
   A17        2.09919   0.00006   0.00066   0.00056   0.00122   2.10041
   A18        2.07763  -0.00095  -0.00235  -0.00437  -0.00672   2.07090
   A19        1.93170   0.00145   0.00298   0.00684   0.00979   1.94149
   A20        1.93159   0.00146   0.00296   0.00686   0.00980   1.94139
   A21        1.89167  -0.00177  -0.00268  -0.01293  -0.01567   1.87600
    D1        0.00001   0.00000  -0.00008   0.00017   0.00009   0.00010
    D2       -3.14146   0.00000   0.00013  -0.00021  -0.00008  -3.14154
    D3        3.14140   0.00000  -0.00009   0.00025   0.00015   3.14155
    D4       -0.00008   0.00000   0.00012  -0.00014  -0.00002  -0.00010
    D5       -0.00018   0.00000  -0.00006   0.00011   0.00004  -0.00013
    D6        3.14147   0.00000   0.00001  -0.00013  -0.00012   3.14134
    D7       -3.14156   0.00000  -0.00005   0.00003  -0.00002  -3.14158
    D8        0.00008   0.00000   0.00003  -0.00021  -0.00018  -0.00010
    D9        0.00015   0.00000   0.00016  -0.00029  -0.00013   0.00001
   D10       -3.14155   0.00000   0.00010  -0.00018  -0.00008   3.14155
   D11       -3.14156   0.00000  -0.00005   0.00009   0.00004  -3.14153
   D12       -0.00008   0.00000  -0.00011   0.00020   0.00009   0.00001
   D13       -0.00015   0.00000  -0.00011   0.00015   0.00005  -0.00010
   D14        3.14138   0.00000  -0.00004   0.00014   0.00010   3.14148
   D15        3.14155   0.00000  -0.00004   0.00004  -0.00001   3.14155
   D16       -0.00011   0.00000   0.00002   0.00002   0.00004  -0.00006
   D17       -0.00001   0.00000  -0.00003   0.00011   0.00008   0.00007
   D18       -3.14138   0.00000   0.00003  -0.00009  -0.00006  -3.14144
   D19       -3.14154   0.00000  -0.00010   0.00013   0.00003  -3.14151
   D20        0.00028   0.00000  -0.00004  -0.00007  -0.00011   0.00017
   D21        0.00018   0.00000   0.00012  -0.00024  -0.00013   0.00005
   D22       -3.14147   0.00000   0.00005  -0.00001   0.00004  -3.14143
   D23        3.14156   0.00000   0.00006  -0.00005   0.00001   3.14156
   D24       -0.00009   0.00000  -0.00001   0.00018   0.00017   0.00008
   D25       -1.05187   0.00014  -0.00035   0.00213   0.00176  -1.05011
   D26        1.04567  -0.00016   0.00010  -0.00510  -0.00499   1.04068
   D27        2.08994   0.00014  -0.00029   0.00193   0.00162   2.09157
   D28       -2.09570  -0.00017   0.00016  -0.00530  -0.00512  -2.10083
         Item               Value     Threshold  Converged?
 Maximum Force            0.004711     0.000450     NO 
 RMS     Force            0.000900     0.000300     NO 
 Maximum Displacement     0.012517     0.001800     NO 
 RMS     Displacement     0.004698     0.001200     NO 
 Predicted change in Energy=-1.162093D-04
 GradGradGradGradGradGradGradGradGradGradGradGradGradGradGradGradGradGrad

                          Input orientation:                          
 ---------------------------------------------------------------------
 Center     Atomic      Atomic             Coordinates (Angstroms)
 Number     Number       Type             X           Y           Z
 ---------------------------------------------------------------------
      1          6           0       -1.958189   -1.232485    0.000376
      2          6           0       -0.771678   -1.957757    0.000663
      3          6           0        0.463009   -1.314628   -0.000244
      4          6           0        0.500587    0.078167   -0.001437
      5          6           0       -0.678866    0.830681   -0.001852
      6          6           0       -1.902279    0.160790   -0.000963
      7          1           0       -2.912129   -1.743081    0.001046
      8          1           0        1.380018   -1.888778    0.000026
      9          1           0        1.459624    0.584646   -0.002038
     10          1           0       -2.813894    0.744747   -0.001440
     11          7           0       -0.691179    2.272661   -0.003261
     12          1           0       -0.223328    2.645286    0.817182
     13          1           0       -0.216040    2.643642   -0.820246
     14         35           0       -0.835825   -3.875175    0.002422
 ---------------------------------------------------------------------
                    Distance matrix (angstroms):
                    1          2          3          4          5
     1  C    0.000000
     2  C    1.390621   0.000000
     3  C    2.422591   1.392144   0.000000
     4  C    2.786287   2.400760   1.393303   0.000000
     5  C    2.427618   2.789983   2.430275   1.399067   0.000000
     6  C    1.394397   2.401354   2.787731   2.404286   1.394809
     7  H    1.081994   2.151190   3.402224   3.868279   3.407598
     8  H    3.402109   2.152801   1.081921   2.154594   3.410933
     9  H    3.870842   3.382680   2.144875   1.084561   2.152597
    10  H    2.154456   3.387355   3.870286   3.380845   2.136756
    11  N    3.727114   4.231186   3.768396   2.497221   1.442033
    12  H    4.325971   4.706952   4.101240   2.790034   2.042332
    13  H    4.328148   4.706963   4.098953   2.786694   2.042255
    14  Br   2.871152   1.918492   2.871128   4.173119   4.708475
                    6          7          8          9         10
     6  C    0.000000
     7  H    2.155117   0.000000
     8  H    3.869651   4.294619   0.000000
     9  H    3.388516   4.952832   2.474706   0.000000
    10  H    1.082612   2.489768   4.952207   4.276515   0.000000
    11  N    2.434495   4.588989   4.648381   2.734109   2.615424
    12  H    3.108208   5.210902   4.878135   2.783826   3.315603
    13  H    3.111138   5.214092   4.874739   2.777910   3.320405
    14  Br   4.174488   2.976048   2.975859   5.015885   5.025579
                   11         12         13         14
    11  N    0.000000
    12  H    1.015313   0.000000
    13  H    1.015306   1.637444   0.000000
    14  Br   6.149540   6.599651   6.599689   0.000000
 Stoichiometry    C6H6BrN
 Framework group  C1[X(C6H6BrN)]
 Deg. of freedom    36
 Full point group                 C1      NOp   1
 Largest Abelian subgroup         C1      NOp   1
[...]
 Maximum Force            0.000017     0.000450     YES
 RMS     Force            0.000005     0.000300     YES
 Maximum Displacement     0.001020     0.001800     YES
 RMS     Displacement     0.000166     0.001200     YES
 Predicted change in Energy=-1.783310D-08
 Optimization completed.
    -- Stationary point found.
                           ----------------------------
                           !   Optimized Parameters   !
                           ! (Angstroms and Degrees)  !
 --------------------------                            --------------------------
 ! Name  Definition              Value          Derivative Info.                !
 --------------------------------------------------------------------------------
 ! R1    R(1,2)                  1.3911         -DE/DX =    0.0                 !
 ! R2    R(1,6)                  1.391          -DE/DX =    0.0                 !
 ! R3    R(1,7)                  1.0826         -DE/DX =    0.0                 !
 ! R4    R(2,3)                  1.3911         -DE/DX =    0.0                 !
 ! R5    R(2,14)                 1.9204         -DE/DX =    0.0                 !
 ! R6    R(3,4)                  1.391          -DE/DX =    0.0                 !
 ! R7    R(3,8)                  1.0826         -DE/DX =    0.0                 !
 ! R8    R(4,5)                  1.4027         -DE/DX =    0.0                 !
 ! R9    R(4,9)                  1.0852         -DE/DX =    0.0                 !
 ! R10   R(5,6)                  1.4027         -DE/DX =    0.0                 !
 ! R11   R(5,11)                 1.3954         -DE/DX =    0.0                 !
 ! R12   R(6,10)                 1.0852         -DE/DX =    0.0                 !
 ! R13   R(11,12)                1.0091         -DE/DX =    0.0                 !
 ! R14   R(11,13)                1.0091         -DE/DX =    0.0                 !
 ! A1    A(2,1,6)              119.676          -DE/DX =    0.0                 !
 ! A2    A(2,1,7)              120.3655         -DE/DX =    0.0                 !
 ! A3    A(6,1,7)              119.9585         -DE/DX =    0.0                 !
 ! A4    A(1,2,3)              120.421          -DE/DX =    0.0                 !
 ! A5    A(1,2,14)             119.7901         -DE/DX =    0.0                 !
 ! A6    A(3,2,14)             119.7887         -DE/DX =    0.0                 !
 ! A7    A(2,3,4)              119.6779         -DE/DX =    0.0                 !
 ! A8    A(2,3,8)              120.3636         -DE/DX =    0.0                 !
 ! A9    A(4,3,8)              119.9585         -DE/DX =    0.0                 !
 ! A10   A(3,4,5)              120.9364         -DE/DX =    0.0                 !
 ! A11   A(3,4,9)              119.3396         -DE/DX =    0.0                 !
 ! A12   A(5,4,9)              119.7235         -DE/DX =    0.0                 !
 ! A13   A(4,5,6)              118.3502         -DE/DX =    0.0                 !
 ! A14   A(4,5,11)             120.7919         -DE/DX =    0.0                 !
 ! A15   A(6,5,11)             120.7942         -DE/DX =    0.0                 !
 ! A16   A(1,6,5)              120.9382         -DE/DX =    0.0                 !
 ! A17   A(1,6,10)             119.3411         -DE/DX =    0.0                 !
 ! A18   A(5,6,10)             119.7202         -DE/DX =    0.0                 !
 ! A19   A(5,11,12)            115.9618         -DE/DX =    0.0                 !
 ! A20   A(5,11,13)            115.9586         -DE/DX =    0.0                 !
 ! A21   A(12,11,13)           112.3822         -DE/DX =    0.0                 !
 ! D1    D(6,1,2,3)             -0.0073         -DE/DX =    0.0                 !
 ! D2    D(6,1,2,14)           179.894          -DE/DX =    0.0                 !
 ! D3    D(7,1,2,3)           -179.99           -DE/DX =    0.0                 !
 ! D4    D(7,1,2,14)            -0.0888         -DE/DX =    0.0                 !
 ! D5    D(2,1,6,5)             -0.09           -DE/DX =    0.0                 !
 ! D6    D(2,1,6,10)           179.6534         -DE/DX =    0.0                 !
 ! D7    D(7,1,6,5)            179.8929         -DE/DX =    0.0                 !
 ! D8    D(7,1,6,10)            -0.3637         -DE/DX =    0.0                 !
 ! D9    D(1,2,3,4)              0.0127         -DE/DX =    0.0                 !
 ! D10   D(1,2,3,8)            179.9761         -DE/DX =    0.0                 !
 ! D11   D(14,2,3,4)          -179.8886         -DE/DX =    0.0                 !
 ! D12   D(14,2,3,8)             0.0748         -DE/DX =    0.0                 !
 ! D13   D(2,3,4,5)              0.0791         -DE/DX =    0.0                 !
 ! D14   D(2,3,4,9)           -179.6472         -DE/DX =    0.0                 !
 ! D15   D(8,3,4,5)           -179.8845         -DE/DX =    0.0                 !
 ! D16   D(8,3,4,9)              0.3893         -DE/DX =    0.0                 !
 ! D17   D(3,4,5,6)             -0.1719         -DE/DX =    0.0                 !
 ! D18   D(3,4,5,11)          -177.2924         -DE/DX =    0.0                 !
 ! D19   D(9,4,5,6)            179.5533         -DE/DX =    0.0                 !
 ! D20   D(9,4,5,11)             2.4328         -DE/DX =    0.0                 !
 ! D21   D(4,5,6,1)              0.1774         -DE/DX =    0.0                 !
 ! D22   D(4,5,6,10)          -179.5651         -DE/DX =    0.0                 !
 ! D23   D(11,5,6,1)           177.2978         -DE/DX =    0.0                 !
 ! D24   D(11,5,6,10)           -2.4446         -DE/DX =    0.0                 !
 ! D25   D(4,5,11,12)         -159.0357         -DE/DX =    0.0                 !
 ! D26   D(4,5,11,13)          -23.9558         -DE/DX =    0.0                 !
 ! D27   D(6,5,11,12)           23.9144         -DE/DX =    0.0                 !
 ! D28   D(6,5,11,13)          158.9943         -DE/DX =    0.0                 !
 --------------------------------------------------------------------------------
 GradGradGradGradGradGradGradGradGradGradGradGradGradGradGradGradGradGrad

 1\1\GINC-COREV2-25-007\Freq\RB3LYP\6-311+G(d,p)\C6H6Br1N1\ROOT\10-Jan-
 2023\0\\#N Geom=AllCheck Guess=TCheck SCRF=Check GenChk RB3LYP/6-311+G
 (d,p) Freq\\Title Card Required\\0,1\C,-1.9285746369,-1.1960654829,0.1
 073083731\C,-0.7710300251,-1.9617322659,0.0125610962\C,0.4705507786,-1
 .3482047566,-0.1187093313\C,0.552439063,0.0398741411,-0.1549421008\C,-
 0.6005389496,0.8329951851,-0.0592581903\C,-1.8412677085,0.1916805354,0
 .0704505776\H,-2.8943341554,-1.6744708153,0.2096040309\H,1.3708427917,
 -1.9449761608,-0.1919820621\H,1.5232374798,0.5126144786,-0.2632937439\
 H,-2.7482616344,0.7835656183,0.1391059486\N,-0.5211121397,2.2230061818
 ,-0.1521928172\H,-1.2954370373,2.7369795621,0.2408480694\H,0.370787059
 1,2.6312686862,0.0845773581\Br,-0.8874703551,-3.8778169269,0.066157881
 6\\Version=ES64L-G09RevD.01\State=1-A\HF=-2861.2301368\RMSD=6.430e-09\
 RMSF=1.079e-05\ZeroPoint=0.1064718\Thermal=0.1137579\Dipole=0.1155461,
 1.3273192,0.334338\DipoleDeriv=0.0918522,-0.0574066,-0.0186757,-0.0838
 858,-0.0683337,0.0058177,-0.0162711,0.0041475,-0.0892858,-0.2110227,0.
 0723651,0.0114471,0.0726638,0.9682987,-0.0259904,0.0112056,-0.0312036,
 -0.0764967,0.1069163,0.0346714,-0.0173273,0.0611726,-0.0834232,-0.0080
 202,-0.0195643,-0.0044915,-0.0892275,0.0614629,0.2861502,-0.0435274,-0
 .0728277,-0.3714842,0.0153037,-0.028157,-0.0405808,-0.1507786,-0.02512
 05,0.0984249,0.0014741,0.0996345,1.6763039,-0.0923612,0.0006431,-0.105
 874,0.046849,0.0336832,-0.3397956,0.0060851,0.0231156,-0.3378506,0.003
 3537,-0.0120619,0.0173798,-0.1566809,-0.0047224,-0.0516531,0.0142644,-
 0.0591416,0.0599912,0.0062216,0.014407,0.0059187,0.1288003,0.0095138,0
 .0583901,0.0098916,0.0657482,0.0450067,-0.0053327,0.0097397,-0.004196,
 0.1295173,-0.0538943,-0.0767338,0.0199315,-0.0836133,-0.0199911,0.0098
 154,0.0193968,0.0104589,0.1385061,-0.0337922,0.0791619,0.0151178,0.085
 9368,-0.0406855,-0.0060124,0.0158319,-0.0041805,0.1391284,-0.1258474,-
 0.0460938,-0.0242732,-0.0800768,-1.5875218,0.138052,-0.0012957,0.50047
 31,-0.4726664,0.1202299,-0.0549021,0.0576899,-0.0404095,0.2032439,-0.0
 268096,0.0640129,-0.1824949,0.24812,0.1107419,0.0311441,-0.034337,0.04
 56547,0.1923532,-0.0289727,-0.060294,-0.1827862,0.2685086,-0.0800008,-
 0.0337224,0.002239,-0.0339716,-0.6359076,0.0149351,0.0024071,0.0174295
 ,-0.0642938\Polar=93.7005586,3.1378593,146.4866222,-3.4627981,-2.12097
 35,58.4708584\PG=C01 [X(C6H6Br1N1)]\NImag=0\\0.71778329,0.03786218,0.6
 6816690,-0.05709083,-0.01513192,0.13390979,-0.26628848,0.06207897,0.01
 849077,0.62643186,0.12304328,-0.16033430,-0.00962082,-0.01084234,0.471
 12668,0.01743154,-0.00368518,-0.05904656,-0.05008091,-0.00673032,0.104
 68441,-0.05698137,0.03120249,0.00546994,-0.28684101,-0.10640258,0.0240
 9178,0.70753101,-0.01682439,0.05788513,0.00059155,-0.04541429,-0.13887
 862,0.00614204,-0.04565551,0.67883848,0.00620330,-0.00398003,0.0051203
 6,0.02301348,0.01182942,-0.05992021,-0.05439369,-0.00738844,0.13349434
 ,-0.01502343,0.02162691,0.00080896,0.02348105,-0.02775448,-0.00082729,
 -0.12398946,-0.04333379,0.00735208,0.68988525,0.02833892,-0.04957984,-
 0.00181951,-0.08332642,-0.02441198,0.00857523,0.02072769,-0.33996432,0
 .00407564,0.03232953,0.69357656,0.00089505,-0.00173453,-0.00232944,-0.
 00072865,0.00329349,0.00808959,0.00666746,0.01128890,-0.05541070,-0.05
 650249,-0.01673426,0.12628077,0.03223487,-0.08121864,-0.00164733,-0.07
 805457,0.00508211,0.00691332,0.04531804,0.07290916,-0.00528976,-0.2552
 7502,0.04176337,0.01734927,0.67525376,-0.03457535,-0.02106627,0.003206
 35,0.00514035,0.00258706,-0.00037206,0.02612448,-0.03474589,-0.0023543
 6,0.10762995,-0.17116769,-0.00928009,0.00044661,0.69306590,-0.00146226
 ,0.00835983,0.00193206,0.00687102,-0.00099523,-0.00540070,-0.00537948,
 -0.00598834,0.00252895,0.01750737,-0.00210977,-0.06815698,-0.04890045,
 -0.00432025,0.16325349,-0.12443058,0.01755209,0.00649995,0.03631449,0.
 02017808,-0.00319136,-0.02161871,-0.02507135,0.00231558,-0.04835111,0.
 02464012,0.00487694,-0.27231798,-0.09448320,0.01985900,0.68226076,-0.0
 4672095,-0.33951232,0.01050396,0.07576121,-0.03759486,-0.00633646,-0.0
 3168527,-0.04278580,0.00377683,-0.01142653,0.05675312,0.00047479,-0.02
 843039,-0.15384014,0.00444690,-0.03406775,0.70201463,0.00733392,0.0055
 3228,-0.05539095,-0.00329370,-0.00113845,0.00844046,0.00216135,0.00262
 608,-0.00253233,0.00546514,-0.00296208,0.00645656,0.01989828,0.0096991
 7,-0.06846546,-0.05176141,-0.01072399,0.12545304,-0.28297074,-0.110010
 76,0.02589944,-0.01848935,-0.01398291,0.00230976,-0.00269591,0.0040491
 2,0.00070528,0.00050808,0.00072157,-0.00015313,0.00195206,0.00080981,0
 .00046940,0.00247092,0.00128219,0.00007946,0.29842293,-0.11247184,-0.1
 1097242,0.01225505,0.01676612,0.00929877,-0.00172840,0.00345649,-0.001
 60653,-0.00017107,0.00052206,-0.00077250,-0.00007226,0.00097434,-0.005
 09357,0.00029265,-0.02807437,-0.00912521,0.00298445,0.11852003,0.11635
 747,0.02596878,0.01204797,-0.03865859,0.00162850,0.00121955,0.00231310
 ,0.00071003,-0.00022235,0.00554093,-0.00021169,-0.00004167,-0.00104289
 ,0.00055276,0.00011647,0.00745786,0.00064670,0.00007774,0.00350805,-0.
 02863766,-0.01321826,0.02770314,-0.00357627,-0.00375907,0.00095810,-0.
 01839983,0.01748005,0.00161640,-0.25350594,0.12853725,0.01804535,0.005
 53478,-0.00309745,-0.00011941,0.00163831,-0.00161613,0.00065258,0.0003
 4652,-0.00085943,-0.00013036,-0.00087126,0.00083059,0.00008836,0.26704
 104,-0.00316728,-0.00068773,0.00044216,-0.01327103,0.00920778,0.001142
 92,0.13099206,-0.14166459,-0.01033202,0.02627954,-0.01230798,-0.002137
 75,-0.00174579,-0.00476584,0.00053934,-0.00066866,-0.00059608,0.000039
 58,-0.00064267,0.00062083,0.00005282,-0.13816888,0.14904816,0.00095600
 ,0.00050413,0.00550120,0.00230365,-0.00178724,0.00231393,0.01797049,-0
 .01005930,-0.03742890,-0.00069570,0.00055253,0.00362637,0.00054590,0.0
 0034608,0.00744459,-0.00006692,0.00009914,-0.00105713,0.00012441,-0.00
 008848,0.00025296,-0.02019994,0.01058689,0.02639382,0.00018898,0.00095
 754,-0.00012345,0.00231329,0.00024428,0.00050122,0.00137102,0.00097605
 ,0.00005291,-0.27827019,-0.10475631,0.02716221,-0.01872172,-0.01561353
 ,0.00254246,-0.00262250,0.00413752,0.00067913,-0.00004787,-0.00007029,
 -0.00004966,0.00073629,-0.00025415,-0.00051998,0.29446923,0.00058146,-
 0.00094827,-0.00006575,0.00071412,-0.00386650,0.00018702,-0.02962930,-
 0.01037187,0.00322565,-0.10513221,-0.10852964,0.01205423,0.01562833,0.
 00966218,-0.00170099,0.00324076,-0.00140974,-0.00011477,-0.00007204,0.
 00004265,-0.00001106,0.00024346,0.00100740,-0.00016179,0.11426740,0.11
 340936,-0.00007467,-0.00013866,-0.00072989,0.00041681,0.00018009,0.006
 80818,0.00060386,0.00004053,0.00231170,0.02748832,0.01235957,-0.035476
 02,0.00165463,0.00157062,0.00390399,0.00069416,-0.00024627,0.00519058,
 -0.00005563,-0.00000637,-0.00062425,-0.00049687,-0.00008697,-0.0043133
 4,-0.03011336,-0.01325996,0.02579580,0.00467399,-0.00285236,-0.0001228
 2,0.00209727,-0.00095310,0.00040788,-0.00001755,-0.00108536,-0.0000338
 6,-0.00349095,-0.00383768,0.00090947,-0.01826309,0.01917915,0.00169004
 ,-0.25090948,0.12339736,0.01688711,0.00074578,0.00026130,-0.00045996,-
 0.00003056,0.00007649,-0.00006350,-0.00104615,0.00086592,0.00008132,0.
 26472451,0.02780146,-0.01378356,-0.00219488,-0.00141376,-0.00365537,0.
 00039481,-0.00070200,-0.00073614,0.00005060,-0.00293226,-0.00050829,0.
 00045720,-0.01211547,0.00921108,0.00096429,0.12371076,-0.13763321,-0.0
 0902754,-0.00024228,0.00100545,-0.00011966,0.00007739,0.00002367,-0.00
 002437,-0.00066705,0.00051768,0.00006470,-0.13406002,0.14503792,-0.000
 71101,0.00047047,0.00242169,0.00048695,0.00029069,0.00681151,-0.000087
 67,0.00005404,-0.00073521,0.00088667,0.00049765,0.00515855,0.00260717,
 -0.00176858,0.00389180,0.01661326,-0.00862897,-0.03372532,-0.00047775,
 -0.00013621,-0.00432044,-0.00005713,-0.00002024,-0.00062279,0.00009263
 ,-0.00008031,-0.00012920,-0.01869180,0.00959972,0.02390708,-0.00854639
 ,0.00636843,0.00203675,0.00725924,-0.00056169,-0.00081810,-0.00925533,
 -0.00489565,0.00048664,0.00472384,0.04350194,-0.00191233,-0.12101372,-
 0.01278770,0.00927044,-0.00149007,-0.04802029,0.00322555,-0.00005690,-
 0.00148129,0.00004040,0.00012557,0.00139643,-0.00000448,0.00175335,0.0
 0060884,0.00035992,0.00169506,-0.00056313,-0.00118765,0.78370027,0.001
 41396,0.00474029,-0.00062732,-0.00068164,-0.00319273,-0.00011758,0.000
 28965,0.00553119,-0.00041620,0.01063796,-0.04179988,0.00139330,-0.0086
 8519,-0.29377222,0.02419077,-0.01521614,-0.03432873,0.00353089,-0.0001
 3132,-0.00023717,0.00013413,0.00010778,-0.00043566,0.00011304,-0.00086
 064,0.00191020,0.00028418,0.00092384,0.00187290,0.00021578,0.00397878,
 0.63907940,-0.00005892,-0.00221501,0.00473465,-0.00073917,0.00116090,-
 0.00123121,0.00242803,-0.00130269,0.00465000,-0.00373321,-0.00125628,0
 .00763586,0.00649087,-0.01959591,-0.03869393,0.00508993,0.00683774,0.0
 0638104,0.00006920,-0.00006996,0.00013096,-0.00007521,-0.00033258,0.00
 014728,-0.00068530,0.00012425,-0.00285455,-0.00015499,0.00020102,-0.00
 276026,-0.05307010,0.14349511,0.12566535,-0.00041476,0.00066843,-0.000
 80618,0.00006330,-0.00039811,-0.00007532,0.00003362,0.00030059,0.00014
 173,0.00140733,-0.00169723,0.00062423,0.00452801,0.00178416,-0.0023365
 7,0.00132986,-0.00327214,-0.00052498,-0.00001406,-0.00004296,0.0000554
 4,0.00002965,-0.00002085,-0.00001604,0.00030832,-0.00016063,0.00002107
 ,-0.00049384,0.00034816,0.00070704,-0.29125780,0.13977050,0.11720242,0
 .30379378,0.00011796,-0.00062599,0.00070150,-0.00048975,0.00028131,-0.
 00009708,0.00187819,-0.00001424,0.00028642,-0.00335888,-0.00536441,-0.
 00017436,0.03140944,-0.01826624,-0.01476645,0.00190166,0.00254287,0.00
 051099,0.00001442,0.00006556,-0.00002871,-0.00009335,-0.00043654,0.000
 04561,0.00010121,0.00013163,-0.00013270,-0.00148772,-0.00010311,-0.000
 44070,0.13860758,-0.15532068,-0.08268502,-0.15539492,0.16689983,0.0002
 3420,-0.00029517,-0.00062734,-0.00074597,-0.00021066,0.00016088,0.0000
 0264,0.00136799,0.00158322,0.00129034,0.00005534,0.00176182,-0.0063215
 2,0.01160977,-0.00387272,-0.00088730,-0.00038282,-0.00003386,-0.000009
 93,-0.00000281,0.00001127,0.00000162,0.00010774,-0.00016035,-0.0000106
 1,-0.00001252,-0.00063221,-0.00031609,-0.00031040,0.00032987,0.1472936
 5,-0.10713779,-0.07285180,-0.13016701,0.08891384,0.07389722,-0.0001674
 8,-0.00001730,0.00022634,0.00032004,0.00034795,0.00003630,-0.00040798,
 -0.00073102,0.00083979,0.00172642,0.00325014,0.00029123,0.00132114,-0.
 00206594,-0.00056690,0.00158049,0.00079292,-0.00059819,0.00003590,-0.0
 0001918,-0.00001562,-0.00001768,0.00005164,-0.00005265,-0.00040894,-0.
 00036841,-0.00062222,0.00027534,0.00013459,-0.00020804,-0.36778051,-0.
 13136075,-0.07278194,-0.01929330,-0.01313179,-0.01035491,0.38283522,-0
 .00176543,0.00023722,0.00062626,0.00046567,0.00017257,-0.00019600,-0.0
 0001561,-0.00052908,0.00061048,-0.00166263,0.00235281,0.00079318,-0.03
 601488,-0.01373891,-0.00853163,0.00237550,-0.00588518,-0.00063862,0.00
 004034,-0.00044502,0.00003317,-0.00000897,0.00006108,-0.00001957,0.001
 42164,-0.00024237,-0.00063202,-0.00014421,0.00012850,-0.00009514,-0.12
 604358,-0.12101680,-0.04535957,0.01826799,0.01010895,0.00656934,0.1430
 0367,0.12872184,0.00048293,0.00137033,0.00153093,0.00068923,-0.0003738
 4,0.00001274,-0.00031240,-0.00012892,-0.00073012,0.00047874,-0.0010853
 9,-0.00024096,0.00634295,0.01119674,-0.00519742,-0.00121111,-0.0000199
 2,0.00210856,-0.00002445,0.00010955,-0.00015781,0.00001481,-0.00001306
 ,0.00001919,0.00043152,-0.00029146,0.00038294,-0.00016490,-0.00003036,
 -0.00059528,-0.10568609,-0.06521738,-0.03062965,0.01505875,0.00790325,
 0.00050161,0.08393395,0.04687600,0.03303775,0.00351836,0.01954109,-0.0
 0059965,-0.03020734,-0.00548053,0.00168480,0.00105956,-0.02376082,0.00
 056119,-0.00286660,0.00144181,0.00064015,0.00139991,0.00002734,-0.0002
 1665,-0.00256261,-0.00088844,0.00057870,0.00101042,0.00082897,-0.00031
 638,0.00094938,-0.00085688,-0.00028127,-0.00002311,-0.00078770,0.00004
 266,0.00003966,0.00062363,0.00002733,0.00014339,-0.00018677,0.00001838
 ,-0.00002012,-0.00007402,-0.00000911,-0.00001865,0.00008050,-0.0000339
 3,0.02757774,-0.00363398,-0.03351885,0.00113335,-0.00548720,-0.1207398
 2,0.00282105,-0.00058078,-0.03095772,0.00078711,-0.00342516,0.00172404
 ,0.00037817,-0.00000301,0.00193056,-0.00038111,0.00398251,0.00140066,-
 0.00031800,-0.00035551,0.00086169,-0.00004013,0.00032676,0.00092549,-0
 .00010668,0.00011633,-0.00131273,0.00000326,-0.00028360,-0.00137751,0.
 00004179,-0.00010866,-0.00303012,0.00099799,-0.00015299,0.00010106,-0.
 00027186,0.00011346,0.00007440,-0.00029555,0.00949182,0.18391887,-0.00
 010803,-0.00110450,0.00163208,0.00168800,0.00288240,-0.01403612,0.0000
 6765,0.00297889,0.00152797,0.00069274,-0.00010701,0.00364747,-0.000196
 09,-0.00005396,-0.00062554,0.00052259,0.00012133,0.00366677,-0.0002984
 0,-0.00014788,-0.00211430,-0.00029831,0.00001118,-0.00211682,0.0000403
 1,0.00010746,0.00036626,0.00003209,-0.00002513,0.00036801,-0.00003460,
 0.00015907,-0.00032372,0.00011542,-0.00003659,-0.00006760,-0.00012716,
 -0.00003587,-0.00004247,-0.00209621,-0.00474940,0.00811800\\-0.0000054
 9,-0.00002223,0.00001604,-0.00000243,0.00004260,-0.00000181,0.00000397
 ,-0.00001073,-0.00001779,0.00000131,-0.00000253,0.00001277,-0.00000449
 ,-0.00000572,0.00000549,0.00000751,-0.00000424,-0.00001025,-0.00000036
 ,-0.00000259,-0.00000596,-0.00000010,-0.00000350,0.00000578,0.00000268
 ,0.00000270,-0.00000377,-0.00000004,0.00000854,0.00000410,-0.00000274,
 0.00000669,-0.00002627,-0.00000300,0.00000433,0.00001016,0.00000323,-0
 .00000232,0.00001343,-0.00000004,-0.00001099,-0.00000193\\\@


 WHEN IT COMES TO CASH FLOW, IT SEEMS LIKE THE TIDE IS ALWAYS GOING OUT.
 Job cpu time:       0 days  0 hours 19 minutes 34.6 seconds.
 File lengths (MBytes):  RWF=    156 Int=      0 D2E=      0 Chk=      5 Scr=      1
 Normal termination of Gaussian 09 at Tue Jan 10 09:48:01 2023.
