 Entering Gaussian System, Link 0=g09
 Initial command:
 /cm/shared/apps/gaussian/g09revD.01/g09/l1.exe "//home/sweav003/CHB/validation/G09-Traceless1_SmithESP.com.o9823167.tmp/Gau-42934.inp" -scrdir="//home/sweav003/CHB/validation/G09-Traceless1_SmithESP.com.o9823167.tmp/"
 Entering Link 1 = /cm/shared/apps/gaussian/g09revD.01/g09/l1.exe PID=     42935.
  
 Copyright (c) 1988,1990,1992,1993,1995,1998,2003,2009,2013,
            Gaussian, Inc.  All Rights Reserved.
  
 This is part of the Gaussian(R) 09 program.  It is based on
 the Gaussian(R) 03 system (copyright 2003, Gaussian, Inc.),
 the Gaussian(R) 98 system (copyright 1998, Gaussian, Inc.),
 the Gaussian(R) 94 system (copyright 1995, Gaussian, Inc.),
 the Gaussian 92(TM) system (copyright 1992, Gaussian, Inc.),
 the Gaussian 90(TM) system (copyright 1990, Gaussian, Inc.),
 the Gaussian 88(TM) system (copyright 1988, Gaussian, Inc.),
 the Gaussian 86(TM) system (copyright 1986, Carnegie Mellon
 University), and the Gaussian 82(TM) system (copyright 1983,
 Carnegie Mellon University). Gaussian is a federally registered
 trademark of Gaussian, Inc.
  
 This software contains proprietary and confidential information,
 including trade secrets, belonging to Gaussian, Inc.
  
 This software is provided under written license and may be
 used, copied, transmitted, or stored only in accord with that
 written license.
  
 The following legend is applicable only to US Government
 contracts under FAR:
  
                    RESTRICTED RIGHTS LEGEND
  
 Use, reproduction and disclosure by the US Government is
 subject to restrictions as set forth in subparagraphs (a)
 and (c) of the Commercial Computer Software - Restricted
 Rights clause in FAR 52.227-19.
  
 Gaussian, Inc.
 340 Quinnipiac St., Bldg. 40, Wallingford CT 06492
  
  
 ---------------------------------------------------------------
 Warning -- This program may not be used in any manner that
 competes with the business of Gaussian, Inc. or will provide
 assistance to any competitor of Gaussian, Inc.  The licensee
 of this program is prohibited from giving any competitor of
 Gaussian, Inc. access to this program.  By using this program,
 the user acknowledges that Gaussian, Inc. is engaged in the
 business of creating and licensing software in the field of
 computational chemistry and represents and warrants to the
 licensee that it is not a competitor of Gaussian, Inc. and that
 it will not use this program in any manner prohibited above.
 ---------------------------------------------------------------
  

 Cite this work as:
 Gaussian 09, Revision D.01,
 M. J. Frisch, G. W. Trucks, H. B. Schlegel, G. E. Scuseria, 
 M. A. Robb, J. R. Cheeseman, G. Scalmani, V. Barone, B. Mennucci, 
 G. A. Petersson, H. Nakatsuji, M. Caricato, X. Li, H. P. Hratchian, 
 A. F. Izmaylov, J. Bloino, G. Zheng, J. L. Sonnenberg, M. Hada, 
 M. Ehara, K. Toyota, R. Fukuda, J. Hasegawa, M. Ishida, T. Nakajima, 
 Y. Honda, O. Kitao, H. Nakai, T. Vreven, J. A. Montgomery, Jr., 
 J. E. Peralta, F. Ogliaro, M. Bearpark, J. J. Heyd, E. Brothers, 
 K. N. Kudin, V. N. Staroverov, T. Keith, R. Kobayashi, J. Normand, 
 K. Raghavachari, A. Rendell, J. C. Burant, S. S. Iyengar, J. Tomasi, 
 M. Cossi, N. Rega, J. M. Millam, M. Klene, J. E. Knox, J. B. Cross, 
 V. Bakken, C. Adamo, J. Jaramillo, R. Gomperts, R. E. Stratmann, 
 O. Yazyev, A. J. Austin, R. Cammi, C. Pomelli, J. W. Ochterski, 
 R. L. Martin, K. Morokuma, V. G. Zakrzewski, G. A. Voth, 
 P. Salvador, J. J. Dannenberg, S. Dapprich, A. D. Daniels, 
 O. Farkas, J. B. Foresman, J. V. Ortiz, J. Cioslowski, 
 and D. J. Fox, Gaussian, Inc., Wallingford CT, 2013.
 
 ******************************************
 Gaussian 09:  ES64L-G09RevD.01 24-Apr-2013
                12-Jan-2023 
 ******************************************
 %nprocshared=20
 Will use up to   20 processors via shared memory.
 %mem=4GB
 %chk=Traceless1_Smith.chk
 ----------------------------------------------------------------------
 # b3lyp/6-311+g(d,p) pop=(chelpg, Dipole,ReadRadii,npa) Density=CHK SC
 F=Direct Geom=(checkpoint,NoDistance,NoAngle)
 ----------------------------------------------------------------------
 Warning!  Basis set taken from checkpoint file.
 1/29=2,38=1/1;
 2/9=11,12=2,40=1/2;
 3/5=7,6=2,7=111,11=2,14=-4,16=1,25=1,30=1,67=1,74=-5,89=1/1,2,3;
 4//1;
 6/7=2,8=2,9=2,10=2,11=2,15=24,20=103,22=10,28=1,40=-1/1,2,7;
 99/5=2/99;
 -------------------
 Title Card Required
 -------------------
 Structure from the checkpoint file:  "Traceless1_Smith.chk"
 Charge =  0 Multiplicity = 1
 Redundant internal coordinates found in file.
 C,0,-1.9285746369,-1.1960654829,0.1073083731
 C,0,-0.7710300251,-1.9617322659,0.0125610962
 C,0,0.4705507786,-1.3482047566,-0.1187093313
 C,0,0.552439063,0.0398741411,-0.1549421008
 C,0,-0.6005389496,0.8329951851,-0.0592581903
 C,0,-1.8412677085,0.1916805354,0.0704505776
 H,0,-2.8943341554,-1.6744708153,0.2096040309
 H,0,1.3708427917,-1.9449761608,-0.1919820621
 H,0,1.5232374798,0.5126144786,-0.2632937439
 H,0,-2.7482616344,0.7835656183,0.1391059486
 N,0,-0.5211121397,2.2230061818,-0.1521928172
 H,0,-1.2954370373,2.7369795621,0.2408480694
 H,0,0.3707870591,2.6312686862,0.0845773581
 Br,0,-0.8874703551,-3.8778169269,0.0661578816
 Recover connectivity data from disk.
                          Input orientation:                          
 ---------------------------------------------------------------------
 Center     Atomic      Atomic             Coordinates (Angstroms)
 Number     Number       Type             X           Y           Z
 ---------------------------------------------------------------------
      1          6           0       -1.928575   -1.196065    0.107308
      2          6           0       -0.771030   -1.961732    0.012561
      3          6           0        0.470551   -1.348205   -0.118709
      4          6           0        0.552439    0.039874   -0.154942
      5          6           0       -0.600539    0.832995   -0.059258
      6          6           0       -1.841268    0.191681    0.070451
      7          1           0       -2.894334   -1.674471    0.209604
      8          1           0        1.370843   -1.944976   -0.191982
      9          1           0        1.523237    0.512614   -0.263294
     10          1           0       -2.748262    0.783566    0.139106
     11          7           0       -0.521112    2.223006   -0.152193
     12          1           0       -1.295437    2.736980    0.240848
     13          1           0        0.370787    2.631269    0.084577
     14         35           0       -0.887470   -3.877817    0.066158
 ---------------------------------------------------------------------
 Stoichiometry    C6H6BrN
 Framework group  C1[X(C6H6BrN)]
 Deg. of freedom    36
 Full point group                 C1      NOp   1
 Largest Abelian subgroup         C1      NOp   1
 Largest concise Abelian subgroup C1      NOp   1
                         Standard orientation:                         
 ---------------------------------------------------------------------
 Center     Atomic      Atomic             Coordinates (Angstroms)
 Number     Number       Type             X           Y           Z
 ---------------------------------------------------------------------
      1          6           0        0.368808    1.207287   -0.003865
      2          6           0       -0.322305    0.000020   -0.002725
      3          6           0        0.368814   -1.207259   -0.003947
      4          6           0        1.759774   -1.204550   -0.006057
      5          6           0        2.478537   -0.000003   -0.005313
      6          6           0        1.759781    1.204533   -0.006089
      7          1           0       -0.169954    2.146309   -0.002750
      8          1           0       -0.169980   -2.146264   -0.002668
      9          1           0        2.293341   -2.149502   -0.012828
     10          1           0        2.293405    2.149457   -0.012691
     11          7           0        3.872677   -0.000032   -0.064056
     12          1           0        4.328625    0.838514    0.263329
     13          1           0        4.328564   -0.838357    0.263969
     14         35           0       -2.242663   -0.000003    0.003429
 ---------------------------------------------------------------------
 Rotational constants (GHZ):      5.6147283      0.6302866      0.5669185
 Basis read from chk: "Traceless1_Smith.chk" (5D, 7F)
 There are   248 symmetry adapted cartesian basis functions of A   symmetry.
 There are   238 symmetry adapted basis functions of A   symmetry.
   238 basis functions,   394 primitive gaussians,   248 cartesian basis functions
    42 alpha electrons       42 beta electrons
       nuclear repulsion energy       519.8445058314 Hartrees.
 NAtoms=   14 NActive=   14 NUniq=   14 SFac= 1.00D+00 NAtFMM=   60 NAOKFM=F Big=F
 Integral buffers will be    131072 words long.
 Raffenetti 2 integral format.
 Two-electron integral symmetry is turned on.
 One-electron integrals computed using PRISM.
 NBasis=   238 RedAO= T EigKep=  2.56D-06  NBF=   238
 NBsUse=   238 1.00D-06 EigRej= -1.00D+00 NBFU=   238
 ExpMin= 3.50D-02 ExpMax= 4.40D+05 ExpMxC= 1.51D+04 IAcc=3 IRadAn=         5 AccDes= 0.00D+00
 Harris functional with IExCor=  402 and IRadAn=       5 diagonalized for initial guess.
 HarFok:  IExCor=  402 AccDes= 0.00D+00 IRadAn=         5 IDoV= 1 UseB2=F ITyADJ=14
 ICtDFT=  3500011 ScaDFX=  1.000000  1.000000  1.000000  1.000000
 FoFCou: FMM=F IPFlag=           0 FMFlag=      100000 FMFlg1=           0
         NFxFlg=           0 DoJE=T BraDBF=F KetDBF=T FulRan=T
         wScrn=  0.000000 ICntrl=     500 IOpCl=  0 I1Cent=   200000004 NGrid=           0
         NMat0=    1 NMatS0=      1 NMatT0=    0 NMatD0=    1 NMtDS0=    0 NMtDT0=    0
 Petite list used in FoFCou.
 Using densities on the checkpoint file.

 **********************************************************************

            Population analysis using the SCF density.

 **********************************************************************

 Orbital symmetries:
       Occupied  (A) (A) (A) (A) (A) (A) (A) (A) (A) (A) (A) (A)
                 (A) (A) (A) (A) (A) (A) (A) (A) (A) (A) (A) (A)
                 (A) (A) (A) (A) (A) (A) (A) (A) (A) (A) (A) (A)
                 (A) (A) (A) (A) (A) (A)
       Virtual   (A) (A) (A) (A) (A) (A) (A) (A) (A) (A) (A) (A)
                 (A) (A) (A) (A) (A) (A) (A) (A) (A) (A) (A) (A)
                 (A) (A) (A) (A) (A) (A) (A) (A) (A) (A) (A) (A)
                 (A) (A) (A) (A) (A) (A) (A) (A) (A) (A) (A) (A)
                 (A) (A) (A) (A) (A) (A) (A) (A) (A) (A) (A) (A)
                 (A) (A) (A) (A) (A) (A) (A) (A) (A) (A) (A) (A)
                 (A) (A) (A) (A) (A) (A) (A) (A) (A) (A) (A) (A)
                 (A) (A) (A) (A) (A) (A) (A) (A) (A) (A) (A) (A)
                 (A) (A) (A) (A) (A) (A) (A) (A) (A) (A) (A) (A)
                 (A) (A) (A) (A) (A) (A) (A) (A) (A) (A) (A) (A)
                 (A) (A) (A) (A) (A) (A) (A) (A) (A) (A) (A) (A)
                 (A) (A) (A) (A) (A) (A) (A) (A) (A) (A) (A) (A)
                 (A) (A) (A) (A) (A) (A) (A) (A) (A) (A) (A) (A)
                 (A) (A) (A) (A) (A) (A) (A) (A) (A) (A) (A) (A)
                 (A) (A) (A) (A) (A) (A) (A) (A) (A) (A) (A) (A)
                 (A) (A) (A) (A) (A) (A) (A) (A) (A) (A) (A) (A)
                 (A) (A) (A) (A)
 The electronic state is 1-A.
 Alpha  occ. eigenvalues -- -482.82409 -62.47693 -56.29726 -56.29340 -56.29335
 Alpha  occ. eigenvalues --  -14.33396 -10.22927 -10.22466 -10.19054 -10.19053
 Alpha  occ. eigenvalues --  -10.18423 -10.18422  -8.68659  -6.51792  -6.50502
 Alpha  occ. eigenvalues --   -6.50498  -2.62886  -2.62512  -2.62512  -2.61486
 Alpha  occ. eigenvalues --   -2.61486  -0.93688  -0.86779  -0.79612  -0.76465
 Alpha  occ. eigenvalues --   -0.71828  -0.63426  -0.60578  -0.53983  -0.53013
 Alpha  occ. eigenvalues --   -0.47622  -0.45410  -0.44742  -0.43767  -0.40458
 Alpha  occ. eigenvalues --   -0.37010  -0.36490  -0.34873  -0.28901  -0.28836
 Alpha  occ. eigenvalues --   -0.27023  -0.21700
 Alpha virt. eigenvalues --   -0.02805  -0.01695  -0.01295  -0.00241   0.01009
 Alpha virt. eigenvalues --    0.01439   0.03849   0.04392   0.05307   0.05708
 Alpha virt. eigenvalues --    0.06894   0.06899   0.07452   0.08419   0.09492
 Alpha virt. eigenvalues --    0.10700   0.10917   0.11897   0.12995   0.13378
 Alpha virt. eigenvalues --    0.13778   0.14188   0.15532   0.15626   0.15802
 Alpha virt. eigenvalues --    0.16605   0.17080   0.18828   0.19115   0.19524
 Alpha virt. eigenvalues --    0.19778   0.20530   0.20890   0.21345   0.22423
 Alpha virt. eigenvalues --    0.22812   0.24276   0.24687   0.25076   0.25926
 Alpha virt. eigenvalues --    0.27213   0.27654   0.28645   0.29467   0.31990
 Alpha virt. eigenvalues --    0.33274   0.37028   0.41532   0.42145   0.42770
 Alpha virt. eigenvalues --    0.47415   0.49198   0.51586   0.52546   0.52900
 Alpha virt. eigenvalues --    0.54187   0.55161   0.55850   0.56483   0.58584
 Alpha virt. eigenvalues --    0.59450   0.59715   0.60113   0.60735   0.64103
 Alpha virt. eigenvalues --    0.64415   0.65849   0.67769   0.69009   0.69971
 Alpha virt. eigenvalues --    0.72382   0.72429   0.72801   0.74895   0.77139
 Alpha virt. eigenvalues --    0.80418   0.81024   0.81405   0.83182   0.84062
 Alpha virt. eigenvalues --    0.85120   0.85275   0.85997   0.87811   0.90677
 Alpha virt. eigenvalues --    0.91854   0.96765   0.99450   0.99843   1.00321
 Alpha virt. eigenvalues --    1.07045   1.07050   1.10185   1.12795   1.13331
 Alpha virt. eigenvalues --    1.25352   1.25983   1.31197   1.41731   1.43972
 Alpha virt. eigenvalues --    1.47085   1.50652   1.50690   1.52439   1.55270
 Alpha virt. eigenvalues --    1.57114   1.59393   1.60989   1.61977   1.66637
 Alpha virt. eigenvalues --    1.68623   1.68762   1.73328   1.76480   1.83568
 Alpha virt. eigenvalues --    1.86188   1.86867   1.88393   1.89720   1.91743
 Alpha virt. eigenvalues --    1.93505   1.95628   1.96979   2.00114   2.01328
 Alpha virt. eigenvalues --    2.05636   2.06331   2.07439   2.07712   2.13312
 Alpha virt. eigenvalues --    2.22593   2.25486   2.26416   2.33304   2.34317
 Alpha virt. eigenvalues --    2.38671   2.39530   2.54748   2.55187   2.57366
 Alpha virt. eigenvalues --    2.62074   2.63932   2.64297   2.66123   2.69971
 Alpha virt. eigenvalues --    2.70368   2.72808   2.73524   2.74800   2.78901
 Alpha virt. eigenvalues --    2.79974   2.83972   2.84327   2.88967   2.89348
 Alpha virt. eigenvalues --    2.93453   2.97785   3.07066   3.09987   3.12797
 Alpha virt. eigenvalues --    3.27617   3.31627   3.33957   3.44423   3.48401
 Alpha virt. eigenvalues --    3.59997   3.71209   3.85029   3.97115   3.99720
 Alpha virt. eigenvalues --    4.12070   4.12809   4.14780   4.19684   4.22453
 Alpha virt. eigenvalues --    4.38190   4.58124   4.75173   4.83848   4.98518
 Alpha virt. eigenvalues --    6.73713   7.56319   7.68333   7.74047  23.51804
 Alpha virt. eigenvalues --   23.89545  23.94505  24.03195  24.09353  24.17469
 Alpha virt. eigenvalues --   35.62539  47.99859 289.76082 289.88289 289.96341
 Alpha virt. eigenvalues -- 1020.80221
          Condensed to atoms (all electrons):
               1          2          3          4          5          6
     1  C    6.459762   0.240091  -0.132114  -0.395108   0.308614  -0.463649
     2  C    0.240091   5.630899   0.239993  -0.059949  -0.399748  -0.060384
     3  C   -0.132114   0.239993   6.460881  -0.465056   0.309022  -0.395009
     4  C   -0.395108  -0.059949  -0.465056   6.826833  -0.060191  -0.304923
     5  C    0.308614  -0.399748   0.309022  -0.060191   6.119763  -0.060071
     6  C   -0.463649  -0.060384  -0.395009  -0.304923  -0.060071   6.825237
     7  H    0.374515  -0.016718  -0.014237   0.008931   0.008322  -0.009328
     8  H   -0.014245  -0.016729   0.374528  -0.009325   0.008314   0.008938
     9  H    0.006191   0.009338   0.035403   0.394819  -0.036516  -0.049146
    10  H    0.035376   0.009347   0.006197  -0.049110  -0.036471   0.394758
    11  N   -0.012743   0.024957  -0.012846  -0.055856   0.097621  -0.055676
    12  H    0.013442  -0.001196  -0.007275   0.061302   0.001922  -0.079367
    13  H   -0.007258  -0.001206   0.013468  -0.079428   0.001945   0.061298
    14  Br   0.109046  -0.209887   0.109030   0.041181   0.036814   0.041182
               7          8          9         10         11         12
     1  C    0.374515  -0.014245   0.006191   0.035376  -0.012743   0.013442
     2  C   -0.016718  -0.016729   0.009338   0.009347   0.024957  -0.001196
     3  C   -0.014237   0.374528   0.035403   0.006197  -0.012846  -0.007275
     4  C    0.008931  -0.009325   0.394819  -0.049110  -0.055856   0.061302
     5  C    0.008322   0.008314  -0.036516  -0.036471   0.097621   0.001922
     6  C   -0.009328   0.008938  -0.049146   0.394758  -0.055676  -0.079367
     7  H    0.523009  -0.000193   0.000055  -0.008367  -0.001032  -0.000006
     8  H   -0.000193   0.523010  -0.008368   0.000055  -0.001031   0.000022
     9  H    0.000055  -0.008368   0.550443  -0.000206  -0.017029   0.000218
    10  H   -0.008367   0.000055  -0.000206   0.550473  -0.017047   0.005189
    11  N   -0.001032  -0.001031  -0.017029  -0.017047   6.671796   0.368859
    12  H   -0.000006   0.000022   0.000218   0.005189   0.368859   0.452438
    13  H    0.000022  -0.000006   0.005185   0.000218   0.368868  -0.041941
    14  Br  -0.007751  -0.007750  -0.000317  -0.000317  -0.000073   0.000037
              13         14
     1  C   -0.007258   0.109046
     2  C   -0.001206  -0.209887
     3  C    0.013468   0.109030
     4  C   -0.079428   0.041181
     5  C    0.001945   0.036814
     6  C    0.061298   0.041182
     7  H    0.000022  -0.007751
     8  H   -0.000006  -0.007750
     9  H    0.005185  -0.000317
    10  H    0.000218  -0.000317
    11  N    0.368868  -0.000073
    12  H   -0.041941   0.000037
    13  H    0.452440   0.000037
    14  Br   0.000037  35.048070
 Mulliken charges:
               1
     1  C   -0.521921
     2  C    0.611191
     3  C   -0.521984
     4  C    0.145881
     5  C   -0.299341
     6  C    0.146141
     7  H    0.142779
     8  H    0.142778
     9  H    0.109927
    10  H    0.109904
    11  N   -0.358769
    12  H    0.226357
    13  H    0.226359
    14  Br  -0.159303
 Sum of Mulliken charges =   0.00000
 Mulliken charges with hydrogens summed into heavy atoms:
               1
     1  C   -0.379142
     2  C    0.611191
     3  C   -0.379206
     4  C    0.255809
     5  C   -0.299341
     6  C    0.256045
    11  N    0.093947
    14  Br  -0.159303
 APT charges:
               1
     1  C   -0.021922
     2  C    0.226926
     3  C   -0.021911
     4  C   -0.153600
     5  C    0.566011
     6  C   -0.153616
     7  H    0.061356
     8  H    0.061346
     9  H    0.021540
    10  H    0.021550
    11  N   -0.728679
    12  H    0.190531
    13  H    0.190535
    14  Br  -0.260067
 Sum of APT charges =   0.00000
 APT charges with hydrogens summed into heavy atoms:
               1
     1  C    0.039434
     2  C    0.226926
     3  C    0.039435
     4  C   -0.132060
     5  C    0.566011
     6  C   -0.132066
    11  N   -0.347613
    14  Br  -0.260067
 Electronic spatial extent (au):  <R**2>=           1768.9933
 Charge=              0.0000 electrons
 Dipole moment (field-independent basis, Debye):
    X=              3.3633    Y=              0.0003    Z=              0.9373  Tot=              3.4915
 Quadrupole moment (field-independent basis, Debye-Ang):
   XX=            -50.2613   YY=            -53.4169   ZZ=            -64.8889
   XY=              0.0016   XZ=              4.5748   YZ=             -0.0011
 Traceless Quadrupole moment (field-independent basis, Debye-Ang):
   XX=              5.9277   YY=              2.7721   ZZ=             -8.6998
   XY=              0.0016   XZ=              4.5748   YZ=             -0.0011
 Octapole moment (field-independent basis, Debye-Ang**2):
  XXX=            -11.1217  YYY=              0.0002  ZZZ=              0.7426  XYY=             -8.1160
  XXY=              0.0077  XXZ=             21.1463  XZZ=            -28.2849  YZZ=             -0.0005
  YYZ=              0.5648  XYZ=             -0.0042
 Hexadecapole moment (field-independent basis, Debye-Ang**3):
 XXXX=          -1412.8503 YYYY=           -300.4995 ZZZZ=            -79.5933 XXXY=              0.0395
 XXXZ=             96.5695 YYYX=              0.0019 YYYZ=             -0.0010 ZZZX=              3.4212
 ZZZY=             -0.0012 XXYY=           -294.4851 XXZZ=           -327.1943 YYZZ=            -75.3613
 XXYZ=             -0.0203 YYXZ=              3.1091 ZZXY=             -0.0015
 N-N= 5.198445058314D+02 E-N=-7.859598081464D+03  KE= 2.856879664670D+03
 Breneman (CHELPG) radii used.
 Read replacement radii for each type of atom:
 Rad(35) =   1.850000000000D+00
 Atom Element Radius
    1     6    1.50
    2     6    1.50
    3     6    1.50
    4     6    1.50
    5     6    1.50
    6     6    1.50
    7     1    1.45
    8     1    1.45
    9     1    1.45
   10     1    1.45
   11     7    1.70
   12     1    1.45
   13     1    1.45
   14    35    1.85
 Generate Potential Derived Charges using the Breneman model, NDens= 1.
 Grid spacing= 0.300 Box extension= 2.800
 NStep X,Y,Z=   42     34     21   Total possible points=       29988
 Number of Points to Fit=   10396

 **********************************************************************

            Electrostatic Properties Using The SCF Density

 **********************************************************************

       Atomic Center    1 is at   0.368808  1.207287 -0.003865
       Atomic Center    2 is at  -0.322305  0.000020 -0.002725
       Atomic Center    3 is at   0.368814 -1.207259 -0.003947
       Atomic Center    4 is at   1.759774 -1.204550 -0.006057
       Atomic Center    5 is at   2.478537 -0.000003 -0.005313
       Atomic Center    6 is at   1.759781  1.204533 -0.006089
       Atomic Center    7 is at  -0.169954  2.146309 -0.002750
       Atomic Center    8 is at  -0.169980 -2.146264 -0.002668
       Atomic Center    9 is at   2.293341 -2.149502 -0.012828
       Atomic Center   10 is at   2.293405  2.149457 -0.012691
       Atomic Center   11 is at   3.872677 -0.000032 -0.064056
       Atomic Center   12 is at   4.328625  0.838514  0.263329
       Atomic Center   13 is at   4.328564 -0.838357  0.263969
       Atomic Center   14 is at  -2.242663 -0.000003  0.003429
   10396 points will be used for fitting atomic charges
 Fitting point charges to electrostatic potential
 The dipole moment will be constrained to the correct value
 Charges from ESP fit, RMS=   0.00595 RRMS=   0.38619:
 ESP charges:
               1
     1  C   -0.054051
     2  C    0.062293
     3  C   -0.053850
     4  C   -0.260794
     5  C    0.348246
     6  C   -0.260600
     7  H    0.081017
     8  H    0.080932
     9  H    0.151543
    10  H    0.151434
    11  N   -0.693557
    12  H    0.291942
    13  H    0.291878
    14  Br  -0.136434
 Sum of ESP charges =   0.00000
 ESP charges with hydrogens summed into heavy atoms:
               1
     1  C    0.026967
     2  C    0.062293
     3  C    0.027083
     4  C   -0.109251
     5  C    0.348246
     6  C   -0.109167
    11  N   -0.109737
    14  Br  -0.136434
 Charge=   0.00000 Dipole=     3.3633     0.0003     0.9373 Tot=     3.4915
 -----------------------------------------------------------------

              Electrostatic Properties (Atomic Units)

 -----------------------------------------------------------------
    Center     Electric         -------- Electric Field --------
               Potential          X             Y             Z
 -----------------------------------------------------------------
    1 Atom    -14.761031
    2 Atom    -14.725606
    3 Atom    -14.761033
    4 Atom    -14.766247
    5 Atom    -14.720253
    6 Atom    -14.766247
    7 Atom     -1.095956
    8 Atom     -1.095959
    9 Atom     -1.093919
   10 Atom     -1.093919
   11 Atom    -18.375443
   12 Atom     -1.022942
   13 Atom     -1.022942
   14 Atom   -175.824366
 -----------------------------------------------------------------
 ******************************Gaussian NBO Version 3.1******************************
             N A T U R A L   A T O M I C   O R B I T A L   A N D
          N A T U R A L   B O N D   O R B I T A L   A N A L Y S I S
 ******************************Gaussian NBO Version 3.1******************************
       /RESON  / : Allow strongly delocalized NBO set

 Analyzing the SCF density

 Job title: Title Card Required                                             

 Storage needed:    171208 in NPA ( 536869820 available)


 NATURAL POPULATIONS:  Natural atomic orbital occupancies 
                                                          
   NAO  Atom  No  lang   Type(AO)    Occupancy      Energy
 ----------------------------------------------------------
     1    C    1  S      Cor( 1S)     1.99897      -1.00000
     2    C    1  S      Val( 2S)     0.94319      -1.00000
     3    C    1  S      Ryd( 3S)     0.00186      -1.00000
     4    C    1  S      Ryd( 4S)     0.00025      -1.00000
     5    C    1  S      Ryd( 5S)     0.00001      -1.00000
     6    C    1  px     Val( 2p)     1.09514      -1.00000
     7    C    1  px     Ryd( 3p)     0.00623      -1.00000
     8    C    1  px     Ryd( 4p)     0.00029      -1.00000
     9    C    1  px     Ryd( 5p)     0.00014      -1.00000
    10    C    1  py     Val( 2p)     1.16528      -1.00000
    11    C    1  py     Ryd( 3p)     0.00586      -1.00000
    12    C    1  py     Ryd( 4p)     0.00024      -1.00000
    13    C    1  py     Ryd( 5p)     0.00007      -1.00000
    14    C    1  pz     Val( 2p)     0.98466      -1.00000
    15    C    1  pz     Ryd( 3p)     0.00108      -1.00000
    16    C    1  pz     Ryd( 4p)     0.00039      -1.00000
    17    C    1  pz     Ryd( 5p)     0.00001      -1.00000
    18    C    1  dxy    Ryd( 3d)     0.00079      -1.00000
    19    C    1  dxz    Ryd( 3d)     0.00063      -1.00000
    20    C    1  dyz    Ryd( 3d)     0.00046      -1.00000
    21    C    1  dx2y2  Ryd( 3d)     0.00071      -1.00000
    22    C    1  dz2    Ryd( 3d)     0.00042      -1.00000

    23    C    2  S      Cor( 1S)     1.99859      -1.00000
    24    C    2  S      Val( 2S)     0.94958      -1.00000
    25    C    2  S      Ryd( 3S)     0.00133      -1.00000
    26    C    2  S      Ryd( 4S)     0.00046      -1.00000
    27    C    2  S      Ryd( 5S)     0.00001      -1.00000
    28    C    2  px     Val( 2p)     0.96488      -1.00000
    29    C    2  px     Ryd( 3p)     0.00699      -1.00000
    30    C    2  px     Ryd( 4p)     0.00022      -1.00000
    31    C    2  px     Ryd( 5p)     0.00025      -1.00000
    32    C    2  py     Val( 2p)     1.08208      -1.00000
    33    C    2  py     Ryd( 3p)     0.00675      -1.00000
    34    C    2  py     Ryd( 4p)     0.00028      -1.00000
    35    C    2  py     Ryd( 5p)     0.00010      -1.00000
    36    C    2  pz     Val( 2p)     1.11899      -1.00000
    37    C    2  pz     Ryd( 3p)     0.00120      -1.00000
    38    C    2  pz     Ryd( 4p)     0.00036      -1.00000
    39    C    2  pz     Ryd( 5p)     0.00001      -1.00000
    40    C    2  dxy    Ryd( 3d)     0.00108      -1.00000
    41    C    2  dxz    Ryd( 3d)     0.00102      -1.00000
    42    C    2  dyz    Ryd( 3d)     0.00057      -1.00000
    43    C    2  dx2y2  Ryd( 3d)     0.00142      -1.00000
    44    C    2  dz2    Ryd( 3d)     0.00066      -1.00000

    45    C    3  S      Cor( 1S)     1.99897      -1.00000
    46    C    3  S      Val( 2S)     0.94319      -1.00000
    47    C    3  S      Ryd( 3S)     0.00186      -1.00000
    48    C    3  S      Ryd( 4S)     0.00025      -1.00000
    49    C    3  S      Ryd( 5S)     0.00001      -1.00000
    50    C    3  px     Val( 2p)     1.09515      -1.00000
    51    C    3  px     Ryd( 3p)     0.00623      -1.00000
    52    C    3  px     Ryd( 4p)     0.00029      -1.00000
    53    C    3  px     Ryd( 5p)     0.00014      -1.00000
    54    C    3  py     Val( 2p)     1.16527      -1.00000
    55    C    3  py     Ryd( 3p)     0.00586      -1.00000
    56    C    3  py     Ryd( 4p)     0.00024      -1.00000
    57    C    3  py     Ryd( 5p)     0.00007      -1.00000
    58    C    3  pz     Val( 2p)     0.98466      -1.00000
    59    C    3  pz     Ryd( 3p)     0.00108      -1.00000
    60    C    3  pz     Ryd( 4p)     0.00039      -1.00000
    61    C    3  pz     Ryd( 5p)     0.00001      -1.00000
    62    C    3  dxy    Ryd( 3d)     0.00079      -1.00000
    63    C    3  dxz    Ryd( 3d)     0.00063      -1.00000
    64    C    3  dyz    Ryd( 3d)     0.00046      -1.00000
    65    C    3  dx2y2  Ryd( 3d)     0.00071      -1.00000
    66    C    3  dz2    Ryd( 3d)     0.00042      -1.00000

    67    C    4  S      Cor( 1S)     1.99906      -1.00000
    68    C    4  S      Val( 2S)     0.93855      -1.00000
    69    C    4  S      Ryd( 3S)     0.00169      -1.00000
    70    C    4  S      Ryd( 4S)     0.00016      -1.00000
    71    C    4  S      Ryd( 5S)     0.00001      -1.00000
    72    C    4  px     Val( 2p)     1.08857      -1.00000
    73    C    4  px     Ryd( 3p)     0.00483      -1.00000
    74    C    4  px     Ryd( 4p)     0.00038      -1.00000
    75    C    4  px     Ryd( 5p)     0.00014      -1.00000
    76    C    4  py     Val( 2p)     1.13437      -1.00000
    77    C    4  py     Ryd( 3p)     0.00484      -1.00000
    78    C    4  py     Ryd( 4p)     0.00032      -1.00000
    79    C    4  py     Ryd( 5p)     0.00009      -1.00000
    80    C    4  pz     Val( 2p)     1.06189      -1.00000
    81    C    4  pz     Ryd( 3p)     0.00117      -1.00000
    82    C    4  pz     Ryd( 4p)     0.00038      -1.00000
    83    C    4  pz     Ryd( 5p)     0.00002      -1.00000
    84    C    4  dxy    Ryd( 3d)     0.00071      -1.00000
    85    C    4  dxz    Ryd( 3d)     0.00048      -1.00000
    86    C    4  dyz    Ryd( 3d)     0.00042      -1.00000
    87    C    4  dx2y2  Ryd( 3d)     0.00061      -1.00000
    88    C    4  dz2    Ryd( 3d)     0.00044      -1.00000

    89    C    5  S      Cor( 1S)     1.99900      -1.00000
    90    C    5  S      Val( 2S)     0.84257      -1.00000
    91    C    5  S      Ryd( 3S)     0.00121      -1.00000
    92    C    5  S      Ryd( 4S)     0.00027      -1.00000
    93    C    5  S      Ryd( 5S)     0.00001      -1.00000
    94    C    5  px     Val( 2p)     0.90666      -1.00000
    95    C    5  px     Ryd( 3p)     0.00639      -1.00000
    96    C    5  px     Ryd( 4p)     0.00032      -1.00000
    97    C    5  px     Ryd( 5p)     0.00019      -1.00000
    98    C    5  py     Val( 2p)     1.09922      -1.00000
    99    C    5  py     Ryd( 3p)     0.00400      -1.00000
   100    C    5  py     Ryd( 4p)     0.00059      -1.00000
   101    C    5  py     Ryd( 5p)     0.00009      -1.00000
   102    C    5  pz     Val( 2p)     0.96795      -1.00000
   103    C    5  pz     Ryd( 3p)     0.00095      -1.00000
   104    C    5  pz     Ryd( 4p)     0.00039      -1.00000
   105    C    5  pz     Ryd( 5p)     0.00003      -1.00000
   106    C    5  dxy    Ryd( 3d)     0.00082      -1.00000
   107    C    5  dxz    Ryd( 3d)     0.00169      -1.00000
   108    C    5  dyz    Ryd( 3d)     0.00057      -1.00000
   109    C    5  dx2y2  Ryd( 3d)     0.00109      -1.00000
   110    C    5  dz2    Ryd( 3d)     0.00048      -1.00000

   111    C    6  S      Cor( 1S)     1.99906      -1.00000
   112    C    6  S      Val( 2S)     0.93855      -1.00000
   113    C    6  S      Ryd( 3S)     0.00169       0.00000
   114    C    6  S      Ryd( 4S)     0.00016       0.00000
   115    C    6  S      Ryd( 5S)     0.00001       0.00000
   116    C    6  px     Val( 2p)     1.08857       0.00000
   117    C    6  px     Ryd( 3p)     0.00483       0.00000
   118    C    6  px     Ryd( 4p)     0.00038       0.00000
   119    C    6  px     Ryd( 5p)     0.00014       0.00000
   120    C    6  py     Val( 2p)     1.13436       0.00000
   121    C    6  py     Ryd( 3p)     0.00484       0.00000
   122    C    6  py     Ryd( 4p)     0.00032       0.00000
   123    C    6  py     Ryd( 5p)     0.00009       0.00000
   124    C    6  pz     Val( 2p)     1.06191       0.00000
   125    C    6  pz     Ryd( 3p)     0.00117       0.00000
   126    C    6  pz     Ryd( 4p)     0.00038       0.00000
   127    C    6  pz     Ryd( 5p)     0.00002       0.00000
   128    C    6  dxy    Ryd( 3d)     0.00071       0.00000
   129    C    6  dxz    Ryd( 3d)     0.00048       0.00000
   130    C    6  dyz    Ryd( 3d)     0.00042       0.00000
   131    C    6  dx2y2  Ryd( 3d)     0.00061       0.00000
   132    C    6  dz2    Ryd( 3d)     0.00044       0.00000

   133    H    7  S      Val( 1S)     0.77630       0.00000
   134    H    7  S      Ryd( 2S)     0.00072       0.00000
   135    H    7  S      Ryd( 3S)     0.00019       0.00000
   136    H    7  px     Ryd( 2p)     0.00023       0.00000
   137    H    7  py     Ryd( 2p)     0.00035       0.00000
   138    H    7  pz     Ryd( 2p)     0.00020       0.00000

   139    H    8  S      Val( 1S)     0.77630       0.00000
   140    H    8  S      Ryd( 2S)     0.00072       0.00000
   141    H    8  S      Ryd( 3S)     0.00019       0.00000
   142    H    8  px     Ryd( 2p)     0.00023       0.00000
   143    H    8  py     Ryd( 2p)     0.00035       0.00000
   144    H    8  pz     Ryd( 2p)     0.00020       0.00000

   145    H    9  S      Val( 1S)     0.79197       0.00000
   146    H    9  S      Ryd( 2S)     0.00097       0.00000
   147    H    9  S      Ryd( 3S)     0.00017       0.00000
   148    H    9  px     Ryd( 2p)     0.00017       0.00000
   149    H    9  py     Ryd( 2p)     0.00037       0.00000
   150    H    9  pz     Ryd( 2p)     0.00021       0.00000

   151    H   10  S      Val( 1S)     0.79198       0.00000
   152    H   10  S      Ryd( 2S)     0.00097       0.00000
   153    H   10  S      Ryd( 3S)     0.00017       0.00000
   154    H   10  px     Ryd( 2p)     0.00017       0.00000
   155    H   10  py     Ryd( 2p)     0.00037       0.00000
   156    H   10  pz     Ryd( 2p)     0.00021       0.00000

   157    N   11  S      Cor( 1S)     1.99943       0.00000
   158    N   11  S      Val( 2S)     1.33365       0.00000
   159    N   11  S      Ryd( 3S)     0.00037       0.00000
   160    N   11  S      Ryd( 4S)     0.00011       0.00000
   161    N   11  S      Ryd( 5S)     0.00000       0.00000
   162    N   11  px     Val( 2p)     1.30129       0.00000
   163    N   11  px     Ryd( 3p)     0.00264       0.00000
   164    N   11  px     Ryd( 4p)     0.00046       0.00000
   165    N   11  px     Ryd( 5p)     0.00002       0.00000
   166    N   11  py     Val( 2p)     1.36975       0.00000
   167    N   11  py     Ryd( 3p)     0.00329       0.00000
   168    N   11  py     Ryd( 4p)     0.00006       0.00000
   169    N   11  py     Ryd( 5p)     0.00001       0.00000
   170    N   11  pz     Val( 2p)     1.76941       0.00000
   171    N   11  pz     Ryd( 3p)     0.00712       0.00000
   172    N   11  pz     Ryd( 4p)     0.00005       0.00000
   173    N   11  pz     Ryd( 5p)     0.00001       0.00000
   174    N   11  dxy    Ryd( 3d)     0.00046       0.00000
   175    N   11  dxz    Ryd( 3d)     0.00077       0.00000
   176    N   11  dyz    Ryd( 3d)     0.00086       0.00000
   177    N   11  dx2y2  Ryd( 3d)     0.00070       0.00000
   178    N   11  dz2    Ryd( 3d)     0.00074       0.00000

   179    H   12  S      Val( 1S)     0.62301       0.00000
   180    H   12  S      Ryd( 2S)     0.00072       0.00000
   181    H   12  S      Ryd( 3S)     0.00026       0.00000
   182    H   12  px     Ryd( 2p)     0.00031       0.00000
   183    H   12  py     Ryd( 2p)     0.00032       0.00000
   184    H   12  pz     Ryd( 2p)     0.00078       0.00000

   185    H   13  S      Val( 1S)     0.62301       0.00000
   186    H   13  S      Ryd( 2S)     0.00072       0.00000
   187    H   13  S      Ryd( 3S)     0.00026       0.00000
   188    H   13  px     Ryd( 2p)     0.00031       0.00000
   189    H   13  py     Ryd( 2p)     0.00032       0.00000
   190    H   13  pz     Ryd( 2p)     0.00078       0.00000

   191   Br   14  S      Cor( 3S)     2.00000       0.00000
   192   Br   14  S      Cor( 4S)     2.00000       0.00000
   193   Br   14  S      Cor( 5S)     1.99978       0.00000
   194   Br   14  S      Val( 2S)     1.86534      -0.00012
   195   Br   14  S      Ryd( 7S)     0.00307       0.00002
   196   Br   14  S      Ryd( 6S)     0.00028       0.00001
   197   Br   14  S      Ryd( 1S)     0.00000      -0.00063
   198   Br   14  S      Ryd( 9S)     0.00000       0.94264
   199   Br   14  S      Ryd( 8S)     0.00000       0.33380
   200   Br   14  px     Cor( 6p)     2.00000       0.00041
   201   Br   14  px     Cor( 2p)     1.99986      -0.33380
   202   Br   14  px     Val( 8p)     1.14476       0.94264
   203   Br   14  px     Ryd( 9p)     0.00510       0.99604
   204   Br   14  px     Ryd( 3p)     0.00009      -0.03432
   205   Br   14  px     Ryd( 7p)     0.00002       0.00179
   206   Br   14  px     Ryd( 4p)     0.00000      -0.00091
   207   Br   14  px     Ryd( 5p)     0.00000      -0.00015
   208   Br   14  py     Cor( 5p)     2.00000       0.00006
   209   Br   14  py     Cor( 4p)     1.99999       0.00000
   210   Br   14  py     Val( 3p)     1.97603      -0.00318
   211   Br   14  py     Ryd( 8p)     0.00159       0.03424
   212   Br   14  py     Ryd( 9p)     0.00008       0.99799
   213   Br   14  py     Ryd( 2p)     0.00001      -0.04391
   214   Br   14  py     Ryd( 7p)     0.00000       0.02983
   215   Br   14  py     Ryd( 6p)     0.00000       0.00292
   216   Br   14  pz     Cor( 3p)     2.00000      -0.00186
   217   Br   14  pz     Cor( 5p)     1.99999      -0.00002
   218   Br   14  pz     Val( 6p)     1.94669       0.00002
   219   Br   14  pz     Ryd( 4p)     0.00167      -0.00030
   220   Br   14  pz     Ryd( 7p)     0.00005       0.03874
   221   Br   14  pz     Ryd( 9p)     0.00000       0.96676
   222   Br   14  pz     Ryd( 8p)     0.00000       0.14750
   223   Br   14  pz     Ryd( 2p)     0.00000      -0.20521
   224   Br   14  dxy    Cor( 5d)     1.99996       0.00379
   225   Br   14  dxy    Ryd( 4d)     0.00069       0.00094
   226   Br   14  dxy    Ryd( 3d)     0.00000      -0.00003
   227   Br   14  dxz    Cor( 5d)     1.99995      -0.00008
   228   Br   14  dxz    Ryd( 4d)     0.00247      -0.03072
   229   Br   14  dxz    Ryd( 3d)     0.00001      -0.05168
   230   Br   14  dyz    Cor( 5d)     2.00000       0.91184
   231   Br   14  dyz    Ryd( 4d)     0.00006       0.40613
   232   Br   14  dyz    Ryd( 3d)     0.00000      -0.00007
   233   Br   14  dx2y2  Cor( 4d)     1.99982       0.00000
   234   Br   14  dx2y2  Ryd( 3d)     0.00306       0.00000
   235   Br   14  dx2y2  Ryd( 5d)     0.00001       0.00002
   236   Br   14  dz2    Cor( 4d)     1.99994       0.01949
   237   Br   14  dz2    Ryd( 5d)     0.00105       0.24616
   238   Br   14  dz2    Ryd( 3d)     0.00000      -0.38099

 WARNING:  1 low occupancy (<1.9990e) core orbital  found on  C    1
           1 low occupancy (<1.9990e) core orbital  found on  C    2
           1 low occupancy (<1.9990e) core orbital  found on  C    3

 WARNING:  Population inversion found on atom  C    2
           Population inversion found on atom Br   14


 Summary of Natural Population Analysis:                  
                                                          
                                       Natural Population 
                Natural  -----------------------------------------------
    Atom  No    Charge         Core      Valence    Rydberg      Total
 -----------------------------------------------------------------------
      C    1   -0.20666      1.99897     4.18826    0.01943     6.20666
      C    2   -0.13684      1.99859     4.11553    0.02272     6.13684
      C    3   -0.20665      1.99897     4.18826    0.01943     6.20665
      C    4   -0.23910      1.99906     4.22338    0.01667     6.23910
      C    5    0.16551      1.99900     3.81641    0.01908     5.83449
      C    6   -0.23911      1.99906     4.22339    0.01666     6.23911
      H    7    0.22201      0.00000     0.77630    0.00169     0.77799
      H    8    0.22200      0.00000     0.77630    0.00169     0.77800
      H    9    0.20614      0.00000     0.79197    0.00189     0.79386
      H   10    0.20613      0.00000     0.79198    0.00189     0.79387
      N   11   -0.79120      1.99943     5.77410    0.01766     7.79120
      H   12    0.37460      0.00000     0.62301    0.00238     0.62540
      H   13    0.37461      0.00000     0.62301    0.00238     0.62539
     Br   14    0.04856     27.99928     6.93282    0.01934    34.95144
 =======================================================================
   * Total *    0.00000     41.99235    41.84472    0.16293    84.00000

                                 Natural Population      
 --------------------------------------------------------
   Core                      41.99235 ( 99.9818% of  42)
   Valence                   41.84472 ( 99.6303% of  42)
   Natural Minimal Basis     83.83707 ( 99.8060% of  84)
   Natural Rydberg Basis      0.16293 (  0.1940% of  84)
 --------------------------------------------------------

    Atom  No          Natural Electron Configuration
 ----------------------------------------------------------------------------
      C    1      [core]2S( 0.94)2p( 3.25)3p( 0.01)
      C    2      [core]2S( 0.95)2p( 3.17)3p( 0.01)
      C    3      [core]2S( 0.94)2p( 3.25)3p( 0.01)
      C    4      [core]2S( 0.94)2p( 3.28)3p( 0.01)
      C    5      [core]2S( 0.84)2p( 2.97)3p( 0.01)
      C    6      [core]2S( 0.94)2p( 3.28)3p( 0.01)
      H    7            1S( 0.78)
      H    8            1S( 0.78)
      H    9            1S( 0.79)
      H   10            1S( 0.79)
      N   11      [core]2S( 1.33)2p( 4.44)3p( 0.01)
      H   12            1S( 0.62)
      H   13            1S( 0.62)
     Br   14      [core]6p( 1.95)


 NBO analysis skipped by request.

 This type of calculation cannot be archived.


 WE LEARN WISDOM FROM FAILURE MUCH MORE THAN FROM SUCCESS.
 WE DISCOVER WHAT WILL DO BY FINDING OUT WHAT WILL NOT DO...
 AND HE WHO NEVER MADE A MISTAKE NEVER MADE A DISCOVERY
 Job cpu time:       0 days  0 hours  1 minutes  6.3 seconds.
 File lengths (MBytes):  RWF=     33 Int=      0 D2E=      0 Chk=      5 Scr=      1
 Normal termination of Gaussian 09 at Thu Jan 12 09:41:58 2023.
