 Entering Gaussian System, Link 0=g09
 Initial command:
 /cm/shared/apps/gaussian/g09revD.01/g09/l1.exe "//home/sweav003/CHB/CHActivation_Mkhalid/OtherCharges/G09-Chart8_2.com.o9461694.tmp/Gau-185002.inp" -scrdir="//home/sweav003/CHB/CHActivation_Mkhalid/OtherCharges/G09-Chart8_2.com.o9461694.tmp/"
 Entering Link 1 = /cm/shared/apps/gaussian/g09revD.01/g09/l1.exe PID=    185003.
  
 Copyright (c) 1988,1990,1992,1993,1995,1998,2003,2009,2013,
            Gaussian, Inc.  All Rights Reserved.
  
 This is part of the Gaussian(R) 09 program.  It is based on
 the Gaussian(R) 03 system (copyright 2003, Gaussian, Inc.),
 the Gaussian(R) 98 system (copyright 1998, Gaussian, Inc.),
 the Gaussian(R) 94 system (copyright 1995, Gaussian, Inc.),
 the Gaussian 92(TM) system (copyright 1992, Gaussian, Inc.),
 the Gaussian 90(TM) system (copyright 1990, Gaussian, Inc.),
 the Gaussian 88(TM) system (copyright 1988, Gaussian, Inc.),
 the Gaussian 86(TM) system (copyright 1986, Carnegie Mellon
 University), and the Gaussian 82(TM) system (copyright 1983,
 Carnegie Mellon University). Gaussian is a federally registered
 trademark of Gaussian, Inc.
  
 This software contains proprietary and confidential information,
 including trade secrets, belonging to Gaussian, Inc.
  
 This software is provided under written license and may be
 used, copied, transmitted, or stored only in accord with that
 written license.
  
 The following legend is applicable only to US Government
 contracts under FAR:
  
                    RESTRICTED RIGHTS LEGEND
  
 Use, reproduction and disclosure by the US Government is
 subject to restrictions as set forth in subparagraphs (a)
 and (c) of the Commercial Computer Software - Restricted
 Rights clause in FAR 52.227-19.
  
 Gaussian, Inc.
 340 Quinnipiac St., Bldg. 40, Wallingford CT 06492
  
  
 ---------------------------------------------------------------
 Warning -- This program may not be used in any manner that
 competes with the business of Gaussian, Inc. or will provide
 assistance to any competitor of Gaussian, Inc.  The licensee
 of this program is prohibited from giving any competitor of
 Gaussian, Inc. access to this program.  By using this program,
 the user acknowledges that Gaussian, Inc. is engaged in the
 business of creating and licensing software in the field of
 computational chemistry and represents and warrants to the
 licensee that it is not a competitor of Gaussian, Inc. and that
 it will not use this program in any manner prohibited above.
 ---------------------------------------------------------------
  

 Cite this work as:
 Gaussian 09, Revision D.01,
 M. J. Frisch, G. W. Trucks, H. B. Schlegel, G. E. Scuseria, 
 M. A. Robb, J. R. Cheeseman, G. Scalmani, V. Barone, B. Mennucci, 
 G. A. Petersson, H. Nakatsuji, M. Caricato, X. Li, H. P. Hratchian, 
 A. F. Izmaylov, J. Bloino, G. Zheng, J. L. Sonnenberg, M. Hada, 
 M. Ehara, K. Toyota, R. Fukuda, J. Hasegawa, M. Ishida, T. Nakajima, 
 Y. Honda, O. Kitao, H. Nakai, T. Vreven, J. A. Montgomery, Jr., 
 J. E. Peralta, F. Ogliaro, M. Bearpark, J. J. Heyd, E. Brothers, 
 K. N. Kudin, V. N. Staroverov, T. Keith, R. Kobayashi, J. Normand, 
 K. Raghavachari, A. Rendell, J. C. Burant, S. S. Iyengar, J. Tomasi, 
 M. Cossi, N. Rega, J. M. Millam, M. Klene, J. E. Knox, J. B. Cross, 
 V. Bakken, C. Adamo, J. Jaramillo, R. Gomperts, R. E. Stratmann, 
 O. Yazyev, A. J. Austin, R. Cammi, C. Pomelli, J. W. Ochterski, 
 R. L. Martin, K. Morokuma, V. G. Zakrzewski, G. A. Voth, 
 P. Salvador, J. J. Dannenberg, S. Dapprich, A. D. Daniels, 
 O. Farkas, J. B. Foresman, J. V. Ortiz, J. Cioslowski, 
 and D. J. Fox, Gaussian, Inc., Wallingford CT, 2013.
 
 ******************************************
 Gaussian 09:  ES64L-G09RevD.01 24-Apr-2013
                28-Jul-2021 
 ******************************************
 %mem=100MW
 %nprocshared=20
 Will use up to   20 processors via shared memory.
 ----------------------------------------------------------------------
 # opt freq b3lyp/6-311+g(d,p) pop=(npa,hirshfeld,chelpg,mbs) geom=conn
 ectivity
 ----------------------------------------------------------------------
 1/14=-1,18=20,19=15,26=3,38=1,57=2/1,3;
 2/9=110,12=2,17=6,18=5,40=1/2;
 3/5=4,6=6,7=111,11=2,16=1,25=1,30=1,71=1,74=-5/1,2,3;
 4//1;
 5/5=2,38=5/2;
 6/7=2,8=2,9=2,10=2,15=8,20=3,27=100,28=1,40=-1,79=1/1,2,7;
 7//1,2,3,16;
 1/14=-1,18=20,19=15,26=3/3(2);
 2/9=110/2;
 99//99;
 2/9=110/2;
 3/5=4,6=6,7=111,11=2,16=1,25=1,30=1,71=1,74=-5/1,2,3;
 4/5=5,16=3,69=1/1;
 5/5=2,38=5/2;
 7//1,2,3,16;
 1/14=-1,18=20,19=15,26=3/3(-5);
 2/9=110/2;
 6/7=2,8=2,9=2,10=2,15=8,19=2,20=3,27=100,28=1,40=-1,79=1/1,2,7;
 99/9=1/99;
 --------
 Chart8_2
 --------
 Symbolic Z-matrix:
 Charge =  0 Multiplicity = 1
 C                    -2.42803  -1.59979   0.34326 
 C                    -1.137    -1.2801    0.78482 
 C                    -0.61335  -0.00128   0.55174 
 C                    -2.67174   0.63816  -0.56445 
 C                    -3.1954   -0.64066  -0.33137 
 H                    -2.82785  -2.5762    0.52122 
 H                    -0.5511   -2.01242   1.29992 
 H                    -3.25765   1.37048  -1.07955 
 H                    -4.18113  -0.88475  -0.66851 
 Si                    2.08848  -0.07471  -0.35472 
 H                     1.77698   0.70333  -1.56242 
 C                     3.87568   0.36785   0.25654 
 H                     4.58338   0.13359  -0.51104 
 H                     3.92698   1.41252   0.48219 
 H                     4.10242  -0.19848   1.13561 
 C                     1.99548  -1.9688   -0.76385 
 H                     2.22221  -2.53512   0.11522 
 H                     1.00975  -2.21289  -1.10099 
 H                     2.70317  -2.20306  -1.53143 
 C                     0.80536   0.35003   1.03697 
 C                     0.87919   1.85358   1.36174 
 H                     1.0321   -0.2163    1.91604 
 H                     1.86491   2.09767   1.69888 
 H                     0.65245   2.41991   0.48267 
 H                     0.17149   2.08784   2.12933 
 C                    -1.38072   0.95785  -0.12289 
 H                    -0.9809    1.93426  -0.30085 
 

 GradGradGradGradGradGradGradGradGradGradGradGradGradGradGradGradGradGrad
 Berny optimization.
 Initialization pass.
                           ----------------------------
                           !    Initial Parameters    !
                           ! (Angstroms and Degrees)  !
 --------------------------                            --------------------------
 ! Name  Definition              Value          Derivative Info.                !
 --------------------------------------------------------------------------------
 ! R1    R(1,2)                  1.4014         estimate D2E/DX2                !
 ! R2    R(1,5)                  1.4014         estimate D2E/DX2                !
 ! R3    R(1,6)                  1.07           estimate D2E/DX2                !
 ! R4    R(2,3)                  1.4014         estimate D2E/DX2                !
 ! R5    R(2,7)                  1.07           estimate D2E/DX2                !
 ! R6    R(3,20)                 1.54           estimate D2E/DX2                !
 ! R7    R(3,26)                 1.4014         estimate D2E/DX2                !
 ! R8    R(4,5)                  1.4014         estimate D2E/DX2                !
 ! R9    R(4,8)                  1.07           estimate D2E/DX2                !
 ! R10   R(4,26)                 1.4014         estimate D2E/DX2                !
 ! R11   R(5,9)                  1.07           estimate D2E/DX2                !
 ! R12   R(10,11)                1.47           estimate D2E/DX2                !
 ! R13   R(10,12)                1.94           estimate D2E/DX2                !
 ! R14   R(10,16)                1.94           estimate D2E/DX2                !
 ! R15   R(10,20)                1.94           estimate D2E/DX2                !
 ! R16   R(12,13)                1.07           estimate D2E/DX2                !
 ! R17   R(12,14)                1.07           estimate D2E/DX2                !
 ! R18   R(12,15)                1.07           estimate D2E/DX2                !
 ! R19   R(16,17)                1.07           estimate D2E/DX2                !
 ! R20   R(16,18)                1.07           estimate D2E/DX2                !
 ! R21   R(16,19)                1.07           estimate D2E/DX2                !
 ! R22   R(20,21)                1.54           estimate D2E/DX2                !
 ! R23   R(20,22)                1.07           estimate D2E/DX2                !
 ! R24   R(21,23)                1.07           estimate D2E/DX2                !
 ! R25   R(21,24)                1.07           estimate D2E/DX2                !
 ! R26   R(21,25)                1.07           estimate D2E/DX2                !
 ! R27   R(26,27)                1.07           estimate D2E/DX2                !
 ! A1    A(2,1,5)              120.0            estimate D2E/DX2                !
 ! A2    A(2,1,6)              120.0            estimate D2E/DX2                !
 ! A3    A(5,1,6)              120.0            estimate D2E/DX2                !
 ! A4    A(1,2,3)              120.0            estimate D2E/DX2                !
 ! A5    A(1,2,7)              120.0            estimate D2E/DX2                !
 ! A6    A(3,2,7)              120.0            estimate D2E/DX2                !
 ! A7    A(2,3,20)             120.0            estimate D2E/DX2                !
 ! A8    A(2,3,26)             120.0            estimate D2E/DX2                !
 ! A9    A(20,3,26)            120.0            estimate D2E/DX2                !
 ! A10   A(5,4,8)              120.0            estimate D2E/DX2                !
 ! A11   A(5,4,26)             120.0            estimate D2E/DX2                !
 ! A12   A(8,4,26)             120.0            estimate D2E/DX2                !
 ! A13   A(1,5,4)              120.0            estimate D2E/DX2                !
 ! A14   A(1,5,9)              120.0            estimate D2E/DX2                !
 ! A15   A(4,5,9)              120.0            estimate D2E/DX2                !
 ! A16   A(11,10,12)           109.4712         estimate D2E/DX2                !
 ! A17   A(11,10,16)           109.4712         estimate D2E/DX2                !
 ! A18   A(11,10,20)           109.4712         estimate D2E/DX2                !
 ! A19   A(12,10,16)           109.4712         estimate D2E/DX2                !
 ! A20   A(12,10,20)           109.4712         estimate D2E/DX2                !
 ! A21   A(16,10,20)           109.4712         estimate D2E/DX2                !
 ! A22   A(10,12,13)           109.4712         estimate D2E/DX2                !
 ! A23   A(10,12,14)           109.4712         estimate D2E/DX2                !
 ! A24   A(10,12,15)           109.4712         estimate D2E/DX2                !
 ! A25   A(13,12,14)           109.4712         estimate D2E/DX2                !
 ! A26   A(13,12,15)           109.4712         estimate D2E/DX2                !
 ! A27   A(14,12,15)           109.4712         estimate D2E/DX2                !
 ! A28   A(10,16,17)           109.4712         estimate D2E/DX2                !
 ! A29   A(10,16,18)           109.4712         estimate D2E/DX2                !
 ! A30   A(10,16,19)           109.4712         estimate D2E/DX2                !
 ! A31   A(17,16,18)           109.4712         estimate D2E/DX2                !
 ! A32   A(17,16,19)           109.4712         estimate D2E/DX2                !
 ! A33   A(18,16,19)           109.4712         estimate D2E/DX2                !
 ! A34   A(3,20,10)            109.4712         estimate D2E/DX2                !
 ! A35   A(3,20,21)            109.4712         estimate D2E/DX2                !
 ! A36   A(3,20,22)            109.4712         estimate D2E/DX2                !
 ! A37   A(10,20,21)           109.4712         estimate D2E/DX2                !
 ! A38   A(10,20,22)           109.4712         estimate D2E/DX2                !
 ! A39   A(21,20,22)           109.4712         estimate D2E/DX2                !
 ! A40   A(20,21,23)           109.4712         estimate D2E/DX2                !
 ! A41   A(20,21,24)           109.4712         estimate D2E/DX2                !
 ! A42   A(20,21,25)           109.4712         estimate D2E/DX2                !
 ! A43   A(23,21,24)           109.4712         estimate D2E/DX2                !
 ! A44   A(23,21,25)           109.4712         estimate D2E/DX2                !
 ! A45   A(24,21,25)           109.4712         estimate D2E/DX2                !
 ! A46   A(3,26,4)             120.0            estimate D2E/DX2                !
 ! A47   A(3,26,27)            120.0            estimate D2E/DX2                !
 ! A48   A(4,26,27)            120.0            estimate D2E/DX2                !
 ! D1    D(5,1,2,3)              0.0001         estimate D2E/DX2                !
 ! D2    D(5,1,2,7)           -179.9999         estimate D2E/DX2                !
 ! D3    D(6,1,2,3)           -179.9999         estimate D2E/DX2                !
 ! D4    D(6,1,2,7)              0.0001         estimate D2E/DX2                !
 ! D5    D(2,1,5,4)              0.0            estimate D2E/DX2                !
 ! D6    D(2,1,5,9)            180.0            estimate D2E/DX2                !
 ! D7    D(6,1,5,4)            180.0            estimate D2E/DX2                !
 ! D8    D(6,1,5,9)             -0.0001         estimate D2E/DX2                !
 ! D9    D(1,2,3,20)           180.0            estimate D2E/DX2                !
 ! D10   D(1,2,3,26)             0.0            estimate D2E/DX2                !
 ! D11   D(7,2,3,20)            -0.0001         estimate D2E/DX2                !
 ! D12   D(7,2,3,26)           179.9999         estimate D2E/DX2                !
 ! D13   D(2,3,20,10)           90.0            estimate D2E/DX2                !
 ! D14   D(2,3,20,21)         -150.0            estimate D2E/DX2                !
 ! D15   D(2,3,20,22)          -30.0            estimate D2E/DX2                !
 ! D16   D(26,3,20,10)         -90.0            estimate D2E/DX2                !
 ! D17   D(26,3,20,21)          30.0            estimate D2E/DX2                !
 ! D18   D(26,3,20,22)         150.0            estimate D2E/DX2                !
 ! D19   D(2,3,26,4)             0.0            estimate D2E/DX2                !
 ! D20   D(2,3,26,27)         -179.9999         estimate D2E/DX2                !
 ! D21   D(20,3,26,4)          180.0            estimate D2E/DX2                !
 ! D22   D(20,3,26,27)           0.0001         estimate D2E/DX2                !
 ! D23   D(8,4,5,1)            179.9999         estimate D2E/DX2                !
 ! D24   D(8,4,5,9)              0.0            estimate D2E/DX2                !
 ! D25   D(26,4,5,1)            -0.0001         estimate D2E/DX2                !
 ! D26   D(26,4,5,9)           179.9999         estimate D2E/DX2                !
 ! D27   D(5,4,26,3)             0.0001         estimate D2E/DX2                !
 ! D28   D(5,4,26,27)          180.0            estimate D2E/DX2                !
 ! D29   D(8,4,26,3)          -179.9999         estimate D2E/DX2                !
 ! D30   D(8,4,26,27)            0.0            estimate D2E/DX2                !
 ! D31   D(11,10,12,13)        -60.0            estimate D2E/DX2                !
 ! D32   D(11,10,12,14)         60.0            estimate D2E/DX2                !
 ! D33   D(11,10,12,15)        180.0            estimate D2E/DX2                !
 ! D34   D(16,10,12,13)         60.0            estimate D2E/DX2                !
 ! D35   D(16,10,12,14)        180.0            estimate D2E/DX2                !
 ! D36   D(16,10,12,15)        -60.0            estimate D2E/DX2                !
 ! D37   D(20,10,12,13)        180.0            estimate D2E/DX2                !
 ! D38   D(20,10,12,14)        -60.0            estimate D2E/DX2                !
 ! D39   D(20,10,12,15)         60.0            estimate D2E/DX2                !
 ! D40   D(11,10,16,17)        180.0            estimate D2E/DX2                !
 ! D41   D(11,10,16,18)        -60.0            estimate D2E/DX2                !
 ! D42   D(11,10,16,19)         60.0            estimate D2E/DX2                !
 ! D43   D(12,10,16,17)         60.0            estimate D2E/DX2                !
 ! D44   D(12,10,16,18)       -180.0            estimate D2E/DX2                !
 ! D45   D(12,10,16,19)        -60.0            estimate D2E/DX2                !
 ! D46   D(20,10,16,17)        -60.0            estimate D2E/DX2                !
 ! D47   D(20,10,16,18)         60.0            estimate D2E/DX2                !
 ! D48   D(20,10,16,19)        180.0            estimate D2E/DX2                !
 ! D49   D(11,10,20,3)          60.0            estimate D2E/DX2                !
 ! D50   D(11,10,20,21)        -60.0            estimate D2E/DX2                !
 ! D51   D(11,10,20,22)        180.0            estimate D2E/DX2                !
 ! D52   D(12,10,20,3)         180.0            estimate D2E/DX2                !
 ! D53   D(12,10,20,21)         60.0            estimate D2E/DX2                !
 ! D54   D(12,10,20,22)        -60.0            estimate D2E/DX2                !
 ! D55   D(16,10,20,3)         -60.0            estimate D2E/DX2                !
 ! D56   D(16,10,20,21)       -180.0            estimate D2E/DX2                !
 ! D57   D(16,10,20,22)         60.0            estimate D2E/DX2                !
 ! D58   D(3,20,21,23)         180.0            estimate D2E/DX2                !
 ! D59   D(3,20,21,24)         -60.0            estimate D2E/DX2                !
 ! D60   D(3,20,21,25)          60.0            estimate D2E/DX2                !
 ! D61   D(10,20,21,23)        -60.0            estimate D2E/DX2                !
 ! D62   D(10,20,21,24)         60.0            estimate D2E/DX2                !
 ! D63   D(10,20,21,25)        180.0            estimate D2E/DX2                !
 ! D64   D(22,20,21,23)         60.0            estimate D2E/DX2                !
 ! D65   D(22,20,21,24)       -180.0            estimate D2E/DX2                !
 ! D66   D(22,20,21,25)        -60.0            estimate D2E/DX2                !
 --------------------------------------------------------------------------------
 Trust Radius=3.00D-01 FncErr=1.00D-07 GrdErr=1.00D-06
 Number of steps in this run=    151 maximum allowed number of steps=    162.
 GradGradGradGradGradGradGradGradGradGradGradGradGradGradGradGradGradGrad

                          Input orientation:                          
 ---------------------------------------------------------------------
 Center     Atomic      Atomic             Coordinates (Angstroms)
 Number     Number       Type             X           Y           Z
 ---------------------------------------------------------------------
      1          6           0       -2.428029   -1.599791    0.343263
      2          6           0       -1.137003   -1.280101    0.784820
      3          6           0       -0.613348   -0.001280    0.551744
      4          6           0       -2.671744    0.638162   -0.564448
      5          6           0       -3.195399   -0.640659   -0.331371
      6          1           0       -2.827851   -2.576198    0.521222
      7          1           0       -0.551097   -2.012420    1.299916
      8          1           0       -3.257648    1.370480   -1.079546
      9          1           0       -4.181126   -0.884749   -0.668510
     10         14           0        2.088478   -0.074708   -0.354722
     11          1           0        1.776982    0.703329   -1.562418
     12          6           0        3.875683    0.367848    0.256540
     13          1           0        4.583381    0.133587   -0.511044
     14          1           0        3.926977    1.412525    0.482192
     15          1           0        4.102418   -0.198478    1.135611
     16          6           0        1.995477   -1.968795   -0.763848
     17          1           0        2.222212   -2.535121    0.115223
     18          1           0        1.009750   -2.212885   -1.100987
     19          1           0        2.703175   -2.203056   -1.531432
     20          6           0        0.805362    0.350027    1.036973
     21          6           0        0.879187    1.853581    1.361743
     22          1           0        1.032096   -0.216299    1.916044
     23          1           0        1.864914    2.097671    1.698882
     24          1           0        0.652452    2.419907    0.482672
     25          1           0        0.171489    2.087842    2.129327
     26          6           0       -1.380719    0.957852   -0.122889
     27          1           0       -0.980897    1.934260   -0.300848
 ---------------------------------------------------------------------
                    Distance matrix (angstroms):
                    1          2          3          4          5
     1  C    0.000000
     2  C    1.401400   0.000000
     3  C    2.427296   1.401400   0.000000
     4  C    2.427296   2.802800   2.427296   0.000000
     5  C    1.401400   2.427296   2.802800   1.401400   0.000000
     6  H    1.070000   2.146700   3.396345   3.396345   2.146700
     7  H    2.146700   1.070000   2.146700   3.872800   3.396345
     8  H    3.396345   3.872800   3.396345   1.070000   2.146700
     9  H    2.146700   3.396345   3.872800   2.146700   1.070000
    10  Si   4.817872   3.627017   2.850778   4.817871   5.314151
    11  H    5.159272   4.234953   3.268001   4.559754   5.295881
    12  C    6.604234   5.303002   4.513845   6.604233   7.166794
    13  H    7.272847   6.033288   5.306006   7.272846   7.819281
    14  H    7.034162   5.743319   4.755863   6.725936   7.456923
    15  H    6.725936   5.361389   4.755863   7.034162   7.456923
    16  C    4.574851   3.561615   3.522480   5.349667   5.375517
    17  H    4.748850   3.647980   3.827702   5.872179   5.756643
    18  H    3.778898   3.005811   3.202681   4.687190   4.554941
    19  H    5.496150   4.578628   4.492969   6.156081   6.218875
    20  C    3.838989   2.548270   1.540000   3.838989   4.342800
    21  C    4.888839   3.770653   2.514809   4.218597   5.068542
    22  H    4.044769   2.667646   2.148263   4.538874   4.806524
    23  H    5.825657   4.610461   3.444314   5.275802   6.101405
    24  H    5.066237   4.121104   2.732978   3.914250   4.983542
    25  H    4.852437   3.855242   2.732978   4.176358   4.983542
    26  C    2.802800   2.427296   1.401400   1.401400   2.427296
    27  H    3.872800   3.396345   2.146700   2.146700   3.396345
                    6          7          8          9         10
     6  H    0.000000
     7  H    2.471400   0.000000
     8  H    4.280590   4.942800   0.000000
     9  H    2.471400   4.280590   2.471400   0.000000
    10  Si   5.585250   3.668775   5.585249   6.329499   0.000000
    11  H    6.025060   4.581288   5.101545   6.230579   1.470000
    12  C    7.326311   5.133293   7.326310   8.205906   1.940000
    13  H    7.958321   5.852161   7.958319   8.824873   2.508459
    14  H    7.844689   5.696672   7.352526   8.505464   2.508459
    15  H    7.352527   4.997258   7.844688   8.505464   2.508459
    16  C    5.028403   3.278119   6.232636   6.271736   1.940000
    17  H    5.066523   3.060712   6.834476   6.658881   2.508459
    18  H    4.182194   2.870674   5.572401   5.375517   2.508459
    19  H    5.911419   4.317773   6.964609   7.062306   2.508459
    20  C    4.693509   2.736837   4.693509   5.412800   1.940000
    21  C    5.837084   4.122560   4.827700   6.101405   2.850778
    22  H    4.734326   2.472280   5.467480   5.856999   2.508459
    23  H    6.727108   4.784258   5.872743   7.145206   2.997749
    24  H    6.088930   4.664970   4.339436   5.967365   2.997749
    25  H    5.773674   4.245256   4.750838   5.967365   3.810770
    26  C    3.872800   3.396345   2.146700   3.396345   3.627017
    27  H    4.942800   4.280590   2.471400   4.280590   3.668775
                   11         12         13         14         15
    11  H    0.000000
    12  C    2.797445   0.000000
    13  H    3.050552   1.070000   0.000000
    14  H    3.050552   1.070000   1.747303   0.000000
    15  H    3.674271   1.070000   1.747303   1.747303   0.000000
    16  C    2.797445   3.168007   3.343825   4.088598   3.343825
    17  H    3.674271   3.343825   3.617918   4.315646   3.168007
    18  H    3.050552   4.088598   4.315646   4.915309   4.315646
    19  H    3.050552   3.343825   3.168007   4.315646   3.617918
    20  C    2.797445   3.168007   4.088598   3.343825   3.343825
    21  C    3.268001   3.522480   4.492969   3.202681   3.827702
    22  H    3.674271   3.343825   4.315646   3.617918   3.168007
    23  H    3.547957   3.019244   4.016400   2.490355   3.255150
    24  H    2.897171   3.827702   4.654775   3.425979   4.380015
    25  H    4.257167   4.492969   5.500497   4.156056   4.654775
    26  C    3.479670   5.303002   6.033288   5.361389   5.743319
    27  H    3.273018   5.133293   5.852161   4.997258   5.696672
                   16         17         18         19         20
    16  C    0.000000
    17  H    1.070000   0.000000
    18  H    1.070000   1.747303   0.000000
    19  H    1.070000   1.747303   1.747303   0.000000
    20  C    3.168007   3.343825   3.343825   4.088598   0.000000
    21  C    4.513845   4.755863   4.755863   5.306006   1.540000
    22  H    3.343825   3.168007   3.617918   4.315646   1.070000
    23  H    4.755863   4.909012   5.210707   5.443700   2.148263
    24  H    4.755863   5.210707   4.909012   5.443700   2.148263
    25  H    5.306006   5.443700   5.443700   6.182427   2.148263
    26  C    4.513844   5.023810   4.089571   5.352898   2.548270
    27  H    4.930214   5.514380   4.669230   5.674866   2.736837
                   21         22         23         24         25
    21  C    0.000000
    22  H    2.148263   0.000000
    23  H    1.070000   2.468846   0.000000
    24  H    1.070000   3.024610   1.747303   0.000000
    25  H    1.070000   2.468846   1.747303   1.747303   0.000000
    26  C    2.848445   3.370097   3.892579   2.576450   2.959511
    27  H    2.496123   3.686686   3.481991   1.875522   2.693943
                   26         27
    26  C    0.000000
    27  H    1.070000   0.000000
 Stoichiometry    C10H16Si
 Framework group  C1[X(C10H16Si)]
 Deg. of freedom    75
 Full point group                 C1      NOp   1
 Largest Abelian subgroup         C1      NOp   1
 Largest concise Abelian subgroup C1      NOp   1
                         Standard orientation:                         
 ---------------------------------------------------------------------
 Center     Atomic      Atomic             Coordinates (Angstroms)
 Number     Number       Type             X           Y           Z
 ---------------------------------------------------------------------
      1          6           0        2.741011    1.139834    0.612121
      2          6           0        1.418558    0.817741    0.945732
      3          6           0        0.795636   -0.288317    0.351994
      4          6           0        2.817619   -0.750189   -0.908968
      5          6           0        3.440541    0.355869   -0.315229
      6          1           0        3.216626    1.984333    1.065454
      7          1           0        0.884450    1.416317    1.653782
      8          1           0        3.351726   -1.348763   -1.617021
      9          1           0        4.450264    0.601794   -0.569949
     10         14           0       -1.870321    0.276984   -0.484691
     11          1           0       -1.598300   -0.140392   -1.867696
     12          6           0       -3.701032   -0.168899   -0.022863
     13          1           0       -4.369899    0.338110   -0.686534
     14          1           0       -3.843886   -1.225638   -0.111150
     15          1           0       -3.899033    0.134906    0.983814
     16          6           0       -1.611315    2.192942   -0.324620
     17          1           0       -1.809316    2.496747    0.682056
     18          1           0       -0.601593    2.438867   -0.579340
     19          1           0       -2.280182    2.699951   -0.988291
     20          6           0       -0.657609   -0.642266    0.718599
     21          6           0       -0.863212   -2.163181    0.591533
     22          1           0       -0.855610   -0.338461    1.725276
     23          1           0       -1.872934   -2.409106    0.846252
     24          1           0       -0.665210   -2.466986   -0.415144
     25          1           0       -0.194345   -2.670190    1.255203
     26          6           0        1.495167   -1.072283   -0.575356
     27          1           0        1.019552   -1.916782   -1.028689
 ---------------------------------------------------------------------
 Rotational constants (GHZ):      1.7388131      0.5792174      0.4941225
 Standard basis: 6-311+G(d,p) (5D, 7F)
 There are   357 symmetry adapted cartesian basis functions of A   symmetry.
 There are   346 symmetry adapted basis functions of A   symmetry.
   346 basis functions,   538 primitive gaussians,   357 cartesian basis functions
    45 alpha electrons       45 beta electrons
       nuclear repulsion energy       681.6164757119 Hartrees.
 NAtoms=   27 NActive=   27 NUniq=   27 SFac= 1.00D+00 NAtFMM=   60 NAOKFM=F Big=F
 Integral buffers will be    131072 words long.
 Raffenetti 2 integral format.
 Two-electron integral symmetry is turned on.
 One-electron integrals computed using PRISM.
 NBasis=   346 RedAO= T EigKep=  2.35D-06  NBF=   346
 NBsUse=   346 1.00D-06 EigRej= -1.00D+00 NBFU=   346
 ExpMin= 3.31D-02 ExpMax= 6.94D+04 ExpMxC= 2.33D+03 IAcc=3 IRadAn=         5 AccDes= 0.00D+00
 Harris functional with IExCor=  402 and IRadAn=       5 diagonalized for initial guess.
 HarFok:  IExCor=  402 AccDes= 0.00D+00 IRadAn=         5 IDoV= 1 UseB2=F ITyADJ=14
 ICtDFT=  3500011 ScaDFX=  1.000000  1.000000  1.000000  1.000000
 FoFCou: FMM=F IPFlag=           0 FMFlag=      100000 FMFlg1=           0
         NFxFlg=           0 DoJE=T BraDBF=F KetDBF=T FulRan=T
         wScrn=  0.000000 ICntrl=     500 IOpCl=  0 I1Cent=   200000004 NGrid=           0
         NMat0=    1 NMatS0=      1 NMatT0=    0 NMatD0=    1 NMtDS0=    0 NMtDT0=    0
 Petite list used in FoFCou.
 Requested convergence on RMS density matrix=1.00D-08 within 128 cycles.
 Requested convergence on MAX density matrix=1.00D-06.
 Requested convergence on             energy=1.00D-06.
 No special actions if energy rises.
 SCF Done:  E(RB3LYP) =  -680.345842262     A.U. after   13 cycles
            NFock= 13  Conv=0.95D-08     -V/T= 2.0033

 **********************************************************************

            Population analysis using the SCF density.

 **********************************************************************

 Orbital symmetries:
       Occupied  (A) (A) (A) (A) (A) (A) (A) (A) (A) (A) (A) (A)
                 (A) (A) (A) (A) (A) (A) (A) (A) (A) (A) (A) (A)
                 (A) (A) (A) (A) (A) (A) (A) (A) (A) (A) (A) (A)
                 (A) (A) (A) (A) (A) (A) (A) (A) (A)
       Virtual   (A) (A) (A) (A) (A) (A) (A) (A) (A) (A) (A) (A)
                 (A) (A) (A) (A) (A) (A) (A) (A) (A) (A) (A) (A)
                 (A) (A) (A) (A) (A) (A) (A) (A) (A) (A) (A) (A)
                 (A) (A) (A) (A) (A) (A) (A) (A) (A) (A) (A) (A)
                 (A) (A) (A) (A) (A) (A) (A) (A) (A) (A) (A) (A)
                 (A) (A) (A) (A) (A) (A) (A) (A) (A) (A) (A) (A)
                 (A) (A) (A) (A) (A) (A) (A) (A) (A) (A) (A) (A)
                 (A) (A) (A) (A) (A) (A) (A) (A) (A) (A) (A) (A)
                 (A) (A) (A) (A) (A) (A) (A) (A) (A) (A) (A) (A)
                 (A) (A) (A) (A) (A) (A) (A) (A) (A) (A) (A) (A)
                 (A) (A) (A) (A) (A) (A) (A) (A) (A) (A) (A) (A)
                 (A) (A) (A) (A) (A) (A) (A) (A) (A) (A) (A) (A)
                 (A) (A) (A) (A) (A) (A) (A) (A) (A) (A) (A) (A)
                 (A) (A) (A) (A) (A) (A) (A) (A) (A) (A) (A) (A)
                 (A) (A) (A) (A) (A) (A) (A) (A) (A) (A) (A) (A)
                 (A) (A) (A) (A) (A) (A) (A) (A) (A) (A) (A) (A)
                 (A) (A) (A) (A) (A) (A) (A) (A) (A) (A) (A) (A)
                 (A) (A) (A) (A) (A) (A) (A) (A) (A) (A) (A) (A)
                 (A) (A) (A) (A) (A) (A) (A) (A) (A) (A) (A) (A)
                 (A) (A) (A) (A) (A) (A) (A) (A) (A) (A) (A) (A)
                 (A) (A) (A) (A) (A) (A) (A) (A) (A) (A) (A) (A)
                 (A) (A) (A) (A) (A) (A) (A) (A) (A) (A) (A) (A)
                 (A) (A) (A) (A) (A) (A) (A) (A) (A) (A) (A) (A)
                 (A) (A) (A) (A) (A) (A) (A) (A) (A) (A) (A) (A)
                 (A) (A) (A) (A) (A) (A) (A) (A) (A) (A) (A) (A)
                 (A)
 The electronic state is 1-A.
 Alpha  occ. eigenvalues --  -66.08752 -10.18504 -10.17488 -10.17473 -10.17152
 Alpha  occ. eigenvalues --  -10.17129 -10.17051 -10.16794 -10.15806 -10.14560
 Alpha  occ. eigenvalues --  -10.14191  -5.25971  -3.61783  -3.61778  -3.61761
 Alpha  occ. eigenvalues --   -0.85805  -0.78917  -0.74801  -0.72635  -0.70580
 Alpha  occ. eigenvalues --   -0.68544  -0.63762  -0.60817  -0.57595  -0.51923
 Alpha  occ. eigenvalues --   -0.49401  -0.46672  -0.45419  -0.43799  -0.42971
 Alpha  occ. eigenvalues --   -0.42302  -0.41728  -0.40787  -0.40139  -0.39921
 Alpha  occ. eigenvalues --   -0.38237  -0.37403  -0.36733  -0.34167  -0.33981
 Alpha  occ. eigenvalues --   -0.31948  -0.30028  -0.29661  -0.25510  -0.23641
 Alpha virt. eigenvalues --   -0.01783  -0.01323  -0.00433   0.00756   0.00853
 Alpha virt. eigenvalues --    0.01803   0.02809   0.03452   0.04145   0.04319
 Alpha virt. eigenvalues --    0.05050   0.05421   0.05766   0.06257   0.06959
 Alpha virt. eigenvalues --    0.07425   0.07884   0.08156   0.08857   0.09110
 Alpha virt. eigenvalues --    0.09604   0.09810   0.10523   0.11047   0.11100
 Alpha virt. eigenvalues --    0.11588   0.12177   0.12597   0.12696   0.13334
 Alpha virt. eigenvalues --    0.13760   0.14229   0.14990   0.15577   0.15826
 Alpha virt. eigenvalues --    0.15854   0.16537   0.16714   0.17513   0.17888
 Alpha virt. eigenvalues --    0.18100   0.18725   0.19771   0.19976   0.20375
 Alpha virt. eigenvalues --    0.20579   0.21157   0.21430   0.21965   0.22350
 Alpha virt. eigenvalues --    0.22775   0.23154   0.23494   0.23675   0.24193
 Alpha virt. eigenvalues --    0.24346   0.25245   0.26017   0.26728   0.27090
 Alpha virt. eigenvalues --    0.27687   0.28821   0.29129   0.29618   0.30607
 Alpha virt. eigenvalues --    0.31094   0.31962   0.32427   0.32850   0.33596
 Alpha virt. eigenvalues --    0.34135   0.35046   0.35306   0.36469   0.38978
 Alpha virt. eigenvalues --    0.40523   0.42268   0.46176   0.46694   0.47818
 Alpha virt. eigenvalues --    0.49629   0.50526   0.51786   0.52096   0.52446
 Alpha virt. eigenvalues --    0.53864   0.54200   0.55017   0.55369   0.56364
 Alpha virt. eigenvalues --    0.56887   0.57605   0.58244   0.59791   0.60879
 Alpha virt. eigenvalues --    0.62290   0.62974   0.63577   0.64123   0.64791
 Alpha virt. eigenvalues --    0.65727   0.66407   0.67222   0.67701   0.68786
 Alpha virt. eigenvalues --    0.69333   0.70230   0.70743   0.71916   0.73104
 Alpha virt. eigenvalues --    0.73360   0.74172   0.74405   0.74900   0.75549
 Alpha virt. eigenvalues --    0.76705   0.77623   0.78484   0.79457   0.80865
 Alpha virt. eigenvalues --    0.82468   0.82714   0.83357   0.83774   0.85906
 Alpha virt. eigenvalues --    0.86393   0.86707   0.88035   0.88881   0.90920
 Alpha virt. eigenvalues --    0.94314   0.96049   0.97082   0.98631   0.99244
 Alpha virt. eigenvalues --    1.02069   1.04199   1.05985   1.07682   1.07964
 Alpha virt. eigenvalues --    1.08524   1.10389   1.11510   1.13113   1.15407
 Alpha virt. eigenvalues --    1.17095   1.18309   1.20583   1.25683   1.30928
 Alpha virt. eigenvalues --    1.38108   1.38894   1.40912   1.43381   1.44325
 Alpha virt. eigenvalues --    1.46870   1.47447   1.47798   1.48452   1.49536
 Alpha virt. eigenvalues --    1.51303   1.52447   1.54609   1.55927   1.56786
 Alpha virt. eigenvalues --    1.56854   1.57429   1.58181   1.59785   1.60608
 Alpha virt. eigenvalues --    1.61960   1.62519   1.63098   1.63267   1.63923
 Alpha virt. eigenvalues --    1.64922   1.65743   1.67595   1.69107   1.71780
 Alpha virt. eigenvalues --    1.73113   1.73977   1.76134   1.77081   1.77207
 Alpha virt. eigenvalues --    1.77992   1.79728   1.80484   1.81815   1.83491
 Alpha virt. eigenvalues --    1.84349   1.85470   1.88865   1.91595   1.93575
 Alpha virt. eigenvalues --    1.94555   1.95181   1.96473   1.97184   1.99338
 Alpha virt. eigenvalues --    1.99488   2.01561   2.02438   2.06054   2.08340
 Alpha virt. eigenvalues --    2.09398   2.10214   2.11849   2.12559   2.17564
 Alpha virt. eigenvalues --    2.20107   2.21402   2.22581   2.25476   2.26364
 Alpha virt. eigenvalues --    2.30761   2.34084   2.35624   2.39877   2.40532
 Alpha virt. eigenvalues --    2.42231   2.43160   2.46617   2.49592   2.51708
 Alpha virt. eigenvalues --    2.51853   2.52811   2.55152   2.56635   2.56958
 Alpha virt. eigenvalues --    2.58014   2.58956   2.60092   2.61035   2.63410
 Alpha virt. eigenvalues --    2.63716   2.64507   2.66411   2.67299   2.67917
 Alpha virt. eigenvalues --    2.69243   2.70850   2.71877   2.72829   2.73991
 Alpha virt. eigenvalues --    2.75688   2.76562   2.79070   2.81534   2.82947
 Alpha virt. eigenvalues --    2.84359   2.84929   2.85893   2.89348   2.92766
 Alpha virt. eigenvalues --    2.93673   2.94198   2.95552   2.99310   3.01768
 Alpha virt. eigenvalues --    3.09663   3.10772   3.16007   3.18162   3.21444
 Alpha virt. eigenvalues --    3.24892   3.36163   3.37125   3.41035   3.50717
 Alpha virt. eigenvalues --    3.54822   3.64513   3.69509   3.79402   3.79514
 Alpha virt. eigenvalues --    3.82004   3.82700   3.87440   3.89588   4.02127
 Alpha virt. eigenvalues --    4.05528   4.12121   4.16821   4.19574   4.33353
 Alpha virt. eigenvalues --    4.84664   5.78641  11.48801  11.52734  11.54058
 Alpha virt. eigenvalues --   23.62179  23.85160  23.96185  23.97195  24.00955
 Alpha virt. eigenvalues --   24.02201  24.03195  24.07733  24.09048  24.18487
 Alpha virt. eigenvalues --  141.23744
          Condensed to atoms (all electrons):
               1          2          3          4          5          6
     1  C    6.299550  -0.566906   0.233583   0.372985   0.173339   0.376678
     2  C   -0.566906  13.066715  -2.472756  -0.385756   0.373113  -0.054409
     3  C    0.233583  -2.472756  12.501122   0.328344  -0.884767   0.017918
     4  C    0.372985  -0.385756   0.328344   6.122389   0.110479  -0.013276
     5  C    0.173339   0.373113  -0.884767   0.110479   5.415816   0.002917
     6  H    0.376678  -0.054409   0.017918  -0.013276   0.002917   0.545308
     7  H   -0.025232   0.341977  -0.025363  -0.004563  -0.001053  -0.007660
     8  H   -0.011105  -0.004263  -0.003792   0.392684   0.009750  -0.000272
     9  H    0.015449  -0.044031   0.034968   0.018159   0.366407  -0.007953
    10  Si   0.053039  -0.165306  -0.102354   0.026457  -0.012530  -0.000544
    11  H    0.002170   0.052748  -0.052830  -0.001256  -0.003128   0.000001
    12  C   -0.009925   0.102601  -0.081299  -0.002911   0.000425  -0.000001
    13  H    0.000460  -0.001594   0.001717   0.000180  -0.000050   0.000000
    14  H    0.000100   0.000830   0.001056  -0.000277   0.000084   0.000000
    15  H   -0.000749  -0.002008  -0.003910   0.000098  -0.000001   0.000000
    16  C   -0.039076  -0.081700   0.241008  -0.002055  -0.000450   0.000063
    17  H    0.007561  -0.017843  -0.018208   0.001502  -0.001528   0.000002
    18  H    0.006326  -0.008566   0.022631   0.003423  -0.003657  -0.000035
    19  H    0.000026   0.017456  -0.009183  -0.001080   0.001034   0.000000
    20  C   -0.048318   0.797197  -3.645878  -0.155608   0.027742   0.012530
    21  C   -0.151070  -0.128057   0.324257  -0.021164   0.044730  -0.000278
    22  H    0.018949   0.225817  -0.268385  -0.005314  -0.000154  -0.000027
    23  H   -0.000314  -0.019009   0.065686   0.005912   0.000463  -0.000001
    24  H    0.004683   0.048791  -0.055747  -0.020133  -0.007703   0.000001
    25  H   -0.003855  -0.009623  -0.022062  -0.011275   0.002609   0.000003
    26  C   -0.447945  -4.922839  -1.010157  -0.516389   0.548988   0.004979
    27  H   -0.002530   0.001627  -0.021135  -0.016688  -0.008456   0.000081
               7          8          9         10         11         12
     1  C   -0.025232  -0.011105   0.015449   0.053039   0.002170  -0.009925
     2  C    0.341977  -0.004263  -0.044031  -0.165306   0.052748   0.102601
     3  C   -0.025363  -0.003792   0.034968  -0.102354  -0.052830  -0.081299
     4  C   -0.004563   0.392684   0.018159   0.026457  -0.001256  -0.002911
     5  C   -0.001053   0.009750   0.366407  -0.012530  -0.003128   0.000425
     6  H   -0.007660  -0.000272  -0.007953  -0.000544   0.000001  -0.000001
     7  H    0.541081   0.000078  -0.000275  -0.001400   0.000018  -0.000186
     8  H    0.000078   0.545969  -0.007932  -0.000143   0.000011   0.000005
     9  H   -0.000275  -0.007932   0.543093  -0.000364   0.000000   0.000003
    10  Si  -0.001400  -0.000143  -0.000364  11.886791   0.436648   0.224631
    11  H    0.000018   0.000011   0.000000   0.436648   0.819168  -0.037311
    12  C   -0.000186   0.000005   0.000003   0.224631  -0.037311   5.662751
    13  H    0.000000   0.000000   0.000000  -0.009668  -0.001172   0.369377
    14  H    0.000003   0.000000   0.000000  -0.029202  -0.001059   0.378205
    15  H    0.000013   0.000000   0.000000  -0.008413   0.002542   0.394024
    16  C    0.001473  -0.000046   0.000037   0.142759  -0.034951  -0.094439
    17  H    0.000529   0.000000   0.000000  -0.011428   0.002792  -0.004640
    18  H   -0.001002  -0.000002   0.000000  -0.023355  -0.000443   0.011183
    19  H   -0.000028   0.000000   0.000000  -0.001202  -0.001388  -0.008258
    20  C    0.048754   0.013854   0.005472   0.495111   0.049807  -0.086760
    21  C    0.002544  -0.000266  -0.000451  -0.198812  -0.029288   0.083582
    22  H    0.001768   0.000021  -0.000001  -0.018928   0.002660   0.008806
    23  H   -0.000015  -0.000004   0.000000  -0.015577  -0.000074   0.000419
    24  H    0.000026   0.000062   0.000001   0.003550   0.003841   0.001434
    25  H    0.000042   0.000022   0.000000   0.010510  -0.000337  -0.002292
    26  C    0.015138  -0.049190  -0.045120   0.144086  -0.077751  -0.082891
    27  H   -0.000251  -0.008260  -0.000326   0.001153  -0.000565   0.000160
              13         14         15         16         17         18
     1  C    0.000460   0.000100  -0.000749  -0.039076   0.007561   0.006326
     2  C   -0.001594   0.000830  -0.002008  -0.081700  -0.017843  -0.008566
     3  C    0.001717   0.001056  -0.003910   0.241008  -0.018208   0.022631
     4  C    0.000180  -0.000277   0.000098  -0.002055   0.001502   0.003423
     5  C   -0.000050   0.000084  -0.000001  -0.000450  -0.001528  -0.003657
     6  H    0.000000   0.000000   0.000000   0.000063   0.000002  -0.000035
     7  H    0.000000   0.000003   0.000013   0.001473   0.000529  -0.001002
     8  H    0.000000   0.000000   0.000000  -0.000046   0.000000  -0.000002
     9  H    0.000000   0.000000   0.000000   0.000037   0.000000   0.000000
    10  Si  -0.009668  -0.029202  -0.008413   0.142759  -0.011428  -0.023355
    11  H   -0.001172  -0.001059   0.002542  -0.034951   0.002792  -0.000443
    12  C    0.369377   0.378205   0.394024  -0.094439  -0.004640   0.011183
    13  H    0.514401  -0.017365  -0.022015  -0.008783   0.000082  -0.000065
    14  H   -0.017365   0.526287  -0.023380   0.013314  -0.000189  -0.000138
    15  H   -0.022015  -0.023380   0.511968  -0.007290   0.001427  -0.000108
    16  C   -0.008783   0.013314  -0.007290   5.808633   0.386236   0.377313
    17  H    0.000082  -0.000189   0.001427   0.386236   0.514935  -0.019700
    18  H   -0.000065  -0.000138  -0.000108   0.377313  -0.019700   0.496063
    19  H    0.001210  -0.000043   0.000114   0.358785  -0.020704  -0.018015
    20  C    0.018561  -0.019137  -0.005677  -0.263520   0.017021  -0.024088
    21  C   -0.007834   0.012607  -0.002330   0.085727  -0.004886  -0.001777
    22  H   -0.000190   0.000012   0.000989  -0.001835   0.001300   0.000240
    23  H    0.000060   0.001901   0.000003   0.003856  -0.000007  -0.000003
    24  H   -0.000100  -0.000304   0.000138  -0.001047   0.000013   0.000018
    25  H    0.000016   0.000055  -0.000024  -0.001120   0.000001   0.000005
    26  C    0.001671   0.000542   0.000980  -0.013069   0.000296   0.001501
    27  H    0.000000   0.000010  -0.000002   0.000430   0.000001   0.000014
              19         20         21         22         23         24
     1  C    0.000026  -0.048318  -0.151070   0.018949  -0.000314   0.004683
     2  C    0.017456   0.797197  -0.128057   0.225817  -0.019009   0.048791
     3  C   -0.009183  -3.645878   0.324257  -0.268385   0.065686  -0.055747
     4  C   -0.001080  -0.155608  -0.021164  -0.005314   0.005912  -0.020133
     5  C    0.001034   0.027742   0.044730  -0.000154   0.000463  -0.007703
     6  H    0.000000   0.012530  -0.000278  -0.000027  -0.000001   0.000001
     7  H   -0.000028   0.048754   0.002544   0.001768  -0.000015   0.000026
     8  H    0.000000   0.013854  -0.000266   0.000021  -0.000004   0.000062
     9  H    0.000000   0.005472  -0.000451  -0.000001   0.000000   0.000001
    10  Si  -0.001202   0.495111  -0.198812  -0.018928  -0.015577   0.003550
    11  H   -0.001388   0.049807  -0.029288   0.002660  -0.000074   0.003841
    12  C   -0.008258  -0.086760   0.083582   0.008806   0.000419   0.001434
    13  H    0.001210   0.018561  -0.007834  -0.000190   0.000060  -0.000100
    14  H   -0.000043  -0.019137   0.012607   0.000012   0.001901  -0.000304
    15  H    0.000114  -0.005677  -0.002330   0.000989   0.000003   0.000138
    16  C    0.358785  -0.263520   0.085727  -0.001835   0.003856  -0.001047
    17  H   -0.020704   0.017021  -0.004886   0.001300  -0.000007   0.000013
    18  H   -0.018015  -0.024088  -0.001777   0.000240  -0.000003   0.000018
    19  H    0.518174   0.006898  -0.001839  -0.000120  -0.000019  -0.000017
    20  C    0.006898   9.906190  -0.676663   0.514688  -0.162651   0.129455
    21  C   -0.001839  -0.676663   5.833977  -0.034891   0.463778   0.363110
    22  H   -0.000120   0.514688  -0.034891   0.514826  -0.004808   0.009079
    23  H   -0.000019  -0.162651   0.463778  -0.004808   0.547477  -0.029015
    24  H   -0.000017   0.129455   0.363110   0.009079  -0.029015   0.554436
    25  H    0.000003  -0.054233   0.434537  -0.010953  -0.023445  -0.032429
    26  C   -0.000747  -0.492504   0.320824  -0.135468   0.025100  -0.113954
    27  H   -0.000003   0.059869  -0.022218   0.000115   0.000703   0.004152
              25         26         27
     1  C   -0.003855  -0.447945  -0.002530
     2  C   -0.009623  -4.922839   0.001627
     3  C   -0.022062  -1.010157  -0.021135
     4  C   -0.011275  -0.516389  -0.016688
     5  C    0.002609   0.548988  -0.008456
     6  H    0.000003   0.004979   0.000081
     7  H    0.000042   0.015138  -0.000251
     8  H    0.000022  -0.049190  -0.008260
     9  H    0.000000  -0.045120  -0.000326
    10  Si   0.010510   0.144086   0.001153
    11  H   -0.000337  -0.077751  -0.000565
    12  C   -0.002292  -0.082891   0.000160
    13  H    0.000016   0.001671   0.000000
    14  H    0.000055   0.000542   0.000010
    15  H   -0.000024   0.000980  -0.000002
    16  C   -0.001120  -0.013069   0.000430
    17  H    0.000001   0.000296   0.000001
    18  H    0.000005   0.001501   0.000014
    19  H    0.000003  -0.000747  -0.000003
    20  C   -0.054233  -0.492504   0.059869
    21  C    0.434537   0.320824  -0.022218
    22  H   -0.010953  -0.135468   0.000115
    23  H   -0.023445   0.025100   0.000703
    24  H   -0.032429  -0.113954   0.004152
    25  H    0.526961   0.048849  -0.000404
    26  C    0.048849  12.952761   0.345195
    27  H   -0.000404   0.345195   0.557486
 Mulliken charges:
               1
     1  C   -0.257874
     2  C   -0.144207
     3  C    0.905536
     4  C   -0.224867
     5  C   -0.154420
     6  H    0.123976
     7  H    0.113583
     8  H    0.122821
     9  H    0.122864
    10  Si   1.174490
    11  H   -0.130852
    12  C   -0.826692
    13  H    0.161100
    14  H    0.156087
    15  H    0.163609
    16  C   -0.870254
    17  H    0.165437
    18  H    0.182236
    19  H    0.158945
    20  C   -0.468113
    21  C   -0.687847
    22  H    0.181804
    23  H    0.139583
    24  H    0.137658
    25  H    0.148440
    26  C   -0.502885
    27  H    0.109843
 Sum of Mulliken charges =   0.00000
 Mulliken charges with hydrogens summed into heavy atoms:
               1
     1  C   -0.133898
     2  C   -0.030624
     3  C    0.905536
     4  C   -0.102046
     5  C   -0.031556
    10  Si   1.043639
    12  C   -0.345897
    16  C   -0.363636
    20  C   -0.286309
    21  C   -0.262165
    26  C   -0.393043
 Electronic spatial extent (au):  <R**2>=           2442.8358
 Charge=              0.0000 electrons
 Dipole moment (field-independent basis, Debye):
    X=             -0.5081    Y=             -0.0190    Z=              0.3870  Tot=              0.6390
 Quadrupole moment (field-independent basis, Debye-Ang):
   XX=            -75.5609   YY=            -76.4494   ZZ=            -77.3487
   XY=              0.8472   XZ=             -2.0809   YZ=              2.9159
 Traceless Quadrupole moment (field-independent basis, Debye-Ang):
   XX=              0.8921   YY=              0.0036   ZZ=             -0.8957
   XY=              0.8472   XZ=             -2.0809   YZ=              2.9159
 Octapole moment (field-independent basis, Debye-Ang**2):
  XXX=             17.4714  YYY=             -4.1829  ZZZ=              6.2942  XYY=              1.9583
  XXY=              9.2117  XXZ=             -9.3234  XZZ=             -3.3628  YZZ=              0.8586
  YYZ=              0.3257  XYZ=              7.9382
 Hexadecapole moment (field-independent basis, Debye-Ang**3):
 XXXX=          -2382.5729 YYYY=           -804.1702 ZZZZ=           -330.2906 XXXY=             15.0916
 XXXZ=            -26.4549 YYYX=             11.1354 YYYZ=             12.9352 ZZZX=            -12.7277
 ZZZY=              6.0943 XXYY=           -519.1807 XXZZ=           -451.9202 YYZZ=           -172.1564
 XXYZ=             15.6969 YYXZ=              3.7633 ZZXY=             -9.5973
 N-N= 6.816164757119D+02 E-N=-2.958321366009D+03  KE= 6.781164284872D+02
 There are a total of      222600 grid points.
 ElSum from          density=       89.9999328079
 ElSum from atomic densities=       89.9999713966

 Hirshfeld populations at iteration   1 (CX, CA, CB, DipXYZ):
               1          2          3          4          5          6
     1  C    0.000000   3.023388   3.023388   0.026969   0.051747   0.026084
     2  C    0.000000   3.025235   3.025235  -0.039249   0.037565   0.033965
     3  C    0.000000   2.996331   2.996331  -0.058768  -0.010566   0.008499
     4  C    0.000000   3.023102   3.023102   0.030714  -0.036908  -0.042768
     5  C    0.000000   3.027404   3.027404   0.055074   0.013921  -0.013691
     6  H    0.000002   0.477598   0.477598   0.070948   0.127532   0.067820
     7  H    0.000001   0.477660   0.477660  -0.073719   0.091614   0.104169
     8  H    0.000002   0.477530   0.477530   0.079903  -0.090329  -0.106748
     9  H    0.000002   0.478527   0.478527   0.152034   0.037138  -0.038610
    10  Si   0.000000   6.817973   6.817973  -0.039979   0.018659   0.010604
    11  H    0.000001   0.543929   0.543929   0.016286  -0.028431  -0.113039
    12  C    0.000000   3.102700   3.102700  -0.089129  -0.017659   0.020414
    13  H    0.000001   0.480516   0.480516  -0.094870   0.078569  -0.102661
    14  H    0.000001   0.481727   0.481727  -0.018810  -0.154401  -0.016822
    15  H    0.000001   0.481199   0.481199  -0.024834   0.047545   0.149688
    16  C    0.000000   3.103481   3.103481   0.006710   0.094372   0.003106
    17  H    0.000001   0.482094   0.482094  -0.031735   0.041234   0.148862
    18  H    0.000001   0.481856   0.481856   0.137086   0.039417  -0.046156
    19  H    0.000001   0.481295   0.481295  -0.100694   0.070095  -0.101663
    20  C    0.000000   3.056221   3.056221   0.070352  -0.062075   0.069366
    21  C    0.000000   3.049574   3.049574  -0.002116   0.002466   0.007797
    22  H    0.000000   0.480359   0.480359  -0.030566   0.035906   0.150344
    23  H    0.000000   0.482289   0.482289  -0.136326  -0.033021   0.040146
    24  H    0.000000   0.482181   0.482181   0.021354  -0.046519  -0.136192
    25  H    0.000001   0.482130   0.482130   0.085832  -0.069112   0.098408
    26  C    0.000000   3.025335   3.025335  -0.031675  -0.044852  -0.023667
    27  H    0.000000   0.478333   0.478333  -0.055375  -0.123010  -0.073415
       Tot   0.000015  44.999966  44.999966  -0.074585   0.070894   0.123839

 Dip from Atomic Chgs             -0.124924  -0.078914   0.028431
         Total Dipole             -0.199509  -0.008021   0.152270

 Hirshfeld charges, spin densities, dipoles, and CM5 charges using IRadAn=      4:
              Q-H        S-H        Dx         Dy         Dz        Q-CM5   
     1  C   -0.046776   0.000000   0.026969   0.051747   0.026084  -0.104314
     2  C   -0.050470   0.000000  -0.039249   0.037565   0.033965  -0.106586
     3  C    0.007338   0.000000  -0.058768  -0.010566   0.008499  -0.009037
     4  C   -0.046204   0.000000   0.030714  -0.036908  -0.042768  -0.103727
     5  C   -0.054808   0.000000   0.055074   0.013921  -0.013691  -0.112352
     6  H    0.044803   0.000000   0.070948   0.127532   0.067820   0.102373
     7  H    0.044680   0.000000  -0.073719   0.091614   0.104169   0.102939
     8  H    0.044941   0.000000   0.079903  -0.090329  -0.106748   0.102512
     9  H    0.042947   0.000000   0.152034   0.037138  -0.038610   0.100511
    10  Si   0.364053   0.000000  -0.039979   0.018659   0.010604   0.142116
    11  H   -0.087858   0.000000   0.016286  -0.028431  -0.113039  -0.002629
    12  C   -0.205400   0.000000  -0.089129  -0.017659   0.020414  -0.327347
    13  H    0.038968   0.000000  -0.094870   0.078569  -0.102661   0.095712
    14  H    0.036546   0.000000  -0.018810  -0.154401  -0.016822   0.093542
    15  H    0.037603   0.000000  -0.024834   0.047545   0.149688   0.094549
    16  C   -0.206961   0.000000   0.006710   0.094372   0.003106  -0.328667
    17  H    0.035813   0.000000  -0.031735   0.041234   0.148862   0.092852
    18  H    0.036288   0.000000   0.137086   0.039417  -0.046156   0.093805
    19  H    0.037410   0.000000  -0.100694   0.070095  -0.101663   0.094164
    20  C   -0.112442   0.000000   0.070352  -0.062075   0.069366  -0.145818
    21  C   -0.099147   0.000000  -0.002116   0.002466   0.007797  -0.252096
    22  H    0.039282   0.000000  -0.030566   0.035906   0.150344   0.104315
    23  H    0.035423   0.000000  -0.136326  -0.033021   0.040146   0.091599
    24  H    0.035637   0.000000   0.021354  -0.046519  -0.136192   0.093371
    25  H    0.035739   0.000000   0.085832  -0.069112   0.098408   0.091058
    26  C   -0.050671   0.000000  -0.031675  -0.044852  -0.023667  -0.106324
    27  H    0.043333   0.000000  -0.055375  -0.123010  -0.073415   0.103546
       Tot   0.000067   0.000000  -0.074585   0.070894   0.123839   0.000067
 Hirshfeld charges with hydrogens summed into heavy atoms:
              Q-H       Q-CM5   
     1  C   -0.001973  -0.001941
     2  C   -0.005790  -0.003647
     3  C    0.007338  -0.009037
     4  C   -0.001263  -0.001215
     5  C   -0.011861  -0.011841
    10  Si   0.276196   0.139488
    12  C   -0.092283  -0.043544
    16  C   -0.097451  -0.047846
    20  C   -0.073160  -0.041503
    21  C    0.007652   0.023932
    26  C   -0.007338  -0.002778
 
 EQQ= 0.000000000000E+00 EQD= 0.000000000000E+00 EDD= 0.104079940906E-01
 EQQ+QD+DD= 0.104079940906E-01
 
          MBS Condensed to atoms (all electrons):
               1          2          3          4          5          6
     1  C    4.829480   0.504356  -0.029319  -0.030500   0.503816   0.392362
     2  C    0.504356   4.852303   0.500996  -0.011476  -0.030718  -0.025941
     3  C   -0.029319   0.500996   4.812071  -0.029032  -0.011800   0.001486
     4  C   -0.030500  -0.011476  -0.029032   4.827221   0.504326   0.001505
     5  C    0.503816  -0.030718  -0.011800   0.504326   4.840152  -0.025955
     6  H    0.392362  -0.025941   0.001486   0.001505  -0.025955   0.555495
     7  H   -0.025915   0.391788  -0.027128   0.000047   0.001487  -0.003672
     8  H    0.001503   0.000045   0.001481   0.392595  -0.026017  -0.000042
     9  H   -0.026042   0.001499   0.000054  -0.026026   0.392936  -0.003662
    10  Si  -0.000016  -0.000768  -0.011878  -0.000011   0.000003   0.000000
    11  H    0.000000   0.000007  -0.000322  -0.000003   0.000000   0.000000
    12  C    0.000000   0.000000   0.000077   0.000000   0.000000   0.000000
    13  H    0.000000   0.000000  -0.000002   0.000000   0.000000   0.000000
    14  H    0.000000   0.000000   0.000001   0.000000   0.000000   0.000000
    15  H    0.000000   0.000000   0.000000   0.000000   0.000000   0.000000
    16  C   -0.000011  -0.000504  -0.000613   0.000000   0.000000   0.000000
    17  H    0.000001  -0.000006   0.000017   0.000000   0.000000   0.000000
    18  H    0.000053   0.000874   0.000256  -0.000003  -0.000003   0.000000
    19  H    0.000000   0.000008   0.000014   0.000000   0.000000   0.000000
    20  C    0.000822  -0.027425   0.371688   0.000816   0.000024  -0.000018
    21  C   -0.000010   0.000670  -0.024259   0.000072   0.000000   0.000000
    22  H    0.000030  -0.003876  -0.023428  -0.000024   0.000001  -0.000002
    23  H    0.000000  -0.000018   0.001589  -0.000001   0.000000   0.000000
    24  H    0.000000   0.000011  -0.002995   0.000012  -0.000001   0.000000
    25  H   -0.000001   0.000079  -0.002427  -0.000018  -0.000001   0.000000
    26  C   -0.011430  -0.030397   0.502428   0.503972  -0.030779   0.000044
    27  H    0.000045   0.001476  -0.026657  -0.025631   0.001467   0.000002
               7          8          9         10         11         12
     1  C   -0.025915   0.001503  -0.026042  -0.000016   0.000000   0.000000
     2  C    0.391788   0.000045   0.001499  -0.000768   0.000007   0.000000
     3  C   -0.027128   0.001481   0.000054  -0.011878  -0.000322   0.000077
     4  C    0.000047   0.392595  -0.026026  -0.000011  -0.000003   0.000000
     5  C    0.001487  -0.026017   0.392936   0.000003   0.000000   0.000000
     6  H   -0.003672  -0.000042  -0.003662   0.000000   0.000000   0.000000
     7  H    0.560116   0.000002  -0.000041   0.000128   0.000001  -0.000001
     8  H    0.000002   0.555204  -0.003650   0.000000   0.000000   0.000000
     9  H   -0.000041  -0.003650   0.556046   0.000000   0.000000   0.000000
    10  Si   0.000128   0.000000   0.000000  12.194681   0.345542   0.342469
    11  H    0.000001   0.000000   0.000000   0.345542   0.806261  -0.008495
    12  C   -0.000001   0.000000   0.000000   0.342469  -0.008495   5.001197
    13  H    0.000000   0.000000   0.000000  -0.014583  -0.000161   0.376172
    14  H    0.000000   0.000000   0.000000  -0.015235  -0.000164   0.375880
    15  H    0.000000   0.000000   0.000000  -0.015504   0.000384   0.375982
    16  C   -0.000095   0.000000   0.000000   0.344191  -0.008393  -0.006610
    17  H    0.000124   0.000000   0.000000  -0.015629   0.000382  -0.000215
    18  H   -0.000045   0.000000   0.000000  -0.015018  -0.000157   0.000217
    19  H    0.000002   0.000000   0.000000  -0.014789  -0.000166  -0.000183
    20  C   -0.003575  -0.000018   0.000001   0.334319  -0.008194  -0.006072
    21  C    0.000022   0.000001   0.000000  -0.016187  -0.000516  -0.000707
    22  H    0.001176   0.000001   0.000000  -0.017287   0.000356  -0.000174
    23  H   -0.000002   0.000000   0.000000  -0.002475   0.000034  -0.000060
    24  H    0.000001   0.000005   0.000000  -0.003230   0.000576   0.000022
    25  H    0.000005   0.000001   0.000000   0.001625  -0.000008   0.000005
    26  C    0.001502  -0.026076   0.001503  -0.000927   0.000145   0.000001
    27  H   -0.000044  -0.003664  -0.000041   0.000123   0.000036  -0.000001
              13         14         15         16         17         18
     1  C    0.000000   0.000000   0.000000  -0.000011   0.000001   0.000053
     2  C    0.000000   0.000000   0.000000  -0.000504  -0.000006   0.000874
     3  C   -0.000002   0.000001   0.000000  -0.000613   0.000017   0.000256
     4  C    0.000000   0.000000   0.000000   0.000000   0.000000  -0.000003
     5  C    0.000000   0.000000   0.000000   0.000000   0.000000  -0.000003
     6  H    0.000000   0.000000   0.000000   0.000000   0.000000   0.000000
     7  H    0.000000   0.000000   0.000000  -0.000095   0.000124  -0.000045
     8  H    0.000000   0.000000   0.000000   0.000000   0.000000   0.000000
     9  H    0.000000   0.000000   0.000000   0.000000   0.000000   0.000000
    10  Si  -0.014583  -0.015235  -0.015504   0.344191  -0.015629  -0.015018
    11  H   -0.000161  -0.000164   0.000384  -0.008393   0.000382  -0.000157
    12  C    0.376172   0.375880   0.375982  -0.006610  -0.000215   0.000217
    13  H    0.579439  -0.021587  -0.021714  -0.000198   0.000018  -0.000002
    14  H   -0.021587   0.582269  -0.021863   0.000216  -0.000001  -0.000006
    15  H   -0.021714  -0.021863   0.584030  -0.000218   0.000153  -0.000001
    16  C   -0.000198   0.000216  -0.000218   5.003068   0.375479   0.375054
    17  H    0.000018  -0.000001   0.000153   0.375479   0.587415  -0.021689
    18  H   -0.000002  -0.000006  -0.000001   0.375054  -0.021689   0.573191
    19  H    0.000105  -0.000001   0.000017   0.375534  -0.021739  -0.021353
    20  C    0.000195  -0.000273  -0.000243  -0.006212  -0.000230  -0.000285
    21  C    0.000015  -0.000224   0.000022   0.000083   0.000000   0.000001
    22  H   -0.000002   0.000028   0.000153  -0.000201   0.000145   0.000030
    23  H   -0.000012   0.000707   0.000039   0.000004   0.000000   0.000000
    24  H   -0.000003   0.000032   0.000004   0.000002   0.000000   0.000000
    25  H    0.000000  -0.000005  -0.000003  -0.000003   0.000000   0.000000
    26  C    0.000000   0.000000   0.000000   0.000001   0.000001  -0.000001
    27  H    0.000000   0.000000   0.000000   0.000000   0.000000   0.000000
              19         20         21         22         23         24
     1  C    0.000000   0.000822  -0.000010   0.000030   0.000000   0.000000
     2  C    0.000008  -0.027425   0.000670  -0.003876  -0.000018   0.000011
     3  C    0.000014   0.371688  -0.024259  -0.023428   0.001589  -0.002995
     4  C    0.000000   0.000816   0.000072  -0.000024  -0.000001   0.000012
     5  C    0.000000   0.000024   0.000000   0.000001   0.000000  -0.000001
     6  H    0.000000  -0.000018   0.000000  -0.000002   0.000000   0.000000
     7  H    0.000002  -0.003575   0.000022   0.001176  -0.000002   0.000001
     8  H    0.000000  -0.000018   0.000001   0.000001   0.000000   0.000005
     9  H    0.000000   0.000001   0.000000   0.000000   0.000000   0.000000
    10  Si  -0.014789   0.334319  -0.016187  -0.017287  -0.002475  -0.003230
    11  H   -0.000166  -0.008194  -0.000516   0.000356   0.000034   0.000576
    12  C   -0.000183  -0.006072  -0.000707  -0.000174  -0.000060   0.000022
    13  H    0.000105   0.000195   0.000015  -0.000002  -0.000012  -0.000003
    14  H   -0.000001  -0.000273  -0.000224   0.000028   0.000707   0.000032
    15  H    0.000017  -0.000243   0.000022   0.000153   0.000039   0.000004
    16  C    0.375534  -0.006212   0.000083  -0.000201   0.000004   0.000002
    17  H   -0.021739  -0.000230   0.000000   0.000145   0.000000   0.000000
    18  H   -0.021353  -0.000285   0.000001   0.000030   0.000000   0.000000
    19  H    0.582573   0.000197  -0.000002   0.000001   0.000000   0.000000
    20  C    0.000197   4.920299   0.357948   0.373941  -0.022506  -0.023737
    21  C   -0.000002   0.357948   4.843606  -0.023123   0.380869   0.384275
    22  H    0.000001   0.373941  -0.023123   0.599194  -0.002200   0.002374
    23  H    0.000000  -0.022506   0.380869  -0.002200   0.599200  -0.022572
    24  H    0.000000  -0.023737   0.384275   0.002374  -0.022572   0.600368
    25  H    0.000000  -0.022605   0.381037  -0.002910  -0.022682  -0.024293
    26  C    0.000000  -0.026876  -0.008151   0.001149   0.000170  -0.003398
    27  H    0.000000  -0.003825  -0.002676   0.000060  -0.000011   0.001171
              25         26         27
     1  C   -0.000001  -0.011430   0.000045
     2  C    0.000079  -0.030397   0.001476
     3  C   -0.002427   0.502428  -0.026657
     4  C   -0.000018   0.503972  -0.025631
     5  C   -0.000001  -0.030779   0.001467
     6  H    0.000000   0.000044   0.000002
     7  H    0.000005   0.001502  -0.000044
     8  H    0.000001  -0.026076  -0.003664
     9  H    0.000000   0.001503  -0.000041
    10  Si   0.001625  -0.000927   0.000123
    11  H   -0.000008   0.000145   0.000036
    12  C    0.000005   0.000001  -0.000001
    13  H    0.000000   0.000000   0.000000
    14  H   -0.000005   0.000000   0.000000
    15  H   -0.000003   0.000000   0.000000
    16  C   -0.000003   0.000001   0.000000
    17  H    0.000000   0.000001   0.000000
    18  H    0.000000  -0.000001   0.000000
    19  H    0.000000   0.000000   0.000000
    20  C   -0.022605  -0.026876  -0.003825
    21  C    0.381037  -0.008151  -0.002676
    22  H   -0.002910   0.001149   0.000060
    23  H   -0.022682   0.000170  -0.000011
    24  H   -0.024293  -0.003398   0.001171
    25  H    0.593542   0.000649  -0.000070
    26  C    0.000649   4.860287   0.393081
    27  H   -0.000070   0.393081   0.557562
 MBS Mulliken charges:
               1
     1  C   -0.109226
     2  C   -0.122986
     3  C   -0.002300
     4  C   -0.107843
     5  C   -0.118938
     6  H    0.108396
     7  H    0.104118
     8  H    0.108629
     9  H    0.107423
    10  Si   0.580455
    11  H   -0.127146
    12  C   -0.449504
    13  H    0.102317
    14  H    0.100226
    15  H    0.098762
    16  C   -0.450574
    17  H    0.095774
    18  H    0.108886
    19  H    0.099782
    20  C   -0.208156
    21  C   -0.272767
    22  H    0.094587
    23  H    0.089928
    24  H    0.091375
    25  H    0.098083
    26  C   -0.126898
    27  H    0.107596
 Sum of MBS Mulliken charges =   0.00000
 MBS Mulliken charges with hydrogens summed into heavy atoms:
               1
     1  C   -0.000830
     2  C   -0.018868
     3  C   -0.002300
     4  C    0.000787
     5  C   -0.011515
    10  Si   0.453309
    12  C   -0.148199
    16  C   -0.146132
    20  C   -0.113568
    21  C    0.006618
    26  C   -0.019302
 Breneman (CHELPG) radii used.
 Generate Potential Derived Charges using the Breneman model, NDens= 1.
 Grid spacing= 0.300 Box extension= 2.800
 NStep X,Y,Z=   50     38     31   Total possible points=       58900
 Number of Points to Fit=   16702

 **********************************************************************

            Electrostatic Properties Using The SCF Density

 **********************************************************************

       Atomic Center    1 is at   2.741011  1.139834  0.612121
       Atomic Center    2 is at   1.418558  0.817741  0.945732
       Atomic Center    3 is at   0.795636 -0.288317  0.351994
       Atomic Center    4 is at   2.817619 -0.750189 -0.908968
       Atomic Center    5 is at   3.440541  0.355869 -0.315229
       Atomic Center    6 is at   3.216626  1.984333  1.065454
       Atomic Center    7 is at   0.884450  1.416317  1.653782
       Atomic Center    8 is at   3.351726 -1.348763 -1.617021
       Atomic Center    9 is at   4.450264  0.601794 -0.569949
       Atomic Center   10 is at  -1.870321  0.276984 -0.484691
       Atomic Center   11 is at  -1.598300 -0.140392 -1.867696
       Atomic Center   12 is at  -3.701032 -0.168899 -0.022863
       Atomic Center   13 is at  -4.369899  0.338110 -0.686534
       Atomic Center   14 is at  -3.843886 -1.225638 -0.111150
       Atomic Center   15 is at  -3.899033  0.134906  0.983814
       Atomic Center   16 is at  -1.611315  2.192942 -0.324620
       Atomic Center   17 is at  -1.809316  2.496747  0.682056
       Atomic Center   18 is at  -0.601593  2.438867 -0.579340
       Atomic Center   19 is at  -2.280182  2.699951 -0.988291
       Atomic Center   20 is at  -0.657609 -0.642266  0.718599
       Atomic Center   21 is at  -0.863212 -2.163181  0.591533
       Atomic Center   22 is at  -0.855610 -0.338461  1.725276
       Atomic Center   23 is at  -1.872934 -2.409106  0.846252
       Atomic Center   24 is at  -0.665210 -2.466986 -0.415144
       Atomic Center   25 is at  -0.194345 -2.670190  1.255203
       Atomic Center   26 is at   1.495167 -1.072283 -0.575356
       Atomic Center   27 is at   1.019552 -1.916782 -1.028689
   16702 points will be used for fitting atomic charges
 Fitting point charges to electrostatic potential
 Charges from ESP fit, RMS=   0.00337 RRMS=   0.42560:
 ESP charges:
               1
     1  C   -0.060381
     2  C   -0.164480
     3  C    0.171485
     4  C   -0.075143
     5  C   -0.135057
     6  H    0.083303
     7  H    0.090272
     8  H    0.087866
     9  H    0.093286
    10  Si   0.693289
    11  H   -0.214848
    12  C   -0.368294
    13  H    0.072341
    14  H    0.064264
    15  H    0.060948
    16  C   -0.404638
    17  H    0.076958
    18  H    0.051958
    19  H    0.086744
    20  C   -0.150933
    21  C   -0.144246
    22  H    0.045238
    23  H    0.052195
    24  H    0.034634
    25  H    0.023132
    26  C   -0.189401
    27  H    0.119507
 Sum of ESP charges =   0.00000
 ESP charges with hydrogens summed into heavy atoms:
               1
     1  C    0.022922
     2  C   -0.074208
     3  C    0.171485
     4  C    0.012724
     5  C   -0.041771
    10  Si   0.478441
    12  C   -0.170741
    16  C   -0.188978
    20  C   -0.105695
    21  C   -0.034285
    26  C   -0.069894
 Charge=   0.00000 Dipole=    -0.4332    -0.0716     0.4586 Tot=     0.6349
 -----------------------------------------------------------------

              Electrostatic Properties (Atomic Units)

 -----------------------------------------------------------------
    Center     Electric         -------- Electric Field --------
               Potential          X             Y             Z
 -----------------------------------------------------------------
    1 Atom    -14.776532
    2 Atom    -14.779800
    3 Atom    -14.765745
    4 Atom    -14.776659
    5 Atom    -14.779734
    6 Atom     -1.112394
    7 Atom     -1.111200
    8 Atom     -1.112782
    9 Atom     -1.114688
   10 Atom    -49.298252
   11 Atom     -1.142032
   12 Atom    -14.801126
   13 Atom     -1.117916
   14 Atom     -1.118474
   15 Atom     -1.117549
   16 Atom    -14.804782
   17 Atom     -1.120477
   18 Atom     -1.123643
   19 Atom     -1.121614
   20 Atom    -14.777263
   21 Atom    -14.789012
   22 Atom     -1.119634
   23 Atom     -1.127075
   24 Atom     -1.124889
   25 Atom     -1.128834
   26 Atom    -14.780717
   27 Atom     -1.111446
 -----------------------------------------------------------------
 ******************************Gaussian NBO Version 3.1******************************
             N A T U R A L   A T O M I C   O R B I T A L   A N D
          N A T U R A L   B O N D   O R B I T A L   A N A L Y S I S
 ******************************Gaussian NBO Version 3.1******************************
       /RESON  / : Allow strongly delocalized NBO set

 Analyzing the SCF density

 Job title: Chart8_2                                                        

 Storage needed:    361708 in NPA ( 104853685 available)


 NATURAL POPULATIONS:  Natural atomic orbital occupancies 
                                                          
   NAO  Atom  No  lang   Type(AO)    Occupancy      Energy
 ----------------------------------------------------------
     1    C    1  S      Cor( 1S)     1.99919     -10.02886
     2    C    1  S      Val( 2S)     0.95266      -0.15983
     3    C    1  S      Ryd( 3S)     0.00133       0.81957
     4    C    1  S      Ryd( 4S)     0.00013       0.92422
     5    C    1  S      Ryd( 5S)     0.00001      22.84555
     6    C    1  px     Val( 2p)     1.07354      -0.04797
     7    C    1  px     Ryd( 4p)     0.00440       0.79239
     8    C    1  px     Ryd( 3p)     0.00044       0.35971
     9    C    1  px     Ryd( 5p)     0.00013       3.08036
    10    C    1  py     Val( 2p)     1.10507      -0.06594
    11    C    1  py     Ryd( 4p)     0.00483       0.85690
    12    C    1  py     Ryd( 3p)     0.00030       0.31222
    13    C    1  py     Ryd( 5p)     0.00005       3.02077
    14    C    1  pz     Val( 2p)     1.04299      -0.07810
    15    C    1  pz     Ryd( 4p)     0.00313       0.68617
    16    C    1  pz     Ryd( 3p)     0.00033       0.32687
    17    C    1  pz     Ryd( 5p)     0.00006       2.89303
    18    C    1  dxy    Ryd( 3d)     0.00065       2.20648
    19    C    1  dxz    Ryd( 3d)     0.00057       2.09457
    20    C    1  dyz    Ryd( 3d)     0.00049       2.12281
    21    C    1  dx2y2  Ryd( 3d)     0.00057       2.17066
    22    C    1  dz2    Ryd( 3d)     0.00046       1.83152

    23    C    2  S      Cor( 1S)     1.99905     -10.02082
    24    C    2  S      Val( 2S)     0.93977      -0.14777
    25    C    2  S      Ryd( 4S)     0.00117       0.87361
    26    C    2  S      Ryd( 3S)     0.00019       0.62302
    27    C    2  S      Ryd( 5S)     0.00001      23.24273
    28    C    2  px     Val( 2p)     1.08997      -0.05320
    29    C    2  px     Ryd( 4p)     0.00428       0.89078
    30    C    2  px     Ryd( 3p)     0.00030       0.43357
    31    C    2  px     Ryd( 5p)     0.00011       3.15808
    32    C    2  py     Val( 2p)     1.08303      -0.06622
    33    C    2  py     Ryd( 4p)     0.00362       0.75259
    34    C    2  py     Ryd( 3p)     0.00032       0.38562
    35    C    2  py     Ryd( 5p)     0.00007       3.04201
    36    C    2  pz     Val( 2p)     1.08450      -0.07955
    37    C    2  pz     Ryd( 4p)     0.00362       0.75043
    38    C    2  pz     Ryd( 3p)     0.00035       0.37681
    39    C    2  pz     Ryd( 5p)     0.00003       2.95689
    40    C    2  dxy    Ryd( 3d)     0.00063       2.22110
    41    C    2  dxz    Ryd( 3d)     0.00061       2.08145
    42    C    2  dyz    Ryd( 3d)     0.00053       2.12733
    43    C    2  dx2y2  Ryd( 3d)     0.00058       2.21740
    44    C    2  dz2    Ryd( 3d)     0.00042       1.83141

    45    C    3  S      Cor( 1S)     1.99906     -10.03644
    46    C    3  S      Val( 2S)     0.88574      -0.13497
    47    C    3  S      Ryd( 3S)     0.00140       0.83477
    48    C    3  S      Ryd( 4S)     0.00025       0.89516
    49    C    3  S      Ryd( 5S)     0.00001      23.14891
    50    C    3  px     Val( 2p)     1.04102      -0.05573
    51    C    3  px     Ryd( 4p)     0.00621       1.06250
    52    C    3  px     Ryd( 3p)     0.00020       0.90592
    53    C    3  px     Ryd( 5p)     0.00009       3.06587
    54    C    3  py     Val( 2p)     1.04794      -0.06733
    55    C    3  py     Ryd( 3p)     0.00416       0.78758
    56    C    3  py     Ryd( 4p)     0.00017       0.95071
    57    C    3  py     Ryd( 5p)     0.00015       2.82828
    58    C    3  pz     Val( 2p)     1.02896      -0.07708
    59    C    3  pz     Ryd( 3p)     0.00379       0.71772
    60    C    3  pz     Ryd( 4p)     0.00018       0.88470
    61    C    3  pz     Ryd( 5p)     0.00010       2.72265
    62    C    3  dxy    Ryd( 3d)     0.00077       2.25000
    63    C    3  dxz    Ryd( 3d)     0.00070       2.10708
    64    C    3  dyz    Ryd( 3d)     0.00047       2.16058
    65    C    3  dx2y2  Ryd( 3d)     0.00069       2.12287
    66    C    3  dz2    Ryd( 3d)     0.00064       1.84411

    67    C    4  S      Cor( 1S)     1.99919     -10.02850
    68    C    4  S      Val( 2S)     0.95147      -0.15854
    69    C    4  S      Ryd( 3S)     0.00141       0.83679
    70    C    4  S      Ryd( 4S)     0.00017       0.92333
    71    C    4  S      Ryd( 5S)     0.00000      22.82056
    72    C    4  px     Val( 2p)     1.07872      -0.04677
    73    C    4  px     Ryd( 4p)     0.00448       0.80405
    74    C    4  px     Ryd( 3p)     0.00044       0.34833
    75    C    4  px     Ryd( 5p)     0.00012       3.07815
    76    C    4  py     Val( 2p)     1.07150      -0.06509
    77    C    4  py     Ryd( 4p)     0.00423       0.77234
    78    C    4  py     Ryd( 3p)     0.00033       0.33945
    79    C    4  py     Ryd( 5p)     0.00007       2.98656
    80    C    4  pz     Val( 2p)     1.06917      -0.07787
    81    C    4  pz     Ryd( 4p)     0.00386       0.74657
    82    C    4  pz     Ryd( 3p)     0.00028       0.31557
    83    C    4  pz     Ryd( 5p)     0.00003       2.91911
    84    C    4  dxy    Ryd( 3d)     0.00063       2.22215
    85    C    4  dxz    Ryd( 3d)     0.00060       2.06628
    86    C    4  dyz    Ryd( 3d)     0.00053       2.12301
    87    C    4  dx2y2  Ryd( 3d)     0.00058       2.20291
    88    C    4  dz2    Ryd( 3d)     0.00040       1.81620

    89    C    5  S      Cor( 1S)     1.99919     -10.02583
    90    C    5  S      Val( 2S)     0.95327      -0.15893
    91    C    5  S      Ryd( 3S)     0.00138       0.76158
    92    C    5  S      Ryd( 4S)     0.00013       1.09448
    93    C    5  S      Ryd( 5S)     0.00000      22.76915
    94    C    5  px     Val( 2p)     1.15385      -0.05118
    95    C    5  px     Ryd( 4p)     0.00586       0.97023
    96    C    5  px     Ryd( 3p)     0.00035       0.30383
    97    C    5  px     Ryd( 5p)     0.00006       3.15803
    98    C    5  py     Val( 2p)     1.05105      -0.06382
    99    C    5  py     Ryd( 4p)     0.00356       0.68859
   100    C    5  py     Ryd( 3p)     0.00048       0.36964
   101    C    5  py     Ryd( 5p)     0.00011       2.94886
   102    C    5  pz     Val( 2p)     1.04261      -0.07692
   103    C    5  pz     Ryd( 4p)     0.00298       0.63870
   104    C    5  pz     Ryd( 3p)     0.00042       0.35681
   105    C    5  pz     Ryd( 5p)     0.00008       2.86338
   106    C    5  dxy    Ryd( 3d)     0.00054       2.22479
   107    C    5  dxz    Ryd( 3d)     0.00048       2.07247
   108    C    5  dyz    Ryd( 3d)     0.00049       2.17812
   109    C    5  dx2y2  Ryd( 3d)     0.00065       2.13369
   110    C    5  dz2    Ryd( 3d)     0.00049       1.83156

   111    H    6  S      Val( 1S)     0.79653       0.05842
   112    H    6  S      Ryd( 2S)     0.00058       0.64145
   113    H    6  S      Ryd( 3S)     0.00017       2.11703
   114    H    6  px     Ryd( 2p)     0.00019       2.09405
   115    H    6  py     Ryd( 2p)     0.00033       2.31931
   116    H    6  pz     Ryd( 2p)     0.00021       1.91285

   117    H    7  S      Val( 1S)     0.79558       0.05836
   118    H    7  S      Ryd( 2S)     0.00069       1.18270
   119    H    7  S      Ryd( 3S)     0.00018       1.61969
   120    H    7  px     Ryd( 2p)     0.00020       2.15137
   121    H    7  py     Ryd( 2p)     0.00027       2.12237
   122    H    7  pz     Ryd( 2p)     0.00030       2.13022

   123    H    8  S      Val( 1S)     0.79669       0.05859
   124    H    8  S      Ryd( 2S)     0.00063       0.64816
   125    H    8  S      Ryd( 3S)     0.00017       2.11819
   126    H    8  px     Ryd( 2p)     0.00020       2.13941
[...]
 6,-0.00087471,-0.00011787,-0.00046192,0.00062207,-0.00008853,0.0003084
 3,-0.00016217,-0.00000745,-0.00025171,0.01103781,0.00011877,-0.0121748
 4,0.00020092,0.00098174,0.00077124,-0.00041693,0.00059283,0.00008299,-
 0.00082534,-0.00467558,-0.00142189,-0.00620819,0.44970705,-0.00228572,
 0.00462159,0.00208025,0.00790019,0.00335410,0.00766393,-0.04911943,-0.
 00234179,-0.08052550,-0.00177996,0.00539731,0.00152442,0.00085791,-0.0
 0087226,0.00010595,0.00065604,0.00023362,0.00011644,0.00216696,-0.0006
 8839,-0.00180779,-0.00070622,-0.00021596,-0.00017048,0.00028075,-0.000
 46146,-0.00050137,0.04241963,-0.00984581,-0.08000831,0.00749228,-0.001
 10365,-0.00798047,-0.00501331,0.00114685,0.00649595,-0.00278196,-0.000
 60237,-0.00067172,0.00037160,-0.00009424,-0.00004322,0.00059557,0.0001
 8861,0.00029711,0.00266900,-0.00005586,-0.00068386,-0.00013201,-0.0002
 1541,0.00016189,-0.00012725,0.00030752,-0.00007148,-0.00032882,-0.0003
 8617,0.00028019,0.05555682,-0.06493548,0.43672043,-0.00152791,-0.00016
 268,0.00110738,-0.00299256,0.00079769,-0.00245019,-0.00579917,-0.03226
 474,-0.01065626,0.00034956,0.00017236,0.00074625,-0.00020139,-0.000557
 66,0.00024358,-0.00037422,-0.00012705,-0.00006287,0.00026772,-0.000403
 35,-0.00023108,0.00002667,0.00000949,-0.00009027,-0.00001202,-0.000056
 01,-0.00005625,0.00310648,0.01375809,0.00320059,0.00015802,-0.00045646
 ,-0.00051890,0.00008374,-0.00061097,-0.00067470,0.00024954,-0.00015522
 ,-0.00010080,-0.00056457,-0.00021555,0.00025897,-0.00002111,0.00021427
 ,0.00004567,-0.00320344,0.00027783,0.00310647,-0.00003695,-0.00023121,
 -0.00021711,0.00011086,-0.00023195,0.00002085,0.00022379,0.00144053,0.
 00054443,-0.06935700,0.00590447,-0.00369389,0.56182271,-0.00060141,0.0
 0010468,0.00006711,0.00162555,0.00092047,-0.00079741,-0.01101469,-0.00
 930331,-0.00640656,-0.00032975,-0.00046341,0.00028433,0.00051802,0.000
 16725,0.00023978,0.00002148,0.00006703,0.00004183,0.00017142,-0.000017
 95,-0.00023495,0.00012714,-0.00004062,-0.00002901,-0.00001726,-0.00005
 291,-0.00002593,0.00576129,-0.00595452,-0.00659706,-0.00079015,0.00030
 724,0.00119480,-0.00044619,0.00045216,0.00070221,-0.00040377,-0.000102
 23,-0.00025079,-0.00004059,-0.00025859,-0.00002817,-0.00001622,0.00003
 741,0.00000171,-0.00039619,0.00021101,0.00068653,-0.00000723,-0.000007
 30,-0.00009810,0.00001990,-0.00006530,-0.00006101,-0.00007964,0.000235
 54,0.00011777,-0.00334480,-0.15596453,-0.02225477,-0.00690497,0.454474
 20,0.00001638,0.00015629,0.00030035,0.00055752,0.00059500,-0.00078480,
 -0.00097537,-0.01031476,-0.00519473,0.00037950,0.00003735,0.00027406,-
 0.00015654,-0.00021980,-0.00012096,-0.00005834,0.00006001,0.00006069,-
 0.00004824,-0.00033983,0.00028954,0.00002798,0.00001668,0.00002647,0.0
 0003278,0.00003533,0.00005200,0.00191923,-0.01586318,-0.00771661,-0.00
 068861,0.00065356,0.00103752,-0.00006836,0.00118882,0.00030904,-0.0003
 4999,-0.00038518,-0.00022126,-0.00002349,-0.00062043,0.00005730,0.0000
 0218,-0.00005710,0.00004570,0.00248170,-0.00005643,-0.00239109,0.00013
 100,-0.00009573,0.00011514,-0.00011357,0.00027136,0.00010000,-0.000071
 63,-0.00121311,-0.00017940,-0.01059198,-0.03770934,-0.08210052,0.00103
 666,-0.04271049,0.53870189,-0.00015250,0.00005403,0.00026613,0.0009207
 3,0.00238256,-0.00084859,-0.01249555,0.01891588,-0.02677463,-0.0003822
 0,0.00130569,-0.00083539,0.00018054,-0.00009663,0.00002334,0.00002737,
 0.00001804,0.00003592,-0.00007742,-0.00106347,0.00034162,-0.00048490,-
 0.00007080,-0.00011282,0.00001836,-0.00008751,0.00002901,0.00296547,-0
 .00919295,0.01135733,-0.00192479,0.00041285,0.00254617,0.00077351,0.00
 011147,-0.00120848,0.00036219,0.00024708,-0.00006614,0.00005766,0.0000
 4306,0.00008465,-0.00072104,0.00005285,-0.00021314,0.00031005,0.000142
 86,-0.00123452,0.00004415,0.00043801,0.00009746,-0.00003259,-0.0000620
 0,-0.00003301,-0.00009869,-0.00028377,-0.00022361,-0.05128710,0.025310
 75,-0.03428008,0.00018692,-0.00141699,0.00161962,0.06568337,0.00031759
 ,-0.00006113,-0.00053804,-0.00215211,0.00012691,-0.00140602,-0.0009091
 8,0.00279359,-0.00455070,-0.00007209,0.00028161,0.00010361,-0.00016239
 ,-0.00005069,-0.00004007,0.00004217,0.00001159,0.00001621,-0.00026153,
 0.00048080,0.00019903,-0.00000518,-0.00003420,-0.00007594,-0.00002268,
 0.00005957,0.00006594,-0.00068263,0.00120077,-0.00210401,0.00062537,0.
 00031680,-0.00090452,-0.00037260,-0.00008778,0.00028132,-0.00015801,0.
 00001691,-0.00011760,0.00004496,0.00000855,0.00000716,-0.00014545,0.00
 007994,0.00002049,-0.00038609,0.00013127,0.00044404,0.00000658,0.00001
 744,-0.00001901,-0.00000177,0.00000626,-0.00004108,0.00001004,0.000180
 76,0.00011043,0.03413764,-0.13384322,0.11308873,0.00526616,-0.02322635
 ,0.02338756,-0.03302846,0.15427799,-0.00047717,-0.00029986,0.00004517,
 0.00185203,0.00118006,0.00053570,-0.00152175,0.00574034,-0.00901183,0.
 00044882,0.00109502,0.00014612,0.00001159,-0.00049132,0.00039821,-0.00
 002624,-0.00003925,-0.00004828,-0.00020659,-0.00090710,0.00043309,-0.0
 0012608,-0.00010624,-0.00015030,0.00002473,-0.00009660,0.00000852,-0.0
 0395644,0.01101067,-0.01459429,0.00224084,-0.00060863,-0.00197673,-0.0
 0020082,-0.00051415,0.00107401,-0.00020953,-0.00026517,0.00009212,-0.0
 0016962,-0.00009829,0.00000088,0.00066741,0.00002275,0.00031832,-0.000
 25235,-0.00041728,0.00119714,0.00013392,-0.00090803,-0.00022554,0.0000
 1157,0.00016902,0.00008516,0.00012600,0.00010330,0.00037402,-0.0496302
 2,0.12172829,-0.19244955,0.00285605,-0.00902055,0.00869411,0.05055876,
 -0.12468415,0.20303694,-0.00022821,0.00006228,-0.00004254,0.00031302,0
 .00019542,-0.00039613,0.00068329,-0.00057684,-0.00004854,0.00019963,-0
 .00003394,0.00003206,-0.00005041,-0.00015824,0.00008137,-0.00003024,-0
 .00000278,0.00001913,0.00000198,-0.00003790,0.00000628,-0.00001453,0.0
 0001870,-0.00000512,-0.00002148,-0.00001011,0.00000295,-0.00073796,-0.
 00020918,0.00012595,0.00013690,-0.00000808,-0.00001162,-0.00032980,0.0
 0000914,0.00037663,0.00000649,0.00018661,0.00008461,-0.00013980,0.0005
 3733,0.00040500,0.00002499,0.00000365,-0.00005864,0.00021175,-0.000034
 15,-0.00011362,-0.00001471,-0.00000301,0.00000829,-0.00000175,0.000056
 89,0.00003910,0.00001546,-0.00005956,-0.00003762,0.00007732,0.00001676
 ,0.00043681,-0.25998199,-0.03646032,-0.09322756,0.00026971,-0.00050508
 ,0.00026520,0.28250587,-0.00023484,-0.00000094,0.00042456,-0.00115118,
 0.00006213,-0.00071661,0.00151811,-0.00593475,-0.00143022,-0.00004707,
 0.00027899,0.00008309,-0.00011962,-0.00013371,-0.00006685,-0.00013368,
 -0.00004400,-0.00001791,0.00008757,-0.00013038,-0.00007004,-0.00005313
 ,0.00000738,-0.00002485,0.00001113,-0.00000215,-0.00004263,-0.00130665
 ,-0.00011652,-0.00088606,0.00018951,0.00000952,-0.00003033,-0.00009640
 ,0.00003781,0.00022782,-0.00002343,0.00007358,0.00012428,0.00035778,0.
 00025182,-0.00018118,0.00018709,-0.00018977,0.00002500,0.00009505,0.00
 001530,0.00013534,-0.00001503,-0.00003670,-0.00001253,0.00001217,0.000
 08161,0.00006445,0.00003164,0.00001699,0.00001147,-0.02751889,-0.00508
 293,-0.01276797,-0.03576079,-0.05201063,-0.01546186,-0.00015836,0.0011
 5352,0.00078752,0.03999738,0.05801664,-0.00016057,-0.00010525,0.000098
 35,-0.00042958,0.00001095,-0.00032654,0.00045769,-0.00200632,0.0002289
 3,0.00013537,-0.00012196,0.00001935,-0.00007959,-0.00011064,0.00003118
 ,-0.00006241,-0.00000874,0.00000590,0.00003704,-0.00003828,0.00000914,
 -0.00001176,0.00000650,-0.00002515,-0.00002999,-0.00000889,0.00001600,
 -0.00187647,-0.00102931,-0.00092155,0.00031860,-0.00000729,-0.00001242
 ,-0.00013771,-0.00029957,0.00028168,-0.00002984,0.00030385,0.00007349,
 0.00076810,0.00026357,-0.00012253,0.00000263,0.00007961,-0.00002427,0.
 00026572,0.00003263,0.00007422,-0.00001881,0.00000208,-0.00000919,0.00
 001308,0.00010873,0.00005531,0.00000433,-0.00002086,-0.00001472,-0.008
 41543,-0.00010026,-0.00502003,-0.09218430,-0.01651703,-0.08796556,0.00
 036274,0.00015219,0.00066789,0.10219744,0.01968920,0.09182074,0.000112
 50,0.00005093,0.00001491,-0.00015689,-0.00005710,0.00000480,0.00036405
 ,0.00007004,0.00080704,-0.00008918,0.00004559,-0.00005280,0.00001948,0
 .00006079,-0.00003654,0.00001257,0.00001008,-0.00000704,-0.00001372,0.
 00004841,-0.00004194,0.00001370,-0.00002091,-0.00001213,0.00001303,0.0
 0002230,-0.00000842,0.00016664,0.00133740,-0.00074292,0.00003453,-0.00
 023347,-0.00004354,-0.00002045,-0.00003515,0.00024821,-0.00003251,-0.0
 0003903,0.00005407,-0.00015284,0.00002081,-0.00015143,0.00015152,-0.00
 014166,0.00000886,-0.00004196,-0.00010078,0.00014445,0.00000100,-0.000
 07222,-0.00000936,-0.00000622,-0.00002272,-0.00002244,-0.00000052,0.00
 001886,0.00001123,-0.00062900,-0.00115314,0.00134612,-0.05243172,0.024
 57122,-0.02639651,0.00062762,-0.00042335,0.00004006,-0.00347227,0.0202
 9766,-0.02212949,0.05284465,0.00032062,0.00010238,0.00016895,-0.000648
 80,-0.00040785,0.00006819,0.00144950,0.00105511,0.00064866,-0.00045964
 ,0.00031391,-0.00024610,0.00005676,0.00028697,-0.00021154,-0.00000832,
 -0.00001982,-0.00001978,0.00004015,0.00020367,-0.00016774,-0.00004795,
 -0.00001755,0.00000113,0.00003263,0.00003751,-0.00006669,-0.00038177,-
 0.00114668,0.00237134,0.00008590,0.00044591,-0.00042213,0.00020073,0.0
 0008012,-0.00040966,0.00010147,0.00003523,0.00003697,0.00010236,-0.000
 00956,0.00004652,-0.00017350,0.00002454,-0.00002142,-0.00003079,0.0001
 2158,-0.00042628,-0.00002766,0.00023493,0.00006864,0.00000332,-0.00001
 878,0.00000396,-0.00002355,-0.00003742,-0.00004887,0.00567020,-0.02073
 066,0.02029880,0.02386669,-0.15948214,0.12612735,-0.00076489,-0.005620
 79,-0.00279470,0.00000399,0.00375407,-0.00428176,-0.02772000,0.1774078
 6,-0.00003281,-0.00002970,-0.00004801,-0.00004205,0.00010056,0.0001245
 6,-0.00056148,0.00051639,0.00033020,0.00011370,-0.00016334,-0.00004745
 ,-0.00000209,0.00004648,0.00007419,0.00001787,-0.00001022,-0.00001209,
 0.00004650,0.00002070,-0.00002207,0.00002513,-0.00001297,-0.00001184,-
 0.00002209,0.00000182,0.00001494,0.00053878,-0.00051947,0.00082240,-0.
 00030127,0.00009279,0.00017369,-0.00007796,0.00007655,0.00005073,0.000
 00498,0.00002690,0.00002021,-0.00000489,0.00005106,-0.00005768,-0.0000
 1382,-0.00007265,-0.00001962,-0.00007952,-0.00001183,0.00012534,-0.000
 00718,0.00002244,-0.00005394,0.00000584,-0.00000571,-0.00000404,-0.000
 00074,0.00005665,0.00000005,0.00287738,-0.00774380,0.00980936,-0.02664
 089,0.12649778,-0.18749000,-0.00024992,-0.00321651,0.00025208,-0.00107
 610,0.00747701,-0.00967695,0.03074856,-0.13703968,0.20357296,-0.000021
 46,0.00007175,0.00008082,0.00036099,0.00000590,0.00026297,0.00131951,-
 0.00026870,-0.00131469,-0.00017481,0.00002108,0.00005083,0.00012829,0.
 00006364,-0.00003953,0.00002918,0.00002726,0.00001296,0.00000639,-0.00
 001629,-0.00004349,0.00001437,-0.00000601,0.00001393,0.00001649,-0.000
 00539,-0.00001226,-0.00014465,-0.00077319,-0.00100261,0.00002768,0.000
 01087,0.00011562,-0.00008506,-0.00009878,0.00016506,0.00000262,0.00015
 136,0.00005327,0.00028864,0.00021918,-0.00002163,0.00000865,0.00002462
 ,-0.00002078,0.00025407,-0.00011432,-0.00003906,0.00000032,-0.00000459
 ,-0.00000404,0.00001611,0.00008832,0.00002960,0.00003918,-0.00005343,-
 0.00002313,0.00236995,-0.00031404,-0.00263384,-0.16970720,0.02731541,0
 .12575717,-0.00017151,0.00058431,-0.00001563,-0.01953757,0.00391450,0.
 02097973,0.00351363,-0.00137750,-0.00420037,0.18117210,0.00013054,-0.0
 0005605,0.00001573,-0.00028278,-0.00014904,0.00043044,0.00216134,0.001
 92765,0.00063890,0.00000411,0.00000699,-0.00010820,-0.00002924,0.00004
 260,-0.00006984,0.00001585,-0.00000832,-0.00001430,0.00002947,-0.00007
 528,-0.00001158,-0.00000785,-0.00001121,-0.00000404,0.00000558,0.00000
 989,0.00001117,-0.00244330,-0.00406039,0.00065036,0.00013985,0.0004206
 3,-0.00022135,0.00004343,0.00019248,-0.00001540,0.00003340,0.00010061,
 0.00003526,0.00024266,0.00011510,0.00005440,-0.00004277,0.00000616,-0.
 00000785,0.00133961,-0.00000459,-0.00142226,0.00002283,0.00009337,0.00
 011006,-0.00005213,0.00010932,0.00001895,-0.00008413,-0.00064882,-0.00
 017905,0.01942805,-0.01127412,-0.02461435,0.02784653,-0.05018973,-0.02
 698806,0.00020071,0.00132540,0.00045255,-0.00280529,-0.00001690,0.0039
 5967,-0.01583618,0.00336286,0.01452369,-0.02965215,0.05855013,0.000275
 10,-0.00004404,0.00006166,-0.00059788,-0.00040716,0.00009569,0.0011944
 8,0.00064667,0.00072997,-0.00027174,-0.00015394,0.00000852,-0.00011298
 ,0.00014070,-0.00018479,-0.00000317,-0.00000543,-0.00000464,0.00000519
 ,0.00005194,-0.00003570,-0.00000334,-0.00001384,-0.00003140,-0.0000056
 1,0.00000696,0.00000387,-0.00146998,-0.00104656,0.00086269,-0.00004138
 ,-0.00002433,0.00005353,0.00007161,0.00000699,0.00010319,0.00004575,0.
 00008591,0.00002775,0.00007991,0.00012544,-0.00003507,0.00000825,-0.00
 003614,-0.00001854,0.00063468,0.00003618,-0.00033530,0.00001062,-0.000
 05243,0.00001170,-0.00003862,0.00002507,-0.00001730,-0.00004627,-0.000
 26760,-0.00007826,0.00594815,-0.00520118,-0.00781612,0.12538091,-0.026
 11058,-0.17615799,-0.00046089,0.00004247,0.00079282,-0.00924041,0.0026
 0714,0.01042188,0.01712371,-0.00356090,-0.01708897,-0.13835869,0.03269
 267,0.18870655,-0.04490495,0.01156681,-0.02888270,0.05261574,0.0295730
 7,0.00281584,-0.15744336,0.01512615,-0.05577431,-0.29134818,-0.0373080
 1,-0.09345863,-0.02010670,-0.06535567,0.03110756,-0.00086307,0.0006009
 3,-0.00038690,0.00049849,-0.00444538,0.00019991,-0.00945977,-0.0051373
 6,-0.00308262,0.00178028,-0.00269657,-0.00060292,0.00048273,-0.0000206
 9,-0.00375802,-0.00008834,0.00000198,0.00003963,-0.00037053,0.00038331
 ,0.00066398,-0.00030858,-0.00008635,-0.00006211,0.00006110,-0.00003994
 ,-0.00001256,0.00005530,-0.00002401,0.00001109,-0.00002143,0.00027440,
 0.00013129,-0.00012785,-0.00009816,-0.00000354,0.00013985,0.00002162,0
 .00022282,0.00014327,0.00014826,0.00009668,-0.01976012,0.01626972,-0.0
 2126383,-0.00011162,0.00212366,-0.00067301,-0.00476403,-0.00172565,-0.
 00271214,0.00017385,-0.00016853,-0.00008935,-0.00025077,-0.00003671,-0
 .00001672,0.00019646,-0.00034207,-0.00031961,0.59758270,0.00991726,-0.
 00484902,0.00463947,-0.00177937,-0.03097470,0.02672485,0.05852511,-0.1
 6997517,0.10223006,-0.08578466,-0.12189863,-0.00211269,-0.02994178,0.0
 0079896,-0.01063568,0.00067197,0.00019969,-0.00052273,-0.00374871,-0.0
 0195404,0.00376282,0.01831825,0.00781721,0.00638432,-0.00348348,-0.002
 04632,0.00443413,-0.00000896,0.00154130,-0.00182143,0.00061378,-0.0006
 4991,0.00037198,-0.00028901,-0.00013412,0.00053026,-0.00016279,-0.0000
 2231,-0.00001608,-0.00000171,0.00000014,-0.00002462,0.00019201,0.00001
 413,0.00005980,-0.00009997,-0.00017868,0.00054657,-0.00000541,-0.00013
 973,-0.00006093,-0.00001041,-0.00010344,-0.00011229,-0.00008694,0.0000
 8812,-0.00000286,0.00034708,0.00961947,-0.00496056,-0.00091612,0.00034
 873,-0.00039760,-0.00351930,0.00052413,-0.00083697,-0.00019021,-0.0002
 4759,0.00006241,-0.00039862,-0.00040577,-0.00023880,0.00017852,0.00023
 369,0.00049712,0.14130002,0.55378360,-0.02780708,0.00542837,-0.0240133
 7,0.02495389,0.04286837,-0.00924718,-0.08723397,0.07898387,-0.16805752
 ,-0.05945862,0.02348598,-0.10861537,0.00670705,-0.02910674,0.03164582,
 -0.00042244,-0.00050136,-0.00079223,-0.00041440,0.00356891,0.00375047,
 -0.01951391,-0.00578895,-0.00267393,-0.00019612,0.00485920,0.00349904,
 0.00001102,-0.00102453,-0.00138403,-0.00006221,0.00013453,0.00027808,0
 .00003357,0.00007905,0.00027389,-0.00003326,-0.00002403,-0.00003729,0.
 00006268,0.00002739,0.00001848,0.00005523,0.00000550,-0.00000200,-0.00
 005994,0.00001965,-0.00005259,0.00006093,-0.00000466,0.00007595,0.0001
 9120,0.00033235,0.00022410,0.00016929,0.00007304,0.00008082,-0.0110476
 0,0.00304823,-0.00406901,-0.00089618,0.00082466,0.00068732,-0.00082250
 ,0.00003084,0.00038175,0.00000483,0.00043234,-0.00003479,0.00001640,0.
 00064642,-0.00059427,0.00027153,0.00008518,-0.00001482,0.14032828,-0.2
 2064277,0.36127736,-0.00078394,0.00062038,-0.00035126,-0.00005593,0.00
 083283,-0.00412366,0.01055477,0.01281843,-0.00533457,-0.00832448,-0.02
 534359,0.01185983,-0.00357815,-0.00180218,-0.00442876,-0.00011113,0.00
 017936,0.00039209,0.00035080,0.00077141,-0.00041951,0.00023153,0.00136
 659,0.00135159,-0.00048874,-0.00124722,0.00046079,-0.00062728,0.000569
 03,-0.00026328,-0.00024543,-0.00005049,0.00011199,0.00002248,-0.000116
 06,0.00010221,0.00000564,-0.00000645,-0.00001258,-0.00002339,0.0000025
 0,-0.00000536,0.00005298,0.00000411,0.00002085,0.00005702,-0.00009127,
 0.00007234,0.00000783,-0.00004238,-0.00001628,-0.00000629,0.00001164,-
 0.00000199,0.00000470,-0.00000717,-0.00000724,-0.00016338,0.00026590,0
 .00139665,-0.00026314,0.00001510,-0.00051852,0.00016468,-0.00002054,0.
 00026760,-0.00005954,0.00008799,0.00011282,-0.00057689,-0.00023323,-0.
 00104886,0.00007761,-0.00006606,0.00019221,-0.10380049,-0.09963654,0.0
 3510232,0.10757815,0.00067589,0.00016018,-0.00040204,0.00147875,0.0012
 7553,0.00456454,-0.00915935,-0.01157865,0.00564844,-0.00153842,-0.0032
 9706,0.00378160,-0.00254683,0.00333219,0.00148126,0.00016088,-0.000357
 84,-0.00042904,-0.00049582,-0.00064593,0.00031571,0.00080668,-0.000528
 46,-0.00213351,-0.00006541,-0.00021923,0.00028901,0.00057032,-0.000824
 03,0.00131671,-0.00043044,0.00028525,-0.00032077,0.00006566,0.00019961
 ,-0.00040580,0.00007407,0.00001812,0.00004367,0.00001465,-0.00000364,0
 .00000810,-0.00014186,-0.00002777,-0.00004222,-0.00000074,0.00016222,-
 0.00024205,-0.00002857,0.00010154,0.00001601,-0.00000948,-0.00003954,0
 .00004760,0.00001299,-0.00003010,-0.00000977,0.00001962,-0.00057844,-0
 .00222066,-0.00049937,-0.00018623,-0.00009640,0.00010932,-0.00006965,-
 0.00020124,0.00000652,0.00018763,-0.00001520,-0.00029976,0.00043037,-0
 .00044612,0.00000766,-0.00000242,-0.00004114,-0.09990485,-0.24138973,0
 .09215915,0.11111790,0.25362607,-0.00038558,-0.00043781,-0.00083615,-0
 .00457521,0.00427486,0.00140931,0.00976986,0.01704478,-0.00343834,-0.0
 0491913,-0.00861226,0.00663266,-0.00388943,0.00185295,0.00401933,0.000
 39888,-0.00043161,-0.00060199,0.00046149,0.00095449,-0.00024536,0.0016
 9761,-0.00184827,-0.00198619,-0.00034697,-0.00032585,0.00028841,0.0000
 2769,0.00042257,0.00038052,0.00029688,-0.00014132,-0.00019053,0.000062
 47,0.00002524,-0.00013856,0.00002928,-0.00000473,0.00000445,-0.0000452
 6,-0.00002460,0.00000303,-0.00003891,0.00000401,-0.00000870,0.00002877
 ,-0.00001755,-0.00004621,0.00000079,-0.00000911,-0.00000239,-0.0000207
 6,-0.00004680,-0.00003048,-0.00001605,-0.00003711,-0.00000734,0.001731
 57,-0.00117722,-0.00133649,-0.00007414,0.00048390,-0.00042821,0.000040
 95,-0.00025236,-0.00007752,0.00017226,-0.00038016,0.00034967,-0.000913
 84,-0.00076967,-0.00024376,-0.00006373,-0.00002273,-0.00006092,0.03548
 191,0.09214222,-0.08260468,-0.03491142,-0.10266585,0.07919645\\0.00000
 015,-0.00000262,0.00000236,0.00000359,-0.00000400,-0.00000178,-0.00000
 082,0.00001514,0.00000240,0.00000030,-0.00000314,0.00000327,-0.0000005
 8,-0.00000688,0.00000316,0.00000499,-0.00000467,0.00000369,0.00000123,
 -0.00000300,0.00000209,-0.00000342,-0.00000408,0.00000137,0.00000047,-
 0.00000367,0.00000063,-0.00000688,0.00000162,0.00000764,-0.00000239,0.
 00000109,-0.00000342,0.00000506,0.00000576,0.00000171,-0.00000287,0.00
 000446,-0.00000455,-0.00000144,0.00000392,-0.00000294,-0.00000183,0.00
 000351,-0.00000229,0.00000162,-0.00000408,-0.00000305,0.00000355,0.000
 00429,0.00000099,0.00000088,0.00000177,-0.00000043,0.00000100,0.000004
 67,-0.00000124,0.00000431,-0.00000285,-0.00001298,-0.00000234,0.000000
 55,0.00000094,0.00000178,-0.00000210,0.00000088,-0.00000110,0.00000381
 ,-0.00000041,-0.00000210,0.00000160,-0.00000214,-0.00000181,-0.0000001
 5,0.00000072,0.00000132,-0.00001162,0.00000464,-0.00000270,0.00000067,
 -0.00000125\\\@


 SUCCESS IS COUNTED SWEETEST
 BY THOSE WHO NE'ER SUCCEED.
 TO COMPREHEND NECTAR
 REQUIRES SOREST NEED.
           EMILY DICKINSON
 Job cpu time:       0 days  1 hours 46 minutes  9.2 seconds.
 File lengths (MBytes):  RWF=    311 Int=      0 D2E=      0 Chk=     11 Scr=      1
 Normal termination of Gaussian 09 at Wed Jul 28 11:39:51 2021.
