 Entering Gaussian System, Link 0=g09
 Initial command:
 /cm/shared/apps/gaussian/g09revD.01/g09/l1.exe "//home/sweav003/CHB/validation/G09-Traceless7_Smith.com.o9822905.tmp/Gau-66678.inp" -scrdir="//home/sweav003/CHB/validation/G09-Traceless7_Smith.com.o9822905.tmp/"
 Entering Link 1 = /cm/shared/apps/gaussian/g09revD.01/g09/l1.exe PID=     66679.
  
 Copyright (c) 1988,1990,1992,1993,1995,1998,2003,2009,2013,
            Gaussian, Inc.  All Rights Reserved.
  
 This is part of the Gaussian(R) 09 program.  It is based on
 the Gaussian(R) 03 system (copyright 2003, Gaussian, Inc.),
 the Gaussian(R) 98 system (copyright 1998, Gaussian, Inc.),
 the Gaussian(R) 94 system (copyright 1995, Gaussian, Inc.),
 the Gaussian 92(TM) system (copyright 1992, Gaussian, Inc.),
 the Gaussian 90(TM) system (copyright 1990, Gaussian, Inc.),
 the Gaussian 88(TM) system (copyright 1988, Gaussian, Inc.),
 the Gaussian 86(TM) system (copyright 1986, Carnegie Mellon
 University), and the Gaussian 82(TM) system (copyright 1983,
 Carnegie Mellon University). Gaussian is a federally registered
 trademark of Gaussian, Inc.
  
 This software contains proprietary and confidential information,
 including trade secrets, belonging to Gaussian, Inc.
  
 This software is provided under written license and may be
 used, copied, transmitted, or stored only in accord with that
 written license.
  
 The following legend is applicable only to US Government
 contracts under FAR:
  
                    RESTRICTED RIGHTS LEGEND
  
 Use, reproduction and disclosure by the US Government is
 subject to restrictions as set forth in subparagraphs (a)
 and (c) of the Commercial Computer Software - Restricted
 Rights clause in FAR 52.227-19.
  
 Gaussian, Inc.
 340 Quinnipiac St., Bldg. 40, Wallingford CT 06492
  
  
 ---------------------------------------------------------------
 Warning -- This program may not be used in any manner that
 competes with the business of Gaussian, Inc. or will provide
 assistance to any competitor of Gaussian, Inc.  The licensee
 of this program is prohibited from giving any competitor of
 Gaussian, Inc. access to this program.  By using this program,
 the user acknowledges that Gaussian, Inc. is engaged in the
 business of creating and licensing software in the field of
 computational chemistry and represents and warrants to the
 licensee that it is not a competitor of Gaussian, Inc. and that
 it will not use this program in any manner prohibited above.
 ---------------------------------------------------------------
  

 Cite this work as:
 Gaussian 09, Revision D.01,
 M. J. Frisch, G. W. Trucks, H. B. Schlegel, G. E. Scuseria, 
 M. A. Robb, J. R. Cheeseman, G. Scalmani, V. Barone, B. Mennucci, 
 G. A. Petersson, H. Nakatsuji, M. Caricato, X. Li, H. P. Hratchian, 
 A. F. Izmaylov, J. Bloino, G. Zheng, J. L. Sonnenberg, M. Hada, 
 M. Ehara, K. Toyota, R. Fukuda, J. Hasegawa, M. Ishida, T. Nakajima, 
 Y. Honda, O. Kitao, H. Nakai, T. Vreven, J. A. Montgomery, Jr., 
 J. E. Peralta, F. Ogliaro, M. Bearpark, J. J. Heyd, E. Brothers, 
 K. N. Kudin, V. N. Staroverov, T. Keith, R. Kobayashi, J. Normand, 
 K. Raghavachari, A. Rendell, J. C. Burant, S. S. Iyengar, J. Tomasi, 
 M. Cossi, N. Rega, J. M. Millam, M. Klene, J. E. Knox, J. B. Cross, 
 V. Bakken, C. Adamo, J. Jaramillo, R. Gomperts, R. E. Stratmann, 
 O. Yazyev, A. J. Austin, R. Cammi, C. Pomelli, J. W. Ochterski, 
 R. L. Martin, K. Morokuma, V. G. Zakrzewski, G. A. Voth, 
 P. Salvador, J. J. Dannenberg, S. Dapprich, A. D. Daniels, 
 O. Farkas, J. B. Foresman, J. V. Ortiz, J. Cioslowski, 
 and D. J. Fox, Gaussian, Inc., Wallingford CT, 2013.
 
 ******************************************
 Gaussian 09:  ES64L-G09RevD.01 24-Apr-2013
                 9-Jan-2023 
 ******************************************
 %nprocshared=20
 Will use up to   20 processors via shared memory.
 %mem=4GB
 %chk=Traceless7_Smith.chk
 ----------------------------------------------------------------------
 # opt freq b3lyp/6-311+g(d,p) geom=connectivity pop=(hirshfeld,chelpg,
 mbs,npa)
 ----------------------------------------------------------------------
 1/14=-1,18=20,19=15,26=3,38=1,57=2/1,3;
 2/9=110,12=2,17=6,18=5,40=1/2;
 3/5=4,6=6,7=111,11=2,16=1,25=1,30=1,71=1,74=-5/1,2,3;
 4//1;
 5/5=2,38=5/2;
 6/7=2,8=2,9=2,10=2,15=8,20=3,27=100,28=1,40=-1,79=1/1,2,7;
 7//1,2,3,16;
 1/14=-1,18=20,19=15,26=3/3(2);
 2/9=110/2;
 99//99;
 2/9=110/2;
 3/5=4,6=6,7=111,11=2,16=1,25=1,30=1,71=1,74=-5/1,2,3;
 4/5=5,16=3,69=1/1;
 5/5=2,38=5/2;
 7//1,2,3,16;
 1/14=-1,18=20,19=15,26=3/3(-5);
 2/9=110/2;
 6/7=2,8=2,9=2,10=2,15=8,19=2,20=3,27=100,28=1,40=-1,79=1/1,2,7;
 99/9=1/99;
 -------------------
 Title Card Required
 -------------------
 Symbolic Z-matrix:
 Charge =  0 Multiplicity = 1
 C                    -1.96154  -1.2356    0. 
 C                    -0.77197  -1.96457   0. 
 C                     0.45383  -1.29925   0. 
 C                     0.49042   0.09569  -0.0012 
 C                    -0.6989    0.82442  -0.00168 
 C                    -1.92499   0.15875  -0.00068 
 H                     1.3915   -1.87377   0.00063 
 H                     1.45704   0.62005  -0.00126 
 H                    -2.86246   0.73345  -0.00086 
 N                    -0.66079   2.29393  -0.00295 
 H                    -0.1826    2.61568   0.81424 
 H                    -0.17921   2.61418  -0.81875 
 H                    -2.90188  -1.74615   0.00052 
 O                    -0.80951  -3.39408   0. 
 C                    -0.83457  -3.87093   1.34792 
 H                    -0.85333  -4.94076   1.34748 
 H                     0.03888  -3.52973   1.86325 
 H                    -1.70802  -3.49909   1.84161 
 

 GradGradGradGradGradGradGradGradGradGradGradGradGradGradGradGradGradGrad
 Berny optimization.
 Initialization pass.
                           ----------------------------
                           !    Initial Parameters    !
                           ! (Angstroms and Degrees)  !
 --------------------------                            --------------------------
 ! Name  Definition              Value          Derivative Info.                !
 --------------------------------------------------------------------------------
 ! R1    R(1,2)                  1.3952         estimate D2E/DX2                !
 ! R2    R(1,6)                  1.3948         estimate D2E/DX2                !
 ! R3    R(1,13)                 1.07           estimate D2E/DX2                !
 ! R4    R(2,3)                  1.3947         estimate D2E/DX2                !
 ! R5    R(2,14)                 1.43           estimate D2E/DX2                !
 ! R6    R(3,4)                  1.3954         estimate D2E/DX2                !
 ! R7    R(3,7)                  1.0997         estimate D2E/DX2                !
 ! R8    R(4,5)                  1.3948         estimate D2E/DX2                !
 ! R9    R(4,8)                  1.0997         estimate D2E/DX2                !
 ! R10   R(5,6)                  1.3951         estimate D2E/DX2                !
 ! R11   R(5,10)                 1.47           estimate D2E/DX2                !
 ! R12   R(6,9)                  1.0996         estimate D2E/DX2                !
 ! R13   R(10,11)                1.0            estimate D2E/DX2                !
 ! R14   R(10,12)                1.0            estimate D2E/DX2                !
 ! R15   R(14,15)                1.43           estimate D2E/DX2                !
 ! R16   R(15,16)                1.07           estimate D2E/DX2                !
 ! R17   R(15,17)                1.07           estimate D2E/DX2                !
 ! R18   R(15,18)                1.07           estimate D2E/DX2                !
 ! A1    A(2,1,6)              119.9985         estimate D2E/DX2                !
 ! A2    A(2,1,13)             120.0008         estimate D2E/DX2                !
 ! A3    A(6,1,13)             120.0008         estimate D2E/DX2                !
 ! A4    A(1,2,3)              120.0086         estimate D2E/DX2                !
 ! A5    A(1,2,14)             119.9957         estimate D2E/DX2                !
 ! A6    A(3,2,14)             119.9957         estimate D2E/DX2                !
 ! A7    A(2,3,4)              119.9942         estimate D2E/DX2                !
 ! A8    A(2,3,7)              120.0128         estimate D2E/DX2                !
 ! A9    A(4,3,7)              119.993          estimate D2E/DX2                !
 ! A10   A(3,4,5)              119.994          estimate D2E/DX2                !
 ! A11   A(3,4,8)              119.9811         estimate D2E/DX2                !
 ! A12   A(5,4,8)              120.0249         estimate D2E/DX2                !
 ! A13   A(4,5,6)              120.0047         estimate D2E/DX2                !
 ! A14   A(4,5,10)             120.0113         estimate D2E/DX2                !
 ! A15   A(6,5,10)             119.984          estimate D2E/DX2                !
 ! A16   A(1,6,5)              120.0            estimate D2E/DX2                !
 ! A17   A(1,6,9)              120.008          estimate D2E/DX2                !
 ! A18   A(5,6,9)              119.992          estimate D2E/DX2                !
 ! A19   A(5,10,11)            109.4712         estimate D2E/DX2                !
 ! A20   A(5,10,12)            109.4712         estimate D2E/DX2                !
 ! A21   A(11,10,12)           109.4713         estimate D2E/DX2                !
 ! A22   A(2,14,15)            109.5            estimate D2E/DX2                !
 ! A23   A(14,15,16)           109.4712         estimate D2E/DX2                !
 ! A24   A(14,15,17)           109.4712         estimate D2E/DX2                !
 ! A25   A(14,15,18)           109.4712         estimate D2E/DX2                !
 ! A26   A(16,15,17)           109.4713         estimate D2E/DX2                !
 ! A27   A(16,15,18)           109.4712         estimate D2E/DX2                !
 ! A28   A(17,15,18)           109.4712         estimate D2E/DX2                !
 ! D1    D(6,1,2,3)              0.0323         estimate D2E/DX2                !
 ! D2    D(6,1,2,14)          -179.9677         estimate D2E/DX2                !
 ! D3    D(13,1,2,3)          -179.9677         estimate D2E/DX2                !
 ! D4    D(13,1,2,14)            0.0323         estimate D2E/DX2                !
 ! D5    D(2,1,6,5)              0.0149         estimate D2E/DX2                !
 ! D6    D(2,1,6,9)            179.9892         estimate D2E/DX2                !
 ! D7    D(13,1,6,5)          -179.9851         estimate D2E/DX2                !
 ! D8    D(13,1,6,9)            -0.0108         estimate D2E/DX2                !
 ! D9    D(1,2,3,4)             -0.0568         estimate D2E/DX2                !
 ! D10   D(1,2,3,7)            179.9619         estimate D2E/DX2                !
 ! D11   D(14,2,3,4)           179.9432         estimate D2E/DX2                !
 ! D12   D(14,2,3,7)            -0.0381         estimate D2E/DX2                !
 ! D13   D(1,2,14,15)          -89.4672         estimate D2E/DX2                !
 ! D14   D(3,2,14,15)           90.5328         estimate D2E/DX2                !
 ! D15   D(2,3,4,5)              0.0341         estimate D2E/DX2                !
 ! D16   D(2,3,4,8)           -179.9964         estimate D2E/DX2                !
 ! D17   D(7,3,4,5)           -179.9846         estimate D2E/DX2                !
 ! D18   D(7,3,4,8)             -0.0151         estimate D2E/DX2                !
 ! D19   D(3,4,5,6)              0.0131         estimate D2E/DX2                !
 ! D20   D(3,4,5,10)          -179.9995         estimate D2E/DX2                !
 ! D21   D(8,4,5,6)           -179.9563         estimate D2E/DX2                !
 ! D22   D(8,4,5,10)             0.0311         estimate D2E/DX2                !
 ! D23   D(4,5,6,1)             -0.0376         estimate D2E/DX2                !
 ! D24   D(4,5,6,9)            179.9881         estimate D2E/DX2                !
 ! D25   D(10,5,6,1)           179.975          estimate D2E/DX2                !
 ! D26   D(10,5,6,9)             0.0007         estimate D2E/DX2                !
 ! D27   D(4,5,10,11)          -60.1262         estimate D2E/DX2                !
 ! D28   D(4,5,10,12)           59.8738         estimate D2E/DX2                !
 ! D29   D(6,5,10,11)          119.8611         estimate D2E/DX2                !
 ! D30   D(6,5,10,12)         -120.1389         estimate D2E/DX2                !
 ! D31   D(2,14,15,16)        -179.4699         estimate D2E/DX2                !
 ! D32   D(2,14,15,17)         -59.4699         estimate D2E/DX2                !
 ! D33   D(2,14,15,18)          60.5301         estimate D2E/DX2                !
 --------------------------------------------------------------------------------
 Trust Radius=3.00D-01 FncErr=1.00D-07 GrdErr=1.00D-06
 Number of steps in this run=     89 maximum allowed number of steps=    108.
 GradGradGradGradGradGradGradGradGradGradGradGradGradGradGradGradGradGrad

                          Input orientation:                          
 ---------------------------------------------------------------------
 Center     Atomic      Atomic             Coordinates (Angstroms)
 Number     Number       Type             X           Y           Z
 ---------------------------------------------------------------------
      1          6           0       -1.961540   -1.235600    0.000000
      2          6           0       -0.771971   -1.964569    0.000000
      3          6           0        0.453826   -1.299254    0.000000
      4          6           0        0.490423    0.095692   -0.001199
      5          6           0       -0.698902    0.824420   -0.001678
      6          6           0       -1.924990    0.158750   -0.000682
      7          1           0        1.391499   -1.873767    0.000634
      8          1           0        1.457039    0.620049   -0.001258
      9          1           0       -2.862461    0.733448   -0.000862
     10          7           0       -0.660795    2.293925   -0.002952
     11          1           0       -0.182604    2.615678    0.814244
     12          1           0       -0.179213    2.614175   -0.818746
     13          1           0       -2.901881   -1.746147    0.000523
     14          8           0       -0.809512   -3.394076    0.000000
     15          6           0       -0.834573   -3.870926    1.347919
     16          1           0       -0.853327   -4.940762    1.347482
     17          1           0        0.038877   -3.529725    1.863250
     18          1           0       -1.708023   -3.499095    1.841607
 ---------------------------------------------------------------------
                    Distance matrix (angstroms):
                    1          2          3          4          5
     1  C    0.000000
     2  C    1.395160   0.000000
     3  C    2.416205   1.394712   0.000000
     4  C    2.790065   2.416260   1.395427   0.000000
     5  C    2.416183   2.789946   2.416356   1.394825   0.000000
     6  C    1.394829   2.416183   2.790080   2.416236   1.395138
     7  H    3.413229   2.165375   1.099680   2.165806   3.413209
     8  H    3.889745   3.413024   2.165678   1.099680   2.165606
     9  H    2.165365   3.413128   3.889684   3.412999   2.165471
    10  N    3.761581   4.259946   3.762091   2.481438   1.470000
    11  H    4.319716   4.689244   4.049041   2.732808   2.034920
    12  H    4.320625   4.688987   4.047964   2.731218   2.034920
    13  H    1.070000   2.141081   3.385334   3.860065   3.385400
    14  O    2.446669   1.430000   2.446283   3.724018   4.219946
    15  C    3.167315   2.335595   3.176532   4.394291   4.887340
    16  H    4.095372   3.268035   4.096942   5.384280   5.922955
    17  H    3.568807   2.564935   2.935794   4.101673   4.793835
    18  H    2.929027   2.573418   3.592270   4.599086   4.807162
                    6          7          8          9         10
     6  C    0.000000
     7  H    3.889760   0.000000
     8  H    3.413344   2.494678   0.000000
     9  H    1.099604   4.989364   4.320988   0.000000
    10  N    2.481364   4.645598   2.699460   2.698598   0.000000
    11  H    3.120338   4.826477   2.708507   3.374733   1.000000
    12  H    3.121870   4.824951   2.705946   3.377260   1.000000
    13  H    2.140783   4.295277   4.959745   2.479908   4.620028
    14  O    3.723824   2.675030   4.609821   4.609887   5.689946
    15  C    4.387029   3.280125   5.219255   5.208819   6.313513
    16  H    5.382475   4.032332   6.170859   6.168574   7.362162
    17  H    4.575574   2.835688   4.765312   5.483368   6.155255
    18  H    4.101333   3.954480   5.511906   4.758344   6.169130
                   11         12         13         14         15
    11  H    0.000000
    12  H    1.632993   0.000000
    13  H    5.204049   5.205432   0.000000
    14  O    6.096979   6.096450   2.663397   0.000000
    15  C    6.541094   6.868804   3.256367   1.430000   0.000000
    16  H    7.604867   7.888222   4.026964   2.051796   1.070000
    17  H    6.238226   6.707323   3.911389   2.051796   1.070000
    18  H    6.385361   6.840088   2.808508   2.051796   1.070000
                   16         17         18
    16  H    0.000000
    17  H    1.747303   0.000000
    18  H    1.747303   1.747303   0.000000
 Stoichiometry    C7H9NO
 Framework group  C1[X(C7H9NO)]
 Deg. of freedom    48
 Full point group                 C1      NOp   1
 Largest Abelian subgroup         C1      NOp   1
 Largest concise Abelian subgroup C1      NOp   1
                         Standard orientation:                         
 ---------------------------------------------------------------------
 Center     Atomic      Atomic             Coordinates (Angstroms)
 Number     Number       Type             X           Y           Z
 ---------------------------------------------------------------------
      1          6           0       -0.288313    1.217437   -0.234357
      2          6           0       -0.958531   -0.001529   -0.341123
      3          6           0       -0.248960   -1.198422   -0.245323
      4          6           0        1.131675   -1.176681   -0.043847
      5          6           0        1.801734    0.042034    0.062410
      6          6           0        1.091655    1.239197   -0.032456
      7          1           0       -0.777256   -2.159268   -0.328839
      8          1           0        1.690942   -2.120516    0.031598
      9          1           0        1.620076    2.199845    0.051536
     10          7           0        3.256145    0.065383    0.274644
     11          1           0        3.475839   -0.404535    1.129578
     12          1           0        3.711511   -0.396791   -0.486302
     13          1           0       -0.832884    2.135595   -0.307354
     14          8           0       -2.373195   -0.023763   -0.548806
     15          6           0       -3.041263   -0.027892    0.715539
     16          1           0       -4.099531   -0.053862    0.559672
     17          1           0       -2.741796   -0.889833    1.274357
     18          1           0       -2.782346    0.856929    1.258636
 ---------------------------------------------------------------------
 Rotational constants (GHZ):      4.5654182      0.9789731      0.8610210
 Standard basis: 6-311+G(d,p) (5D, 7F)
 There are   261 symmetry adapted cartesian basis functions of A   symmetry.
 There are   252 symmetry adapted basis functions of A   symmetry.
   252 basis functions,   396 primitive gaussians,   261 cartesian basis functions
    33 alpha electrons       33 beta electrons
       nuclear repulsion energy       422.3660239387 Hartrees.
 NAtoms=   18 NActive=   18 NUniq=   18 SFac= 1.00D+00 NAtFMM=   60 NAOKFM=F Big=F
 Integral buffers will be    131072 words long.
 Raffenetti 2 integral format.
 Two-electron integral symmetry is turned on.
 One-electron integrals computed using PRISM.
 NBasis=   252 RedAO= T EigKep=  2.41D-06  NBF=   252
 NBsUse=   252 1.00D-06 EigRej= -1.00D+00 NBFU=   252
 ExpMin= 4.38D-02 ExpMax= 8.59D+03 ExpMxC= 1.30D+03 IAcc=2 IRadAn=         4 AccDes= 0.00D+00
 Harris functional with IExCor=  402 and IRadAn=       4 diagonalized for initial guess.
 HarFok:  IExCor=  402 AccDes= 0.00D+00 IRadAn=         4 IDoV= 1 UseB2=F ITyADJ=14
 ICtDFT=  3500011 ScaDFX=  1.000000  1.000000  1.000000  1.000000
 FoFCou: FMM=F IPFlag=           0 FMFlag=      100000 FMFlg1=           0
         NFxFlg=           0 DoJE=T BraDBF=F KetDBF=T FulRan=T
         wScrn=  0.000000 ICntrl=     500 IOpCl=  0 I1Cent=   200000004 NGrid=           0
         NMat0=    1 NMatS0=      1 NMatT0=    0 NMatD0=    1 NMtDS0=    0 NMtDT0=    0
 Petite list used in FoFCou.
 Keep R1 ints in memory in canonical form, NReq=517341691.
 Requested convergence on RMS density matrix=1.00D-08 within 128 cycles.
 Requested convergence on MAX density matrix=1.00D-06.
 Requested convergence on             energy=1.00D-06.
 No special actions if energy rises.
 SCF Done:  E(RB3LYP) =  -402.224389107     A.U. after   14 cycles
            NFock= 14  Conv=0.64D-08     -V/T= 2.0043

 **********************************************************************

            Population analysis using the SCF density.

 **********************************************************************

 Orbital symmetries:
       Occupied  (A) (A) (A) (A) (A) (A) (A) (A) (A) (A) (A) (A)
                 (A) (A) (A) (A) (A) (A) (A) (A) (A) (A) (A) (A)
                 (A) (A) (A) (A) (A) (A) (A) (A) (A)
       Virtual   (A) (A) (A) (A) (A) (A) (A) (A) (A) (A) (A) (A)
                 (A) (A) (A) (A) (A) (A) (A) (A) (A) (A) (A) (A)
                 (A) (A) (A) (A) (A) (A) (A) (A) (A) (A) (A) (A)
                 (A) (A) (A) (A) (A) (A) (A) (A) (A) (A) (A) (A)
                 (A) (A) (A) (A) (A) (A) (A) (A) (A) (A) (A) (A)
                 (A) (A) (A) (A) (A) (A) (A) (A) (A) (A) (A) (A)
                 (A) (A) (A) (A) (A) (A) (A) (A) (A) (A) (A) (A)
                 (A) (A) (A) (A) (A) (A) (A) (A) (A) (A) (A) (A)
                 (A) (A) (A) (A) (A) (A) (A) (A) (A) (A) (A) (A)
                 (A) (A) (A) (A) (A) (A) (A) (A) (A) (A) (A) (A)
                 (A) (A) (A) (A) (A) (A) (A) (A) (A) (A) (A) (A)
                 (A) (A) (A) (A) (A) (A) (A) (A) (A) (A) (A) (A)
                 (A) (A) (A) (A) (A) (A) (A) (A) (A) (A) (A) (A)
                 (A) (A) (A) (A) (A) (A) (A) (A) (A) (A) (A) (A)
                 (A) (A) (A) (A) (A) (A) (A) (A) (A) (A) (A) (A)
                 (A) (A) (A) (A) (A) (A) (A) (A) (A) (A) (A) (A)
                 (A) (A) (A) (A) (A) (A) (A) (A) (A) (A) (A) (A)
                 (A) (A) (A) (A) (A) (A) (A) (A) (A) (A) (A) (A)
                 (A) (A) (A)
 The electronic state is 1-A.
 Alpha  occ. eigenvalues --  -19.13938 -14.30402 -10.23454 -10.21261 -10.21197
 Alpha  occ. eigenvalues --  -10.18550 -10.18496 -10.18258 -10.18123  -1.04317
 Alpha  occ. eigenvalues --   -0.90677  -0.84621  -0.75919  -0.74004  -0.68799
 Alpha  occ. eigenvalues --   -0.62344  -0.59506  -0.53006  -0.50044  -0.49390
 Alpha  occ. eigenvalues --   -0.48458  -0.46184  -0.45006  -0.44349  -0.43118
 Alpha  occ. eigenvalues --   -0.39824  -0.37196  -0.36697  -0.34600  -0.28021
 Alpha  occ. eigenvalues --   -0.26572  -0.26263  -0.25136
 Alpha virt. eigenvalues --   -0.02520  -0.01592  -0.00251   0.00978   0.02210
 Alpha virt. eigenvalues --    0.02649   0.03820   0.04606   0.05149   0.06119
 Alpha virt. eigenvalues --    0.06819   0.07617   0.07711   0.08950   0.09787
 Alpha virt. eigenvalues --    0.10873   0.12102   0.12173   0.12552   0.13810
 Alpha virt. eigenvalues --    0.14237   0.14456   0.14756   0.15381   0.15630
 Alpha virt. eigenvalues --    0.16556   0.17192   0.17369   0.19099   0.19215
 Alpha virt. eigenvalues --    0.19610   0.19726   0.20337   0.21018   0.21451
 Alpha virt. eigenvalues --    0.22146   0.22539   0.23263   0.23716   0.24392
 Alpha virt. eigenvalues --    0.24416   0.25222   0.25576   0.26618   0.28035
 Alpha virt. eigenvalues --    0.29696   0.32013   0.33003   0.33487   0.33946
 Alpha virt. eigenvalues --    0.34850   0.35440   0.36582   0.37623   0.41566
 Alpha virt. eigenvalues --    0.44780   0.47603   0.48515   0.50465   0.50808
 Alpha virt. eigenvalues --    0.52367   0.53192   0.54905   0.55134   0.55388
 Alpha virt. eigenvalues --    0.56287   0.57716   0.59165   0.60463   0.61659
 Alpha virt. eigenvalues --    0.62233   0.65057   0.65508   0.66482   0.68976
 Alpha virt. eigenvalues --    0.69255   0.70774   0.71279   0.72725   0.74420
 Alpha virt. eigenvalues --    0.76494   0.78239   0.81350   0.82004   0.83630
 Alpha virt. eigenvalues --    0.84506   0.85479   0.85664   0.86719   0.89413
 Alpha virt. eigenvalues --    0.92685   0.93143   0.95303   0.99071   1.00087
 Alpha virt. eigenvalues --    1.00701   1.02490   1.04356   1.05078   1.06939
 Alpha virt. eigenvalues --    1.09222   1.12553   1.15491   1.18206   1.21177
 Alpha virt. eigenvalues --    1.27871   1.28729   1.30711   1.36336   1.39458
 Alpha virt. eigenvalues --    1.42816   1.43816   1.47831   1.48766   1.52297
 Alpha virt. eigenvalues --    1.53815   1.53919   1.56851   1.57813   1.58159
 Alpha virt. eigenvalues --    1.59380   1.61175   1.64122   1.66313   1.66715
 Alpha virt. eigenvalues --    1.69904   1.71188   1.72127   1.74125   1.75779
 Alpha virt. eigenvalues --    1.76508   1.80531   1.83849   1.87832   1.88671
 Alpha virt. eigenvalues --    1.90688   1.91654   1.93057   1.97161   1.98498
 Alpha virt. eigenvalues --    1.99576   2.00545   2.03939   2.04413   2.06126
 Alpha virt. eigenvalues --    2.07189   2.13328   2.15747   2.15970   2.23094
 Alpha virt. eigenvalues --    2.23408   2.31705   2.36801   2.37200   2.38826
 Alpha virt. eigenvalues --    2.44389   2.52668   2.53280   2.53981   2.55221
 Alpha virt. eigenvalues --    2.55787   2.56852   2.57380   2.60113   2.62111
 Alpha virt. eigenvalues --    2.65039   2.68388   2.70342   2.71511   2.74449
 Alpha virt. eigenvalues --    2.75537   2.79192   2.79832   2.81034   2.82440
 Alpha virt. eigenvalues --    2.85604   2.87786   2.89315   2.90381   2.93780
 Alpha virt. eigenvalues --    3.00844   3.02385   3.05802   3.08482   3.11319
 Alpha virt. eigenvalues --    3.11769   3.16555   3.28508   3.29831   3.33197
 Alpha virt. eigenvalues --    3.35659   3.43573   3.48427   3.60305   3.62281
 Alpha virt. eigenvalues --    3.80767   3.85332   3.85723   3.96485   4.04357
 Alpha virt. eigenvalues --    4.12163   4.14162   4.15005   4.17174   4.76977
 Alpha virt. eigenvalues --    4.83911   4.88597   5.14616   5.38145   5.67858
 Alpha virt. eigenvalues --   23.52644  23.90121  23.94885  23.96294  24.04897
 Alpha virt. eigenvalues --   24.08560  24.17756  35.63090  49.93260
          Condensed to atoms (all electrons):
               1          2          3          4          5          6
     1  C    8.398356  -0.809715  -1.533722   0.099482   0.405872  -0.720697
     2  C   -0.809715   7.556585  -0.788182   0.077389  -0.787632   0.606248
     3  C   -1.533722  -0.788182   8.882778  -0.739549   0.475545  -0.290268
     4  C    0.099482   0.077389  -0.739549   6.029241   0.453659  -0.057223
     5  C    0.405872  -0.787632   0.475545   0.453659   7.488771  -1.930819
     6  C   -0.720697   0.606248  -0.290268  -0.057223  -1.930819   7.848481
     7  H   -0.024172  -0.017880   0.417059  -0.024339   0.010824  -0.006158
     8  H    0.007250   0.017236   0.040274   0.421954  -0.062024  -0.060344
     9  H   -0.035689   0.012168  -0.000056  -0.004056   0.029042   0.358535
    10  N   -0.020638   0.047928  -0.137718  -0.243239   0.250854   0.126480
    11  H    0.005516  -0.002427  -0.005248   0.000621  -0.031318  -0.001784
    12  H   -0.002378  -0.000518  -0.006963   0.010356  -0.036749   0.002932
    13  H    0.420196   0.001127  -0.025910   0.002939  -0.009834  -0.030314
    14  O   -0.305157   0.661840  -0.319057   0.065460  -0.006161   0.051004
    15  C    0.069427  -0.300964   0.077062   0.003848   0.005509   0.001377
    16  H   -0.000528   0.015653   0.000084   0.000271   0.000367  -0.000035
    17  H   -0.014223  -0.019716   0.039581  -0.017421   0.000434   0.009337
    18  H    0.034944  -0.017667  -0.019352   0.012214  -0.000126  -0.012836
               7          8          9         10         11         12
     1  C   -0.024172   0.007250  -0.035689  -0.020638   0.005516  -0.002378
     2  C   -0.017880   0.017236   0.012168   0.047928  -0.002427  -0.000518
     3  C    0.417059   0.040274  -0.000056  -0.137718  -0.005248  -0.006963
     4  C   -0.024339   0.421954  -0.004056  -0.243239   0.000621   0.010356
     5  C    0.010824  -0.062024   0.029042   0.250854  -0.031318  -0.036749
     6  C   -0.006158  -0.060344   0.358535   0.126480  -0.001784   0.002932
     7  H    0.529652  -0.007271   0.000049  -0.001563   0.000034   0.000022
     8  H   -0.007271   0.542529  -0.000168  -0.030102   0.001034   0.001050
     9  H    0.000049  -0.000168   0.516817  -0.005763   0.000442   0.000382
    10  N   -0.001563  -0.030102  -0.005763   6.626345   0.401418   0.401868
    11  H    0.000034   0.001034   0.000442   0.401418   0.453773  -0.054408
    12  H    0.000022   0.001050   0.000382   0.401868  -0.054408   0.451763
    13  H   -0.000158   0.000046  -0.007616  -0.000563   0.000017   0.000016
    14  O   -0.005159  -0.000559  -0.000577   0.000327  -0.000007  -0.000010
    15  C   -0.000783  -0.000101  -0.000134   0.000653   0.000077  -0.000035
    16  H   -0.000277  -0.000002  -0.000002   0.000000   0.000000   0.000000
    17  H    0.000923   0.000058  -0.000005  -0.000041   0.000001   0.000000
    18  H    0.000100  -0.000008   0.000048  -0.000007   0.000001   0.000000
              13         14         15         16         17         18
     1  C    0.420196  -0.305157   0.069427  -0.000528  -0.014223   0.034944
     2  C    0.001127   0.661840  -0.300964   0.015653  -0.019716  -0.017667
     3  C   -0.025910  -0.319057   0.077062   0.000084   0.039581  -0.019352
     4  C    0.002939   0.065460   0.003848   0.000271  -0.017421   0.012214
     5  C   -0.009834  -0.006161   0.005509   0.000367   0.000434  -0.000126
     6  C   -0.030314   0.051004   0.001377  -0.000035   0.009337  -0.012836
     7  H   -0.000158  -0.005159  -0.000783  -0.000277   0.000923   0.000100
     8  H    0.000046  -0.000559  -0.000101  -0.000002   0.000058  -0.000008
     9  H   -0.007616  -0.000577  -0.000134  -0.000002  -0.000005   0.000048
    10  N   -0.000563   0.000327   0.000653   0.000000  -0.000041  -0.000007
    11  H    0.000017  -0.000007   0.000077   0.000000   0.000001   0.000001
    12  H    0.000016  -0.000010  -0.000035   0.000000   0.000000   0.000000
    13  H    0.525634  -0.005680  -0.000498  -0.000298   0.000087   0.000935
    14  O   -0.005680   8.023375   0.180447  -0.049197  -0.047622  -0.047728
    15  C   -0.000498   0.180447   4.978848   0.407754   0.415910   0.417137
    16  H   -0.000298  -0.049197   0.407754   0.536611  -0.029115  -0.029256
    17  H    0.000087  -0.047622   0.415910  -0.029115   0.581813  -0.051264
    18  H    0.000935  -0.047728   0.417137  -0.029256  -0.051264   0.580713
 Mulliken charges:
               1
     1  C    0.025875
     2  C   -0.251473
     3  C   -0.066359
     4  C   -0.091610
     5  C   -0.256213
     6  C    0.106083
     7  H    0.129094
     8  H    0.129149
     9  H    0.136583
    10  N   -0.416241
    11  H    0.232258
    12  H    0.232670
    13  H    0.129873
    14  O   -0.195540
    15  C   -0.255535
    16  H    0.147970
    17  H    0.131263
    18  H    0.132152
 Sum of Mulliken charges =   0.00000
 Mulliken charges with hydrogens summed into heavy atoms:
               1
     1  C    0.155749
     2  C   -0.251473
     3  C    0.062735
     4  C    0.037539
     5  C   -0.256213
     6  C    0.242666
    10  N    0.048686
    14  O   -0.195540
    15  C    0.155850
 Electronic spatial extent (au):  <R**2>=           1361.6056
 Charge=              0.0000 electrons
 Dipole moment (field-independent basis, Debye):
    X=              0.2050    Y=             -1.2579    Z=              1.5209  Tot=              1.9843
 Quadrupole moment (field-independent basis, Debye-Ang):
   XX=            -51.9854   YY=            -50.0275   ZZ=            -56.2538
   XY=             -5.5501   XZ=             -4.5017   YZ=             -0.5574
 Traceless Quadrupole moment (field-independent basis, Debye-Ang):
   XX=              0.7701   YY=              2.7281   ZZ=             -3.4982
   XY=             -5.5501   XZ=             -4.5017   YZ=             -0.5574
 Octapole moment (field-independent basis, Debye-Ang**2):
  XXX=            -14.3257  YYY=              0.0369  ZZZ=              2.9606  XYY=             -3.0048
  XXY=            -21.7661  XXZ=             11.8250  XZZ=              4.1444  YZZ=             -1.2566
  YYZ=             -0.6910  XYZ=             -1.7871
 Hexadecapole moment (field-independent basis, Debye-Ang**3):
 XXXX=          -1300.6762 YYYY=           -298.6151 ZZZZ=           -121.5635 XXXY=            -84.9438
 XXXZ=            -40.5548 YYYX=             -3.5844 YYYZ=             -0.1491 ZZZX=              7.2367
 ZZZY=             -1.4600 XXYY=           -286.5029 XXZZ=           -236.9653 YYZZ=            -81.0702
 XXYZ=             -7.2385 YYXZ=              1.0891 ZZXY=             -4.9638
 N-N= 4.223660239387D+02 E-N=-1.781834275833D+03  KE= 4.005211268889D+02
 There are a total of      148116 grid points.
 ElSum from          density=       65.9999988622
 ElSum from atomic densities=       65.9992477062

 Hirshfeld populations at iteration   1 (CX, CA, CB, DipXYZ):
               1          2          3          4          5          6
     1  C    0.000000   3.026097   3.026097  -0.026776   0.057706  -0.007930
     2  C    0.000000   2.966074   2.966074  -0.145669  -0.000398  -0.018085
     3  C    0.000000   3.027445   3.027445  -0.024458  -0.051072  -0.008129
     4  C    0.000000   3.028611   3.028611   0.029375  -0.051239   0.000331
     5  C    0.000000   2.980289   2.980289   0.106027  -0.000969   0.012904
     6  C    0.000000   3.022859   3.022859   0.020730   0.052280  -0.000088
     7  H    0.000001   0.473306   0.473306  -0.069272  -0.146018  -0.010996
     8  H    0.000001   0.476751   0.476751   0.069429  -0.138270   0.008672
     9  H    0.000001   0.473824   0.473824   0.057004   0.145730   0.008839
    10  N    0.000000   3.619579   3.619579  -0.091610  -0.180442  -0.014875
    11  H    0.000001   0.446526   0.446526   0.042567  -0.098633   0.171854
    12  H    0.000001   0.446243   0.446243   0.089976  -0.097152  -0.154058
    13  H    0.000001   0.473758   0.473758  -0.075234   0.147366  -0.010046
    14  O    0.000005   4.088971   4.088971   0.074590   0.002878   0.176825
    15  C    0.000000   3.009377   3.009377   0.002188   0.000388  -0.050119
    16  H    0.000001   0.475081   0.475081  -0.157858  -0.003649  -0.012907
    17  H    0.000000   0.482733   0.482733   0.023132  -0.115210   0.081668
    18  H    0.000000   0.482476   0.482476   0.018268   0.118638   0.079306
       Tot   0.000014  32.999999  32.999999  -0.057590  -0.358066   0.253165

 Dip from Atomic Chgs              0.138187  -0.136719   0.345016
         Total Dipole              0.080597  -0.494786   0.598181

 Hirshfeld charges, spin densities, dipoles, and CM5 charges using IRadAn=      4:
              Q-H        S-H        Dx         Dy         Dz        Q-CM5   
     1  C   -0.052193   0.000000  -0.026776   0.057706  -0.007930  -0.104702
     2  C    0.067851   0.000000  -0.145669  -0.000398  -0.018085   0.079217
     3  C   -0.054889   0.000000  -0.024458  -0.051072  -0.008129  -0.103867
     4  C   -0.057222   0.000000   0.029375  -0.051239   0.000331  -0.104575
     5  C    0.039422   0.000000   0.106027  -0.000969   0.012904   0.077455
     6  C   -0.045718   0.000000   0.020730   0.052280  -0.000088  -0.092271
     7  H    0.053388   0.000000  -0.069272  -0.146018  -0.010996   0.109698
     8  H    0.046498   0.000000   0.069429  -0.138270   0.008672   0.103003
     9  H    0.052352   0.000000   0.057004   0.145730   0.008839   0.108875
    10  N   -0.239157   0.000000  -0.091610  -0.180442  -0.014875  -0.684704
    11  H    0.106948   0.000000   0.042567  -0.098633   0.171854   0.300910
    12  H    0.107513   0.000000   0.089976  -0.097152  -0.154058   0.301477
    13  H    0.052484   0.000000  -0.075234   0.147366  -0.010046   0.112878
    14  O   -0.177942   0.000000   0.074590   0.002878   0.176825  -0.262492
    15  C   -0.018754   0.000000   0.002188   0.000388  -0.050119  -0.148598
    16  H    0.049837   0.000000  -0.157858  -0.003649  -0.012907   0.111532
    17  H    0.034535   0.000000   0.023132  -0.115210   0.081668   0.097837
    18  H    0.035047   0.000000   0.018268   0.118638   0.079306   0.098326
       Tot   0.000001   0.000000  -0.057590  -0.358066   0.253165   0.000001
 Hirshfeld charges with hydrogens summed into heavy atoms:
              Q-H       Q-CM5   
     1  C    0.000291   0.008176
     2  C    0.067851   0.079217
     3  C   -0.001501   0.005831
     4  C   -0.010724  -0.001572
     5  C    0.039422   0.077455
     6  C    0.006634   0.016604
    10  N   -0.024696  -0.082317
    14  O   -0.177942  -0.262492
    15  C    0.100666   0.159098
 
 EQQ= 0.000000000000E+00 EQD= 0.000000000000E+00 EDD= 0.642263138590E-02
 EQQ+QD+DD= 0.642263138590E-02
 
          MBS Condensed to atoms (all electrons):
               1          2          3          4          5          6
     1  C    4.854309   0.497360  -0.038483  -0.009524  -0.029525   0.499106
     2  C    0.497360   4.712978   0.497633  -0.027958  -0.011933  -0.027584
     3  C   -0.038483   0.497633   4.856127   0.497480  -0.029386  -0.009447
     4  C   -0.009524  -0.027958   0.497480   4.857032   0.502128  -0.037183
     5  C   -0.029525  -0.011933  -0.029386   0.502128   4.732898   0.504270
     6  C    0.499106  -0.027584  -0.009447  -0.037183   0.504270   4.834722
     7  H    0.001427  -0.024848   0.383092  -0.023177   0.001396   0.000035
     8  H    0.000024   0.001366  -0.023929   0.384354  -0.025417   0.001452
     9  H   -0.023544   0.001355   0.000016   0.001489  -0.024560   0.383660
    10  N    0.000615   0.000016   0.000650  -0.028766   0.340596  -0.030221
    11  H   -0.000044   0.000003   0.000000  -0.001947  -0.029832   0.001174
    12  H   -0.000044   0.000003   0.000000  -0.001975  -0.029791   0.001177
    13  H    0.389711  -0.025712   0.001484   0.000042   0.001465  -0.024011
    14  O   -0.022020   0.285495  -0.022068   0.000325   0.000006   0.000326
    15  C   -0.001442  -0.037440  -0.001368  -0.000012   0.000003  -0.000011
    16  H    0.000003   0.002582   0.000002   0.000000   0.000000   0.000000
    17  H   -0.000175  -0.003741   0.001593  -0.000045  -0.000001   0.000003
    18  H    0.001569  -0.003612  -0.000172   0.000003  -0.000001  -0.000045
               7          8          9         10         11         12
     1  C    0.001427   0.000024  -0.023544   0.000615  -0.000044  -0.000044
     2  C   -0.024848   0.001366   0.001355   0.000016   0.000003   0.000003
     3  C    0.383092  -0.023929   0.000016   0.000650   0.000000   0.000000
     4  C   -0.023177   0.384354   0.001489  -0.028766  -0.001947  -0.001975
     5  C    0.001396  -0.025417  -0.024560   0.340596  -0.029832  -0.029791
     6  C    0.000035   0.001452   0.383660  -0.030221   0.001174   0.001177
     7  H    0.554296  -0.004051   0.000002  -0.000011   0.000000   0.000000
     8  H   -0.004051   0.564569  -0.000045  -0.002151   0.000705   0.000695
     9  H    0.000002  -0.000045   0.547129  -0.000785   0.000053   0.000048
    10  N   -0.000011  -0.002151  -0.000785   6.664330   0.333158   0.333248
    11  H    0.000000   0.000705   0.000053   0.333158   0.472075  -0.030952
    12  H    0.000000   0.000695   0.000048   0.333248  -0.030952   0.471245
    13  H   -0.000047   0.000002  -0.004098  -0.000011   0.000001   0.000001
    14  O   -0.000673  -0.000005  -0.000005   0.000000   0.000000   0.000000
    15  C   -0.000013   0.000000   0.000000   0.000000   0.000000   0.000000
    16  H   -0.000020   0.000000   0.000000   0.000000   0.000000   0.000000
    17  H    0.000124   0.000002   0.000000   0.000000   0.000000   0.000000
    18  H    0.000024   0.000000   0.000002   0.000000   0.000000   0.000000
              13         14         15         16         17         18
     1  C    0.389711  -0.022020  -0.001442   0.000003  -0.000175   0.001569
     2  C   -0.025712   0.285495  -0.037440   0.002582  -0.003741  -0.003612
     3  C    0.001484  -0.022068  -0.001368   0.000002   0.001593  -0.000172
     4  C    0.000042   0.000325  -0.000012   0.000000  -0.000045   0.000003
     5  C    0.001465   0.000006   0.000003   0.000000  -0.000001  -0.000001
     6  C   -0.024011   0.000326  -0.000011   0.000000   0.000003  -0.000045
     7  H   -0.000047  -0.000673  -0.000013  -0.000020   0.000124   0.000024
     8  H    0.000002  -0.000005   0.000000   0.000000   0.000002   0.000000
     9  H   -0.004098  -0.000005   0.000000   0.000000   0.000000   0.000002
    10  N   -0.000011   0.000000   0.000000   0.000000   0.000000   0.000000
    11  H    0.000001   0.000000   0.000000   0.000000   0.000000   0.000000
    12  H    0.000001   0.000000   0.000000   0.000000   0.000000   0.000000
    13  H    0.539826  -0.000670  -0.000015  -0.000020   0.000026   0.000106
    14  O   -0.000670   7.956583   0.268514  -0.017434  -0.019296  -0.019357
    15  C   -0.000015   0.268514   4.726325   0.379854   0.373522   0.373670
    16  H   -0.000020  -0.017434   0.379854   0.567102  -0.024261  -0.024340
    17  H    0.000026  -0.019296   0.373522  -0.024261   0.601135  -0.027611
    18  H    0.000106  -0.019357   0.373670  -0.024340  -0.027611   0.600563
 MBS Mulliken charges:
               1
     1  C   -0.119322
     2  C    0.164039
     3  C   -0.113223
     4  C   -0.112267
     5  C    0.097685
     6  C   -0.097423
     7  H    0.112445
     8  H    0.102429
     9  H    0.119282
    10  N   -0.610667
    11  H    0.255606
    12  H    0.256346
    13  H    0.121920
    14  O   -0.409721
    15  C   -0.081587
    16  H    0.116529
    17  H    0.098726
    18  H    0.099201
 Sum of MBS Mulliken charges =   0.00000
 MBS Mulliken charges with hydrogens summed into heavy atoms:
               1
     1  C    0.002598
     2  C    0.164039
     3  C   -0.000777
     4  C   -0.009837
     5  C    0.097685
     6  C    0.021859
    10  N   -0.098714
    14  O   -0.409721
    15  C    0.232869
 Breneman (CHELPG) radii used.
 Generate Potential Derived Charges using the Breneman model, NDens= 1.
 Grid spacing= 0.300 Box extension= 2.800
 NStep X,Y,Z=   46     35     26   Total possible points=       41860
 Number of Points to Fit=   12570

 **********************************************************************

            Electrostatic Properties Using The SCF Density

 **********************************************************************

       Atomic Center    1 is at  -0.288313  1.217437 -0.234357
       Atomic Center    2 is at  -0.958531 -0.001529 -0.341123
       Atomic Center    3 is at  -0.248960 -1.198422 -0.245323
       Atomic Center    4 is at   1.131675 -1.176681 -0.043847
       Atomic Center    5 is at   1.801734  0.042034  0.062410
       Atomic Center    6 is at   1.091655  1.239197 -0.032456
       Atomic Center    7 is at  -0.777256 -2.159268 -0.328839
       Atomic Center    8 is at   1.690942 -2.120516  0.031598
       Atomic Center    9 is at   1.620076  2.199845  0.051536
       Atomic Center   10 is at   3.256145  0.065383  0.274644
       Atomic Center   11 is at   3.475839 -0.404535  1.129578
       Atomic Center   12 is at   3.711511 -0.396791 -0.486302
       Atomic Center   13 is at  -0.832884  2.135595 -0.307354
       Atomic Center   14 is at  -2.373195 -0.023763 -0.548806
       Atomic Center   15 is at  -3.041263 -0.027892  0.715539
       Atomic Center   16 is at  -4.099531 -0.053862  0.559672
       Atomic Center   17 is at  -2.741796 -0.889833  1.274357
       Atomic Center   18 is at  -2.782346  0.856929  1.258636
   12570 points will be used for fitting atomic charges
 Fitting point charges to electrostatic potential
 Charges from ESP fit, RMS=   0.00375 RRMS=   0.28138:
 ESP charges:
               1
     1  C   -0.237462
     2  C    0.356304
     3  C   -0.175344
     4  C   -0.295228
     5  C    0.484539
     6  C   -0.191782
     7  H    0.151470
     8  H    0.127370
     9  H    0.124373
    10  N   -0.968314
    11  H    0.353047
    12  H    0.357840
    13  H    0.168497
    14  O   -0.502195
    15  C    0.316472
    16  H    0.023185
    17  H   -0.048933
    18  H   -0.043840
 Sum of ESP charges =   0.00000
 ESP charges with hydrogens summed into heavy atoms:
               1
     1  C   -0.068965
     2  C    0.356304
     3  C   -0.023874
     4  C   -0.167858
     5  C    0.484539
     6  C   -0.067409
    10  N   -0.257427
    14  O   -0.502195
    15  C    0.246884
 Charge=   0.00000 Dipole=     0.2481    -1.2171     1.4011 Tot=     1.8724
 -----------------------------------------------------------------

              Electrostatic Properties (Atomic Units)

 -----------------------------------------------------------------
    Center     Electric         -------- Electric Field --------
               Potential          X             Y             Z
 -----------------------------------------------------------------
    1 Atom    -14.770516
    2 Atom    -14.714669
    3 Atom    -14.766088
    4 Atom    -14.766437
    5 Atom    -14.736460
    6 Atom    -14.769151
    7 Atom     -1.095922
    8 Atom     -1.094167
    9 Atom     -1.102805
   10 Atom    -18.408188
   11 Atom     -1.054797
   12 Atom     -1.054918
   13 Atom     -1.100926
   14 Atom    -22.355441
   15 Atom    -14.735154
   16 Atom     -1.111623
   17 Atom     -1.117600
   18 Atom     -1.117790
 -----------------------------------------------------------------
 ******************************Gaussian NBO Version 3.1******************************
             N A T U R A L   A T O M I C   O R B I T A L   A N D
          N A T U R A L   B O N D   O R B I T A L   A N A L Y S I S
 ******************************Gaussian NBO Version 3.1******************************
       /RESON  / : Allow strongly delocalized NBO set

 Analyzing the SCF density

 Job title: Title Card Required                                             

 Storage needed:    191754 in NPA ( 536869112 available)


 NATURAL POPULATIONS:  Natural atomic orbital occupancies 
                                                          
   NAO  Atom  No  lang   Type(AO)    Occupancy      Energy
 ----------------------------------------------------------
     1    C    1  S      Cor( 1S)     1.99902     -10.03191
     2    C    1  S      Val( 2S)     0.95296      -0.16451
     3    C    1  S      Ryd( 3S)     0.00154       0.82439
     4    C    1  S      Ryd( 4S)     0.00019       0.93834
     5    C    1  S      Ryd( 5S)     0.00001      22.85047
     6    C    1  px     Val( 2p)     1.09918      -0.05712
     7    C    1  px     Ryd( 4p)     0.00497       0.95826
     8    C    1  px     Ryd( 3p)     0.00033       0.39979
     9    C    1  px     Ryd( 5p)     0.00015       3.09867
    10    C    1  py     Val( 2p)     1.15657      -0.06501
    11    C    1  py     Ryd( 4p)     0.00545       1.03030
    12    C    1  py     Ryd( 3p)     0.00026       0.34248
    13    C    1  py     Ryd( 5p)     0.00009       3.13735
    14    C    1  pz     Val( 2p)     1.00993      -0.11338
    15    C    1  pz     Ryd( 4p)     0.00127       0.54392
    16    C    1  pz     Ryd( 3p)     0.00034       0.32673
    17    C    1  pz     Ryd( 5p)     0.00002       2.69669
    18    C    1  dxy    Ryd( 3d)     0.00080       2.51462
    19    C    1  dxz    Ryd( 3d)     0.00047       1.69954
    20    C    1  dyz    Ryd( 3d)     0.00052       1.66772
    21    C    1  dx2y2  Ryd( 3d)     0.00060       2.57131
    22    C    1  dz2    Ryd( 3d)     0.00041       2.03981

    23    C    2  S      Cor( 1S)     1.99867     -10.10372
    24    C    2  S      Val( 2S)     0.84497      -0.14475
    25    C    2  S      Ryd( 4S)     0.00100       0.85482
    26    C    2  S      Ryd( 3S)     0.00038       0.78156
    27    C    2  S      Ryd( 5S)     0.00002      22.97523
    28    C    2  px     Val( 2p)     0.75929      -0.04357
    29    C    2  px     Ryd( 4p)     0.00720       1.16084
    30    C    2  px     Ryd( 3p)     0.00031       0.74626
    31    C    2  px     Ryd( 5p)     0.00019       2.87434
    32    C    2  py     Val( 2p)     1.07522      -0.05513
    33    C    2  py     Ryd( 4p)     0.00392       1.07534
    34    C    2  py     Ryd( 3p)     0.00035       0.78363
    35    C    2  py     Ryd( 5p)     0.00012       2.86235
    36    C    2  pz     Val( 2p)     0.99872      -0.11759
    37    C    2  pz     Ryd( 3p)     0.00302       0.67108
    38    C    2  pz     Ryd( 4p)     0.00027       0.67229
    39    C    2  pz     Ryd( 5p)     0.00008       2.41246
    40    C    2  dxy    Ryd( 3d)     0.00183       2.57052
    41    C    2  dxz    Ryd( 3d)     0.00181       1.67951
    42    C    2  dyz    Ryd( 3d)     0.00064       1.67147
    43    C    2  dx2y2  Ryd( 3d)     0.00194       2.40103
    44    C    2  dz2    Ryd( 3d)     0.00066       2.03946

    45    C    3  S      Cor( 1S)     1.99900     -10.03793
    46    C    3  S      Val( 2S)     0.95743      -0.17208
    47    C    3  S      Ryd( 3S)     0.00188       0.82089
    48    C    3  S      Ryd( 4S)     0.00021       0.99047
    49    C    3  S      Ryd( 5S)     0.00001      22.81999
    50    C    3  px     Val( 2p)     1.09322      -0.05920
    51    C    3  px     Ryd( 4p)     0.00520       0.92851
    52    C    3  px     Ryd( 3p)     0.00028       0.40212
    53    C    3  px     Ryd( 5p)     0.00014       3.12383
    54    C    3  py     Val( 2p)     1.15868      -0.07153
    55    C    3  py     Ryd( 4p)     0.00582       1.02610
    56    C    3  py     Ryd( 3p)     0.00025       0.33444
    57    C    3  py     Ryd( 5p)     0.00009       3.14506
    58    C    3  pz     Val( 2p)     1.01136      -0.11477
    59    C    3  pz     Ryd( 4p)     0.00121       0.53605
    60    C    3  pz     Ryd( 3p)     0.00032       0.32952
    61    C    3  pz     Ryd( 5p)     0.00002       2.69229
    62    C    3  dxy    Ryd( 3d)     0.00080       2.49273
    63    C    3  dxz    Ryd( 3d)     0.00049       1.69784
    64    C    3  dyz    Ryd( 3d)     0.00054       1.65750
    65    C    3  dx2y2  Ryd( 3d)     0.00061       2.54680
    66    C    3  dz2    Ryd( 3d)     0.00042       2.03681

    67    C    4  S      Cor( 1S)     1.99901     -10.03720
    68    C    4  S      Val( 2S)     0.95370      -0.16733
    69    C    4  S      Ryd( 3S)     0.00205       0.73201
    70    C    4  S      Ryd( 4S)     0.00017       1.54801
    71    C    4  S      Ryd( 5S)     0.00001      22.28807
    72    C    4  px     Val( 2p)     1.08963      -0.05912
    73    C    4  px     Ryd( 4p)     0.00617       0.88629
    74    C    4  px     Ryd( 3p)     0.00038       0.37570
    75    C    4  px     Ryd( 5p)     0.00015       3.14579
    76    C    4  py     Val( 2p)     1.14930      -0.06698
    77    C    4  py     Ryd( 4p)     0.00487       0.97721
    78    C    4  py     Ryd( 3p)     0.00038       0.32859
    79    C    4  py     Ryd( 5p)     0.00010       3.16990
    80    C    4  pz     Val( 2p)     1.00985      -0.11607
    81    C    4  pz     Ryd( 4p)     0.00122       0.50783
    82    C    4  pz     Ryd( 3p)     0.00033       0.30485
    83    C    4  pz     Ryd( 5p)     0.00001       2.70020
    84    C    4  dxy    Ryd( 3d)     0.00069       2.48149
    85    C    4  dxz    Ryd( 3d)     0.00049       1.69620
    86    C    4  dyz    Ryd( 3d)     0.00046       1.64896
    87    C    4  dx2y2  Ryd( 3d)     0.00067       2.53372
    88    C    4  dz2    Ryd( 3d)     0.00042       2.03538

    89    C    5  S      Cor( 1S)     1.99889     -10.07433
    90    C    5  S      Val( 2S)     0.85965      -0.13988
    91    C    5  S      Ryd( 4S)     0.00095       0.76335
    92    C    5  S      Ryd( 3S)     0.00019       0.74700
    93    C    5  S      Ryd( 5S)     0.00001      22.96925
    94    C    5  px     Val( 2p)     0.89858      -0.04987
    95    C    5  px     Ryd( 4p)     0.00570       1.09215
    96    C    5  px     Ryd( 3p)     0.00041       0.58184
    97    C    5  px     Ryd( 5p)     0.00013       2.99842
    98    C    5  py     Val( 2p)     1.08602      -0.05467
    99    C    5  py     Ryd( 4p)     0.00489       0.98438
   100    C    5  py     Ryd( 3p)     0.00094       0.61526
   101    C    5  py     Ryd( 5p)     0.00013       2.92444
   102    C    5  pz     Val( 2p)     1.00851      -0.11125
   103    C    5  pz     Ryd( 4p)     0.00182       0.58960
   104    C    5  pz     Ryd( 3p)     0.00030       0.54620
   105    C    5  pz     Ryd( 5p)     0.00002       2.45406
   106    C    5  dxy    Ryd( 3d)     0.00141       2.58405
   107    C    5  dxz    Ryd( 3d)     0.00092       1.66119
   108    C    5  dyz    Ryd( 3d)     0.00057       1.68900
   109    C    5  dx2y2  Ryd( 3d)     0.00117       2.43306
   110    C    5  dz2    Ryd( 3d)     0.00048       2.02132

   111    C    6  S      Cor( 1S)     1.99902     -10.03476
   112    C    6  S      Val( 2S)     0.95494      -0.16358
   113    C    6  S      Ryd( 3S)     0.00172       0.75563
   114    C    6  S      Ryd( 4S)     0.00024       0.89210
   115    C    6  S      Ryd( 5S)     0.00001      22.94082
   116    C    6  px     Val( 2p)     1.07932      -0.04995
   117    C    6  px     Ryd( 4p)     0.00542       0.89281
   118    C    6  px     Ryd( 3p)     0.00042       0.39662
   119    C    6  px     Ryd( 5p)     0.00014       3.11123
   120    C    6  py     Val( 2p)     1.15707      -0.06340
   121    C    6  py     Ryd( 4p)     0.00546       0.99994
   122    C    6  py     Ryd( 3p)     0.00030       0.31771
   123    C    6  py     Ryd( 5p)     0.00008       3.17269
   124    C    6  pz     Val( 2p)     0.99134      -0.10956
   125    C    6  pz     Ryd( 4p)     0.00109       0.53405
   126    C    6  pz     Ryd( 3p)     0.00030       0.33342
   127    C    6  pz     Ryd( 5p)     0.00002       2.67328
   128    C    6  dxy    Ryd( 3d)     0.00073       2.49505
   129    C    6  dxz    Ryd( 3d)     0.00050       1.70442
   130    C    6  dyz    Ryd( 3d)     0.00049       1.65021
   131    C    6  dx2y2  Ryd( 3d)     0.00072       2.53752
   132    C    6  dz2    Ryd( 3d)     0.00041       2.03975

   133    H    7  S      Val( 1S)     0.77848       0.03395
   134    H    7  S      Ryd( 2S)     0.00094       1.03157
   135    H    7  S      Ryd( 3S)     0.00019       1.70950
   136    H    7  px     Ryd( 2p)     0.00020       2.14704
   137    H    7  py     Ryd( 2p)     0.00034       2.52646
   138    H    7  pz     Ryd( 2p)     0.00017       1.60992

   139    H    8  S      Val( 1S)     0.78819       0.02662
   140    H    8  S      Ryd( 2S)     0.00104       0.78281
   141    H    8  S      Ryd( 3S)     0.00016       1.89708
   142    H    8  px     Ryd( 2p)     0.00021       2.15519
   143    H    8  py     Ryd( 2p)     0.00036       2.48687
   144    H    8  pz     Ryd( 2p)     0.00019       1.60081

   145    H    9  S      Val( 1S)     0.77434       0.04326
   146    H    9  S      Ryd( 2S)     0.00098       0.90153
   147    H    9  S      Ryd( 3S)     0.00018       1.79959
   148    H    9  px     Ryd( 2p)     0.00022       2.14166
   149    H    9  py     Ryd( 2p)     0.00034       2.52255
   150    H    9  pz     Ryd( 2p)     0.00016       1.61106

   151    N   10  S      Cor( 1S)     1.99950     -14.12860
   152    N   10  S      Val( 2S)     1.40175      -0.56889
   153    N   10  S      Ryd( 3S)     0.00061       0.63937
   154    N   10  S      Ryd( 4S)     0.00016       1.23261
   155    N   10  S      Ryd( 5S)     0.00000      35.43057
   156    N   10  px     Val( 2p)     1.29599      -0.19444
   157    N   10  px     Ryd( 3p)     0.00313       0.48837
   158    N   10  px     Ryd( 4p)     0.00052       0.65293
   159    N   10  px     Ryd( 5p)     0.00001       4.12315
   160    N   10  py     Val( 2p)     1.79095      -0.22382
   161    N   10  py     Ryd( 3p)     0.00946       0.49837
   162    N   10  py     Ryd( 4p)     0.00013       0.67611
   163    N   10  py     Ryd( 5p)     0.00002       3.95361
   164    N   10  pz     Val( 2p)     1.34244      -0.18439
   165    N   10  pz     Ryd( 3p)     0.00268       0.46438
   166    N   10  pz     Ryd( 4p)     0.00004       0.61409
   167    N   10  pz     Ryd( 5p)     0.00003       4.17551
   168    N   10  dxy    Ryd( 3d)     0.00082       2.47312
   169    N   10  dxz    Ryd( 3d)     0.00033       2.54158
   170    N   10  dyz    Ryd( 3d)     0.00160       2.73855
   171    N   10  dx2y2  Ryd( 3d)     0.00121       2.61215
   172    N   10  dz2    Ryd( 3d)     0.00054       2.59107

   173    H   11  S      Val( 1S)     0.63875       0.09607
   174    H   11  S      Ryd( 2S)     0.00064       0.78124
   175    H   11  S      Ryd( 3S)     0.00023       2.09647
   176    H   11  px     Ryd( 2p)     0.00046       1.79078
   177    H   11  py     Ryd( 2p)     0.00100       1.83569
   178    H   11  pz     Ryd( 2p)     0.00032       2.43897

   179    H   12  S      Val( 1S)     0.63816       0.09672
   180    H   12  S      Ryd( 2S)     0.00063       0.79268
   181    H   12  S      Ryd( 3S)     0.00023       2.08368
   182    H   12  px     Ryd( 2p)     0.00047       1.93828
   183    H   12  py     Ryd( 2p)     0.00099       1.82984
   184    H   12  pz     Ryd( 2p)     0.00030       2.29750

   185    H   13  S      Val( 1S)     0.78142       0.05354
   186    H   13  S      Ryd( 2S)     0.00086       1.11374
   187    H   13  S      Ryd( 3S)     0.00020       1.62811
   188    H   13  px     Ryd( 2p)     0.00020       2.19441
   189    H   13  py     Ryd( 2p)     0.00032       2.55123
   190    H   13  pz     Ryd( 2p)     0.00017       1.62640

   191    O   14  S      Cor( 1S)     1.99976     -18.94422
   192    O   14  S      Val( 2S)     1.62896      -0.86669
   193    O   14  S      Ryd( 3S)     0.00384       0.98223
   194    O   14  S      Ryd( 4S)     0.00012       1.54827
   195    O   14  S      Ryd( 5S)     0.00000      49.57892
   196    O   14  px     Val( 2p)     1.41091      -0.28818
   197    O   14  px     Ryd( 3p)     0.00315       0.72129
   198    O   14  px     Ryd( 4p)     0.00071       0.83454
   199    O   14  px     Ryd( 5p)     0.00003       5.12938
   200    O   14  py     Val( 2p)     1.93820      -0.29917
   201    O   14  py     Ryd( 3p)     0.00614       0.60947
   202    O   14  py     Ryd( 4p)     0.00024       0.86340
   203    O   14  py     Ryd( 5p)     0.00001       4.99100
   204    O   14  pz     Val( 2p)     1.58837      -0.30451
   205    O   14  pz     Ryd( 3p)     0.00175       0.64497
   206    O   14  pz     Ryd( 4p)     0.00044       0.84236
   207    O   14  pz     Ryd( 5p)     0.00003       5.11236
   208    O   14  dxy    Ryd( 3d)     0.00023       3.06257
   209    O   14  dxz    Ryd( 3d)     0.00099       3.23555
   210    O   14  dyz    Ryd( 3d)     0.00070       2.96018
   211    O   14  dx2y2  Ryd( 3d)     0.00062       3.35685
   212    O   14  dz2    Ryd( 3d)     0.00117       3.28858

   213    C   15  S      Cor( 1S)     1.99919     -10.08195
   214    C   15  S      Val( 2S)     1.06676      -0.25341
   215    C   15  S      Ryd( 4S)     0.00216       0.88643
   216    C   15  S      Ryd( 3S)     0.00018       0.83402
   217    C   15  S      Ryd( 5S)     0.00000      23.09848
   218    C   15  px     Val( 2p)     1.09983      -0.09734
   219    C   15  px     Ryd( 3p)     0.00123       0.74465
   220    C   15  px     Ryd( 4p)     0.00034       1.26763
   221    C   15  px     Ryd( 5p)     0.00007       1.86465
   222    C   15  py     Val( 2p)     1.18255      -0.10078
   223    C   15  py     Ryd( 3p)     0.00032       0.60866
   224    C   15  py     Ryd( 4p)     0.00069       1.24393
   225    C   15  py     Ryd( 5p)     0.00003       1.98498
   226    C   15  pz     Val( 2p)     0.82450      -0.07852
   227    C   15  pz     Ryd( 3p)     0.00305       0.58929
   228    C   15  pz     Ryd( 4p)     0.00031       1.30326
   229    C   15  pz     Ryd( 5p)     0.00005       1.89927
   230    C   15  dxy    Ryd( 3d)     0.00076       1.83744
   231    C   15  dxz    Ryd( 3d)     0.00169       2.02483
   232    C   15  dyz    Ryd( 3d)     0.00202       2.16376
   233    C   15  dx2y2  Ryd( 3d)     0.00111       2.25245
   234    C   15  dz2    Ryd( 3d)     0.00164       1.99345

   235    H   16  S      Val( 1S)     0.81775       0.02351
   236    H   16  S      Ryd( 2S)     0.00047       0.48559
   237    H   16  S      Ryd( 3S)     0.00013       2.16949
   238    H   16  px     Ryd( 2p)     0.00038       2.70674
   239    H   16  py     Ryd( 2p)     0.00017       1.74425
   240    H   16  pz     Ryd( 2p)     0.00008       1.72660

   241    H   17  S      Val( 1S)     0.83641       0.01610
   242    H   17  S      Ryd( 2S)     0.00145       0.51329
   243    H   17  S      Ryd( 3S)     0.00016       2.21817
   244    H   17  px     Ryd( 2p)     0.00019       1.82946
   245    H   17  py     Ryd( 2p)     0.00034       2.42141
   246    H   17  pz     Ryd( 2p)     0.00012       2.00562

   247    H   18  S      Val( 1S)     0.83617       0.01649
   248    H   18  S      Ryd( 2S)     0.00145       0.51116
   249    H   18  S      Ryd( 3S)     0.00016       2.22039
   250    H   18  px     Ryd( 2p)     0.00019       1.81629
   251    H   18  py     Ryd( 2p)     0.00034       2.45351
   252    H   18  pz     Ryd( 2p)     0.00012       1.99004

 WARNING:  1 low occupancy (<1.9990e) core orbital  found on  C    2
           1 low occupancy (<1.9990e) core orbital  found on  C    5

 WARNING:  Population inversion found on atom  C    1
           Population inversion found on atom  C    2
           Population inversion found on atom  C    3
           Population inversion found on atom  C    4
           Population inversion found on atom  C    5
           Population inversion found on atom  C    6
           Population inversion found on atom  C   15


 Summary of Natural Population Analysis:                  
                                                          
                                       Natural Population 
                Natural  -----------------------------------------------
    Atom  No    Charge         Core      Valence    Rydberg      Total
 -----------------------------------------------------------------------
      C    1   -0.23508      1.99902     4.21865    0.01741     6.23508
      C    2    0.29940      1.99867     3.67820    0.02373     5.70060
      C    3   -0.23798      1.99900     4.22069    0.01829     6.23798
      C    4   -0.22005      1.99901     4.20247    0.01857     6.22005
      C    5    0.12831      1.99889     3.85276    0.02004     5.87169
      C    6   -0.19973      1.99902     4.18267    0.01803     6.19973
      H    7    0.21968      0.00000     0.77848    0.00184     0.78032
      H    8    0.20985      0.00000     0.78819    0.00195     0.79015
      H    9    0.22379      0.00000     0.77434    0.00187     0.77621
      N   10   -0.85193      1.99950     5.83112    0.02130     7.85193
      H   11    0.35862      0.00000     0.63875    0.00263     0.64138
      H   12    0.35922      0.00000     0.63816    0.00262     0.64078
      H   13    0.21683      0.00000     0.78142    0.00175     0.78317
      O   14   -0.58636      1.99976     6.56643    0.02016     8.58636
      C   15   -0.18849      1.99919     4.17364    0.01566     6.18849
      H   16    0.18101      0.00000     0.81775    0.00124     0.81899
      H   17    0.16133      0.00000     0.83641    0.00226     0.83867
      H   18    0.16157      0.00000     0.83617    0.00226     0.83843
 =======================================================================
   * Total *    0.00000     17.99207    47.81630    0.19163    66.00000

                                 Natural Population      
 --------------------------------------------------------
   Core                      17.99207 ( 99.9559% of  18)
   Valence                   47.81630 ( 99.6173% of  48)
   Natural Minimal Basis     65.80837 ( 99.7096% of  66)
   Natural Rydberg Basis      0.19163 (  0.2904% of  66)
 --------------------------------------------------------

    Atom  No          Natural Electron Configuration
 ----------------------------------------------------------------------------
      C    1      [core]2S( 0.95)2p( 3.27)4p( 0.01)
      C    2      [core]2S( 0.84)2p( 2.83)3d( 0.01)4p( 0.01)
      C    3      [core]2S( 0.96)2p( 3.26)4p( 0.01)
      C    4      [core]2S( 0.95)2p( 3.25)4p( 0.01)
      C    5      [core]2S( 0.86)2p( 2.99)4p( 0.01)
      C    6      [core]2S( 0.95)2p( 3.23)4p( 0.01)
      H    7            1S( 0.78)
      H    8            1S( 0.79)
      H    9            1S( 0.77)
      N   10      [core]2S( 1.40)2p( 4.43)3p( 0.02)
      H   11            1S( 0.64)
      H   12            1S( 0.64)
      H   13            1S( 0.78)
      O   14      [core]2S( 1.63)2p( 4.94)3p( 0.01)
      C   15      [core]2S( 1.07)2p( 3.11)3d( 0.01)
      H   16            1S( 0.82)
      H   17            1S( 0.84)
      H   18            1S( 0.84)


 NBO analysis skipped by request.
 Calling FoFJK, ICntrl=      2127 FMM=F ISym2X=0 I1Cent= 0 IOpClX= 0 NMat=1 NMatS=1 NMatT=0.
 ***** Axes restored to original set *****
 -------------------------------------------------------------------
 Center     Atomic                   Forces (Hartrees/Bohr)
 Number     Number              X              Y              Z
 -------------------------------------------------------------------
      1        6           0.008697940    0.002252141   -0.000114582
      2        6          -0.000818535   -0.019111517   -0.002232414
      3        6           0.010292596   -0.006762542   -0.000139338
      4        6           0.004251533   -0.004373554   -0.000270521
      5        6           0.003214751    0.020359036    0.000104190
      6        6          -0.005472941    0.004006943   -0.000325051
      7        1          -0.009430811    0.003680108   -0.000396862
      8        1          -0.008760423   -0.004535101   -0.000203296
      9        1           0.010290851   -0.003846950   -0.000185697
     10        7          -0.018957954   -0.025145441    0.000017932
     11        1           0.006878730    0.006565530    0.008662286
     12        1           0.006870339    0.006537340   -0.008667508
     13        1          -0.007887251   -0.005967845   -0.000418778
     14        8           0.000989841    0.027796968   -0.000249670
     15        6           0.000154686    0.004440608   -0.012399972
     16        1          -0.000221552   -0.014029705   -0.004591417
     17        1           0.013546366    0.003819605    0.010852888
     18        1          -0.013638164    0.004314379    0.010557810
 -------------------------------------------------------------------
 Cartesian Forces:  Max     0.027796968 RMS     0.009279254

 GradGradGradGradGradGradGradGradGradGradGradGradGradGradGradGradGradGrad
 Berny optimization.
 FormGI is forming the generalized inverse of G from B-inverse, IUseBI=4.
 Internal  Forces:  Max     0.026357679 RMS     0.006290875
 Search for a local minimum.
 Step number   1 out of a maximum of   89
 All quantities printed in internal units (Hartrees-Bohrs-Radians)
 Mixed Optimization -- RFO/linear search
 Second derivative matrix not updated -- first step.
 ITU=  0
     Eigenvalues ---    0.00766   0.01295   0.01295   0.01726   0.02002
     Eigenvalues ---    0.02152   0.02153   0.02154   0.02155   0.02155
     Eigenvalues ---    0.02156   0.02157   0.05453   0.10344   0.10344
     Eigenvalues ---    0.16000   0.16000   0.16000   0.16000   0.16000
     Eigenvalues ---    0.16000   0.16000   0.16000   0.16000   0.22000
     Eigenvalues ---    0.22982   0.24000   0.25000   0.25000   0.25000
     Eigenvalues ---    0.33718   0.33718   0.33726   0.35740   0.37230
     Eigenvalues ---    0.37230   0.37230   0.37230   0.40989   0.40989
     Eigenvalues ---    0.42107   0.42496   0.46412   0.46453   0.46466
     Eigenvalues ---    0.46497   0.47688   0.47688
 RFO step:  Lambda=-9.43786649D-03 EMin= 7.65814437D-03
 Linear search not attempted -- first point.
 Iteration  1 RMS(Cart)=  0.05855404 RMS(Int)=  0.00237823
 Iteration  2 RMS(Cart)=  0.00378461 RMS(Int)=  0.00019352
 Iteration  3 RMS(Cart)=  0.00001655 RMS(Int)=  0.00019326
 Iteration  4 RMS(Cart)=  0.00000001 RMS(Int)=  0.00019326
 Variable       Old X    -DE/DX   Delta X   Delta X   Delta X     New X
                                 (Linear)    (Quad)   (Total)
    R1        2.63647  -0.00400   0.00000  -0.00874  -0.00871   2.62776
    R2        2.63584   0.00037   0.00000   0.00065   0.00065   2.63650
    R3        2.02201   0.00978   0.00000   0.02562   0.02562   2.04762
    R4        2.63562  -0.00413   0.00000  -0.00887  -0.00884   2.62678
    R5        2.70231  -0.02636   0.00000  -0.06286  -0.06286   2.63945
    R6        2.63697  -0.00084   0.00000  -0.00166  -0.00166   2.63531
    R7        2.07809  -0.00996   0.00000  -0.02875  -0.02875   2.04935
    R8        2.63584   0.00338   0.00000   0.00742   0.00739   2.64323
    R9        2.07809  -0.00986   0.00000  -0.02845  -0.02845   2.04964
   R10        2.63643  -0.00258   0.00000  -0.00527  -0.00530   2.63113
   R11        2.77790  -0.01217   0.00000  -0.03319  -0.03319   2.74471
   R12        2.07795  -0.01078   0.00000  -0.03111  -0.03111   2.04684
   R13        1.88973   0.01248   0.00000   0.02566   0.02566   1.91539
   R14        1.88973   0.01248   0.00000   0.02565   0.02565   1.91538
   R15        2.70231   0.00466   0.00000   0.01111   0.01111   2.71342
   R16        2.02201   0.01403   0.00000   0.03676   0.03676   2.05877
   R17        2.02201   0.01750   0.00000   0.04585   0.04585   2.06786
   R18        2.02201   0.01751   0.00000   0.04586   0.04586   2.06787
    A1        2.09437  -0.00114   0.00000  -0.00600  -0.00594   2.08843
    A2        2.09441  -0.00093   0.00000  -0.00583  -0.00590   2.08851
    A3        2.09441   0.00207   0.00000   0.01183   0.01177   2.10618
    A4        2.09455   0.00266   0.00000   0.00927   0.00912   2.10367
    A5        2.09432  -0.00116   0.00000  -0.00397  -0.00427   2.09005
    A6        2.09432  -0.00150   0.00000  -0.00530  -0.00560   2.08872
    A7        2.09429  -0.00220   0.00000  -0.00984  -0.00979   2.08450
    A8        2.09462  -0.00076   0.00000  -0.00606  -0.00612   2.08850
    A9        2.09427   0.00296   0.00000   0.01589   0.01584   2.11011
   A10        2.09429   0.00277   0.00000   0.01277   0.01278   2.10707
   A11        2.09407  -0.00119   0.00000  -0.00522  -0.00523   2.08883
   A12        2.09483  -0.00158   0.00000  -0.00755  -0.00756   2.08727
   A13        2.09448  -0.00456   0.00000  -0.01687  -0.01689   2.07758
   A14        2.09459   0.01084   0.00000   0.04143   0.04143   2.13603
   A15        2.09411  -0.00628   0.00000  -0.02456  -0.02456   2.06956
   A16        2.09440   0.00247   0.00000   0.01068   0.01070   2.10509
   A17        2.09453   0.00095   0.00000   0.00754   0.00752   2.10205
   A18        2.09426  -0.00341   0.00000  -0.01822  -0.01824   2.07602
   A19        1.91063   0.00348   0.00000   0.02085   0.02073   1.93136
   A20        1.91063   0.00345   0.00000   0.02069   0.02058   1.93121
   A21        1.91063  -0.00336   0.00000  -0.01921  -0.01944   1.89120
   A22        1.91114   0.01565   0.00000   0.06032   0.06032   1.97146
   A23        1.91063  -0.00919   0.00000  -0.05852  -0.05834   1.85229
   A24        1.91063   0.00536   0.00000   0.03379   0.03339   1.94402
   A25        1.91063   0.00541   0.00000   0.03411   0.03371   1.94435
   A26        1.91063   0.00009   0.00000  -0.00376  -0.00358   1.90705
   A27        1.91063   0.00007   0.00000  -0.00389  -0.00372   1.90692
   A28        1.91063  -0.00175   0.00000  -0.00174  -0.00260   1.90803
    D1        0.00056  -0.00024   0.00000  -0.00876  -0.00886  -0.00829
    D2       -3.14103   0.00098   0.00000   0.03290   0.03289  -3.10814
    D3       -3.14103  -0.00063   0.00000  -0.02136  -0.02137   3.12079
    D4        0.00056   0.00059   0.00000   0.02030   0.02038   0.02094
    D5        0.00026   0.00006   0.00000   0.00211   0.00210   0.00236
    D6        3.14140  -0.00014   0.00000  -0.00435  -0.00437   3.13703
    D7       -3.14133   0.00045   0.00000   0.01470   0.01474  -3.12659
    D8       -0.00019   0.00025   0.00000   0.00825   0.00827   0.00808
    D9       -0.00099   0.00024   0.00000   0.00868   0.00873   0.00773
   D10        3.14093   0.00062   0.00000   0.02108   0.02107  -3.12118
   D11        3.14060  -0.00099   0.00000  -0.03298  -0.03299   3.10761
   D12       -0.00067  -0.00060   0.00000  -0.02058  -0.02064  -0.02130
   D13       -1.56150  -0.00061   0.00000  -0.02097  -0.02083  -1.58233
   D14        1.58010   0.00061   0.00000   0.02069   0.02055   1.60065
   D15        0.00060  -0.00005   0.00000  -0.00192  -0.00187  -0.00127
   D16       -3.14153   0.00014   0.00000   0.00455   0.00463  -3.13690
   D17       -3.14132  -0.00044   0.00000  -0.01433  -0.01438   3.12748
   D18       -0.00026  -0.00024   0.00000  -0.00786  -0.00788  -0.00815
   D19        0.00023  -0.00013   0.00000  -0.00475  -0.00476  -0.00453
   D20       -3.14158   0.00006   0.00000   0.00259   0.00268  -3.13891
   D21       -3.14083  -0.00033   0.00000  -0.01122  -0.01125   3.13111
   D22        0.00054  -0.00014   0.00000  -0.00389  -0.00381  -0.00327
   D23       -0.00066   0.00013   0.00000   0.00466   0.00463   0.00397
   D24        3.14138   0.00032   0.00000   0.01110   0.01100  -3.13080
   D25        3.14116  -0.00007   0.00000  -0.00269  -0.00253   3.13863
   D26        0.00001   0.00013   0.00000   0.00376   0.00385   0.00386
   D27       -1.04940  -0.00013   0.00000  -0.00332  -0.00344  -1.05284
   D28        1.04499  -0.00001   0.00000  -0.00141  -0.00136   1.04364
   D29        2.09197   0.00006   0.00000   0.00402   0.00396   2.09593
   D30       -2.09682   0.00018   0.00000   0.00592   0.00605  -2.09077
   D31       -3.13234  -0.00005   0.00000  -0.00213  -0.00213  -3.13447
   D32       -1.03794  -0.00228   0.00000  -0.02187  -0.02268  -1.06063
   D33        1.05645   0.00218   0.00000   0.01759   0.01840   1.07485
         Item               Value     Threshold  Converged?
 Maximum Force            0.026358     0.000450     NO 
 RMS     Force            0.006291     0.000300     NO 
 Maximum Displacement     0.259537     0.001800     NO 
 RMS     Displacement     0.060851     0.001200     NO 
 Predicted change in Energy=-4.898172D-03
 GradGradGradGradGradGradGradGradGradGradGradGradGradGradGradGradGradGrad

                          Input orientation:                          
 ---------------------------------------------------------------------
 Center     Atomic      Atomic             Coordinates (Angstroms)
 Number     Number       Type             X           Y           Z
 ---------------------------------------------------------------------
      1          6           0       -1.949675   -1.213217    0.027929
      2          6           0       -0.765052   -1.941188    0.047036
      3          6           0        0.463541   -1.291229    0.029561
      4          6           0        0.501150    0.102536    0.001955
      5          6           0       -0.681517    0.849278   -0.009794
      6          6           0       -1.902895    0.180913    0.000973
      7          1           0        1.378595   -1.873236    0.025606
      8          1           0        1.457572    0.613747   -0.016170
      9          1           0       -2.817790    0.760389   -0.018380
     10          7           0       -0.684412    2.301362   -0.041746
     11          1           0       -0.212307    2.677899    0.772306
     12          1           0       -0.211228    2.641594   -0.871006
     13          1           0       -2.899491   -1.734666    0.022350
     14          8           0       -0.809091   -3.337165    0.033474
     15          6           0       -0.840166   -3.909317    1.350072
     16          1           0       -0.865509   -4.989448    1.210142
     17          1           0        0.052366   -3.640333    1.923172
     18          1           0       -1.732220   -3.595701    1.900805
 ---------------------------------------------------------------------
                    Distance matrix (angstroms):
                    1          2          3          4          5
     1  C    0.000000
     2  C    1.390553   0.000000
     3  C    2.414477   1.390033   0.000000
     4  C    2.781802   2.404602   1.394546   0.000000
     5  C    2.421474   2.792295   2.427855   1.398736   0.000000
     6  C    1.395175   2.408345   2.787121   2.405323   1.392334
     7  H    3.393083   2.144831   1.084468   2.161977   3.414293
     8  H    3.866403   3.386996   2.149214   1.084623   2.152026
     9  H    2.156592   3.393602   3.870216   3.383571   2.138139
    10  N    3.736042   4.244245   3.772213   2.498460   1.452438
    11  H    4.325890   4.708238   4.094193   2.781178   2.043451
    12  H    4.323175   4.706528   4.090651   2.777833   2.043343
    13  H    1.083555   2.144550   3.392149   3.865242   3.405468
    14  O    2.410834   1.396738   2.409453   3.680934   4.188611
    15  C    3.201254   2.361583   3.209016   4.439765   4.951629
    16  H    4.102800   3.264169   4.103288   5.408861   5.967648
    17  H    3.673010   2.659915   3.045179   4.231022   4.942828
    18  H    3.038286   2.666325   3.692359   4.719167   4.950981
                    6          7          8          9         10
     6  C    0.000000
     7  H    3.871475   0.000000
     8  H    3.388271   2.488587   0.000000
     9  H    1.083143   4.954550   4.277877   0.000000
    10  N    2.445982   4.657017   2.727049   2.631814   0.000000
    11  H    3.112552   4.878664   2.769642   3.330251   1.013579
    12  H    3.110793   4.869819   2.761847   3.325668   1.013575
    13  H    2.159422   4.280331   4.949801   2.496724   4.604368
    14  O    3.684337   2.632322   4.555209   4.563717   5.640407
    15  C    4.436152   3.289793   5.253982   5.252600   6.366627
    16  H    5.410259   4.018695   6.188404   6.195264   7.399725
    17  H    4.703171   2.912434   4.881890   5.601229   6.301387
    18  H    4.230994   4.020004   5.618631   4.882341   6.296567
                   11         12         13         14         15
    11  H    0.000000
    12  H    1.643714   0.000000
    13  H    5.220548   5.213108   0.000000
    14  O    6.089583   6.076272   2.633990   0.000000
    15  C    6.642246   6.945731   3.276091   1.435880   0.000000
    16  H    7.707567   7.936754   4.017654   2.029228   1.089452
    17  H    6.427643   6.880371   3.994765   2.098803   1.094262
    18  H    6.552992   6.992868   2.890427   2.099032   1.094268
                   16         17         18
    16  H    0.000000
    17  H    1.780736   0.000000
    18  H    1.780656   1.785283   0.000000
 Stoichiometry    C7H9NO
 Framework group  C1[X(C7H9NO)]
 Deg. of freedom    48
 Full point group                 C1      NOp   1
 Largest Abelian subgroup         C1      NOp   1
 Largest concise Abelian subgroup C1      NOp   1
                         Standard orientation:                         
 ---------------------------------------------------------------------
 Center     Atomic      Atomic             Coordinates (Angstroms)
[...]
 233,0.0530595,-0.1864847,0.032614,0.0979789,-0.3143416,-0.0170298,0.17
 7126,-0.2139811,-0.0313935,-0.0961398,0.0883807,-0.1624904,-0.0214644,
 0.0694809,0.0212677,0.0675071,0.045347,0.0045231,0.021711,0.0048189,0.
 1381038,-0.0391763,-0.0815075,0.0495381,-0.0873667,-0.0072292,0.044380
 1,0.0509174,0.0411486,0.1186086,-0.0622195,0.0918142,0.0240305,0.08552
 46,-0.0047674,0.009647,0.0247435,0.0065145,0.1316163,-0.1248709,-0.028
 3205,-0.0556663,-0.006035,-1.5499888,0.0817968,-0.0550836,-0.2798435,-
 0.3546675,0.1352375,0.0755306,0.0625564,0.0588862,0.2292076,0.0226302,
 0.0779968,0.1845638,0.1682742,0.0831606,0.0030421,-0.0256683,-0.046733
 6,0.2239119,0.0435471,-0.0380952,0.1918058,0.2158108,-0.0149803,-0.089
 1511,0.0472797,-0.0645085,0.0397625,0.032054,0.0427603,0.0375817,0.127
 3631,-0.4886604,-0.192771,0.0783816,-0.2313718,-1.8884803,0.3321766,0.
 0857652,0.3225601,-0.351223,0.5510907,0.5496858,-0.1378606,0.2023012,0
 .6431162,-0.0935216,-0.0767764,-0.1652936,0.3967319,0.0484474,0.072511
 4,-0.0037397,0.0136543,-0.1460137,0.0402288,0.0067025,0.0275099,0.0874
 091,-0.018409,-0.1035018,0.0788538,0.0362515,0.0203103,-0.0980706,0.08
 23444,0.0100397,-0.1231609,-0.0899209,-0.13376,-0.0571676,0.0270139,0.
 0384711,0.0382205,-0.1141558,-0.0079554,-0.0734485\Polar=95.7760084,2.
 2766081,131.0004811,-7.6665856,-13.1837481,63.572793\PG=C01 [X(C7H9N1O
 1)]\NImag=0\\0.68503451,0.01444734,0.66221087,-0.11671902,-0.09825381,
 0.16015321,-0.27592131,0.03347818,0.03747440,0.66889331,0.09920808,-0.
 16068765,-0.00273927,-0.01291764,0.63254470,0.02569658,0.01033659,-0.0
 6931210,-0.10379756,-0.08317361,0.18044223,-0.04954292,0.01823757,0.00
 797810,-0.25499154,-0.10329142,0.05631279,0.68368720,-0.02477665,0.057
 04144,-0.00397707,-0.03582884,-0.15452822,0.02267752,-0.05456958,0.696
 69070,0.01579187,-0.01257774,0.00586116,0.04420915,0.03630414,-0.08169
 540,-0.10295160,-0.08927618,0.16091888,-0.02105682,0.02809199,-0.00106
 620,0.04309387,-0.02479799,-0.00374101,-0.12313884,-0.01209741,0.01651
 013,0.66346751,0.02730591,-0.04468843,0.00222196,-0.07205461,-0.029791
 25,0.02036052,0.04424230,-0.34783001,0.04282442,0.01479764,0.69321280,
 -0.00113253,0.00264322,-0.00168557,0.00567870,0.01093108,0.00018187,0.
 00613421,0.05280961,-0.06277788,-0.10970158,-0.10078762,0.16157328,0.0
 3989292,-0.07290870,0.00564742,-0.07732251,-0.00541836,0.01582885,0.02
 978626,0.07768349,-0.01955732,-0.26185913,0.03329831,0.03338075,0.6599
 4081,-0.02805858,-0.02790008,0.01151641,-0.00177294,-0.00169619,-0.000
 32574,0.03410855,-0.02231302,-0.00193279,0.10041338,-0.15722787,-0.002
 89692,-0.01217622,0.66734894,-0.00365196,0.02025488,-0.00073475,0.0154
 4257,0.00023232,-0.00644605,-0.01045621,-0.01091347,0.00681051,0.02048
 107,0.00905264,-0.07094711,-0.10037568,-0.09480298,0.18978126,-0.11752
 676,0.04201251,0.00593522,0.02590546,0.03457753,-0.01067623,-0.0157925
 8,-0.02238231,0.00698709,-0.04984669,0.01558652,0.00846185,-0.25446124
 ,-0.10488139,0.05834138,0.68028783,-0.01389339,-0.32274400,0.05069932,
 0.07961181,-0.01971246,-0.01196483,-0.02488088,-0.04663009,0.01313810,
 -0.02500124,0.05592349,-0.00415195,-0.03941494,-0.17054578,0.02627337,
 -0.04237315,0.67156635,0.01636643,0.03814642,-0.06064751,-0.01981574,-
 0.00302835,0.00717079,0.00768276,0.01324928,-0.00488324,0.01581224,-0.
 01229962,0.00554495,0.04536364,0.04086517,-0.08128818,-0.10705510,-0.0
 8693149,0.15587477,-0.00299530,-0.00361477,0.00220893,-0.01821149,0.01
 624469,0.00187853,-0.27286042,0.11497724,0.02775298,0.00267159,-0.0012
 3426,0.00017521,0.00236620,-0.00063000,0.00109888,0.00036225,-0.001025
 37,-0.00008741,0.28702587,-0.00259847,-0.00118250,0.00157532,-0.014054
 80,0.01065144,0.00186969,0.11633885,-0.11855313,-0.00853535,0.02740736
 ,-0.00941950,-0.00343668,-0.00098237,-0.00451548,0.00217238,-0.0005798
 5,-0.00078295,0.00008823,-0.12637555,0.12199997,0.00202983,0.00178108,
 0.00410832,0.00718175,-0.00424834,0.00458115,0.02748867,-0.00826650,-0
 .03845322,-0.00487350,0.00240284,0.00308741,0.00123239,0.00234716,0.00
 683664,-0.00023964,0.00013598,-0.00099938,-0.03068132,0.00816397,0.028
 77889,0.00011913,0.00102312,-0.00034618,0.00215576,0.00167535,0.000699
 80,0.00466134,0.00241905,-0.00081452,-0.24379424,-0.11215639,0.0601369
 6,-0.01761875,-0.01799002,0.00741659,-0.00347866,0.00411577,0.00099363
 ,0.00062336,-0.00045450,-0.00091904,0.25702895,0.00052533,-0.00083982,
 -0.00007023,0.00244360,-0.00369018,0.00140694,-0.02731631,-0.01196913,
 0.00785588,-0.11204373,-0.12681039,0.03810083,0.01223897,0.00918030,-0
 .00327203,0.00316648,-0.00047655,0.00027531,0.00015972,0.00089632,-0.0
 0095158,0.12189677,0.13270853,-0.00029176,-0.00014026,-0.00066015,0.00
 062904,0.00166598,0.00708543,0.00444073,0.00220584,0.00121660,0.059844
 48,0.03762925,-0.05153229,0.00234121,0.00269984,0.00320918,0.00115875,
 0.00012819,0.00484651,-0.00106522,-0.00086484,-0.00422148,-0.06622483,
 -0.04286927,0.04325962,0.00122241,-0.00086484,0.00027996,0.00257797,-0
 .00036318,0.00090725,0.00026203,-0.00099043,-0.00008260,-0.00261002,-0
 .00384569,0.00231782,-0.01832923,0.01611341,0.00178081,-0.27070428,0.1
 0906616,0.03042502,-0.00006521,0.00006301,-0.00010155,-0.00108894,0.00
 066145,0.00008256,0.28662316,0.02831362,-0.01068477,-0.00363032,-0.001
 40053,-0.00433388,0.00212638,-0.00050954,-0.00082157,0.00010091,-0.002
 89238,-0.00092101,0.00164645,-0.01409140,0.00938297,0.00200759,0.10939
 372,-0.11292657,-0.00824553,0.00005681,0.00000807,-0.00010257,-0.00079
 088,0.00050651,0.00003564,-0.11933452,0.11801672,-0.00497091,0.0025174
 1,0.00254236,0.00102395,0.00201917,0.00585431,-0.00011374,0.00024491,-
 0.00094522,0.00215311,0.00188669,0.00473681,0.00687731,-0.00434045,0.0
 0372449,0.03074212,-0.00855466,-0.03696778,-0.00010548,-0.00010889,-0.
 00049516,0.00035742,-0.00025610,-0.00010590,-0.03405339,0.00772480,0.0
 2817097,-0.00783480,0.00532636,0.00054885,0.00644917,0.00050981,-0.001
 64790,-0.00783091,-0.00531363,0.00433100,-0.00097539,0.04598362,-0.005
 35036,-0.11423806,0.01736456,0.01460011,0.00417721,-0.04176684,0.00663
 030,-0.00006614,0.00147443,-0.00019693,0.00152803,0.00018490,-0.001716
 83,0.00163352,-0.00065707,0.00003901,0.74344148,0.00267720,0.00233988,
 0.00054086,-0.00217409,0.00401191,-0.00020566,-0.00202334,0.00268802,0
 .00131842,0.01245979,-0.03196504,0.00271724,0.00739644,-0.27141982,0.0
 1863322,-0.00910283,-0.03476116,0.00754091,0.00015200,-0.00032052,-0.0
 0004026,-0.00101256,0.00164719,-0.00102118,0.00059179,0.00167341,-0.00
 138315,-0.04290762,0.52953569,0.00401691,0.00003467,0.00415338,-0.0018
 8222,0.00049323,-0.00107383,0.00100732,0.00198784,0.00362961,0.0023176
 8,-0.00295942,0.00574295,0.01373868,0.06392663,-0.04719921,-0.00152518
 ,0.01505617,0.00444701,0.00011380,0.00001816,0.00034958,-0.00035705,-0
 .00103418,-0.00221196,-0.00132491,-0.00094926,-0.00273080,-0.10916621,
 -0.22107497,0.24389537,-0.00022982,-0.00003354,0.00034038,0.00031760,-
 0.00038624,-0.00023976,-0.00039230,-0.00051992,-0.00074341,0.00144965,
 0.00285845,-0.00116004,0.00277410,-0.00324169,-0.00246359,0.00140508,0
 .00124124,0.00029512,-0.00000604,0.00005895,0.00005532,-0.00043235,-0.
 00016166,0.00086777,0.00031592,0.00014244,-0.00007505,-0.24667542,-0.0
 8780610,0.16279417,0.26146482,-0.00180344,-0.00012888,0.00010869,0.000
 29869,0.00011756,0.00012027,-0.00009253,-0.00069763,-0.00069570,-0.002
 04714,0.00247010,-0.00066387,-0.03024453,-0.01689545,0.02239858,0.0034
 3224,-0.00548063,0.00125282,-0.00002326,0.00007460,-0.00001196,0.00140
 658,0.00018745,0.00031082,-0.00007903,0.00013651,0.00004342,-0.0819832
 5,-0.10102746,0.09619533,0.10145204,0.11538665,0.00025489,-0.00083421,
 0.00170768,-0.00067623,-0.00053997,0.00035581,0.00038718,0.00074469,-0
 .00049577,-0.00026640,-0.00067451,0.00068470,-0.00138760,-0.00865692,-
 0.00467930,0.00049237,0.00082033,0.00076513,-0.00001253,-0.00001556,-0
 .00003718,-0.00061967,0.00038930,0.00007088,-0.00009789,-0.00016905,-0
 .00063919,0.19592993,0.12258884,-0.16625929,-0.18241446,-0.10843248,0.
 16502577,-0.00020180,0.00068708,0.00072334,0.00034292,0.00019162,0.000
 16634,-0.00014272,-0.00022625,0.00043819,0.00117192,-0.00049291,-0.000
 45289,0.00113287,0.00014869,-0.00141942,0.00191465,-0.00286138,0.00065
 781,0.00002689,0.00000994,-0.00002383,0.00024761,-0.00018926,-0.000275
 67,-0.00039173,0.00027965,-0.00073640,-0.37958607,0.11982969,-0.070087
 08,-0.01979275,0.00956862,-0.01140537,0.39529453,-0.00019555,-0.000670
 45,-0.00064704,-0.00020336,0.00010163,0.00019990,0.00181434,-0.0000325
 5,-0.00057604,-0.00223363,-0.00577727,0.00242877,0.03768947,-0.0147213
 9,0.00753640,0.00158181,0.00246696,-0.00137380,-0.00004919,-0.00046734
 ,0.00001797,0.00009009,0.00012716,-0.00003042,-0.00121893,0.00001266,0
 .00087572,0.10373858,-0.09230507,0.04928140,-0.01446594,0.00600573,-0.
 00607836,-0.12640117,0.10486991,-0.00055703,0.00051517,-0.00070879,0.0
 0104773,-0.00051867,-0.00008665,0.00041095,-0.00081056,0.00152558,-0.0
 0053926,0.00122301,0.00134143,-0.00139407,-0.00923657,-0.00472360,-0.0
 0008789,0.00051136,0.00029152,-0.00002621,-0.00002735,-0.00006252,-0.0
 0026198,-0.00010264,-0.00051074,0.00077339,0.00034005,0.00012205,-0.10
 439828,0.06924580,-0.04297135,0.02266470,-0.01056848,0.00378024,0.0826
 2479,-0.05160895,0.04216618,-0.25324182,-0.11255975,0.06450326,-0.0166
 3293,-0.01768910,0.00722195,-0.00364962,0.00402160,0.00112260,0.000133
 65,0.00104323,-0.00039092,0.00216598,0.00166918,0.00065203,0.00467289,
 0.00235897,-0.00095800,-0.00096375,-0.00088455,0.00033225,-0.00005610,
 -0.00010798,-0.00009589,0.00073141,-0.00037343,-0.00090358,0.00003871,
 -0.00014153,0.00003632,0.00002632,0.00005837,0.00000013,-0.00002492,0.
 00001616,0.00000315,0.26496617,-0.11319446,-0.12347007,0.03907831,0.01
 081853,0.01228777,-0.00369847,0.00318818,-0.00081304,0.00043927,0.0007
 4101,-0.00079590,-0.00013497,0.00184210,-0.00453210,0.00148438,-0.0268
 4812,-0.01148982,0.00772606,0.00075743,0.00039998,-0.00023743,-0.00009
 637,-0.00000137,-0.00009147,0.00008372,0.00093181,-0.00090117,-0.00131
 492,-0.00046427,0.00060680,0.00001040,-0.00046868,-0.00001899,-0.00006
 801,0.00006728,0.00002611,0.12403090,0.13315677,0.06461057,0.03894151,
 -0.05139311,0.00228605,0.00206939,0.00297702,0.00126077,0.00024439,0.0
 0510735,-0.00027220,-0.00023376,-0.00072716,0.00053662,0.00176739,0.00
 618874,0.00418842,0.00192545,0.00073854,0.00004818,0.00009521,-0.00010
 826,-0.00010264,-0.00008406,-0.00059522,-0.00101525,-0.00076943,-0.003
 69425,0.00032120,0.00008893,0.00035835,0.00000931,-0.00001413,-0.00000
 561,-0.00005495,-0.00003709,-0.00003249,-0.07067704,-0.04449625,0.0446
 9393,-0.00000528,0.03979179,-0.00572600,-0.10843090,0.01319503,0.01234
 223,0.00983001,-0.04260502,0.00668031,-0.00752610,0.00287088,0.0017103
 5,0.00451962,0.00048581,-0.00128601,-0.00670562,-0.00494922,0.00353508
 ,0.00178901,0.00051710,-0.00108680,0.00003220,-0.00163056,0.00038978,-
 0.00004779,0.00157268,-0.00019615,0.00005514,-0.00016722,-0.00004278,-
 0.00005046,0.00015264,0.00000102,-0.00009593,-0.00009228,0.00001680,0.
 00115283,-0.00203578,-0.00045261,0.33478275,0.01027623,-0.03075445,0.0
 0438136,0.05170039,-0.25619712,0.02776982,-0.00870898,-0.04678057,0.01
 101626,0.00042691,0.00218383,0.00017485,0.00347366,0.00715358,-0.00076
 452,-0.00190977,-0.00341095,0.00214853,0.00090387,0.00120657,-0.000945
 30,-0.00025417,-0.00115462,0.00034544,0.00024626,-0.00137882,0.0002932
 6,-0.00047306,-0.01173713,-0.00195880,0.00102680,0.00041217,0.00106685
 ,-0.00056885,0.00039239,0.00126860,-0.00043727,-0.00000088,-0.00040364
 ,0.06758791,0.48510145,-0.00057332,-0.00144871,0.00652634,0.00563821,0
 .03589245,-0.04463387,0.00066180,0.01785182,0.00259971,0.00223017,-0.0
 0024751,0.00343403,-0.00171788,-0.00151112,-0.00094097,0.00283387,0.00
 258299,0.00486024,-0.00116594,-0.00087314,-0.00278320,0.00011550,0.000
 62337,0.00031366,0.00007213,0.00003040,0.00047113,0.00011766,0.0019507
 4,0.00024918,-0.00004625,-0.00011372,-0.00031183,-0.00011338,-0.000033
 40,-0.00022475,-0.00072629,-0.00007195,-0.00267307,-0.06789443,-0.0881
 2887,0.09482390,0.00276618,0.00704477,-0.00196911,0.00574666,-0.010774
 37,-0.00039202,0.00051833,0.00362163,-0.00032822,-0.00100659,0.0012698
 8,0.00026909,0.00055379,-0.00251951,0.00002103,-0.00049740,0.00089166,
 -0.00004851,0.00006729,-0.00013462,-0.00011998,0.00012685,0.00041783,-
 0.00013161,-0.00019048,0.00050054,-0.00007282,-0.00013837,0.00360785,0
 .00060659,-0.00027990,-0.00017056,-0.00031727,0.00016699,-0.00009513,-
 0.00042285,-0.00084802,0.00148728,-0.00011663,-0.17882510,-0.06855774,
 0.03717342,0.49803644,0.00016751,0.00081788,-0.00027679,-0.03293762,-0
 .04043328,0.01308155,0.00436065,-0.00206590,-0.00016404,-0.00204828,-0
 .00016012,0.00069110,-0.00030531,-0.00152954,0.00015545,-0.00114904,0.
 00074427,0.00009688,-0.00046657,-0.00008159,-0.00000148,0.00015593,-0.
 00020226,-0.00001848,-0.00011965,0.00045763,-0.00008012,-0.00001625,0.
 00227794,0.00037222,-0.00017908,-0.00010185,-0.00022582,0.00010029,-0.
 00008225,-0.00025235,-0.00092514,-0.00238753,0.00059370,-0.03628500,-0
 .11759204,0.01800119,-0.07146825,0.56830653,-0.00071481,-0.00175289,-0
 .00025354,0.00347863,0.00840676,-0.00748610,-0.00046147,-0.00006070,0.
 00202879,0.00086509,0.00000120,0.00130050,0.00002329,0.00085975,0.0004
 8443,0.00034819,-0.00024871,0.00016364,-0.00005581,-0.00006694,-0.0006
 1226,-0.00008129,-0.00007231,-0.00010046,0.00003744,-0.00020610,-0.000
 07617,-0.00007312,-0.00124207,-0.00046018,0.00014463,0.00009285,0.0000
 6936,-0.00005869,0.00006404,0.00014301,0.00031907,0.00011589,-0.000153
 37,0.03158333,0.02485875,-0.06931418,0.02508882,0.01308965,0.55041392,
 -0.00126837,0.00041460,0.00023703,-0.00397347,-0.00163725,0.00128277,0
 .00045571,-0.00149200,0.00022115,-0.00043099,0.00016337,0.00004870,0.0
 0017516,0.00019224,-0.00005893,0.00045806,-0.00029054,0.00000008,-0.00
 002860,0.00003482,0.00000599,0.00000788,-0.00012356,0.00001156,-0.0000
 0846,-0.00005593,0.00001693,0.00004008,-0.00007867,-0.00003790,0.00000
 575,0.00001782,0.00000787,-0.00000672,-0.00001010,0.00001303,0.0007619
 6,0.00035749,-0.00031255,0.00479391,-0.03812777,0.00589288,-0.08616842
 ,0.10418403,-0.01136828,0.09443845,-0.00018955,0.00026044,0.00003969,-
 0.00311781,0.00188310,0.00046767,0.00040481,-0.00091253,0.00012690,-0.
 00022698,-0.00012568,0.00006908,-0.00001662,0.00032752,-0.00002809,-0.
 00002819,-0.00009947,0.00006754,-0.00003808,0.00001589,0.00001046,-0.0
 0000746,-0.00011430,0.00001271,0.00002443,-0.00004856,0.00000872,-0.00
 000390,-0.00038195,-0.00006410,0.00002609,0.00002429,0.00002973,-0.000
 00932,0.00002299,0.00003970,-0.00007194,0.00007864,-0.00008546,-0.0016
 8173,-0.02566632,0.00496284,0.09165792,-0.27617281,0.02163355,-0.09261
 789,0.30688964,0.00034630,-0.00008888,0.00021279,0.00151210,0.00011398
 ,0.00035945,-0.00011285,0.00051776,0.00016417,0.00013090,-0.00001595,-
 0.00001619,-0.00004889,-0.00011020,-0.00002354,-0.00004319,0.00011815,
 0.00019907,0.00001687,-0.00000662,0.00001709,-0.00000893,0.00003730,-0
 .00005343,0.00000341,0.00002527,0.00002421,-0.00000796,0.00008067,-0.0
 0000955,-0.00000785,-0.00000631,-0.00001403,0.00000174,0.00000008,-0.0
 0000458,-0.00023690,-0.00017507,-0.00039379,-0.00062046,0.01252622,-0.
 00178954,-0.00912179,0.01905693,-0.05216820,0.00680067,-0.02765989,0.0
 5019922,0.00057273,-0.00035053,-0.00041894,0.00006282,0.00544456,-0.00
 080918,-0.00048833,-0.00091090,-0.00006015,0.00005878,0.00013212,-0.00
 027865,0.00027316,0.00034005,0.00001015,-0.00017007,-0.00037954,0.0001
 0981,0.00014934,0.00009852,0.00013095,-0.00002472,-0.00005009,0.000048
 07,0.00003422,-0.00006724,-0.00000054,-0.00001534,-0.00058919,-0.00008
 763,0.00003837,0.00002244,0.00005201,-0.00002318,0.00002279,0.00006816
 ,0.00022799,0.00013797,-0.00012031,-0.02276569,-0.00336682,0.02915606,
 -0.07837363,0.02865065,0.07229712,-0.00298830,0.00458688,0.01018544,0.
 09332928,0.00112169,0.00054971,-0.00027496,-0.00056480,0.00470880,0.00
 120843,-0.00073845,-0.00122529,-0.00007945,-0.00053982,0.00082273,-0.0
 0025883,0.00095484,-0.00010931,-0.00031387,-0.00041318,-0.00087841,-0.
 00022101,0.00011160,0.00004534,0.00009033,-0.00000518,0.00001189,0.000
 02524,-0.00000639,0.00001147,0.00005188,-0.00007449,0.00018910,0.00012
 502,-0.00001546,-0.00002133,0.00002399,0.00001211,-0.00001247,-0.00003
 556,0.00010665,-0.00101004,0.00139270,-0.01429623,0.00322503,0.0222547
 8,0.03160900,-0.07996951,-0.07593342,0.00930922,-0.00733547,-0.0261192
 0,-0.02723830,0.07982975,0.00097412,-0.00005101,-0.00011140,0.00038538
 ,-0.00391364,0.00086573,0.00018106,0.00084698,-0.00025804,-0.00006623,
 -0.00024032,0.00015233,-0.00025475,-0.00037258,-0.00001797,-0.00031418
 ,0.00041395,0.00007088,-0.00013315,-0.00008410,-0.00002373,0.00000576,
 0.00003507,-0.00002201,0.00000161,0.00006573,-0.00001260,-0.00003947,0
 .00044450,0.00011423,-0.00003949,-0.00003404,-0.00004330,0.00002906,-0
 .00000456,-0.00006857,-0.00085804,0.00024736,-0.00023141,0.01185029,0.
 00758889,-0.00432833,0.07426416,-0.07203082,-0.23968846,-0.00238655,0.
 00039263,0.00438125,-0.09100277,0.07578500,0.25850975,0.00021712,-0.00
 022318,0.00036853,-0.00006138,0.00622887,-0.00103344,-0.00037068,-0.00
 101009,0.00049335,0.00019785,0.00023163,0.00015333,0.00024804,0.000434
 49,-0.00013284,-0.00000012,-0.00044911,0.00009284,0.00011515,0.0000617
 5,-0.00021458,-0.00003735,-0.00007190,-0.00001213,0.00003550,-0.000086
 54,0.00001821,-0.00000283,-0.00071161,-0.00012051,0.00006144,0.0000342
 8,0.00007203,-0.00003257,0.00001204,0.00006486,0.00053925,0.00010264,-
 0.00013694,-0.03250260,-0.01323760,-0.01165421,-0.16165462,0.00828111,
 -0.12137214,-0.00626363,0.00130933,-0.00878861,0.01010258,0.00066719,0
 .00740321,0.18940886,0.00066718,0.00053088,-0.00029244,-0.00132416,0.0
 0476331,-0.00225698,-0.00056424,-0.00124749,0.00071299,-0.00040948,0.0
 0089952,0.00011862,0.00098116,0.00001270,-0.00010627,-0.00008298,-0.00
 076222,0.00064266,0.00009370,0.00002484,-0.00014438,-0.00001513,-0.000
 00673,-0.00002304,-0.00002759,-0.00002256,-0.00004144,-0.00007121,0.00
 001929,-0.00005674,-0.00000679,0.00000686,-0.00001787,-0.00001052,0.00
 000207,-0.00000868,-0.00011437,-0.00148854,-0.00099484,-0.02243081,-0.
 00500212,-0.01172217,0.01161181,-0.05182556,0.01046072,0.01976011,0.00
 135457,0.02170578,-0.00648337,0.00116800,-0.00908903,-0.00157330,0.051
 57318,-0.00147616,-0.00002344,0.00024168,0.00018408,0.00003334,0.00086
 019,0.00014951,-0.00007616,-0.00035357,0.00018153,-0.00014382,-0.00009
 406,-0.00023397,0.00020393,-0.00003458,0.00045214,0.00004830,-0.000186
 97,0.00003966,0.00003650,0.00003730,0.00001047,-0.00001160,0.00001176,
 -0.00000583,-0.00003095,0.00002073,0.00007901,-0.00018284,-0.00002350,
 0.00001851,0.00001792,0.00002591,-0.00001361,-0.00001463,0.00002402,0.
 00065590,0.00010159,-0.00005621,0.00919606,-0.00123772,0.01372154,-0.1
 2438229,0.00791123,-0.18429072,-0.00037447,-0.00002367,-0.00108443,-0.
 01927959,0.00227893,-0.01928835,0.13479904,-0.00888691,0.19046925\\-0.
 00000016,0.00002792,0.00000507,0.00000460,-0.00000816,-0.00000829,-0.0
 0000760,0.00001928,-0.00000603,0.00000132,-0.00000770,-0.00000501,0.00
 000444,0.00001643,-0.00000183,-0.00001309,-0.00001537,0.00000778,0.000
 00388,-0.00000254,0.00000511,0.00000299,0.00000561,0.00000320,0.000001
 03,0.00000676,-0.00000043,-0.00000057,-0.00001355,-0.00003598,0.000007
 30,-0.00000386,0.00001687,0.00000448,-0.00001033,0.00001680,0.00000154
 ,-0.00000164,0.00000083,0.00001022,0.00000214,-0.00000269,-0.00000609,
 -0.00001037,-0.00000224,-0.00000941,0.00000478,0.00000456,-0.00000236,
 -0.00000662,-0.00000671,-0.00000250,-0.00000277,0.00000900\\\@


 IT IS A QUALITY OF REVOLUTIONS NOT TO GO BY OLD LINES OR OLD LAWS,
 BUT TO BREAK UP BOTH, AND MAKE NEW ONES.
                                              -- A. LINCOLN (1848)
 Job cpu time:       0 days  0 hours 27 minutes 13.9 seconds.
 File lengths (MBytes):  RWF=    160 Int=      0 D2E=      0 Chk=      6 Scr=      1
 Normal termination of Gaussian 09 at Mon Jan  9 18:01:02 2023.
