	You are loading a legacy vmd module, please load an up to date module instead.


	 module load container_env vmd

	Please run vmd command with crun.vmd prepend to it:
	
	 crun.vmd vmd

	 
module: Command not found.
module: Command not found.
 Entering Gaussian System, Link 0=g09
 Initial command:
 /opt/gaussian/g09/l1.exe "/tmp/G09-26.com.o10577413.tmp/Gau-1687029.inp" -scrdir="/tmp/G09-26.com.o10577413.tmp/"
 Entering Link 1 = /opt/gaussian/g09/l1.exe PID=   1687030.
  
 Copyright (c) 1988,1990,1992,1993,1995,1998,2003,2009,2013,
            Gaussian, Inc.  All Rights Reserved.
  
 This is part of the Gaussian(R) 09 program.  It is based on
 the Gaussian(R) 03 system (copyright 2003, Gaussian, Inc.),
 the Gaussian(R) 98 system (copyright 1998, Gaussian, Inc.),
 the Gaussian(R) 94 system (copyright 1995, Gaussian, Inc.),
 the Gaussian 92(TM) system (copyright 1992, Gaussian, Inc.),
 the Gaussian 90(TM) system (copyright 1990, Gaussian, Inc.),
 the Gaussian 88(TM) system (copyright 1988, Gaussian, Inc.),
 the Gaussian 86(TM) system (copyright 1986, Carnegie Mellon
 University), and the Gaussian 82(TM) system (copyright 1983,
 Carnegie Mellon University). Gaussian is a federally registered
 trademark of Gaussian, Inc.
  
 This software contains proprietary and confidential information,
 including trade secrets, belonging to Gaussian, Inc.
  
 This software is provided under written license and may be
 used, copied, transmitted, or stored only in accord with that
 written license.
  
 The following legend is applicable only to US Government
 contracts under FAR:
  
                    RESTRICTED RIGHTS LEGEND
  
 Use, reproduction and disclosure by the US Government is
 subject to restrictions as set forth in subparagraphs (a)
 and (c) of the Commercial Computer Software - Restricted
 Rights clause in FAR 52.227-19.
  
 Gaussian, Inc.
 340 Quinnipiac St., Bldg. 40, Wallingford CT 06492
  
  
 ---------------------------------------------------------------
 Warning -- This program may not be used in any manner that
 competes with the business of Gaussian, Inc. or will provide
 assistance to any competitor of Gaussian, Inc.  The licensee
 of this program is prohibited from giving any competitor of
 Gaussian, Inc. access to this program.  By using this program,
 the user acknowledges that Gaussian, Inc. is engaged in the
 business of creating and licensing software in the field of
 computational chemistry and represents and warrants to the
 licensee that it is not a competitor of Gaussian, Inc. and that
 it will not use this program in any manner prohibited above.
 ---------------------------------------------------------------
  

 Cite this work as:
 Gaussian 09, Revision D.01,
 M. J. Frisch, G. W. Trucks, H. B. Schlegel, G. E. Scuseria, 
 M. A. Robb, J. R. Cheeseman, G. Scalmani, V. Barone, B. Mennucci, 
 G. A. Petersson, H. Nakatsuji, M. Caricato, X. Li, H. P. Hratchian, 
 A. F. Izmaylov, J. Bloino, G. Zheng, J. L. Sonnenberg, M. Hada, 
 M. Ehara, K. Toyota, R. Fukuda, J. Hasegawa, M. Ishida, T. Nakajima, 
 Y. Honda, O. Kitao, H. Nakai, T. Vreven, J. A. Montgomery, Jr., 
 J. E. Peralta, F. Ogliaro, M. Bearpark, J. J. Heyd, E. Brothers, 
 K. N. Kudin, V. N. Staroverov, T. Keith, R. Kobayashi, J. Normand, 
 K. Raghavachari, A. Rendell, J. C. Burant, S. S. Iyengar, J. Tomasi, 
 M. Cossi, N. Rega, J. M. Millam, M. Klene, J. E. Knox, J. B. Cross, 
 V. Bakken, C. Adamo, J. Jaramillo, R. Gomperts, R. E. Stratmann, 
 O. Yazyev, A. J. Austin, R. Cammi, C. Pomelli, J. W. Ochterski, 
 R. L. Martin, K. Morokuma, V. G. Zakrzewski, G. A. Voth, 
 P. Salvador, J. J. Dannenberg, S. Dapprich, A. D. Daniels, 
 O. Farkas, J. B. Foresman, J. V. Ortiz, J. Cioslowski, 
 and D. J. Fox, Gaussian, Inc., Wallingford CT, 2013.
 
 ******************************************
 Gaussian 09:  ES64L-G09RevD.01 24-Apr-2013
                23-Apr-2024 
 ******************************************
 %nprocshared=20
 Will use up to   20 processors via shared memory.
 %mem=4GB
 %chk=26.chk
 ----------------------------------------------------------------------
 # opt freq=noraman b3lyp/6-311+g(d,p) pop=(npa,hirshfeld,chelpg,mbs) g
 eom=connectivity
 ----------------------------------------------------------------------
 1/14=-1,18=20,19=15,26=3,38=1,57=2/1,3;
 2/9=110,12=2,17=6,18=5,40=1/2;
 3/5=4,6=6,7=111,11=2,16=1,25=1,30=1,71=1,74=-5/1,2,3;
 4//1;
 5/5=2,38=5/2;
 6/7=2,8=2,9=2,10=2,15=8,20=3,27=100,28=1,40=-1,79=1/1,2,7;
 7//1,2,3,16;
 1/14=-1,18=20,19=15,26=3/3(2);
 2/9=110/2;
 99//99;
 2/9=110/2;
 3/5=4,6=6,7=111,11=2,16=1,25=1,30=1,71=1,74=-5/1,2,3;
 4/5=5,16=3,69=1/1;
 5/5=2,38=5/2;
 7//1,2,3,16;
 1/14=-1,18=20,19=15,26=3/3(-5);
 2/9=110/2;
 6/7=2,8=2,9=2,10=2,15=8,19=2,20=3,27=100,28=1,40=-1,79=1/1,2,7;
 99/9=1/99;
 -------------------
 Title Card Required
 -------------------
 Symbolic Z-matrix:
 Charge =  0 Multiplicity = 1
 C                     0.4572   -0.1751    0. 
 C                     1.85236  -0.1751    0. 
 C                     2.5499    1.03265   0. 
 C                     1.85224   2.24116  -0.0012 
 C                     0.45742   2.24108  -0.00168 
 C                    -0.24018   1.03288  -0.00068 
 H                     2.40187  -1.12761   0.00132 
 H                    -0.0927    3.19337  -0.00263 
 H                    -1.33979   1.03306  -0.00086 
 O                     2.56771   3.47931  -0.00128 
 H                     2.72725   3.75717  -0.90623 
 H                    -0.07781  -1.10174   0.00052 
 H                     3.6199    1.03255   0.00092 
 

 GradGradGradGradGradGradGradGradGradGradGradGradGradGradGradGradGradGrad
 Berny optimization.
 Initialization pass.
                           ----------------------------
                           !    Initial Parameters    !
                           ! (Angstroms and Degrees)  !
 --------------------------                            --------------------------
 ! Name  Definition              Value          Derivative Info.                !
 --------------------------------------------------------------------------------
 ! R1    R(1,2)                  1.3952         estimate D2E/DX2                !
 ! R2    R(1,6)                  1.3948         estimate D2E/DX2                !
 ! R3    R(1,12)                 1.07           estimate D2E/DX2                !
 ! R4    R(2,3)                  1.3947         estimate D2E/DX2                !
 ! R5    R(2,7)                  1.0997         estimate D2E/DX2                !
 ! R6    R(3,4)                  1.3954         estimate D2E/DX2                !
 ! R7    R(3,13)                 1.07           estimate D2E/DX2                !
 ! R8    R(4,5)                  1.3948         estimate D2E/DX2                !
 ! R9    R(4,10)                 1.43           estimate D2E/DX2                !
 ! R10   R(5,6)                  1.3951         estimate D2E/DX2                !
 ! R11   R(5,8)                  1.0998         estimate D2E/DX2                !
 ! R12   R(6,9)                  1.0996         estimate D2E/DX2                !
 ! R13   R(10,11)                0.96           estimate D2E/DX2                !
 ! A1    A(2,1,6)              119.9985         estimate D2E/DX2                !
 ! A2    A(2,1,12)             120.0008         estimate D2E/DX2                !
 ! A3    A(6,1,12)             120.0008         estimate D2E/DX2                !
 ! A4    A(1,2,3)              120.0086         estimate D2E/DX2                !
 ! A5    A(1,2,7)              119.9808         estimate D2E/DX2                !
 ! A6    A(3,2,7)              120.0106         estimate D2E/DX2                !
 ! A7    A(2,3,4)              119.9942         estimate D2E/DX2                !
 ! A8    A(2,3,13)             120.0029         estimate D2E/DX2                !
 ! A9    A(4,3,13)             120.0029         estimate D2E/DX2                !
 ! A10   A(3,4,5)              119.994          estimate D2E/DX2                !
 ! A11   A(3,4,10)             119.9811         estimate D2E/DX2                !
 ! A12   A(5,4,10)             120.0249         estimate D2E/DX2                !
 ! A13   A(4,5,6)              120.0047         estimate D2E/DX2                !
 ! A14   A(4,5,8)              120.0113         estimate D2E/DX2                !
 ! A15   A(6,5,8)              119.984          estimate D2E/DX2                !
 ! A16   A(1,6,5)              120.0            estimate D2E/DX2                !
 ! A17   A(1,6,9)              120.008          estimate D2E/DX2                !
 ! A18   A(5,6,9)              119.992          estimate D2E/DX2                !
 ! A19   A(4,10,11)            109.5            estimate D2E/DX2                !
 ! D1    D(6,1,2,3)              0.0323         estimate D2E/DX2                !
 ! D2    D(6,1,2,7)            179.9532         estimate D2E/DX2                !
 ! D3    D(12,1,2,3)          -179.9677         estimate D2E/DX2                !
 ! D4    D(12,1,2,7)            -0.0468         estimate D2E/DX2                !
 ! D5    D(2,1,6,5)              0.0149         estimate D2E/DX2                !
 ! D6    D(2,1,6,9)            179.9892         estimate D2E/DX2                !
 ! D7    D(12,1,6,5)          -179.9851         estimate D2E/DX2                !
 ! D8    D(12,1,6,9)            -0.0108         estimate D2E/DX2                !
 ! D9    D(1,2,3,4)             -0.0568         estimate D2E/DX2                !
 ! D10   D(1,2,3,13)           179.9432         estimate D2E/DX2                !
 ! D11   D(7,2,3,4)           -179.9777         estimate D2E/DX2                !
 ! D12   D(7,2,3,13)             0.0223         estimate D2E/DX2                !
 ! D13   D(2,3,4,5)              0.0341         estimate D2E/DX2                !
 ! D14   D(2,3,4,10)          -179.9964         estimate D2E/DX2                !
 ! D15   D(13,3,4,5)          -179.9659         estimate D2E/DX2                !
 ! D16   D(13,3,4,10)            0.0036         estimate D2E/DX2                !
 ! D17   D(3,4,5,6)              0.0131         estimate D2E/DX2                !
 ! D18   D(3,4,5,8)           -179.9995         estimate D2E/DX2                !
 ! D19   D(10,4,5,6)          -179.9563         estimate D2E/DX2                !
 ! D20   D(10,4,5,8)             0.0311         estimate D2E/DX2                !
 ! D21   D(3,4,10,11)           90.1114         estimate D2E/DX2                !
 ! D22   D(5,4,10,11)          -89.9191         estimate D2E/DX2                !
 ! D23   D(4,5,6,1)             -0.0376         estimate D2E/DX2                !
 ! D24   D(4,5,6,9)            179.9881         estimate D2E/DX2                !
 ! D25   D(8,5,6,1)            179.975          estimate D2E/DX2                !
 ! D26   D(8,5,6,9)              0.0007         estimate D2E/DX2                !
 --------------------------------------------------------------------------------
 Trust Radius=3.00D-01 FncErr=1.00D-07 GrdErr=1.00D-06
 Number of steps in this run=     68 maximum allowed number of steps=    100.
 GradGradGradGradGradGradGradGradGradGradGradGradGradGradGradGradGradGrad

                          Input orientation:                          
 ---------------------------------------------------------------------
 Center     Atomic      Atomic             Coordinates (Angstroms)
 Number     Number       Type             X           Y           Z
 ---------------------------------------------------------------------
      1          6           0        0.457198   -0.175097    0.000000
      2          6           0        1.852358   -0.175097    0.000000
      3          6           0        2.549896    1.032654    0.000000
      4          6           0        1.852242    2.241163   -0.001199
      5          6           0        0.457417    2.241085   -0.001678
      6          6           0       -0.240184    1.032879   -0.000682
      7          1           0        2.401866   -1.127610    0.001315
      8          1           0       -0.092705    3.193366   -0.002631
      9          1           0       -1.339788    1.033062   -0.000862
     10          8           0        2.567711    3.479309   -0.001276
     11          1           0        2.727248    3.757173   -0.906228
     12          1           0       -0.077814   -1.101737    0.000523
     13          1           0        3.619896    1.032547    0.000919
 ---------------------------------------------------------------------
                    Distance matrix (angstroms):
                    1          2          3          4          5
     1  C    0.000000
     2  C    1.395160   0.000000
     3  C    2.416205   1.394712   0.000000
     4  C    2.790065   2.416260   1.395427   0.000000
     5  C    2.416183   2.789946   2.416356   1.394825   0.000000
     6  C    1.394829   2.416183   2.790080   2.416236   1.395138
     7  H    2.165414   1.099655   2.165330   3.413316   3.889601
     8  H    3.413055   3.889707   3.413506   2.165528   1.099761
     9  H    2.165365   3.413128   3.889684   3.412999   2.165471
    10  O    4.220065   3.723763   2.446720   1.430000   2.446740
    11  H    4.630024   4.129096   2.876753   1.970533   2.875563
    12  H    1.070000   2.141081   3.385334   3.860065   3.385400
    13  H    3.385419   2.140700   1.070000   2.141344   3.385534
                    6          7          8          9         10
     6  C    0.000000
     7  H    3.412938   0.000000
     8  H    2.165516   4.989362   0.000000
     9  H    1.099604   4.320704   2.494420   0.000000
    10  O    3.724149   4.609904   2.675738   4.610061   0.000000
    11  H    4.128855   4.979018   3.014382   4.978077   0.960000
    12  H    2.140783   2.479816   4.295130   2.479908   5.290065
    13  H    3.860080   2.479894   4.295643   4.959684   2.663408
                   11         12         13
    11  H    0.000000
    12  H    5.683272   0.000000
    13  H    3.007212   4.269453   0.000000
 Stoichiometry    C6H6O
 Framework group  C1[X(C6H6O)]
 Deg. of freedom    33
 Full point group                 C1      NOp   1
 Largest Abelian subgroup         C1      NOp   1
 Largest concise Abelian subgroup C1      NOp   1
                         Standard orientation:                         
 ---------------------------------------------------------------------
 Center     Atomic      Atomic             Coordinates (Angstroms)
 Number     Number       Type             X           Y           Z
 ---------------------------------------------------------------------
      1          6           0        1.860261    0.001205    0.023047
      2          6           0        1.163837   -1.207613    0.008016
      3          6           0       -0.230522   -1.208970   -0.023332
      4          6           0       -0.929125   -0.001104   -0.038464
      5          6           0       -0.232812    1.207385   -0.022956
      6          6           0        1.161995    1.208569    0.007406
      7          1           0        1.714646   -2.159305    0.019577
      8          1           0       -0.783105    2.159493   -0.034868
      9          1           0        1.710724    2.161398    0.019429
     10          8           0       -2.358765   -0.002821   -0.070528
     11          1           0       -2.699431   -0.001847    0.826994
     12          1           0        2.930002    0.002099    0.046574
     13          1           0       -0.764522   -2.136110   -0.035777
 ---------------------------------------------------------------------
 Rotational constants (GHZ):      5.6433865      2.5460129      1.7641095
 Standard basis: 6-311+G(d,p) (5D, 7F)
 There are   197 symmetry adapted cartesian basis functions of A   symmetry.
 There are   190 symmetry adapted basis functions of A   symmetry.
   190 basis functions,   300 primitive gaussians,   197 cartesian basis functions
    25 alpha electrons       25 beta electrons
       nuclear repulsion energy       269.1413257703 Hartrees.
 NAtoms=   13 NActive=   13 NUniq=   13 SFac= 1.00D+00 NAtFMM=   60 NAOKFM=F Big=F
 Integral buffers will be    131072 words long.
 Raffenetti 2 integral format.
 Two-electron integral symmetry is turned on.
 One-electron integrals computed using PRISM.
 NBasis=   190 RedAO= T EigKep=  3.49D-06  NBF=   190
 NBsUse=   190 1.00D-06 EigRej= -1.00D+00 NBFU=   190
 ExpMin= 4.38D-02 ExpMax= 8.59D+03 ExpMxC= 1.30D+03 IAcc=2 IRadAn=         4 AccDes= 0.00D+00
 Harris functional with IExCor=  402 and IRadAn=       4 diagonalized for initial guess.
 HarFok:  IExCor=  402 AccDes= 0.00D+00 IRadAn=         4 IDoV= 1 UseB2=F ITyADJ=14
 ICtDFT=  3500011 ScaDFX=  1.000000  1.000000  1.000000  1.000000
 FoFCou: FMM=F IPFlag=           0 FMFlag=      100000 FMFlg1=           0
         NFxFlg=           0 DoJE=T BraDBF=F KetDBF=T FulRan=T
         wScrn=  0.000000 ICntrl=     500 IOpCl=  0 I1Cent=   200000004 NGrid=           0
         NMat0=    1 NMatS0=      1 NMatT0=    0 NMatD0=    1 NMtDS0=    0 NMtDT0=    0
 Petite list used in FoFCou.
 Keep R1 ints in memory in canonical form, NReq=168651063.
 Requested convergence on RMS density matrix=1.00D-08 within 128 cycles.
 Requested convergence on MAX density matrix=1.00D-06.
 Requested convergence on             energy=1.00D-06.
 No special actions if energy rises.
 SCF Done:  E(RB3LYP) =  -307.551005411     A.U. after   12 cycles
            NFock= 12  Conv=0.59D-08     -V/T= 2.0046

 **********************************************************************

            Population analysis using the SCF density.

 **********************************************************************

 Orbital symmetries:
       Occupied  (A) (A) (A) (A) (A) (A) (A) (A) (A) (A) (A) (A)
                 (A) (A) (A) (A) (A) (A) (A) (A) (A) (A) (A) (A)
                 (A)
       Virtual   (A) (A) (A) (A) (A) (A) (A) (A) (A) (A) (A) (A)
                 (A) (A) (A) (A) (A) (A) (A) (A) (A) (A) (A) (A)
                 (A) (A) (A) (A) (A) (A) (A) (A) (A) (A) (A) (A)
                 (A) (A) (A) (A) (A) (A) (A) (A) (A) (A) (A) (A)
                 (A) (A) (A) (A) (A) (A) (A) (A) (A) (A) (A) (A)
                 (A) (A) (A) (A) (A) (A) (A) (A) (A) (A) (A) (A)
                 (A) (A) (A) (A) (A) (A) (A) (A) (A) (A) (A) (A)
                 (A) (A) (A) (A) (A) (A) (A) (A) (A) (A) (A) (A)
                 (A) (A) (A) (A) (A) (A) (A) (A) (A) (A) (A) (A)
                 (A) (A) (A) (A) (A) (A) (A) (A) (A) (A) (A) (A)
                 (A) (A) (A) (A) (A) (A) (A) (A) (A) (A) (A) (A)
                 (A) (A) (A) (A) (A) (A) (A) (A) (A) (A) (A) (A)
                 (A) (A) (A) (A) (A) (A) (A) (A) (A) (A) (A) (A)
                 (A) (A) (A) (A) (A) (A) (A) (A) (A)
 The electronic state is 1-A.
 Alpha  occ. eigenvalues --  -19.14369 -10.24006 -10.18701 -10.18686 -10.18422
 Alpha  occ. eigenvalues --  -10.18148 -10.18013  -1.04037  -0.86254  -0.75850
 Alpha  occ. eigenvalues --   -0.74922  -0.61908  -0.61502  -0.54850  -0.50435
 Alpha  occ. eigenvalues --   -0.47303  -0.45521  -0.43281  -0.42203  -0.37556
 Alpha  occ. eigenvalues --   -0.36564  -0.36169  -0.30835  -0.26625  -0.25616
 Alpha virt. eigenvalues --   -0.02373  -0.01891   0.00073   0.00800   0.02178
 Alpha virt. eigenvalues --    0.03575   0.04846   0.06025   0.06894   0.07408
 Alpha virt. eigenvalues --    0.08640   0.08740   0.10023   0.12236   0.12684
 Alpha virt. eigenvalues --    0.13228   0.13558   0.14111   0.14144   0.14521
 Alpha virt. eigenvalues --    0.15329   0.17997   0.18515   0.18590   0.19976
 Alpha virt. eigenvalues --    0.20038   0.20379   0.21102   0.21223   0.21918
 Alpha virt. eigenvalues --    0.23251   0.23457   0.25963   0.27277   0.27709
 Alpha virt. eigenvalues --    0.29919   0.31200   0.31718   0.33766   0.34439
 Alpha virt. eigenvalues --    0.35564   0.35897   0.44989   0.47366   0.50095
 Alpha virt. eigenvalues --    0.50622   0.52215   0.53892   0.54202   0.55827
 Alpha virt. eigenvalues --    0.56873   0.58028   0.58847   0.60262   0.61232
 Alpha virt. eigenvalues --    0.62945   0.67523   0.68155   0.69241   0.72052
 Alpha virt. eigenvalues --    0.73041   0.74005   0.79944   0.80981   0.81783
 Alpha virt. eigenvalues --    0.82277   0.84547   0.84861   0.85041   0.88383
 Alpha virt. eigenvalues --    0.90430   0.96931   0.99942   1.00202   1.01233
 Alpha virt. eigenvalues --    1.02473   1.07145   1.11637   1.12701   1.13831
 Alpha virt. eigenvalues --    1.23878   1.27176   1.27442   1.33672   1.38189
 Alpha virt. eigenvalues --    1.46103   1.48785   1.49111   1.51680   1.55861
 Alpha virt. eigenvalues --    1.56180   1.57281   1.60947   1.63377   1.64631
 Alpha virt. eigenvalues --    1.64923   1.72367   1.73214   1.75357   1.76244
 Alpha virt. eigenvalues --    1.80982   1.86971   1.91157   1.91835   1.92483
 Alpha virt. eigenvalues --    1.94883   1.95342   1.98468   1.99052   2.02388
 Alpha virt. eigenvalues --    2.02627   2.06835   2.09400   2.21904   2.27291
 Alpha virt. eigenvalues --    2.32950   2.35741   2.37925   2.39172   2.47004
 Alpha virt. eigenvalues --    2.56174   2.61543   2.63319   2.64660   2.69985
 Alpha virt. eigenvalues --    2.70407   2.74025   2.74505   2.75133   2.77139
 Alpha virt. eigenvalues --    2.78056   2.78517   2.80002   2.86656   2.87720
 Alpha virt. eigenvalues --    2.91246   3.01886   3.06886   3.10230   3.11180
 Alpha virt. eigenvalues --    3.29064   3.31061   3.33932   3.34818   3.47328
 Alpha virt. eigenvalues --    3.48654   3.58745   3.65216   3.83206   3.96133
 Alpha virt. eigenvalues --    4.01720   4.09868   4.12562   4.14015   4.83228
 Alpha virt. eigenvalues --    5.12504   5.34352   5.67783  23.53734  23.91580
 Alpha virt. eigenvalues --   23.94555  24.06652  24.08179  24.18350  49.92686
          Condensed to atoms (all electrons):
               1          2          3          4          5          6
     1  C    4.939485   0.504921   0.072985  -0.287283   0.078463   0.501857
     2  C    0.504921   5.043889   0.221426   0.154851  -0.180613   0.028044
     3  C    0.072985   0.221426   7.236621  -0.356576  -1.174835  -0.170747
     4  C   -0.287283   0.154851  -0.356576   6.410308  -0.377999   0.167790
     5  C    0.078463  -0.180613  -1.174835  -0.377999   7.289611   0.194723
     6  C    0.501857   0.028044  -0.170747   0.167790   0.194723   5.054675
     7  H   -0.007770   0.391080  -0.028645  -0.001942  -0.000840  -0.003351
     8  H   -0.004649   0.006274  -0.023263  -0.021398   0.393718   0.004925
     9  H   -0.009405  -0.003250  -0.000787  -0.000843  -0.028986   0.391599
    10  O   -0.012446   0.009491  -0.241044   0.539628  -0.240960   0.010437
    11  H   -0.001703  -0.004469  -0.011546   0.037854  -0.013379  -0.004427
    12  H    0.372000  -0.000090  -0.016750   0.014301  -0.016705  -0.000399
    13  H   -0.005263   0.003936   0.397470  -0.020955  -0.022336   0.006569
               7          8          9         10         11         12
     1  C   -0.007770  -0.004649  -0.009405  -0.012446  -0.001703   0.372000
     2  C    0.391080   0.006274  -0.003250   0.009491  -0.004469  -0.000090
     3  C   -0.028645  -0.023263  -0.000787  -0.241044  -0.011546  -0.016750
     4  C   -0.001942  -0.021398  -0.000843   0.539628   0.037854   0.014301
     5  C   -0.000840   0.393718  -0.028986  -0.240960  -0.013379  -0.016705
     6  C   -0.003351   0.004925   0.391599   0.010437  -0.004427  -0.000399
     7  H    0.537423   0.000053  -0.000281  -0.000645   0.000008  -0.007717
     8  H    0.000053   0.525913  -0.007688  -0.006283   0.000397  -0.000221
     9  H   -0.000281  -0.007688   0.537269  -0.000645   0.000008  -0.007743
    10  O   -0.000645  -0.006283  -0.000645   8.037952   0.271213   0.000117
    11  H    0.000008   0.000397   0.000008   0.271213   0.457433  -0.000007
    12  H   -0.007717  -0.000221  -0.007743   0.000117  -0.000007   0.536506
    13  H   -0.007624  -0.000154   0.000055  -0.006414   0.000398  -0.000231
              13
     1  C   -0.005263
     2  C    0.003936
     3  C    0.397470
     4  C   -0.020955
     5  C   -0.022336
     6  C    0.006569
     7  H   -0.007624
     8  H   -0.000154
     9  H    0.000055
    10  O   -0.006414
    11  H    0.000398
    12  H   -0.000231
    13  H    0.522342
 Mulliken charges:
               1
     1  C   -0.141193
     2  C   -0.175489
     3  C    0.095691
     4  C   -0.257735
     5  C    0.100137
     6  C   -0.181696
     7  H    0.130251
     8  H    0.132376
     9  H    0.130694
    10  O   -0.360401
    11  H    0.268220
    12  H    0.126938
    13  H    0.132205
 Sum of Mulliken charges =   0.00000
 Mulliken charges with hydrogens summed into heavy atoms:
               1
     1  C   -0.014254
     2  C   -0.045239
     3  C    0.227896
     4  C   -0.257735
     5  C    0.232514
     6  C   -0.051002
    10  O   -0.092181
 Electronic spatial extent (au):  <R**2>=            677.4810
 Charge=              0.0000 electrons
 Dipole moment (field-independent basis, Debye):
    X=              0.8646    Y=             -0.0046    Z=              1.5395  Tot=              1.7656
 Quadrupole moment (field-independent basis, Debye-Ang):
   XX=            -39.7869   YY=            -37.0423   ZZ=            -43.7932
   XY=             -0.0099   XZ=             -4.7457   YZ=             -0.0013
 Traceless Quadrupole moment (field-independent basis, Debye-Ang):
   XX=              0.4206   YY=              3.1651   ZZ=             -3.5857
   XY=             -0.0099   XZ=             -4.7457   YZ=             -0.0013
 Octapole moment (field-independent basis, Debye-Ang**2):
  XXX=             -0.1669  YYY=             -0.0754  ZZZ=              1.6463  XYY=             -0.5685
  XXY=             -0.0031  XXZ=             14.3081  XZZ=             -9.9860  YZZ=             -0.0790
  YYZ=             -0.0528  XYZ=              0.0094
 Hexadecapole moment (field-independent basis, Debye-Ang**3):
 XXXX=           -519.6116 YYYY=           -276.5284 ZZZZ=            -53.5393 XXXY=              0.0586
 XXXZ=            -40.6000 YYYX=             -0.0503 YYYZ=              0.0069 ZZZX=             -5.8470
 ZZZY=              0.0054 XXYY=           -134.8897 XXZZ=            -97.2033 YYZZ=            -66.9800
 XXYZ=             -0.0242 YYXZ=             -0.4968 ZZXY=              0.0741
 N-N= 2.691413257703D+02 E-N=-1.254847495009D+03  KE= 3.061504086545D+02
 There are a total of      106498 grid points.
 ElSum from          density=       50.0000295705
 ElSum from atomic densities=       49.9998340542

 Hirshfeld populations at iteration   1 (CX, CA, CB, DipXYZ):
               1          2          3          4          5          6
     1  C    0.000000   3.026045   3.026045   0.064284  -0.000069  -0.002060
     2  C    0.000000   3.021734   3.021734   0.030842  -0.056642  -0.003650
     3  C    0.000000   3.027985   3.027985  -0.023221  -0.054146  -0.009574
     4  C    0.000000   2.966281   2.966281  -0.149547  -0.002255  -0.012054
     5  C    0.000000   3.028321   3.028321  -0.020637   0.049927  -0.009398
     6  C    0.000000   3.022154   3.022154   0.032149   0.055537  -0.003813
     7  H    0.000002   0.474426   0.474426   0.080817  -0.138791   0.000734
     8  H    0.000002   0.473929   0.473929  -0.069202   0.145861  -0.003256
     9  H    0.000002   0.474438   0.474438   0.080986   0.138961   0.000837
    10  O    0.000003   4.118700   4.118700   0.128463  -0.000094   0.150511
    11  H    0.000001   0.414198   0.414198  -0.083822   0.000045   0.200376
    12  H    0.000002   0.476802   0.476802   0.163294   0.000120   0.003051
    13  H    0.000002   0.475003   0.475003  -0.070494  -0.148576  -0.003400
       Tot   0.000014  25.000015  25.000015   0.163912  -0.010122   0.308303

 Dip from Atomic Chgs              0.176195   0.008313   0.297334
         Total Dipole              0.340107  -0.001809   0.605637

 Hirshfeld charges, spin densities, dipoles, and CM5 charges using IRadAn=      4:
              Q-H        S-H        Dx         Dy         Dz        Q-CM5   
     1  C   -0.052090   0.000000   0.064284  -0.000069  -0.002060  -0.109273
     2  C   -0.043468   0.000000   0.030842  -0.056642  -0.003650  -0.097368
     3  C   -0.055970   0.000000  -0.023221  -0.054146  -0.009574  -0.108735
     4  C    0.067438   0.000000  -0.149547  -0.002255  -0.012054   0.075985
     5  C   -0.056642   0.000000  -0.020637   0.049927  -0.009398  -0.105855
     6  C   -0.044308   0.000000   0.032149   0.055537  -0.003813  -0.098008
     7  H    0.051148   0.000000   0.080817  -0.138791   0.000734   0.104849
     8  H    0.052143   0.000000  -0.069202   0.145861  -0.003256   0.108205
     9  H    0.051125   0.000000   0.080986   0.138961   0.000837   0.104831
    10  O   -0.237399   0.000000   0.128463  -0.000094   0.150511  -0.434198
    11  H    0.171604   0.000000  -0.083822   0.000045   0.200376   0.345324
    12  H    0.046397   0.000000   0.163294   0.000120   0.003051   0.104075
    13  H    0.049994   0.000000  -0.070494  -0.148576  -0.003400   0.110137
       Tot  -0.000030   0.000000   0.163912  -0.010122   0.308303  -0.000030
 Hirshfeld charges with hydrogens summed into heavy atoms:
              Q-H       Q-CM5   
     1  C   -0.005694  -0.005198
     2  C    0.007680   0.007482
     3  C   -0.005976   0.001402
     4  C    0.067438   0.075985
     5  C   -0.004500   0.002350
     6  C    0.006817   0.006823
    10  O   -0.065795  -0.088874
 
 EQQ= 0.000000000000E+00 EQD= 0.000000000000E+00 EDD= 0.945547740798E-02
 EQQ+QD+DD= 0.945547740798E-02
 
          MBS Condensed to atoms (all electrons):
               1          2          3          4          5          6
     1  C    4.830026   0.505742  -0.031578  -0.012020  -0.031447   0.505817
     2  C    0.505742   4.822842   0.502236  -0.027579  -0.010661  -0.031699
     3  C   -0.031578   0.502236   4.854036   0.497568  -0.037672  -0.010647
     4  C   -0.012020  -0.027579   0.497568   4.704906   0.497821  -0.027740
     5  C   -0.031447  -0.010661  -0.037672   0.497821   4.853159   0.501818
     6  C    0.505817  -0.031699  -0.010647  -0.027740   0.501818   4.822682
     7  H   -0.025131   0.387329  -0.024916   0.001364   0.000015   0.001497
     8  H    0.001460   0.000056   0.001401  -0.024877   0.383472  -0.023456
     9  H   -0.025102   0.001496   0.000015   0.001361  -0.024963   0.387310
    10  O    0.000004   0.000332  -0.022731   0.286562  -0.022741   0.000332
    11  H    0.000006  -0.000044   0.000134  -0.032516   0.000123  -0.000045
    12  H    0.393218  -0.026114   0.001556   0.000066   0.001552  -0.026112
    13  H    0.001527  -0.024148   0.389357  -0.025663   0.001464   0.000060
               7          8          9         10         11         12
     1  C   -0.025131   0.001460  -0.025102   0.000004   0.000006   0.393218
     2  C    0.387329   0.000056   0.001496   0.000332  -0.000044  -0.026114
     3  C   -0.024916   0.001401   0.000015  -0.022731   0.000134   0.001556
     4  C    0.001364  -0.024877   0.001361   0.286562  -0.032516   0.000066
     5  C    0.000015   0.383472  -0.024963  -0.022741   0.000123   0.001552
     6  C    0.001497  -0.023456   0.387310   0.000332  -0.000045  -0.026112
     7  H    0.561693   0.000002  -0.000042  -0.000005   0.000001  -0.003700
     8  H    0.000002   0.552757  -0.003928  -0.000641   0.000185  -0.000039
     9  H   -0.000042  -0.003928   0.561302  -0.000005   0.000001  -0.003708
    10  O   -0.000005  -0.000641  -0.000005   8.016891   0.265743   0.000000
    11  H    0.000001   0.000185   0.000001   0.265743   0.419965   0.000000
    12  H   -0.003700  -0.000039  -0.003708   0.000000   0.000000   0.551942
    13  H   -0.003982  -0.000046   0.000002  -0.000623   0.000173  -0.000041
              13
     1  C    0.001527
     2  C   -0.024148
     3  C    0.389357
     4  C   -0.025663
     5  C    0.001464
     6  C    0.000060
     7  H   -0.003982
     8  H   -0.000046
     9  H    0.000002
    10  O   -0.000623
    11  H    0.000173
    12  H   -0.000041
    13  H    0.540168
 MBS Mulliken charges:
               1
     1  C   -0.112521
     2  C   -0.099787
     3  C   -0.118759
     4  C    0.160747
     5  C   -0.111940
     6  C   -0.099816
     7  H    0.105875
     8  H    0.113652
     9  H    0.106260
    10  O   -0.523118
    11  H    0.346275
    12  H    0.111379
    13  H    0.121752
 Sum of MBS Mulliken charges =   0.00000
 MBS Mulliken charges with hydrogens summed into heavy atoms:
               1
     1  C   -0.001142
     2  C    0.006088
     3  C    0.002993
     4  C    0.160747
     5  C    0.001713
     6  C    0.006444
    10  O   -0.176843
 Breneman (CHELPG) radii used.
 Generate Potential Derived Charges using the Breneman model, NDens= 1.
 Grid spacing= 0.300 Box extension= 2.800
 NStep X,Y,Z=   39     35     23   Total possible points=       31395
 Number of Points to Fit=   10119

 **********************************************************************

            Electrostatic Properties Using The SCF Density

 **********************************************************************

       Atomic Center    1 is at   1.860261  0.001205  0.023047
       Atomic Center    2 is at   1.163837 -1.207613  0.008016
       Atomic Center    3 is at  -0.230522 -1.208970 -0.023332
       Atomic Center    4 is at  -0.929125 -0.001104 -0.038464
       Atomic Center    5 is at  -0.232812  1.207385 -0.022956
       Atomic Center    6 is at   1.161995  1.208569  0.007406
       Atomic Center    7 is at   1.714646 -2.159305  0.019577
       Atomic Center    8 is at  -0.783105  2.159493 -0.034868
       Atomic Center    9 is at   1.710724  2.161398  0.019429
       Atomic Center   10 is at  -2.358765 -0.002821 -0.070528
       Atomic Center   11 is at  -2.699431 -0.001847  0.826994
       Atomic Center   12 is at   2.930002  0.002099  0.046574
       Atomic Center   13 is at  -0.764522 -2.136110 -0.035777
   10119 points will be used for fitting atomic charges
 Fitting point charges to electrostatic potential
 Charges from ESP fit, RMS=   0.00453 RRMS=   0.34900:
 ESP charges:
               1
     1  C   -0.132171
     2  C   -0.060533
     3  C   -0.232589
     4  C    0.435870
     5  C   -0.234731
     6  C   -0.056374
     7  H    0.094326
     8  H    0.121436
     9  H    0.093400
    10  O   -0.608488
    11  H    0.360967
    12  H    0.095052
    13  H    0.123833
 Sum of ESP charges =   0.00000
 ESP charges with hydrogens summed into heavy atoms:
               1
     1  C   -0.037119
     2  C    0.033793
     3  C   -0.108755
     4  C    0.435870
     5  C   -0.113295
     6  C    0.037026
    10  O   -0.247521
 Charge=   0.00000 Dipole=     0.9250    -0.0035     1.5897 Tot=     1.8392
 -----------------------------------------------------------------

              Electrostatic Properties (Atomic Units)

 -----------------------------------------------------------------
    Center     Electric         -------- Electric Field --------
               Potential          X             Y             Z
 -----------------------------------------------------------------
    1 Atom    -14.771309
    2 Atom    -14.764247
    3 Atom    -14.770429
    4 Atom    -14.708648
    5 Atom    -14.767159
    6 Atom    -14.764099
    7 Atom     -1.099216
    8 Atom     -1.097374
    9 Atom     -1.099203
   10 Atom    -22.350312
   11 Atom     -0.984075
   12 Atom     -1.105980
   13 Atom     -1.101172
 -----------------------------------------------------------------
 ******************************Gaussian NBO Version 3.1******************************
             N A T U R A L   A T O M I C   O R B I T A L   A N D
          N A T U R A L   B O N D   O R B I T A L   A N A L Y S I S
 ******************************Gaussian NBO Version 3.1******************************
       /RESON  / : Allow strongly delocalized NBO set

 Analyzing the SCF density

 Job title: Title Card Required                                             

 Storage needed:    109180 in NPA ( 536869963 available)


 NATURAL POPULATIONS:  Natural atomic orbital occupancies 
                                                          
   NAO  Atom  No  lang   Type(AO)    Occupancy      Energy
 ----------------------------------------------------------
     1    C    1  S      Cor( 1S)     1.99916     -10.03246
     2    C    1  S      Val( 2S)     0.94944      -0.16386
     3    C    1  S      Ryd( 3S)     0.00146       0.71484
     4    C    1  S      Ryd( 4S)     0.00012       0.89884
     5    C    1  S      Ryd( 5S)     0.00001      22.95541
     6    C    1  px     Val( 2p)     1.17456      -0.05577
     7    C    1  px     Ryd( 4p)     0.00671       1.00499
     8    C    1  px     Ryd( 3p)     0.00027       0.33811
     9    C    1  px     Ryd( 5p)     0.00006       3.17038
    10    C    1  py     Val( 2p)     1.06536      -0.05290
    11    C    1  py     Ryd( 4p)     0.00443       0.75451
    12    C    1  py     Ryd( 3p)     0.00057       0.37239
    13    C    1  py     Ryd( 5p)     0.00016       3.06913
    14    C    1  pz     Val( 2p)     1.00787      -0.11292
    15    C    1  pz     Ryd( 4p)     0.00124       0.50085
    16    C    1  pz     Ryd( 3p)     0.00022       0.30891
    17    C    1  pz     Ryd( 5p)     0.00001       2.68376
    18    C    1  dxy    Ryd( 3d)     0.00064       2.58759
    19    C    1  dxz    Ryd( 3d)     0.00037       1.61136
    20    C    1  dyz    Ryd( 3d)     0.00048       1.66993
    21    C    1  dx2y2  Ryd( 3d)     0.00085       2.49814
    22    C    1  dz2    Ryd( 3d)     0.00040       2.03327

    23    C    2  S      Cor( 1S)     1.99917     -10.04243
    24    C    2  S      Val( 2S)     0.95685      -0.17383
    25    C    2  S      Ryd( 3S)     0.00175       0.71322
    26    C    2  S      Ryd( 4S)     0.00012       1.48260
    27    C    2  S      Ryd( 5S)     0.00000      22.38724
    28    C    2  px     Val( 2p)     1.08036      -0.05267
    29    C    2  px     Ryd( 4p)     0.00499       0.84249
    30    C    2  px     Ryd( 3p)     0.00046       0.37033
    31    C    2  px     Ryd( 5p)     0.00013       3.08267
    32    C    2  py     Val( 2p)     1.14549      -0.06053
    33    C    2  py     Ryd( 4p)     0.00642       0.96692
    34    C    2  py     Ryd( 3p)     0.00028       0.31662
    35    C    2  py     Ryd( 5p)     0.00008       3.15118
    36    C    2  pz     Val( 2p)     0.99461      -0.11473
    37    C    2  pz     Ryd( 4p)     0.00099       0.51178
    38    C    2  pz     Ryd( 3p)     0.00026       0.33548
    39    C    2  pz     Ryd( 5p)     0.00002       2.64227
    40    C    2  dxy    Ryd( 3d)     0.00074       2.49480
    41    C    2  dxz    Ryd( 3d)     0.00049       1.65324
    42    C    2  dyz    Ryd( 3d)     0.00041       1.61735
    43    C    2  dx2y2  Ryd( 3d)     0.00067       2.54804
    44    C    2  dz2    Ryd( 3d)     0.00041       2.03598

    45    C    3  S      Cor( 1S)     1.99903     -10.03255
    46    C    3  S      Val( 2S)     0.95591      -0.16612
    47    C    3  S      Ryd( 3S)     0.00180       0.65903
    48    C    3  S      Ryd( 4S)     0.00014       1.11533
    49    C    3  S      Ryd( 5S)     0.00001      22.77577
    50    C    3  px     Val( 2p)     1.10208      -0.05877
    51    C    3  px     Ryd( 4p)     0.00578       0.89126
    52    C    3  px     Ryd( 3p)     0.00036       0.37814
    53    C    3  px     Ryd( 5p)     0.00015       3.13028
    54    C    3  py     Val( 2p)     1.15486      -0.06664
    55    C    3  py     Ryd( 4p)     0.00496       0.96437
    56    C    3  py     Ryd( 3p)     0.00036       0.34786
    57    C    3  py     Ryd( 5p)     0.00010       3.12611
    58    C    3  pz     Val( 2p)     1.01368      -0.11607
    59    C    3  pz     Ryd( 4p)     0.00138       0.49802
    60    C    3  pz     Ryd( 3p)     0.00035       0.29601
    61    C    3  pz     Ryd( 5p)     0.00002       2.70544
    62    C    3  dxy    Ryd( 3d)     0.00080       2.53346
    63    C    3  dxz    Ryd( 3d)     0.00046       1.65287
    64    C    3  dyz    Ryd( 3d)     0.00050       1.63460
    65    C    3  dx2y2  Ryd( 3d)     0.00064       2.56634
    66    C    3  dz2    Ryd( 3d)     0.00042       2.04461

    67    C    4  S      Cor( 1S)     1.99867     -10.11046
    68    C    4  S      Val( 2S)     0.84934      -0.15099
    69    C    4  S      Ryd( 4S)     0.00119       0.83586
    70    C    4  S      Ryd( 3S)     0.00017       0.61403
    71    C    4  S      Ryd( 5S)     0.00002      22.96742
    72    C    4  px     Val( 2p)     0.75596      -0.05875
    73    C    4  px     Ryd( 4p)     0.00722       0.99235
    74    C    4  px     Ryd( 3p)     0.00045       0.39778
    75    C    4  px     Ryd( 5p)     0.00032       2.99266
    76    C    4  py     Val( 2p)     1.08081      -0.05958
    77    C    4  py     Ryd( 4p)     0.00381       1.10824
    78    C    4  py     Ryd( 3p)     0.00090       0.39729
    79    C    4  py     Ryd( 5p)     0.00015       2.93306
    80    C    4  pz     Val( 2p)     1.00102      -0.12282
    81    C    4  pz     Ryd( 4p)     0.00177       0.60765
    82    C    4  pz     Ryd( 3p)     0.00052       0.33711
    83    C    4  pz     Ryd( 5p)     0.00004       2.59708
    84    C    4  dxy    Ryd( 3d)     0.00179       2.58601
    85    C    4  dxz    Ryd( 3d)     0.00160       1.60224
    86    C    4  dyz    Ryd( 3d)     0.00059       1.64484
    87    C    4  dx2y2  Ryd( 3d)     0.00169       2.43596
    88    C    4  dz2    Ryd( 3d)     0.00056       2.03266

    89    C    5  S      Cor( 1S)     1.99901     -10.03759
    90    C    5  S      Val( 2S)     0.96129      -0.17296
    91    C    5  S      Ryd( 3S)     0.00201       0.65075
    92    C    5  S      Ryd( 4S)     0.00014       1.05540
    93    C    5  S      Ryd( 5S)     0.00001      22.85267
    94    C    5  px     Val( 2p)     1.10014      -0.05978
    95    C    5  px     Ryd( 4p)     0.00604       0.88130
    96    C    5  px     Ryd( 3p)     0.00035       0.37523
    97    C    5  px     Ryd( 5p)     0.00015       3.15164
    98    C    5  py     Val( 2p)     1.15312      -0.07179
    99    C    5  py     Ryd( 4p)     0.00502       0.95552
   100    C    5  py     Ryd( 3p)     0.00034       0.33207
   101    C    5  py     Ryd( 5p)     0.00010       3.14038
   102    C    5  pz     Val( 2p)     1.01390      -0.11626
   103    C    5  pz     Ryd( 4p)     0.00127       0.49816
   104    C    5  pz     Ryd( 3p)     0.00035       0.29934
   105    C    5  pz     Ryd( 5p)     0.00002       2.70071
   106    C    5  dxy    Ryd( 3d)     0.00079       2.50505
   107    C    5  dxz    Ryd( 3d)     0.00047       1.65055
   108    C    5  dyz    Ryd( 3d)     0.00053       1.62802
   109    C    5  dx2y2  Ryd( 3d)     0.00066       2.54912
   110    C    5  dz2    Ryd( 3d)     0.00043       2.03742

   111    C    6  S      Cor( 1S)     1.99916     -10.04223
   112    C    6  S      Val( 2S)     0.95644      -0.17367
   113    C    6  S      Ryd( 3S)     0.00174       0.71885
   114    C    6  S      Ryd( 4S)     0.00012       1.50929
   115    C    6  S      Ryd( 5S)     0.00000      22.35855
   116    C    6  px     Val( 2p)     1.08225      -0.05402
   117    C    6  px     Ryd( 4p)     0.00502       0.83574
   118    C    6  px     Ryd( 3p)     0.00046       0.37043
   119    C    6  px     Ryd( 5p)     0.00013       3.08756
   120    C    6  py     Val( 2p)     1.14596      -0.06078
   121    C    6  py     Ryd( 4p)     0.00651       0.96134
   122    C    6  py     Ryd( 3p)     0.00028       0.31665
   123    C    6  py     Ryd( 5p)     0.00008       3.15494
   124    C    6  pz     Val( 2p)     0.99421      -0.11468
   125    C    6  pz     Ryd( 4p)     0.00096       0.50989
   126    C    6  pz     Ryd( 3p)     0.00026       0.33359
   127    C    6  pz     Ryd( 5p)     0.00001       2.64576
   128    C    6  dxy    Ryd( 3d)     0.00075       2.49316
   129    C    6  dxz    Ryd( 3d)     0.00049       1.65262
   130    C    6  dyz    Ryd( 3d)     0.00041       1.61723
   131    C    6  dx2y2  Ryd( 3d)     0.00068       2.54660
   132    C    6  dz2    Ryd( 3d)     0.00041       2.03380

   133    H    7  S      Val( 1S)     0.78874       0.03341
   134    H    7  S      Ryd( 2S)     0.00064       0.58344
   135    H    7  S      Ryd( 3S)     0.00016       2.15379
   136    H    7  px     Ryd( 2p)     0.00019       2.13374
   137    H    7  py     Ryd( 2p)     0.00036       2.48678
   138    H    7  pz     Ryd( 2p)     0.00019       1.58177

   139    H    8  S      Val( 1S)     0.77823       0.03433
   140    H    8  S      Ryd( 2S)     0.00086       0.70079
   141    H    8  S      Ryd( 3S)     0.00017       1.97140
   142    H    8  px     Ryd( 2p)     0.00022       2.14123
   143    H    8  py     Ryd( 2p)     0.00033       2.50236
   144    H    8  pz     Ryd( 2p)     0.00016       1.59052

   145    H    9  S      Val( 1S)     0.78833       0.03359
   146    H    9  S      Ryd( 2S)     0.00062       0.58643
   147    H    9  S      Ryd( 3S)     0.00016       2.15570
   148    H    9  px     Ryd( 2p)     0.00019       2.13120
   149    H    9  py     Ryd( 2p)     0.00035       2.48805
   150    H    9  pz     Ryd( 2p)     0.00019       1.58176

   151    O   10  S      Cor( 1S)     1.99976     -18.93927
   152    O   10  S      Val( 2S)     1.67609      -0.91057
   153    O   10  S      Ryd( 4S)     0.00054       1.95704
   154    O   10  S      Ryd( 3S)     0.00036       0.95461
   155    O   10  S      Ryd( 5S)     0.00000      49.55512
   156    O   10  px     Val( 2p)     1.46350      -0.30438
   157    O   10  px     Ryd( 3p)     0.00203       0.49076
   158    O   10  px     Ryd( 4p)     0.00016       1.22814
   159    O   10  px     Ryd( 5p)     0.00002       4.78795
   160    O   10  py     Val( 2p)     1.96474      -0.31410
   161    O   10  py     Ryd( 3p)     0.00411       0.54082
   162    O   10  py     Ryd( 4p)     0.00002       1.19338
   163    O   10  py     Ryd( 5p)     0.00001       4.78152
   164    O   10  pz     Val( 2p)     1.61170      -0.29913
   165    O   10  pz     Ryd( 3p)     0.00175       0.56401
   166    O   10  pz     Ryd( 4p)     0.00015       1.19747
   167    O   10  pz     Ryd( 5p)     0.00002       4.88174
   168    O   10  dxy    Ryd( 3d)     0.00034       3.05261
   169    O   10  dxz    Ryd( 3d)     0.00093       3.17771
   170    O   10  dyz    Ryd( 3d)     0.00068       2.94962
   171    O   10  dx2y2  Ryd( 3d)     0.00083       3.28644
   172    O   10  dz2    Ryd( 3d)     0.00152       3.43870

   173    H   11  S      Val( 1S)     0.52409       0.10969
   174    H   11  S      Ryd( 2S)     0.00059       1.25181
   175    H   11  S      Ryd( 3S)     0.00032       1.47563
   176    H   11  px     Ryd( 2p)     0.00112       1.85754
   177    H   11  py     Ryd( 2p)     0.00183       1.52106
   178    H   11  pz     Ryd( 2p)     0.00069       2.45643

   179    H   12  S      Val( 1S)     0.79304       0.05346
   180    H   12  S      Ryd( 2S)     0.00046       0.60944
   181    H   12  S      Ryd( 3S)     0.00017       2.13651
   182    H   12  px     Ryd( 2p)     0.00040       2.72020
   183    H   12  py     Ryd( 2p)     0.00012       1.97640
   184    H   12  pz     Ryd( 2p)     0.00020       1.59944

   185    H   13  S      Val( 1S)     0.78195       0.05200
   186    H   13  S      Ryd( 2S)     0.00086       0.73669
   187    H   13  S      Ryd( 3S)     0.00019       1.91701
   188    H   13  px     Ryd( 2p)     0.00022       2.17060
   189    H   13  py     Ryd( 2p)     0.00032       2.54885
   190    H   13  pz     Ryd( 2p)     0.00017       1.60621

 WARNING:  1 low occupancy (<1.9990e) core orbital  found on  C    4

 WARNING:  Population inversion found on atom  C    1
           Population inversion found on atom  C    2
           Population inversion found on atom  C    3
           Population inversion found on atom  C    4
           Population inversion found on atom  C    5
           Population inversion found on atom  C    6
           Population inversion found on atom  O   10


 Summary of Natural Population Analysis:                  
                                                          
                                       Natural Population 
                Natural  -----------------------------------------------
    Atom  No    Charge         Core      Valence    Rydberg      Total
 -----------------------------------------------------------------------
      C    1   -0.21439      1.99916     4.19723    0.01801     6.21439
      C    2   -0.19469      1.99917     4.17731    0.01821     6.19469
      C    3   -0.24381      1.99903     4.22654    0.01824     6.24381
      C    4    0.29143      1.99867     3.68712    0.02278     5.70857
      C    5   -0.24614      1.99901     4.22846    0.01866     6.24614
      C    6   -0.19633      1.99916     4.17885    0.01832     6.19633
      H    7    0.20972      0.00000     0.78874    0.00154     0.79028
      H    8    0.22002      0.00000     0.77823    0.00175     0.77998
      H    9    0.21015      0.00000     0.78833    0.00152     0.78985
      O   10   -0.72924      1.99976     6.71603    0.01345     8.72924
      H   11    0.47136      0.00000     0.52409    0.00454     0.52864
      H   12    0.20561      0.00000     0.79304    0.00135     0.79439
      H   13    0.21631      0.00000     0.78195    0.00175     0.78369
 =======================================================================
   * Total *    0.00000     13.99396    35.86592    0.14012    50.00000

                                 Natural Population      
 --------------------------------------------------------
   Core                      13.99396 ( 99.9569% of  14)
   Valence                   35.86592 ( 99.6276% of  36)
   Natural Minimal Basis     49.85988 ( 99.7198% of  50)
   Natural Rydberg Basis      0.14012 (  0.2802% of  50)
 --------------------------------------------------------

    Atom  No          Natural Electron Configuration
 ----------------------------------------------------------------------------
      C    1      [core]2S( 0.95)2p( 3.25)4p( 0.01)
      C    2      [core]2S( 0.96)2p( 3.22)4p( 0.01)
      C    3      [core]2S( 0.96)2p( 3.27)4p( 0.01)
      C    4      [core]2S( 0.85)2p( 2.84)3d( 0.01)4p( 0.01)
      C    5      [core]2S( 0.96)2p( 3.27)4p( 0.01)
      C    6      [core]2S( 0.96)2p( 3.22)4p( 0.01)
      H    7            1S( 0.79)
      H    8            1S( 0.78)
      H    9            1S( 0.79)
      O   10      [core]2S( 1.68)2p( 5.04)3p( 0.01)
      H   11            1S( 0.52)
      H   12            1S( 0.79)
      H   13            1S( 0.78)


 NBO analysis skipped by request.
 Calling FoFJK, ICntrl=      2127 FMM=F ISym2X=0 I1Cent= 0 IOpClX= 0 NMat=1 NMatS=1 NMatT=0.
 ***** Axes restored to original set *****
 -------------------------------------------------------------------
 Center     Atomic                   Forces (Hartrees/Bohr)
 Number     Number              X              Y              Z
 -------------------------------------------------------------------
      1        6           0.003958923    0.006430214   -0.000034651
      2        6           0.001268513   -0.005392981    0.000581798
      3        6          -0.006537893    0.000793683    0.001067348
      4        6           0.008269542    0.014676916   -0.007312246
      5        6          -0.006014518    0.011045659    0.001108274
      6        6          -0.005578394   -0.000810846    0.000401886
      7        1          -0.004484956    0.009093144   -0.000023419
      8        1           0.006875047   -0.007857401    0.000154938
      9        1           0.010122188    0.000595292    0.000026479
     10        8          -0.012034404   -0.021029954    0.006956025
     11        1          -0.000646938   -0.001053270   -0.003049753
     12        1          -0.004949190   -0.008519249   -0.000009567
     13        1           0.009752080    0.002028793    0.000132887
 -------------------------------------------------------------------
 Cartesian Forces:  Max     0.021029954 RMS     0.006828359

 GradGradGradGradGradGradGradGradGradGradGradGradGradGradGradGradGradGrad
 Berny optimization.
 FormGI is forming the generalized inverse of G from B-inverse, IUseBI=4.
 Internal  Forces:  Max     0.025465047 RMS     0.004701809
 Search for a local minimum.
 Step number   1 out of a maximum of   68
 All quantities printed in internal units (Hartrees-Bohrs-Radians)
 Mixed Optimization -- RFO/linear search
 Second derivative matrix not updated -- first step.
 ITU=  0
     Eigenvalues ---    0.01295   0.01997   0.02152   0.02154   0.02154
     Eigenvalues ---    0.02155   0.02155   0.02155   0.02156   0.02157
     Eigenvalues ---    0.16000   0.16000   0.16000   0.16000   0.16000
     Eigenvalues ---    0.16000   0.22000   0.22000   0.23486   0.25000
     Eigenvalues ---    0.33709   0.33720   0.33726   0.37230   0.37230
     Eigenvalues ---    0.40989   0.42121   0.42300   0.46412   0.46453
     Eigenvalues ---    0.46466   0.46497   0.55473
 RFO step:  Lambda=-3.88728252D-03 EMin= 1.29493790D-02
 Linear search not attempted -- first point.
 Iteration  1 RMS(Cart)=  0.02149193 RMS(Int)=  0.00044683
 Iteration  2 RMS(Cart)=  0.00040800 RMS(Int)=  0.00021906
 Iteration  3 RMS(Cart)=  0.00000016 RMS(Int)=  0.00021906
 Variable       Old X    -DE/DX   Delta X   Delta X   Delta X     New X
                                 (Linear)    (Quad)   (Total)
    R1        2.63647  -0.00057   0.00000  -0.00096  -0.00107   2.63540
    R2        2.63584  -0.00043   0.00000  -0.00071  -0.00081   2.63503
    R3        2.02201   0.00985   0.00000   0.02619   0.02619   2.04820
    R4        2.63562  -0.00042   0.00000  -0.00086  -0.00086   2.63477
    R5        2.07805  -0.01012   0.00000  -0.02966  -0.02966   2.04838
    R6        2.63697  -0.00390   0.00000  -0.00856  -0.00845   2.62853
    R7        2.02201   0.00975   0.00000   0.02592   0.02592   2.04793
    R8        2.63584  -0.00385   0.00000  -0.00845  -0.00835   2.62749
    R9        2.70231  -0.02547   0.00000  -0.06154  -0.06154   2.64077
   R10        2.63643  -0.00096   0.00000  -0.00208  -0.00208   2.63435
   R11        2.07825  -0.01024   0.00000  -0.03004  -0.03004   2.04821
   R12        2.07795  -0.01012   0.00000  -0.02967  -0.02967   2.04828
   R13        1.81414   0.00246   0.00000   0.00441   0.00441   1.81854
    A1        2.09437  -0.00195   0.00000  -0.00742  -0.00754   2.08683
    A2        2.09441   0.00100   0.00000   0.00387   0.00391   2.09832
    A3        2.09441   0.00095   0.00000   0.00355   0.00359   2.09800
    A4        2.09455   0.00145   0.00000   0.00741   0.00741   2.10195
    A5        2.09406  -0.00004   0.00000   0.00047   0.00047   2.09453
    A6        2.09458  -0.00141   0.00000  -0.00788  -0.00788   2.08669
    A7        2.09429  -0.00252   0.00000  -0.01132  -0.01111   2.08319
    A8        2.09445   0.00331   0.00000   0.01818   0.01806   2.11251
    A9        2.09445  -0.00079   0.00000  -0.00686  -0.00698   2.08746
   A10        2.09429   0.00390   0.00000   0.01478   0.01427   2.10856
   A11        2.09407  -0.00203   0.00000  -0.00774  -0.00871   2.08536
   A12        2.09483  -0.00186   0.00000  -0.00708  -0.00805   2.08678
   A13        2.09448  -0.00208   0.00000  -0.00953  -0.00932   2.08516
   A14        2.09459  -0.00106   0.00000  -0.00806  -0.00818   2.08641
   A15        2.09411   0.00314   0.00000   0.01759   0.01747   2.11158
   A16        2.09440   0.00120   0.00000   0.00607   0.00607   2.10046
   A17        2.09453   0.00002   0.00000   0.00075   0.00075   2.09528
   A18        2.09426  -0.00122   0.00000  -0.00682  -0.00682   2.08743
   A19        1.91114  -0.00396   0.00000  -0.02415  -0.02415   1.88699
    D1        0.00056  -0.00019   0.00000  -0.00796  -0.00793  -0.00737
    D2        3.14078  -0.00027   0.00000  -0.01116  -0.01113   3.12964
    D3       -3.14103   0.00003   0.00000   0.00133   0.00133  -3.13970
    D4       -0.00082  -0.00004   0.00000  -0.00188  -0.00187  -0.00269
    D5        0.00026   0.00017   0.00000   0.00695   0.00692   0.00718
    D6        3.14140   0.00029   0.00000   0.01218   0.01214  -3.12964
    D7       -3.14133  -0.00006   0.00000  -0.00234  -0.00234   3.13952
    D8       -0.00019   0.00007   0.00000   0.00289   0.00289   0.00270
    D9       -0.00099  -0.00013   0.00000  -0.00596  -0.00588  -0.00687
   D10        3.14060  -0.00035   0.00000  -0.01434  -0.01434   3.12626
   D11       -3.14120  -0.00006   0.00000  -0.00276  -0.00270   3.13928
   D12        0.00039  -0.00028   0.00000  -0.01114  -0.01116  -0.01077
   D13        0.00060   0.00048   0.00000   0.02089   0.02102   0.02161
   D14       -3.14153  -0.00132   0.00000  -0.05453  -0.05458   3.08708
   D15       -3.14100   0.00070   0.00000   0.02927   0.02935  -3.11165
   D16        0.00006  -0.00110   0.00000  -0.04615  -0.04625  -0.04618
   D17        0.00023  -0.00050   0.00000  -0.02191  -0.02205  -0.02182
   D18       -3.14158  -0.00071   0.00000  -0.02974  -0.02984   3.11176
   D19       -3.14083   0.00130   0.00000   0.05354   0.05361  -3.08722
   D20        0.00054   0.00109   0.00000   0.04571   0.04582   0.04636
   D21        1.57274   0.00093   0.00000   0.03925   0.03885   1.61159
   D22       -1.56938  -0.00087   0.00000  -0.03618  -0.03578  -1.60517
   D23       -0.00066   0.00018   0.00000   0.00798   0.00791   0.00725
   D24        3.14138   0.00006   0.00000   0.00276   0.00271  -3.13909
   D25        3.14116   0.00039   0.00000   0.01582   0.01582  -3.12621
   D26        0.00001   0.00026   0.00000   0.01060   0.01062   0.01063
         Item               Value     Threshold  Converged?
 Maximum Force            0.025465     0.000450     NO 
 RMS     Force            0.004702     0.000300     NO 
 Maximum Displacement     0.065148     0.001800     NO 
 RMS     Displacement     0.021680     0.001200     NO 
 Predicted change in Energy=-1.995548D-03
 GradGradGradGradGradGradGradGradGradGradGradGradGradGradGradGradGradGrad

                          Input orientation:                          
 ---------------------------------------------------------------------
 Center     Atomic      Atomic             Coordinates (Angstroms)
 Number     Number       Type             X           Y           Z
 ---------------------------------------------------------------------
      1          6           0        0.455488   -0.173398   -0.001484
      2          6           0        1.850071   -0.168157   -0.002253
      3          6           0        2.551776    1.036592   -0.014463
      4          6           0        1.847406    2.235854   -0.034225
      5          6           0        0.457150    2.245631   -0.016085
      6          6           0       -0.237107    1.036830   -0.004090
      7          1           0        2.395707   -1.104678    0.010974
      8          1           0       -0.070517    3.192299   -0.003927
      9          1           0       -1.320933    1.041980    0.007703
     10          8           0        2.546169    3.444834    0.019786
     11          1           0        2.711436    3.735505   -0.882588
     12          1           0       -0.086595   -1.111892    0.009795
     13          1           0        3.635296    1.052295   -0.000942
 ---------------------------------------------------------------------
                    Distance matrix (angstroms):
                    1          2          3          4          5
     1  C    0.000000
     2  C    1.394593   0.000000
     3  C    2.420469   1.394259   0.000000
     4  C    2.782625   2.404225   1.390956   0.000000
     5  C    2.419074   2.786896   2.418520   1.390408   0.000000
     6  C    1.394398   2.410042   2.788902   2.404945   1.394036
     7  H    2.152182   1.083959   2.147101   3.385533   3.870827
     8  H    3.406554   3.870572   3.394644   2.143393   1.083864
     9  H    2.152417   3.394082   3.872777   3.386069   2.147306
    10  O    4.178876   3.679502   2.408492   1.397433   2.409019
    11  H    4.598388   4.093350   2.839589   1.927491   2.837668
    12  H    1.083859   2.154404   3.402583   3.866484   3.401365
    13  H    3.407859   2.162529   1.083718   2.144405   3.394833
                    6          7          8          9         10
     6  C    0.000000
     7  H    3.393816   0.000000
     8  H    2.161898   4.954442   0.000000
     9  H    1.083903   4.292035   2.487479   0.000000
    10  O    3.680445   4.552008   2.628951   4.552838   0.000000
    11  H    4.092495   4.932090   2.967555   4.930284   0.962331
    12  H    2.154031   2.482313   4.304243   2.482490   5.262632
    13  H    3.872435   2.487821   4.279332   4.956247   2.628854
                   11         12         13
    11  H    0.000000
    12  H    5.667679   0.000000
    13  H    2.971605   4.305379   0.000000
 Stoichiometry    C6H6O
 Framework group  C1[X(C6H6O)]
 Deg. of freedom    33
 Full point group                 C1      NOp   1
 Largest Abelian subgroup         C1      NOp   1
 Largest concise Abelian subgroup C1      NOp   1
                         Standard orientation:                         
 ---------------------------------------------------------------------
 Center     Atomic      Atomic             Coordinates (Angstroms)
 Number     Number       Type             X           Y           Z
 ---------------------------------------------------------------------
      1          6           0        1.855208   -0.000453    0.016958
      2          6           0        1.152773   -1.205157    0.004203
      3          6           0       -0.241382   -1.209637   -0.012292
      4          6           0       -0.927309    0.000420   -0.007595
      5          6           0       -0.239681    1.208882   -0.012521
      6          6           0        1.154249    1.204885    0.004189
      7          1           0        1.690588   -2.146283    0.002783
      8          1           0       -0.794749    2.139510   -0.036840
      9          1           0        1.692406    2.145752    0.002742
     10          8           0       -2.322290    0.000553   -0.090345
     11          1           0       -2.675159    0.003667    0.804952
     12          1           0        2.939011   -0.000896    0.027996
     13          1           0       -0.796914   -2.139821   -0.036530
 ---------------------------------------------------------------------
 Rotational constants (GHZ):      5.6640816      2.5928679      1.7883310
 Standard basis: 6-311+G(d,p) (5D, 7F)
 There are   197 symmetry adapted cartesian basis functions of A   symmetry.
 There are   190 symmetry adapted basis functions of A   symmetry.
   190 basis functions,   300 primitive gaussians,   197 cartesian basis functions
    25 alpha electrons       25 beta electrons
       nuclear repulsion energy       270.5662201214 Hartrees.
 NAtoms=   13 NActive=   13 NUniq=   13 SFac= 1.00D+00 NAtFMM=   60 NAOKFM=F Big=F
 Integral buffers will be    131072 words long.
 Raffenetti 2 integral format.
 Two-electron integral symmetry is turned on.
 One-electron integrals computed using PRISM.
 NBasis=   190 RedAO= T EigKep=  3.57D-06  NBF=   190
 NBsUse=   190 1.00D-06 EigRej= -1.00D+00 NBFU=   190
 Initial guess from the checkpoint file:  "26.chk"
 B after Tr=     0.000000    0.000000    0.000000
         Rot=    1.000000    0.000046    0.000017    0.000671 Ang=   0.08 deg.
 ExpMin= 4.38D-02 ExpMax= 8.59D+03 ExpMxC= 1.30D+03 IAcc=2 IRadAn=         4 AccDes= 0.00D+00
 Harris functional with IExCor=  402 and IRadAn=       4 diagonalized for initial guess.
 HarFok:  IExCor=  402 AccDes= 0.00D+00 IRadAn=         4 IDoV= 1 UseB2=F ITyADJ=14
 ICtDFT=  3500011 ScaDFX=  1.000000  1.000000  1.000000  1.000000
 FoFCou: FMM=F IPFlag=           0 FMFlag=      100000 FMFlg1=           0
         NFxFlg=           0 DoJE=T BraDBF=F KetDBF=T FulRan=T
         wScrn=  0.000000 ICntrl=     500 IOpCl=  0 I1Cent=   200000004 NGrid=           0
         NMat0=    1 NMatS0=      1 NMatT0=    0 NMatD0=    1 NMtDS0=    0 NMtDT0=    0
 Petite list used in FoFCou.
 Keep R1 ints in memory in canonical form, NReq=168651063.
 Requested convergence on RMS density matrix=1.00D-08 within 128 cycles.
 Requested convergence on MAX density matrix=1.00D-06.
 Requested convergence on             energy=1.00D-06.
 No special actions if energy rises.
 SCF Done:  E(RB3LYP) =  -307.552925615     A.U. after   11 cycles
            NFock= 11  Conv=0.92D-08     -V/T= 2.0042
 Calling FoFJK, ICntrl=      2127 FMM=F ISym2X=0 I1Cent= 0 IOpClX= 0 NMat=1 NMatS=1 NMatT=0.
 ***** Axes restored to original set *****
 -------------------------------------------------------------------
 Center     Atomic                   Forces (Hartrees/Bohr)
 Number     Number              X              Y              Z
 -------------------------------------------------------------------
      1        6           0.000398728    0.000608130    0.000359798
      2        6           0.000034718   -0.000684930   -0.000437476
      3        6          -0.000714964   -0.002671718    0.000005710
      4        6           0.003858605    0.005663983    0.002531431
      5        6          -0.002483884   -0.001190878   -0.000037723
      6        6          -0.000323500   -0.000459824   -0.000429670
      7        1           0.000138819   -0.000254574    0.000022150
      8        1           0.000580093    0.000173810    0.000025339
      9        1          -0.000296548    0.000013395    0.000022558
     10        8          -0.002276187   -0.003797438   -0.002278534
     11        1           0.001111057    0.001979706    0.000178582
     12        1           0.000067792    0.000030143    0.000022267
     13        1          -0.000094726    0.000590195    0.000015568
 -------------------------------------------------------------------
 Cartesian Forces:  Max     0.005663983 RMS     0.001611815

 GradGradGradGradGradGradGradGradGradGradGradGradGradGradGradGradGradGrad
 Berny optimization.
 Using GEDIIS/GDIIS optimizer.
 FormGI is forming the generalized inverse of G from B-inverse, IUseBI=4.
 Internal  Forces:  Max     0.003984093 RMS     0.000809061
 Search for a local minimum.
 Step number   2 out of a maximum of   68
 All quantities printed in internal units (Hartrees-Bohrs-Radians)
 Mixed Optimization -- En-DIIS/RFO-DIIS
 Update second derivatives using D2CorX and points    1    2
 DE= -1.92D-03 DEPred=-2.00D-03 R= 9.62D-01
 TightC=F SS=  1.41D+00  RLast= 1.64D-01 DXNew= 5.0454D-01 4.9216D-01
 Trust test= 9.62D-01 RLast= 1.64D-01 DXMaxT set to 4.92D-01
 ITU=  1  0
 Use linear search instead of GDIIS.
     Eigenvalues ---    0.01295   0.02101   0.02153   0.02154   0.02154
     Eigenvalues ---    0.02155   0.02155   0.02156   0.02157   0.02192
     Eigenvalues ---    0.15560   0.15999   0.15999   0.16000   0.16000
     Eigenvalues ---    0.16695   0.21993   0.22164   0.24002   0.24929
     Eigenvalues ---    0.33358   0.33723   0.33837   0.36522   0.37230
     Eigenvalues ---    0.38650   0.42123   0.43122   0.46438   0.46454
     Eigenvalues ---    0.46480   0.47387   0.55424
 RFO step:  Lambda=-1.68184984D-04 EMin= 1.29489597D-02
 Quartic linear search produced a step of -0.02816.
 Iteration  1 RMS(Cart)=  0.00425531 RMS(Int)=  0.00003617
 Iteration  2 RMS(Cart)=  0.00003879 RMS(Int)=  0.00000347
 Iteration  3 RMS(Cart)=  0.00000000 RMS(Int)=  0.00000347
 Variable       Old X    -DE/DX   Delta X   Delta X   Delta X     New X
                                 (Linear)    (Quad)   (Total)
    R1        2.63540  -0.00012   0.00003  -0.00049  -0.00046   2.63494
    R2        2.63503   0.00008   0.00002  -0.00003  -0.00001   2.63502
    R3        2.04820  -0.00006  -0.00074   0.00182   0.00108   2.04928
    R4        2.63477   0.00021   0.00002   0.00034   0.00037   2.63514
    R5        2.04838   0.00029   0.00084  -0.00140  -0.00056   2.04782
    R6        2.62853   0.00188   0.00024   0.00345   0.00368   2.63221
    R7        2.04793  -0.00009  -0.00073   0.00173   0.00100   2.04893
    R8        2.62749   0.00216   0.00023   0.00405   0.00428   2.63178
    R9        2.64077  -0.00224   0.00173  -0.00993  -0.00819   2.63257
   R10        2.63435   0.00042   0.00006   0.00075   0.00081   2.63516
   R11        2.04821  -0.00013   0.00085  -0.00264  -0.00179   2.04641
   R12        2.04828   0.00030   0.00084  -0.00138  -0.00055   2.04773
   R13        1.81854   0.00062  -0.00012   0.00142   0.00129   1.81984
    A1        2.08683   0.00060   0.00021   0.00129   0.00149   2.08832
    A2        2.09832  -0.00034  -0.00011  -0.00089  -0.00100   2.09733
    A3        2.09800  -0.00026  -0.00010  -0.00037  -0.00047   2.09753
    A4        2.10195  -0.00030  -0.00021  -0.00133  -0.00154   2.10041
    A5        2.09453   0.00014  -0.00001   0.00093   0.00091   2.09544
    A6        2.08669   0.00016   0.00022   0.00039   0.00061   2.08731
    A7        2.08319   0.00090   0.00031   0.00319   0.00351   2.08669
    A8        2.11251   0.00016  -0.00051   0.00304   0.00253   2.11504
    A9        2.08746  -0.00106   0.00020  -0.00622  -0.00603   2.08144
   A10        2.10856  -0.00161  -0.00040  -0.00456  -0.00495   2.10361
   A11        2.08536   0.00095   0.00025   0.00304   0.00330   2.08865
   A12        2.08678   0.00068   0.00023   0.00205   0.00229   2.08907
   A13        2.08516   0.00047   0.00026   0.00163   0.00189   2.08705
   A14        2.08641  -0.00084   0.00023  -0.00546  -0.00523   2.08118
   A15        2.11158   0.00037  -0.00049   0.00385   0.00335   2.11494
   A16        2.10046  -0.00006  -0.00017  -0.00017  -0.00034   2.10012
   A17        2.09528   0.00004  -0.00002   0.00044   0.00042   2.09570
   A18        2.08743   0.00002   0.00019  -0.00029  -0.00010   2.08734
   A19        1.88699   0.00398   0.00068   0.02233   0.02301   1.91000
    D1       -0.00737   0.00014   0.00022   0.00599   0.00621  -0.00116
    D2        3.12964   0.00007   0.00031   0.00263   0.00295   3.13259
    D3       -3.13970   0.00005  -0.00004   0.00213   0.00210  -3.13761
    D4       -0.00269  -0.00003   0.00005  -0.00122  -0.00117  -0.00386
    D5        0.00718  -0.00014  -0.00019  -0.00591  -0.00611   0.00107
    D6       -3.12964  -0.00007  -0.00034  -0.00250  -0.00285  -3.13248
    D7        3.13952  -0.00004   0.00007  -0.00206  -0.00200   3.13752
    D8        0.00270   0.00003  -0.00008   0.00135   0.00127   0.00396
    D9       -0.00687  -0.00006   0.00017  -0.00266  -0.00249  -0.00936
   D10        3.12626  -0.00001   0.00040  -0.00120  -0.00078   3.12548
   D11        3.13928   0.00001   0.00008   0.00068   0.00076   3.14004
   D12       -0.01077   0.00006   0.00031   0.00214   0.00246  -0.00831
   D13        0.02161  -0.00006  -0.00059  -0.00088  -0.00147   0.02014
   D14        3.08708   0.00027   0.00154   0.00749   0.00903   3.09610
   D15       -3.11165  -0.00012  -0.00083  -0.00237  -0.00319  -3.11483
   D16       -0.04618   0.00022   0.00130   0.00601   0.00731  -0.03887
   D17       -0.02182   0.00007   0.00062   0.00097   0.00159  -0.02023
   D18        3.11176   0.00012   0.00084   0.00210   0.00293   3.11469
   D19       -3.08722  -0.00028  -0.00151  -0.00746  -0.00896  -3.09617
   D20        0.04636  -0.00023  -0.00129  -0.00633  -0.00762   0.03875
   D21        1.61159  -0.00009  -0.00109  -0.00199  -0.00309   1.60851
   D22       -1.60517   0.00014   0.00101   0.00599   0.00701  -1.59816
   D23        0.00725   0.00005  -0.00022   0.00251   0.00229   0.00954
   D24       -3.13909  -0.00002  -0.00008  -0.00088  -0.00096  -3.14005
   D25       -3.12621   0.00001  -0.00045   0.00141   0.00096  -3.12525
   D26        0.01063  -0.00006  -0.00030  -0.00198  -0.00229   0.00834
         Item               Value     Threshold  Converged?
 Maximum Force            0.003984     0.000450     NO 
 RMS     Force            0.000809     0.000300     NO 
 Maximum Displacement     0.023471     0.001800     NO 
 RMS     Displacement     0.004246     0.001200     NO 
 Predicted change in Energy=-8.630915D-05
 GradGradGradGradGradGradGradGradGradGradGradGradGradGradGradGradGradGrad

                          Input orientation:                          
 ---------------------------------------------------------------------
 Center     Atomic      Atomic             Coordinates (Angstroms)
 Number     Number       Type             X           Y           Z
 ---------------------------------------------------------------------
      1          6           0        0.454953   -0.174538    0.000329
      2          6           0        1.849295   -0.170715   -0.002965
      3          6           0        2.550449    1.034601   -0.012880
      4          6           0        1.848661    2.237662   -0.030835
      5          6           0        0.456096    2.244619   -0.014765
      6          6           0       -0.238227    1.035340   -0.004948
      7          1           0        2.394708   -1.107031    0.009538
      8          1           0       -0.068105    3.192143   -0.003818
      9          1           0       -1.321774    1.040436    0.006106
     10          8           0        2.545372    3.443182    0.014273
     11          1           0        2.716873    3.747926   -0.883011
     12          1           0       -0.087415   -1.113524    0.011780
     13          1           0        3.634459    1.053596   -0.000604
 ---------------------------------------------------------------------
                    Distance matrix (angstroms):
                    1          2          3          4          5
     1  C    0.000000
     2  C    1.394351   0.000000
     3  C    2.419359   1.394454   0.000000
     4  C    2.786055   2.408539   1.392905   0.000000
     5  C    2.419205   2.788366   2.418774   1.392675   0.000000
     6  C    1.394393   2.410876   2.788688   2.408599   1.394467
     7  H    2.152273   1.083660   2.147404   3.389214   3.871998
     8  H    3.407073   3.871077   3.392918   2.141437   1.082915
     9  H    2.152430   3.394502   3.872274   3.389154   2.147396
    10  O    4.178271   3.680363   2.408739   1.393097   2.408832
    11  H    4.613274   4.108883   2.854288   1.939302   2.850420
    12  H    1.084430   2.154054   3.401966   3.870485   3.401946
    13  H    3.408456   2.164660   1.084245   2.142895   3.394220
                    6          7          8          9         10
     6  C    0.000000
     7  H    3.394453   0.000000
     8  H    2.163502   4.954646   0.000000
     9  H    1.083614   4.292303   2.490306   0.000000
    10  O    3.680557   4.552709   2.625568   4.552809   0.000000
    11  H    4.106304   4.946821   2.972873   4.942842   0.963016
    12  H    2.154215   2.482132   4.305738   2.482583   5.262617
    13  H    3.872731   2.491063   4.275788   4.956254   2.626109
                   11         12         13
    11  H    0.000000
    12  H    5.683166   0.000000
    13  H    2.979936   4.306844   0.000000
 Stoichiometry    C6H6O
 Framework group  C1[X(C6H6O)]
 Deg. of freedom    33
 Full point group                 C1      NOp   1
 Largest Abelian subgroup         C1      NOp   1
 Largest concise Abelian subgroup C1      NOp   1
                         Standard orientation:                         
 ---------------------------------------------------------------------
 Center     Atomic      Atomic             Coordinates (Angstroms)
 Number     Number       Type             X           Y           Z
 ---------------------------------------------------------------------
      1          6           0        1.855500    0.000167    0.016764
      2          6           0        1.154824   -1.205301    0.006016
      3          6           0       -0.239479   -1.209547   -0.014078
      4          6           0       -0.930406   -0.000084   -0.012035
      5          6           0       -0.239676    1.209227   -0.014284
      6          6           0        1.154640    1.205575    0.005914
      7          1           0        1.692912   -2.145929    0.005905
      8          1           0       -0.797570    2.137071   -0.038044
      9          1           0        1.692336    2.146374    0.005620
     10          8           0       -2.321479   -0.000428   -0.087099
     11          1           0       -2.690374    0.004271    0.802449
     12          1           0        2.939865    0.000131    0.028652
     13          1           0       -0.797761   -2.138717   -0.037573
 ---------------------------------------------------------------------
 Rotational constants (GHZ):      5.6636322      2.5906149      1.7870837
 Standard basis: 6-311+G(d,p) (5D, 7F)
 There are   197 symmetry adapted cartesian basis functions of A   symmetry.
 There are   190 symmetry adapted basis functions of A   symmetry.
   190 basis functions,   300 primitive gaussians,   197 cartesian basis functions
    25 alpha electrons       25 beta electrons
       nuclear repulsion energy       270.5059128426 Hartrees.
 NAtoms=   13 NActive=   13 NUniq=   13 SFac= 1.00D+00 NAtFMM=   60 NAOKFM=F Big=F
 Integral buffers will be    131072 words long.
 Raffenetti 2 integral format.
 Two-electron integral symmetry is turned on.
 One-electron integrals computed using PRISM.
 NBasis=   190 RedAO= T EigKep=  3.56D-06  NBF=   190
 NBsUse=   190 1.00D-06 EigRej= -1.00D+00 NBFU=   190
 Initial guess from the checkpoint file:  "26.chk"
 B after Tr=     0.000000    0.000000    0.000000
         Rot=    1.000000    0.000025    0.000114   -0.000218 Ang=   0.03 deg.
 ExpMin= 4.38D-02 ExpMax= 8.59D+03 ExpMxC= 1.30D+03 IAcc=2 IRadAn=         4 AccDes= 0.00D+00
 Harris functional with IExCor=  402 and IRadAn=       4 diagonalized for initial guess.
 HarFok:  IExCor=  402 AccDes= 0.00D+00 IRadAn=         4 IDoV= 1 UseB2=F ITyADJ=14
 ICtDFT=  3500011 ScaDFX=  1.000000  1.000000  1.000000  1.000000
 FoFCou: FMM=F IPFlag=           0 FMFlag=      100000 FMFlg1=           0
         NFxFlg=           0 DoJE=T BraDBF=F KetDBF=T FulRan=T
         wScrn=  0.000000 ICntrl=     500 IOpCl=  0 I1Cent=   200000004 NGrid=           0
         NMat0=    1 NMatS0=      1 NMatT0=    0 NMatD0=    1 NMtDS0=    0 NMtDT0=    0
 Petite list used in FoFCou.
 Keep R1 ints in memory in canonical form, NReq=168651063.
 Requested convergence on RMS density matrix=1.00D-08 within 128 cycles.
 Requested convergence on MAX density matrix=1.00D-06.
 Requested convergence on             energy=1.00D-06.
 No special actions if energy rises.
 SCF Done:  E(RB3LYP) =  -307.553026589     A.U. after   10 cycles
            NFock= 10  Conv=0.30D-08     -V/T= 2.0042
 Calling FoFJK, ICntrl=      2127 FMM=F ISym2X=0 I1Cent= 0 IOpClX= 0 NMat=1 NMatS=1 NMatT=0.
 ***** Axes restored to original set *****
 -------------------------------------------------------------------
 Center     Atomic                   Forces (Hartrees/Bohr)
 Number     Number              X              Y              Z
 -------------------------------------------------------------------
      1        6          -0.000090210   -0.000062485   -0.000143779
      2        6           0.000072022    0.000337645    0.000169495
      3        6          -0.000180091   -0.000939795   -0.000009610
      4        6           0.001512030    0.002251337    0.000109522
      5        6          -0.000492163   -0.001313910   -0.000044957
      6        6           0.000369399    0.000161148    0.000165958
      7        1           0.000230370   -0.000377784    0.000002262
      8        1          -0.000198672    0.000564843   -0.000032695
      9        1          -0.000468477    0.000001215    0.000000214
     10        8          -0.000653878   -0.001219442   -0.000653692
     11        1           0.000033776    0.000122610    0.000509958
     12        1           0.000193958    0.000354008   -0.000025636
     13        1          -0.000328063    0.000120609   -0.000047041
[...]
    D2        3.14155   0.00000   0.00000   0.00004   0.00004   3.14159
    D3        3.14156   0.00000   0.00000   0.00003   0.00003  -3.14159
    D4       -0.00004   0.00000   0.00000   0.00004   0.00004   0.00000
    D5        0.00005   0.00000   0.00000  -0.00005  -0.00005   0.00000
    D6       -3.14158   0.00000   0.00000  -0.00001  -0.00001   3.14159
    D7       -3.14154   0.00000   0.00000  -0.00005  -0.00005   3.14159
    D8        0.00001   0.00000   0.00000  -0.00001  -0.00001   0.00000
    D9       -0.00003   0.00000   0.00000   0.00003   0.00003   0.00000
   D10       -3.14159   0.00000   0.00000   0.00000   0.00000   3.14159
   D11        3.14158   0.00000   0.00000   0.00002   0.00002   3.14159
   D12        0.00001   0.00000   0.00000  -0.00001  -0.00001   0.00000
   D13        0.00006   0.00000   0.00000  -0.00006  -0.00006   0.00000
   D14       -3.14154   0.00000   0.00000  -0.00005  -0.00005  -3.14159
   D15       -3.14156   0.00000   0.00000  -0.00003  -0.00003   3.14159
   D16        0.00003   0.00000   0.00000  -0.00003  -0.00003   0.00000
   D17       -0.00004   0.00000   0.00000   0.00004   0.00004   0.00000
   D18        3.14150   0.00000   0.00000   0.00009   0.00009   3.14159
   D19        3.14156   0.00000   0.00000   0.00003   0.00003   3.14159
   D20       -0.00009   0.00000   0.00000   0.00009   0.00009   0.00000
   D21        3.14152   0.00000   0.00000   0.00007   0.00007   3.14159
   D22       -0.00008   0.00000   0.00000   0.00008   0.00008   0.00000
   D23       -0.00002   0.00000   0.00000   0.00002   0.00002   0.00000
   D24       -3.14157   0.00000   0.00000  -0.00002  -0.00002  -3.14159
   D25       -3.14156   0.00000   0.00000  -0.00004  -0.00004   3.14159
   D26        0.00008   0.00000   0.00000  -0.00008  -0.00008   0.00000
         Item               Value     Threshold  Converged?
 Maximum Force            0.000009     0.000450     YES
 RMS     Force            0.000003     0.000300     YES
 Maximum Displacement     0.000203     0.001800     YES
 RMS     Displacement     0.000052     0.001200     YES
 Predicted change in Energy=-1.891710D-09
 Optimization completed.
    -- Stationary point found.
                           ----------------------------
                           !   Optimized Parameters   !
                           ! (Angstroms and Degrees)  !
 --------------------------                            --------------------------
 ! Name  Definition              Value          Derivative Info.                !
 --------------------------------------------------------------------------------
 ! R1    R(1,2)                  1.3959         -DE/DX =    0.0                 !
 ! R2    R(1,6)                  1.3928         -DE/DX =    0.0                 !
 ! R3    R(1,12)                 1.0834         -DE/DX =    0.0                 !
 ! R4    R(2,3)                  1.391          -DE/DX =    0.0                 !
 ! R5    R(2,7)                  1.0843         -DE/DX =    0.0                 !
 ! R6    R(3,4)                  1.3959         -DE/DX =    0.0                 !
 ! R7    R(3,13)                 1.0833         -DE/DX =    0.0                 !
 ! R8    R(4,5)                  1.3959         -DE/DX =    0.0                 !
 ! R9    R(4,10)                 1.37           -DE/DX =    0.0                 !
 ! R10   R(5,6)                  1.3942         -DE/DX =    0.0                 !
 ! R11   R(5,8)                  1.0863         -DE/DX =    0.0                 !
 ! R12   R(6,9)                  1.0843         -DE/DX =    0.0                 !
 ! R13   R(10,11)                0.9628         -DE/DX =    0.0                 !
 ! A1    A(2,1,6)              119.2819         -DE/DX =    0.0                 !
 ! A2    A(2,1,12)             120.3853         -DE/DX =    0.0                 !
 ! A3    A(6,1,12)             120.3328         -DE/DX =    0.0                 !
 ! A4    A(1,2,3)              120.7486         -DE/DX =    0.0                 !
 ! A5    A(1,2,7)              119.9752         -DE/DX =    0.0                 !
 ! A6    A(3,2,7)              119.2762         -DE/DX =    0.0                 !
 ! A7    A(2,3,4)              119.5768         -DE/DX =    0.0                 !
 ! A8    A(2,3,13)             121.436          -DE/DX =    0.0                 !
 ! A9    A(4,3,13)             118.9872         -DE/DX =    0.0                 !
 ! A10   A(3,4,5)              120.1479         -DE/DX =    0.0                 !
 ! A11   A(3,4,10)             117.3012         -DE/DX =    0.0                 !
 ! A12   A(5,4,10)             122.5509         -DE/DX =    0.0                 !
 ! A13   A(4,5,6)              119.732          -DE/DX =    0.0                 !
 ! A14   A(4,5,8)              120.0367         -DE/DX =    0.0                 !
 ! A15   A(6,5,8)              120.2313         -DE/DX =    0.0                 !
 ! A16   A(1,6,5)              120.5128         -DE/DX =    0.0                 !
 ! A17   A(1,6,9)              120.168          -DE/DX =    0.0                 !
 ! A18   A(5,6,9)              119.3193         -DE/DX =    0.0                 !
 ! A19   A(4,10,11)            109.7455         -DE/DX =    0.0                 !
 ! D1    D(6,1,2,3)             -0.0016         -DE/DX =    0.0                 !
 ! D2    D(6,1,2,7)            179.9977         -DE/DX =    0.0                 !
 ! D3    D(12,1,2,3)          -180.0018         -DE/DX =    0.0                 !
 ! D4    D(12,1,2,7)            -0.0025         -DE/DX =    0.0                 !
 ! D5    D(2,1,6,5)              0.0029         -DE/DX =    0.0                 !
 ! D6    D(2,1,6,9)            180.0005         -DE/DX =    0.0                 !
 ! D7    D(12,1,6,5)           180.0031         -DE/DX =    0.0                 !
 ! D8    D(12,1,6,9)             0.0007         -DE/DX =    0.0                 !
 ! D9    D(1,2,3,4)             -0.0016         -DE/DX =    0.0                 !
 ! D10   D(1,2,3,13)           180.0001         -DE/DX =    0.0                 !
 ! D11   D(7,2,3,4)            179.9991         -DE/DX =    0.0                 !
 ! D12   D(7,2,3,13)             0.0008         -DE/DX =    0.0                 !
 ! D13   D(2,3,4,5)              0.0035         -DE/DX =    0.0                 !
 ! D14   D(2,3,4,10)          -179.9969         -DE/DX =    0.0                 !
 ! D15   D(13,3,4,5)           180.0018         -DE/DX =    0.0                 !
 ! D16   D(13,3,4,10)            0.0015         -DE/DX =    0.0                 !
 ! D17   D(3,4,5,6)             -0.0021         -DE/DX =    0.0                 !
 ! D18   D(3,4,5,8)            179.9948         -DE/DX =    0.0                 !
 ! D19   D(10,4,5,6)           179.9982         -DE/DX =    0.0                 !
 ! D20   D(10,4,5,8)            -0.0049         -DE/DX =    0.0                 !
 ! D21   D(3,4,10,11)          179.9957         -DE/DX =    0.0                 !
 ! D22   D(5,4,10,11)           -0.0046         -DE/DX =    0.0                 !
 ! D23   D(4,5,6,1)             -0.0011         -DE/DX =    0.0                 !
 ! D24   D(4,5,6,9)           -179.9987         -DE/DX =    0.0                 !
 ! D25   D(8,5,6,1)            180.0021         -DE/DX =    0.0                 !
 ! D26   D(8,5,6,9)              0.0045         -DE/DX =    0.0                 !
 --------------------------------------------------------------------------------
 GradGradGradGradGradGradGradGradGradGradGradGradGradGradGradGradGradGrad

 1\1\GINC-COREV3-23-042\Freq\RB3LYP\6-311+G(d,p)\C6H6O1\SWEAV003\23-Apr
 -2024\0\\#N Geom=AllCheck Guess=TCheck SCRF=Check GenChk RB3LYP/6-311+
 G(d,p) Freq\\Title Card Required\\0,1\C,0.451506711,-0.1693354657,0.05
 22011657\C,1.8467335924,-0.2118530092,0.0455899322\C,2.5934212645,0.95
 74944482,-0.0545110721\C,1.9390502249,2.1868151245,-0.1494069572\C,0.5
 442126286,2.2408221634,-0.1436901863\C,-0.1930042935,1.0617614949,-0.0
 428423891\H,2.3600729483,-1.1641322206,0.1190388344\H,0.0368251609,3.1
 985041033,-0.2175481117\H,-1.2761164943,1.1114883065,-0.039056534\O,2.
 7197904343,3.3084789562,-0.2459563336\H,2.1605484237,4.0899230242,-0.3
 053103358\H,-0.1242275013,-1.0837203955,0.1303881573\H,3.6765311206,0.
 9374482299,-0.0606947398\\Version=ES64L-G09RevD.01\State=1-A\HF=-307.5
 586307\RMSD=2.857e-09\RMSF=4.340e-06\ZeroPoint=0.1041386\Thermal=0.109
 7259\Dipole=-0.4856902,0.2464545,-0.0165007\DipoleDeriv=-0.1811897,0.0
 785972,-0.0062674,0.1038753,-0.085787,-0.0074069,-0.0083127,-0.0072218
 ,-0.1674993,0.1877396,-0.023066,-0.000446,0.0653657,0.1319475,-0.02191
 76,-0.0076031,-0.0212954,-0.1309728,0.0352628,0.0794072,-0.0078335,-0.
 2267655,-0.3107237,0.0138921,0.0169717,0.0116886,-0.1606476,0.4816164,
 0.6285452,-0.0538866,0.6629231,1.1611683,-0.0928215,-0.0566809,-0.0925
 868,0.0829261,-0.1927355,-0.3538062,0.0288002,-0.0136838,-0.102864,-0.
 0056726,0.0012233,-0.0031885,-0.174104,0.1060468,0.0506069,-0.0058378,
 -0.0818443,0.17647,-0.0245749,0.0049128,-0.0255308,-0.1320477,0.033669
 1,0.0731944,-0.0051882,0.0715925,-0.0622631,0.0155873,-0.0050635,0.015
 579,0.1352975,0.0456471,0.0503967,-0.0032959,0.0533576,-0.1098794,0.02
 09879,-0.003521,0.0209971,0.1523481,-0.1025262,0.0049804,0.0013351,0.0
 102578,0.0700361,0.0054338,0.0008939,0.0054715,0.1375871,-0.5410465,-0
 .618761,0.0513783,-0.6282768,-1.2273099,0.0738161,0.0521438,0.073731,-
 0.3787409,0.171072,0.1083919,-0.0076274,0.0612509,0.3365482,-0.000751,
 -0.0038031,-0.0010776,0.3328371,0.0170868,-0.074835,0.0070339,-0.07571
 48,-0.0548727,0.0173051,0.007102,0.0172942,0.1506244,-0.0606427,-0.003
 6517,0.0018352,-0.0023377,0.0775297,0.0061224,0.0017368,0.0061395,0.15
 23919\Polar=82.6320063,3.3648607,88.4616562,-0.5566608,-3.6830947,43.6
 038251\PG=C01 [X(C6H6O1)]\NImag=0\\0.67207608,0.03965292,0.71312842,-0
 .00715175,-0.04789341,0.12915864,-0.32554532,-0.02510075,0.00393888,0.
 67330082,0.03719025,-0.12634016,0.00502825,-0.02945934,0.71567306,-0.0
 0110723,0.00547872,-0.06137686,-0.00149117,-0.04683571,0.13868078,-0.0
 2980740,-0.02746288,0.00248324,-0.19071871,-0.12769292,0.01131189,0.74
 322992,-0.07231990,0.03403365,-0.00173648,-0.06618621,-0.27888346,0.01
 850088,0.01636523,0.66895486,0.00611738,-0.00206070,0.00626849,0.00633
 050,0.01894609,-0.05793651,-0.00579989,-0.04441019,0.12592564,-0.05237
 383,0.03677032,-0.00262312,0.07069131,0.01818010,-0.00198517,-0.181319
 93,0.05221642,-0.00339690,0.68144785,0.03671311,-0.01924784,0.00103455
 ,-0.03360814,-0.05901695,0.00499588,0.12376949,-0.25260214,0.01429748,
 -0.02065455,0.68080488,-0.00261945,0.00103411,-0.00326842,0.00220970,0
 .00462101,-0.00074035,-0.00919210,0.01481396,-0.06629221,-0.00216147,-
 0.04279655,0.15435550,0.05960543,-0.02901242,0.00196341,-0.05171731,-0
 .02276745,0.00220193,-0.01933128,0.06872363,-0.00538726,-0.30852997,-0
 .01547740,0.00304279,0.66722022,0.01748425,-0.05748859,0.00502284,-0.0
 2749193,-0.01476039,0.00121978,0.02752453,0.02778775,-0.00200969,0.061
 17191,-0.13089624,0.00518662,-0.01937908,0.71981308,-0.00180366,0.0053
 5794,0.00565723,0.00258511,0.00118648,-0.00226484,-0.00205079,-0.00230
 661,0.00563331,-0.00316495,0.00574013,-0.06185617,-0.00242677,-0.04876
 455,0.11992523,-0.16992636,0.11538385,-0.00855251,-0.02595336,0.030731
 57,-0.00226110,-0.00154037,0.00057744,-0.00004582,-0.03095295,-0.02822
 007,0.00250322,-0.18343507,-0.12440374,0.01101064,0.73243477,0.0529916
 9,-0.28666839,0.01794913,0.07868948,0.02713867,-0.00231195,-0.00231450
 ,-0.06444432,0.00512302,-0.08105689,0.04277720,-0.00295728,-0.06270910
 ,-0.27345749,0.01819326,-0.00668795,0.65390427,-0.00349817,0.01749867,
 -0.06168292,-0.00614679,-0.00196528,0.00581760,0.00018839,0.00510242,-
 0.00181998,0.00678364,-0.00333893,-0.00072970,0.00601200,0.01863910,-0
 .05602120,-0.00379970,-0.04225988,0.13498900,-0.00902848,0.02905661,-0
 .00226275,-0.12106022,0.11499437,-0.00871343,0.01125867,-0.01614486,0.
 00125233,-0.00116902,-0.00322422,0.00032598,-0.00060782,-0.00094764,0.
 00007410,-0.00592388,-0.00075671,0.00015206,0.12485622,-0.00169488,0.0
 0271703,0.00008405,0.11464157,-0.27159940,0.01814848,0.01448232,-0.018
 94591,0.00171824,-0.00373786,-0.00143670,0.00077774,-0.00079890,0.0001
 9498,-0.00008937,-0.00002333,0.00186375,0.00039091,-0.12349526,0.28744
 364,0.00022924,-0.00013784,0.00361304,-0.00868597,0.01814609,-0.038785
 68,-0.00122823,0.00193949,0.00340414,0.00036814,0.00077371,0.00776636,
 0.00006155,-0.00008861,-0.00097270,0.00009269,0.00039645,0.00665379,0.
 00928999,-0.02031902,0.02722249,-0.00095326,-0.00330417,0.00032411,-0.
 00096630,-0.00108044,0.00008831,-0.00591570,-0.00096474,0.00015912,-0.
 00917975,0.02933377,-0.00228305,-0.11992242,0.11264576,-0.00847674,0.0
 1192219,-0.01571421,0.00120075,0.00005973,0.00006529,-0.00001143,0.122
 63668,-0.00439917,-0.00222427,0.00076447,-0.00064997,0.00016790,-0.000
 07799,-0.00006604,0.00210942,0.00025553,-0.00331103,-0.00268844,0.0005
 3212,0.11261192,-0.26518812,0.01812962,0.01522687,-0.01921174,0.001607
 92,0.00008952,-0.00006392,-0.00005915,-0.12155488,0.28340824,0.0004126
 4,0.00075703,0.00676035,0.00005372,-0.00007477,-0.00084797,0.00008609,
 0.00026200,0.00523940,0.00035889,0.00029624,0.00355825,-0.00847260,0.0
 1812717,-0.03260155,-0.00130534,0.00183299,0.00186688,-0.00001335,-0.0
 0005900,-0.00078143,0.00911083,-0.02029685,0.02342760,-0.01027562,-0.0
 0228741,0.00028504,0.00067365,0.00317323,-0.00021173,0.00072608,-0.000
 07672,-0.00000719,0.00130142,-0.00275926,0.00026719,-0.01264299,0.0030
 8698,-0.00013653,-0.33455937,0.01254553,0.00113636,-0.00063859,-0.0001
 4293,0.00001686,0.00084209,-0.00024071,-0.00001580,0.35497800,0.028498
 23,0.00404745,-0.00024519,0.00234068,-0.00472484,0.00092796,-0.0002430
 6,-0.00111575,0.00000044,-0.00198211,-0.00401495,0.00093550,-0.0274954
 0,0.00471451,0.00006708,0.01282715,-0.05937567,0.00177687,0.00143075,-
 0.00000680,-0.00000192,0.00044669,0.00096480,-0.00040945,-0.01349694,0
 .05858440,-0.00220842,-0.00002235,0.00357766,-0.00014390,0.00092180,0.
 00686783,0.00000615,-0.00000133,-0.00113155,0.00020369,0.00094163,0.00
 727926,0.00234227,-0.00015291,0.00308678,0.00111209,0.00177761,-0.0364
 4451,-0.00011047,0.00000939,0.00009619,-0.00007169,-0.00040427,-0.0040
 1687,-0.00128679,-0.00260796,0.02540430,0.00253502,-0.00564134,0.00042
 822,-0.00697757,0.00228752,-0.00010029,0.01884349,0.01109508,-0.000984
 79,-0.16986455,-0.05899308,0.00571596,-0.03240286,-0.05079491,0.004408
 14,-0.00337568,0.01047973,-0.00076944,0.00054111,0.00071263,-0.0000607
 6,0.00268588,0.00008791,-0.00005281,-0.00112944,-0.00175109,0.00015039
 ,0.40547701,-0.00656977,-0.00205968,0.00009678,0.00920592,0.00290317,0
 .00008768,-0.02661851,-0.05754782,0.00541109,-0.11053492,-0.22138548,0
 .01549625,-0.01178056,-0.00856157,0.00142791,0.00153386,-0.00149409,0.
 00072873,-0.00071786,-0.00150481,0.00013663,0.00085160,0.00371019,-0.0
 0060326,-0.00029254,-0.00031279,0.00003159,-0.10741489,0.62498813,0.00
 050328,0.00008991,-0.00146359,-0.00066103,0.00013766,0.00479617,0.0020
 7105,0.00513797,0.00640926,0.00989645,0.01512696,-0.04134038,0.0012466
 9,0.00171113,0.00786805,-0.00004436,0.00066340,0.00758144,0.00005519,0
 .00012656,0.00010896,-0.00011528,-0.00059785,-0.00361391,0.00003231,0.
 00004237,0.00004879,0.00597373,-0.04792466,0.02828847,-0.00033652,0.00
 008981,-0.00000382,0.00101628,-0.00013196,0.00001590,-0.00220541,-0.00
 417482,0.00036906,0.01373303,-0.02464831,0.00187838,0.00176715,-0.0045
 3918,0.00035235,-0.00074477,0.00010914,-0.00000992,-0.00010408,-0.0001
 8260,0.00001392,-0.00108184,0.00147356,-0.00010753,0.00002097,-0.00001
 143,0.00000064,-0.21775663,0.25303574,-0.01897533,0.20552412,-0.000248
 95,0.00092609,-0.00006277,0.00189535,-0.00079754,0.00019345,-0.0059300
 4,-0.00264461,0.00042088,0.02330977,-0.03632263,0.00253140,0.00239340,
 0.00548811,-0.00048864,0.00030588,-0.00120298,0.00002337,-0.00032069,-
 0.00028753,0.00000791,-0.00140433,0.00008105,0.00004488,0.00022472,0.0
 0025224,-0.00002308,0.20078924,-0.34091298,0.02598246,-0.22088775,0.37
 506168,0.00002359,-0.00006523,0.00013413,-0.00014835,0.00020783,0.0017
 4205,0.00051105,0.00040832,0.00198562,-0.00201104,0.00287480,-0.003251
 94,-0.00020920,-0.00043863,-0.00029167,-0.00002587,0.00002509,-0.00088
 582,0.00002517,0.00000693,-0.00021901,0.00012564,0.00002385,0.00050475
 ,-0.00001848,-0.00002145,-0.00001112,-0.01473839,0.02560837,-0.0047037
 8,0.01646219,-0.02854116,0.00573689,-0.13696771,-0.12510571,0.01087975
 ,-0.01163135,-0.02815419,0.00237670,-0.00520612,0.00163565,-0.00004861
 ,-0.00102287,0.00117199,-0.00009039,-0.00055014,0.00290739,-0.00018328
 ,0.01134304,0.01422065,-0.00122052,0.00100302,0.00040215,-0.00006742,0
 .00038535,0.00075892,-0.00006088,0.00078297,-0.00056813,0.00001146,0.0
 0027883,-0.00026428,0.00001372,-0.00005195,-0.00006683,0.00000518,0.14
 223691,-0.12500759,-0.25669071,0.01901716,0.00301986,0.00459141,-0.000
 24939,0.00074751,0.00164121,0.00038378,0.00101323,-0.00001388,-0.00003
 798,0.00376027,-0.00281469,0.00074193,-0.01702401,-0.01851884,0.001767
 97,-0.00046455,0.00065564,-0.00036058,-0.00080948,-0.00103755,0.000128
 49,0.00027579,0.00089140,-0.00039889,-0.00024660,0.00011932,-0.0000717
 0,0.00015093,0.00008540,-0.00001505,0.13438068,0.27099756,0.01087140,0
 .01901744,-0.03457442,-0.00014778,-0.00002463,0.00178332,0.00002346,0.
 00037781,0.00641742,-0.00007737,-0.00003905,-0.00038884,-0.00025223,0.
 00074846,0.00662642,0.00130967,0.00154267,0.00166103,0.00000279,-0.000
 36701,-0.00380922,0.00006625,0.00011709,0.00046591,-0.00005693,-0.0003
 9295,-0.00397866,0.00001227,-0.00007168,-0.00078271,-0.00001247,-0.000
 01343,-0.00008550,-0.01172987,-0.02093041,0.02625092,0.00099797,-0.003
 03884,0.00029130,-0.01111191,0.00272926,-0.00012462,-0.33801322,0.0092
 5381,0.00144206,-0.01276074,-0.00340331,0.00040324,0.00054705,0.002735
 67,-0.00018761,0.00071181,0.00020315,-0.00002866,0.00081334,-0.0002282
 0,-0.00001859,-0.00051265,-0.00002691,0.00000613,-0.00007917,0.0000046
 7,-0.00000544,0.00114539,-0.00043377,0.00000359,0.00021965,-0.00005978
 ,-0.00000148,-0.00059997,0.00020396,-0.00000919,0.35864247,-0.00229018
 ,-0.00413300,0.00094061,-0.02729652,0.00564853,-0.00007778,0.00743886,
 -0.05834290,0.00192402,0.02861562,0.00404316,-0.00013690,0.00193111,-0
 .00483134,0.00080483,-0.00022752,-0.00131038,0.00002814,0.00050055,0.0
 0097003,-0.00043317,0.00148915,-0.00002757,-0.00000548,-0.00000974,0.0
 0009600,-0.00007123,-0.00061018,0.00205840,-0.00042422,-0.00028314,0.0
 0027371,-0.00007366,-0.00131829,0.00009373,0.00003568,-0.00793971,0.05
 546163,0.00023115,0.00094572,0.00719665,0.00230706,-0.00029482,0.00226
 445,0.00158968,0.00191179,-0.03410303,-0.00219079,0.00009313,0.0049086
 4,-0.00012260,0.00079928,0.00521110,0.00000640,0.00002548,-0.00098563,
 -0.00007762,-0.00042791,-0.00429694,-0.00011681,0.00000550,0.00003860,
 -0.00000431,-0.00007129,-0.00077809,0.00001778,-0.00042544,-0.00319676
 ,0.00001663,-0.00007527,-0.00065459,0.00011416,0.00002469,0.00041434,-
 0.00177072,-0.00251083,0.02398126\\0.00000664,-0.00000477,0.00000006,-
 0.00000332,-0.00000294,-0.00000140,-0.00001372,-0.00000213,0.00000282,
 0.00000818,0.00000047,-0.00000067,0.00000156,0.00000612,-0.00000427,-0
 .00000383,0.00000700,0.00000360,-0.00000080,0.00000606,0.00000018,0.00
 000088,-0.00000515,0.00000284,0.00000502,-0.00000163,-0.00000093,-0.00
 000074,-0.00000606,-0.00000039,0.00000264,-0.00000378,-0.00000024,-0.0
 0000638,0.00000424,-0.00000163,0.00000387,0.00000258,0.00000002\\\@


 CHARLIE BROWN -- WHICH DO YOU THINK LASTS LONGER IN LIFE, THE GOOD THINGS 
                  OR THE BAD THINGS?
 LINUS --         GOOD THINGS LAST EIGHT SECONDS ..
                  BAD THINGS LAST THREE WEEKS
 CHARLIE BROWN -- WHAT ABOUT IN BETWEEN?
 SNOOPY --        IN BETWEEN YOU SHOULD TAKE A NAP ...
 Job cpu time:       0 days  0 hours 10 minutes  6.2 seconds.
 File lengths (MBytes):  RWF=     48 Int=      0 D2E=      0 Chk=      4 Scr=      1
 Normal termination of Gaussian 09 at Tue Apr 23 11:49:33 2024.
