	You are loading a legacy vmd module, please load an up to date module instead.


	 module load container_env vmd

	Please run vmd command with crun.vmd prepend to it:
	
	 crun.vmd vmd

	 
module: Command not found.
module: Command not found.
 Entering Gaussian System, Link 0=g09
 Initial command:
 /opt/gaussian/g09/l1.exe "/tmp/G09-89.com.o10577483.tmp/Gau-4047696.inp" -scrdir="/tmp/G09-89.com.o10577483.tmp/"
 Entering Link 1 = /opt/gaussian/g09/l1.exe PID=   4047697.
  
 Copyright (c) 1988,1990,1992,1993,1995,1998,2003,2009,2013,
            Gaussian, Inc.  All Rights Reserved.
  
 This is part of the Gaussian(R) 09 program.  It is based on
 the Gaussian(R) 03 system (copyright 2003, Gaussian, Inc.),
 the Gaussian(R) 98 system (copyright 1998, Gaussian, Inc.),
 the Gaussian(R) 94 system (copyright 1995, Gaussian, Inc.),
 the Gaussian 92(TM) system (copyright 1992, Gaussian, Inc.),
 the Gaussian 90(TM) system (copyright 1990, Gaussian, Inc.),
 the Gaussian 88(TM) system (copyright 1988, Gaussian, Inc.),
 the Gaussian 86(TM) system (copyright 1986, Carnegie Mellon
 University), and the Gaussian 82(TM) system (copyright 1983,
 Carnegie Mellon University). Gaussian is a federally registered
 trademark of Gaussian, Inc.
  
 This software contains proprietary and confidential information,
 including trade secrets, belonging to Gaussian, Inc.
  
 This software is provided under written license and may be
 used, copied, transmitted, or stored only in accord with that
 written license.
  
 The following legend is applicable only to US Government
 contracts under FAR:
  
                    RESTRICTED RIGHTS LEGEND
  
 Use, reproduction and disclosure by the US Government is
 subject to restrictions as set forth in subparagraphs (a)
 and (c) of the Commercial Computer Software - Restricted
 Rights clause in FAR 52.227-19.
  
 Gaussian, Inc.
 340 Quinnipiac St., Bldg. 40, Wallingford CT 06492
  
  
 ---------------------------------------------------------------
 Warning -- This program may not be used in any manner that
 competes with the business of Gaussian, Inc. or will provide
 assistance to any competitor of Gaussian, Inc.  The licensee
 of this program is prohibited from giving any competitor of
 Gaussian, Inc. access to this program.  By using this program,
 the user acknowledges that Gaussian, Inc. is engaged in the
 business of creating and licensing software in the field of
 computational chemistry and represents and warrants to the
 licensee that it is not a competitor of Gaussian, Inc. and that
 it will not use this program in any manner prohibited above.
 ---------------------------------------------------------------
  

 Cite this work as:
 Gaussian 09, Revision D.01,
 M. J. Frisch, G. W. Trucks, H. B. Schlegel, G. E. Scuseria, 
 M. A. Robb, J. R. Cheeseman, G. Scalmani, V. Barone, B. Mennucci, 
 G. A. Petersson, H. Nakatsuji, M. Caricato, X. Li, H. P. Hratchian, 
 A. F. Izmaylov, J. Bloino, G. Zheng, J. L. Sonnenberg, M. Hada, 
 M. Ehara, K. Toyota, R. Fukuda, J. Hasegawa, M. Ishida, T. Nakajima, 
 Y. Honda, O. Kitao, H. Nakai, T. Vreven, J. A. Montgomery, Jr., 
 J. E. Peralta, F. Ogliaro, M. Bearpark, J. J. Heyd, E. Brothers, 
 K. N. Kudin, V. N. Staroverov, T. Keith, R. Kobayashi, J. Normand, 
 K. Raghavachari, A. Rendell, J. C. Burant, S. S. Iyengar, J. Tomasi, 
 M. Cossi, N. Rega, J. M. Millam, M. Klene, J. E. Knox, J. B. Cross, 
 V. Bakken, C. Adamo, J. Jaramillo, R. Gomperts, R. E. Stratmann, 
 O. Yazyev, A. J. Austin, R. Cammi, C. Pomelli, J. W. Ochterski, 
 R. L. Martin, K. Morokuma, V. G. Zakrzewski, G. A. Voth, 
 P. Salvador, J. J. Dannenberg, S. Dapprich, A. D. Daniels, 
 O. Farkas, J. B. Foresman, J. V. Ortiz, J. Cioslowski, 
 and D. J. Fox, Gaussian, Inc., Wallingford CT, 2013.
 
 ******************************************
 Gaussian 09:  ES64L-G09RevD.01 24-Apr-2013
                23-Apr-2024 
 ******************************************
 %nprocshared=20
 Will use up to   20 processors via shared memory.
 %mem=4GB
 %chk=89.chk
 ----------------------------------------------------------------------
 # opt freq=noraman b3lyp/6-311+g(d,p) pop=(npa,hirshfeld,chelpg,mbs) g
 eom=connectivity
 ----------------------------------------------------------------------
 1/14=-1,18=20,19=15,26=3,38=1,57=2/1,3;
 2/9=110,12=2,17=6,18=5,40=1/2;
 3/5=4,6=6,7=111,11=2,16=1,25=1,30=1,71=1,74=-5/1,2,3;
 4//1;
 5/5=2,38=5/2;
 6/7=2,8=2,9=2,10=2,15=8,20=3,27=100,28=1,40=-1,79=1/1,2,7;
 7//1,2,3,16;
 1/14=-1,18=20,19=15,26=3/3(2);
 2/9=110/2;
 99//99;
 2/9=110/2;
 3/5=4,6=6,7=111,11=2,16=1,25=1,30=1,71=1,74=-5/1,2,3;
 4/5=5,16=3,69=1/1;
 5/5=2,38=5/2;
 7//1,2,3,16;
 1/14=-1,18=20,19=15,26=3/3(-5);
 2/9=110/2;
 6/7=2,8=2,9=2,10=2,15=8,19=2,20=3,27=100,28=1,40=-1,79=1/1,2,7;
 99/9=1/99;
 -------------------
 Title Card Required
 -------------------
 Symbolic Z-matrix:
 Charge =  0 Multiplicity = 1
 C                    -0.46261  -0.16277  -0.32967 
 C                     0.92647  -0.15523  -0.1444 
 C                     1.60539   1.0602    0.01596 
 C                     0.89524   2.26808  -0.00895 
 C                    -0.49384   2.26054  -0.19421 
 C                    -1.17277   1.04511  -0.35457 
 H                    -0.98099  -1.09078  -0.45211 
 H                    -1.03606   3.18278  -0.21323 
 H                    -2.23336   1.03935  -0.49603 
 C                     1.64131   3.60372   0.16727 
 H                     2.63609   3.50978  -0.21545 
 C                     1.70686  -1.48257  -0.11703 
 H                     2.56551  -1.37857   0.51289 
 H                     2.66598   1.06596   0.15742 
 C                     0.89814   4.71213  -0.60131 
 H                    -0.09665   4.80607  -0.21859 
 H                     1.41651   5.64014  -0.47887 
 H                     0.85819   4.46031  -1.64049 
 C                     1.6988    3.96615   1.66291 
 H                     2.21516   3.19602   2.19693 
 H                     2.21718   4.89416   1.78535 
 H                     0.70402   4.06009   2.04564 
 C                     2.15818  -1.84224  -1.54481 
 H                     2.78819  -1.06588  -1.92593 
 H                     2.7004   -2.76448  -1.52579 
 H                     1.29953  -1.94625  -2.17473 
 C                     0.80011  -2.59995   0.4315 
 H                     1.34233  -3.52219   0.45051 
 H                     0.48652  -2.35005   1.42352 
 H                    -0.05854  -2.70395  -0.19843 
 

 GradGradGradGradGradGradGradGradGradGradGradGradGradGradGradGradGradGrad
 Berny optimization.
 Initialization pass.
                           ----------------------------
                           !    Initial Parameters    !
                           ! (Angstroms and Degrees)  !
 --------------------------                            --------------------------
 ! Name  Definition              Value          Derivative Info.                !
 --------------------------------------------------------------------------------
 ! R1    R(1,2)                  1.4014         estimate D2E/DX2                !
 ! R2    R(1,6)                  1.4014         estimate D2E/DX2                !
 ! R3    R(1,7)                  1.07           estimate D2E/DX2                !
 ! R4    R(2,3)                  1.4014         estimate D2E/DX2                !
 ! R5    R(2,12)                 1.54           estimate D2E/DX2                !
 ! R6    R(3,4)                  1.4014         estimate D2E/DX2                !
 ! R7    R(3,14)                 1.07           estimate D2E/DX2                !
 ! R8    R(4,5)                  1.4014         estimate D2E/DX2                !
 ! R9    R(4,10)                 1.54           estimate D2E/DX2                !
 ! R10   R(5,6)                  1.4014         estimate D2E/DX2                !
 ! R11   R(5,8)                  1.07           estimate D2E/DX2                !
 ! R12   R(6,9)                  1.07           estimate D2E/DX2                !
 ! R13   R(10,11)                1.07           estimate D2E/DX2                !
 ! R14   R(10,15)                1.54           estimate D2E/DX2                !
 ! R15   R(10,19)                1.54           estimate D2E/DX2                !
 ! R16   R(12,13)                1.07           estimate D2E/DX2                !
 ! R17   R(12,23)                1.54           estimate D2E/DX2                !
 ! R18   R(12,27)                1.54           estimate D2E/DX2                !
 ! R19   R(15,16)                1.07           estimate D2E/DX2                !
 ! R20   R(15,17)                1.07           estimate D2E/DX2                !
 ! R21   R(15,18)                1.07           estimate D2E/DX2                !
 ! R22   R(19,20)                1.07           estimate D2E/DX2                !
 ! R23   R(19,21)                1.07           estimate D2E/DX2                !
 ! R24   R(19,22)                1.07           estimate D2E/DX2                !
 ! R25   R(23,24)                1.07           estimate D2E/DX2                !
 ! R26   R(23,25)                1.07           estimate D2E/DX2                !
 ! R27   R(23,26)                1.07           estimate D2E/DX2                !
 ! R28   R(27,28)                1.07           estimate D2E/DX2                !
 ! R29   R(27,29)                1.07           estimate D2E/DX2                !
 ! R30   R(27,30)                1.07           estimate D2E/DX2                !
 ! A1    A(2,1,6)              120.0            estimate D2E/DX2                !
 ! A2    A(2,1,7)              120.0            estimate D2E/DX2                !
 ! A3    A(6,1,7)              120.0            estimate D2E/DX2                !
 ! A4    A(1,2,3)              120.0            estimate D2E/DX2                !
 ! A5    A(1,2,12)             120.0            estimate D2E/DX2                !
 ! A6    A(3,2,12)             120.0            estimate D2E/DX2                !
 ! A7    A(2,3,4)              120.0            estimate D2E/DX2                !
 ! A8    A(2,3,14)             120.0            estimate D2E/DX2                !
 ! A9    A(4,3,14)             120.0            estimate D2E/DX2                !
 ! A10   A(3,4,5)              120.0            estimate D2E/DX2                !
 ! A11   A(3,4,10)             120.0            estimate D2E/DX2                !
 ! A12   A(5,4,10)             120.0            estimate D2E/DX2                !
 ! A13   A(4,5,6)              120.0            estimate D2E/DX2                !
 ! A14   A(4,5,8)              120.0            estimate D2E/DX2                !
 ! A15   A(6,5,8)              120.0            estimate D2E/DX2                !
 ! A16   A(1,6,5)              120.0            estimate D2E/DX2                !
 ! A17   A(1,6,9)              120.0            estimate D2E/DX2                !
 ! A18   A(5,6,9)              120.0            estimate D2E/DX2                !
 ! A19   A(4,10,11)            109.4712         estimate D2E/DX2                !
 ! A20   A(4,10,15)            109.4712         estimate D2E/DX2                !
 ! A21   A(4,10,19)            109.4712         estimate D2E/DX2                !
 ! A22   A(11,10,15)           109.4712         estimate D2E/DX2                !
 ! A23   A(11,10,19)           109.4712         estimate D2E/DX2                !
 ! A24   A(15,10,19)           109.4712         estimate D2E/DX2                !
 ! A25   A(2,12,13)            109.4712         estimate D2E/DX2                !
 ! A26   A(2,12,23)            109.4712         estimate D2E/DX2                !
 ! A27   A(2,12,27)            109.4712         estimate D2E/DX2                !
 ! A28   A(13,12,23)           109.4712         estimate D2E/DX2                !
 ! A29   A(13,12,27)           109.4712         estimate D2E/DX2                !
 ! A30   A(23,12,27)           109.4712         estimate D2E/DX2                !
 ! A31   A(10,15,16)           109.4712         estimate D2E/DX2                !
 ! A32   A(10,15,17)           109.4712         estimate D2E/DX2                !
 ! A33   A(10,15,18)           109.4712         estimate D2E/DX2                !
 ! A34   A(16,15,17)           109.4712         estimate D2E/DX2                !
 ! A35   A(16,15,18)           109.4712         estimate D2E/DX2                !
 ! A36   A(17,15,18)           109.4712         estimate D2E/DX2                !
 ! A37   A(10,19,20)           109.4712         estimate D2E/DX2                !
 ! A38   A(10,19,21)           109.4712         estimate D2E/DX2                !
 ! A39   A(10,19,22)           109.4712         estimate D2E/DX2                !
 ! A40   A(20,19,21)           109.4712         estimate D2E/DX2                !
 ! A41   A(20,19,22)           109.4712         estimate D2E/DX2                !
 ! A42   A(21,19,22)           109.4712         estimate D2E/DX2                !
 ! A43   A(12,23,24)           109.4712         estimate D2E/DX2                !
 ! A44   A(12,23,25)           109.4712         estimate D2E/DX2                !
 ! A45   A(12,23,26)           109.4712         estimate D2E/DX2                !
 ! A46   A(24,23,25)           109.4712         estimate D2E/DX2                !
 ! A47   A(24,23,26)           109.4712         estimate D2E/DX2                !
 ! A48   A(25,23,26)           109.4712         estimate D2E/DX2                !
 ! A49   A(12,27,28)           109.4712         estimate D2E/DX2                !
 ! A50   A(12,27,29)           109.4712         estimate D2E/DX2                !
 ! A51   A(12,27,30)           109.4712         estimate D2E/DX2                !
 ! A52   A(28,27,29)           109.4712         estimate D2E/DX2                !
 ! A53   A(28,27,30)           109.4712         estimate D2E/DX2                !
 ! A54   A(29,27,30)           109.4712         estimate D2E/DX2                !
 ! D1    D(6,1,2,3)              0.0001         estimate D2E/DX2                !
 ! D2    D(6,1,2,12)          -179.9999         estimate D2E/DX2                !
 ! D3    D(7,1,2,3)           -180.0            estimate D2E/DX2                !
 ! D4    D(7,1,2,12)             0.0            estimate D2E/DX2                !
 ! D5    D(2,1,6,5)              0.0            estimate D2E/DX2                !
 ! D6    D(2,1,6,9)           -179.9999         estimate D2E/DX2                !
 ! D7    D(7,1,6,5)           -179.9999         estimate D2E/DX2                !
 ! D8    D(7,1,6,9)              0.0002         estimate D2E/DX2                !
 ! D9    D(1,2,3,4)             -0.0002         estimate D2E/DX2                !
 ! D10   D(1,2,3,14)           180.0            estimate D2E/DX2                !
 ! D11   D(12,2,3,4)           179.9998         estimate D2E/DX2                !
 ! D12   D(12,2,3,14)            0.0            estimate D2E/DX2                !
 ! D13   D(1,2,12,13)         -150.0            estimate D2E/DX2                !
 ! D14   D(1,2,12,23)           90.0            estimate D2E/DX2                !
 ! D15   D(1,2,12,27)          -30.0            estimate D2E/DX2                !
 ! D16   D(3,2,12,13)           30.0            estimate D2E/DX2                !
 ! D17   D(3,2,12,23)          -90.0            estimate D2E/DX2                !
 ! D18   D(3,2,12,27)          150.0            estimate D2E/DX2                !
 ! D19   D(2,3,4,5)              0.0001         estimate D2E/DX2                !
 ! D20   D(2,3,4,10)          -179.9999         estimate D2E/DX2                !
 ! D21   D(14,3,4,5)           180.0            estimate D2E/DX2                !
 ! D22   D(14,3,4,10)            0.0            estimate D2E/DX2                !
 ! D23   D(3,4,5,6)              0.0            estimate D2E/DX2                !
 ! D24   D(3,4,5,8)           -179.9999         estimate D2E/DX2                !
 ! D25   D(10,4,5,6)           180.0            estimate D2E/DX2                !
 ! D26   D(10,4,5,8)             0.0001         estimate D2E/DX2                !
 ! D27   D(3,4,10,11)           30.0            estimate D2E/DX2                !
 ! D28   D(3,4,10,15)          150.0            estimate D2E/DX2                !
 ! D29   D(3,4,10,19)          -90.0            estimate D2E/DX2                !
 ! D30   D(5,4,10,11)         -150.0            estimate D2E/DX2                !
 ! D31   D(5,4,10,15)          -30.0            estimate D2E/DX2                !
 ! D32   D(5,4,10,19)           90.0            estimate D2E/DX2                !
 ! D33   D(4,5,6,1)              0.0            estimate D2E/DX2                !
 ! D34   D(4,5,6,9)            179.9998         estimate D2E/DX2                !
 ! D35   D(8,5,6,1)            179.9999         estimate D2E/DX2                !
 ! D36   D(8,5,6,9)             -0.0002         estimate D2E/DX2                !
 ! D37   D(4,10,15,16)          60.0            estimate D2E/DX2                !
 ! D38   D(4,10,15,17)        -180.0            estimate D2E/DX2                !
 ! D39   D(4,10,15,18)         -60.0            estimate D2E/DX2                !
 ! D40   D(11,10,15,16)        180.0            estimate D2E/DX2                !
 ! D41   D(11,10,15,17)        -60.0            estimate D2E/DX2                !
 ! D42   D(11,10,15,18)         60.0            estimate D2E/DX2                !
 ! D43   D(19,10,15,16)        -60.0            estimate D2E/DX2                !
 ! D44   D(19,10,15,17)         60.0            estimate D2E/DX2                !
 ! D45   D(19,10,15,18)        180.0            estimate D2E/DX2                !
 ! D46   D(4,10,19,20)          60.0            estimate D2E/DX2                !
 ! D47   D(4,10,19,21)         180.0            estimate D2E/DX2                !
 ! D48   D(4,10,19,22)         -60.0            estimate D2E/DX2                !
 ! D49   D(11,10,19,20)        -60.0            estimate D2E/DX2                !
 ! D50   D(11,10,19,21)         60.0            estimate D2E/DX2                !
 ! D51   D(11,10,19,22)       -180.0            estimate D2E/DX2                !
 ! D52   D(15,10,19,20)        180.0            estimate D2E/DX2                !
 ! D53   D(15,10,19,21)        -60.0            estimate D2E/DX2                !
 ! D54   D(15,10,19,22)         60.0            estimate D2E/DX2                !
 ! D55   D(2,12,23,24)          60.0            estimate D2E/DX2                !
 ! D56   D(2,12,23,25)         180.0            estimate D2E/DX2                !
 ! D57   D(2,12,23,26)         -60.0            estimate D2E/DX2                !
 ! D58   D(13,12,23,24)        -60.0            estimate D2E/DX2                !
 ! D59   D(13,12,23,25)         60.0            estimate D2E/DX2                !
 ! D60   D(13,12,23,26)        180.0            estimate D2E/DX2                !
 ! D61   D(27,12,23,24)       -180.0            estimate D2E/DX2                !
 ! D62   D(27,12,23,25)        -60.0            estimate D2E/DX2                !
 ! D63   D(27,12,23,26)         60.0            estimate D2E/DX2                !
 ! D64   D(2,12,27,28)         180.0            estimate D2E/DX2                !
 ! D65   D(2,12,27,29)         -60.0            estimate D2E/DX2                !
 ! D66   D(2,12,27,30)          60.0            estimate D2E/DX2                !
 ! D67   D(13,12,27,28)        -60.0            estimate D2E/DX2                !
 ! D68   D(13,12,27,29)         60.0            estimate D2E/DX2                !
 ! D69   D(13,12,27,30)        180.0            estimate D2E/DX2                !
 ! D70   D(23,12,27,28)         60.0            estimate D2E/DX2                !
 ! D71   D(23,12,27,29)       -180.0            estimate D2E/DX2                !
 ! D72   D(23,12,27,30)        -60.0            estimate D2E/DX2                !
 --------------------------------------------------------------------------------
 Trust Radius=3.00D-01 FncErr=1.00D-07 GrdErr=1.00D-06
 Number of steps in this run=    166 maximum allowed number of steps=    180.
 GradGradGradGradGradGradGradGradGradGradGradGradGradGradGradGradGradGrad

                          Input orientation:                          
 ---------------------------------------------------------------------
 Center     Atomic      Atomic             Coordinates (Angstroms)
 Number     Number       Type             X           Y           Z
 ---------------------------------------------------------------------
      1          6           0       -0.462613   -0.162775   -0.329666
      2          6           0        0.926467   -0.155229   -0.144399
      3          6           0        1.605391    1.060200    0.015962
      4          6           0        0.895237    2.268083   -0.008946
      5          6           0       -0.493842    2.260538   -0.194213
      6          6           0       -1.172767    1.045109   -0.354573
      7          1           0       -0.980987   -1.090781   -0.452105
      8          1           0       -1.036060    3.182784   -0.213232
      9          1           0       -2.233360    1.039348   -0.496026
     10          6           0        1.641309    3.603719    0.167274
     11          1           0        2.636095    3.509778   -0.215448
     12          6           0        1.706856   -1.482574   -0.117032
     13          1           0        2.565506   -1.378566    0.512890
     14          1           0        2.665984    1.065961    0.157418
     15          6           0        0.898138    4.712129   -0.601313
     16          1           0       -0.096648    4.806070   -0.218591
     17          1           0        1.416513    5.640136   -0.478875
     18          1           0        0.858191    4.460309   -1.640491
     19          6           0        1.698804    3.966152    1.662913
     20          1           0        2.215162    3.196023    2.196931
     21          1           0        2.217178    4.894159    1.785351
     22          1           0        0.704018    4.060093    2.045635
     23          6           0        2.158180   -1.842238   -1.544809
     24          1           0        2.788195   -1.065882   -1.925929
     25          1           0        2.700399   -2.764484   -1.525794
     26          1           0        1.299530   -1.946246   -2.174731
     27          6           0        0.800107   -2.599947    0.431496
     28          1           0        1.342326   -3.522193    0.450511
     29          1           0        0.486524   -2.350050    1.423523
     30          1           0       -0.058544   -2.703955   -0.198426
 ---------------------------------------------------------------------
                    Distance matrix (angstroms):
                    1          2          3          4          5
     1  C    0.000000
     2  C    1.401400   0.000000
     3  C    2.427296   1.401400   0.000000
     4  C    2.802800   2.427296   1.401400   0.000000
     5  C    2.427296   2.802800   2.427296   1.401400   0.000000
     6  C    1.401400   2.427296   2.802800   2.427296   1.401400
     7  H    1.070000   2.146700   3.396345   3.872800   3.396345
     8  H    3.396345   3.872800   3.396345   2.146700   1.070000
     9  H    2.146700   3.396345   3.872800   3.396345   2.146700
    10  C    4.342800   3.838989   2.548270   1.540000   2.548270
    11  H    4.806524   4.044769   2.667646   2.148263   3.370097
    12  C    2.548270   1.540000   2.548270   3.838989   4.342800
    13  H    3.370097   2.148263   2.667646   4.044769   4.806525
    14  H    3.396345   2.146700   1.070000   2.146700   3.396345
    15  C    5.068542   4.888839   3.770653   2.514809   2.848445
    16  H    4.983542   5.066237   4.121104   2.732978   2.576450
    17  H    6.101405   5.825657   4.610461   3.444314   3.892579
    18  H    4.983542   4.852437   3.855242   2.732978   2.959511
    19  C    5.068542   4.566034   3.341516   2.514809   3.341516
    20  H    4.983542   4.286427   3.112906   2.732978   3.732480
    21  H    6.101405   5.557535   4.266645   3.444314   4.266645
    22  H    4.983542   4.755489   3.732480   2.732978   3.112907
    23  C    3.341516   2.514809   3.341516   4.566032   5.068541
    24  H    3.732480   2.732978   3.112907   4.286424   4.983540
    25  H    4.266645   3.444314   4.266645   5.557533   6.101404
    26  H    3.112907   2.732978   3.732480   4.755487   4.983540
    27  C    2.848445   2.514809   3.770653   4.888840   5.068543
    28  H    3.892579   3.444314   4.610461   5.825657   6.101406
    29  H    2.959511   2.732978   3.855242   4.852439   4.983544
    30  H    2.576450   2.732978   4.121104   5.066238   4.983542
                    6          7          8          9         10
     6  C    0.000000
     7  H    2.146700   0.000000
     8  H    2.146700   4.280590   0.000000
     9  H    1.070000   2.471400   2.471400   0.000000
    10  C    3.838989   5.412800   2.736837   4.693509   0.000000
    11  H    4.538874   5.856999   3.686686   5.467480   1.070000
    12  C    3.838989   2.736837   5.412800   4.693509   5.094654
    13  H    4.538874   3.686686   5.857000   5.467480   5.079051
    14  H    3.872800   4.280590   4.280590   4.942800   2.736837
    15  C    4.218597   6.101405   2.496122   4.827700   1.540000
    16  H    3.914250   5.967365   1.875522   4.339436   2.148263
    17  H    5.275802   7.145206   3.481990   5.872743   2.148263
    18  H    4.176358   5.967365   2.693942   4.750838   2.148263
    19  C    4.566033   6.101406   3.407795   5.356222   1.540000
    20  H    4.755488   5.967366   4.047161   5.629620   2.148263
    21  H    5.557534   7.145207   4.184100   6.314391   2.148263
    22  H    4.286426   5.967366   2.983291   4.920684   2.148263
    23  C    4.566032   3.407794   6.101403   5.356222   5.732089
    24  H    4.755487   4.047160   5.967362   5.629620   5.244237
    25  H    5.557533   4.184100   7.145204   6.314392   6.673992
    26  H    4.286425   2.983290   5.967362   4.920685   6.033566
    27  C    4.218598   2.496122   6.101406   4.827700   6.266012
    28  H    5.275803   3.481991   7.145207   5.872743   7.137803
    29  H    4.176359   2.693943   5.967368   4.750837   6.193469
    30  H    3.914250   1.875522   5.967366   4.339436   6.542934
                   11         12         13         14         15
    11  H    0.000000
    12  C    5.079049   0.000000
    13  H    4.942809   1.070000   0.000000
    14  H    2.472279   2.736837   2.472279   0.000000
    15  C    2.148263   6.266011   6.412342   4.122559   0.000000
    16  H    3.024610   6.542934   6.772876   4.664969   1.070000
    17  H    2.468846   7.137802   7.180944   4.784258   1.070000
    18  H    2.468846   6.193465   6.453250   4.245255   1.070000
    19  C    2.148263   5.732092   5.535317   3.407795   2.514809
    20  H    2.468846   5.244241   4.887289   2.983290   3.444314
    21  H    2.468846   6.673995   6.409958   4.184100   2.732978
    22  H    3.024610   6.033570   5.949240   4.047161   2.732978
    23  C    5.535312   1.540000   2.148263   3.407794   6.740743
    24  H    4.887283   2.148263   2.468846   2.983290   6.221923
    25  H    6.409954   2.148263   2.468846   4.184100   7.746132
    26  H    5.949235   2.148263   3.024610   4.047160   6.853519
    27  C    6.412341   1.540000   2.148263   4.122559   7.385307
    28  H    7.180943   2.148263   2.468846   4.784258   8.313103
    29  H    6.453252   2.148263   2.468846   4.245256   7.358244
    30  H    6.772875   2.148263   3.024610   4.664969   7.488381
                   16         17         18         19         20
    16  H    0.000000
    17  H    1.747303   0.000000
    18  H    1.747303   1.747303   0.000000
    19  C    2.732978   2.732978   3.444314   0.000000
    20  H    3.710993   3.710993   4.262112   1.070000   0.000000
    21  H    3.062243   2.514809   3.710993   1.070000   1.747303
    22  H    2.514809   3.062243   3.710993   1.070000   1.747303
    23  C    7.144446   7.594222   6.435933   6.651158   6.275982
    24  H    6.761445   6.996152   5.860476   6.275980   5.957363
    25  H    8.175913   8.566332   7.456844   7.514819   7.044273
    26  H    7.167258   7.774497   6.443923   7.059985   6.811222
    27  C    7.488383   8.313104   7.358241   6.740749   6.221930
    28  H    8.478108   9.209643   8.266015   7.594228   6.996160
    29  H    7.365235   8.266018   7.477119   6.435941   5.860484
    30  H    7.510149   8.478107   7.365231   7.144451   6.761451
                   21         22         23         24         25
    21  H    0.000000
    22  H    1.747303   0.000000
    23  C    7.514818   7.059986   0.000000
    24  H    7.044270   6.811221   1.070000   0.000000
    25  H    8.357751   7.957104   1.070000   1.747303   0.000000
    26  H    7.957102   7.364933   1.070000   1.747303   1.747303
    27  C    7.746137   6.853526   2.514809   3.444314   2.732978
    28  H    8.566337   7.774504   2.732978   3.710993   2.514809
    29  H    7.456852   6.443932   3.444314   4.262112   3.710993
    30  H    8.175917   7.167263   2.732978   3.710993   3.062243
                   26         27         28         29         30
    26  H    0.000000
    27  C    2.732978   0.000000
    28  H    3.062243   1.070000   0.000000
    29  H    3.710993   1.070000   1.747303   0.000000
    30  H    2.514809   1.070000   1.747303   1.747303   0.000000
 Stoichiometry    C12H18
 Framework group  C1[X(C12H18)]
 Deg. of freedom    84
 Full point group                 C1      NOp   1
 Largest Abelian subgroup         C1      NOp   1
 Largest concise Abelian subgroup C1      NOp   1
                         Standard orientation:                         
 ---------------------------------------------------------------------
 Center     Atomic      Atomic             Coordinates (Angstroms)
 Number     Number       Type             X           Y           Z
 ---------------------------------------------------------------------
      1          6           0        1.211297    1.387062   -0.075510
      2          6           0        1.211297   -0.014338   -0.075511
      3          6           0        0.000000   -0.715038   -0.000003
      4          6           0       -1.211297   -0.014338    0.075508
      5          6           0       -1.211296    1.387062    0.075510
      6          6           0        0.000000    2.087762    0.000001
      7          1           0        2.136149    1.922062   -0.133162
      8          1           0       -2.136148    1.922062    0.133166
      9          1           0        0.000000    3.157762    0.000000
     10          6           0       -2.542392   -0.784338    0.158486
     11          1           0       -2.383314   -1.719276    0.653950
     12          6           0        2.542392   -0.784338   -0.158486
     13          1           0        2.383315   -1.719275   -0.653952
     14          1           0        0.000000   -1.785038   -0.000004
     15          6           0       -3.568407    0.047939    0.949819
     16          1           0       -3.727485    0.982877    0.454356
     17          1           0       -4.493259   -0.487061    1.007473
     18          1           0       -3.197357    0.226271    1.937453
     19          6           0       -3.076426   -1.041002   -1.262968
     20          1           0       -2.363546   -1.619273   -1.812791
     21          1           0       -4.001278   -1.576002   -1.205315
     22          1           0       -3.235504   -0.106064   -1.758432
     23          6           0        3.076423   -1.041005    1.262968
     24          1           0        2.363541   -1.619276    1.812788
     25          1           0        4.001275   -1.576005    1.205316
     26          1           0        3.235500   -0.106068    1.758434
     27          6           0        3.568409    0.047940   -0.949816
     28          1           0        4.493261   -0.487060   -1.007468
     29          1           0        3.197362    0.226274   -1.937450
     30          1           0        3.727486    0.982878   -0.454350
 ---------------------------------------------------------------------
 Rotational constants (GHZ):      1.8552390      0.4952685      0.4521268
 Standard basis: 6-311+G(d,p) (5D, 7F)
 There are   384 symmetry adapted cartesian basis functions of A   symmetry.
 There are   372 symmetry adapted basis functions of A   symmetry.
   372 basis functions,   576 primitive gaussians,   384 cartesian basis functions
    45 alpha electrons       45 beta electrons
       nuclear repulsion energy       691.4935102347 Hartrees.
 NAtoms=   30 NActive=   30 NUniq=   30 SFac= 1.00D+00 NAtFMM=   60 NAOKFM=F Big=F
 Integral buffers will be    131072 words long.
 Raffenetti 2 integral format.
 Two-electron integral symmetry is turned on.
 One-electron integrals computed using PRISM.
 NBasis=   372 RedAO= T EigKep=  2.15D-06  NBF=   372
 NBsUse=   371 1.00D-06 EigRej=  9.07D-07 NBFU=   371
 ExpMin= 4.38D-02 ExpMax= 4.56D+03 ExpMxC= 6.82D+02 IAcc=2 IRadAn=         4 AccDes= 0.00D+00
 Harris functional with IExCor=  402 and IRadAn=       4 diagonalized for initial guess.
 HarFok:  IExCor=  402 AccDes= 0.00D+00 IRadAn=         4 IDoV= 1 UseB2=F ITyADJ=14
 ICtDFT=  3500011 ScaDFX=  1.000000  1.000000  1.000000  1.000000
 FoFCou: FMM=F IPFlag=           0 FMFlag=      100000 FMFlg1=           0
         NFxFlg=           0 DoJE=T BraDBF=F KetDBF=T FulRan=T
         wScrn=  0.000000 ICntrl=     500 IOpCl=  0 I1Cent=   200000004 NGrid=           0
         NMat0=    1 NMatS0=      1 NMatT0=    0 NMatD0=    1 NMtDS0=    0 NMtDT0=    0
 Petite list used in FoFCou.
 Requested convergence on RMS density matrix=1.00D-08 within 128 cycles.
 Requested convergence on MAX density matrix=1.00D-06.
 Requested convergence on             energy=1.00D-06.
 No special actions if energy rises.
 SCF Done:  E(RB3LYP) =  -468.246689857     A.U. after   13 cycles
            NFock= 13  Conv=0.39D-08     -V/T= 2.0039

 **********************************************************************

            Population analysis using the SCF density.

 **********************************************************************

 Orbital symmetries:
       Occupied  (A) (A) (A) (A) (A) (A) (A) (A) (A) (A) (A) (A)
                 (A) (A) (A) (A) (A) (A) (A) (A) (A) (A) (A) (A)
                 (A) (A) (A) (A) (A) (A) (A) (A) (A) (A) (A) (A)
                 (A) (A) (A) (A) (A) (A) (A) (A) (A)
       Virtual   (A) (A) (A) (A) (A) (A) (A) (A) (A) (A) (A) (A)
                 (A) (A) (A) (A) (A) (A) (A) (A) (A) (A) (A) (A)
                 (A) (A) (A) (A) (A) (A) (A) (A) (A) (A) (A) (A)
                 (A) (A) (A) (A) (A) (A) (A) (A) (A) (A) (A) (A)
                 (A) (A) (A) (A) (A) (A) (A) (A) (A) (A) (A) (A)
                 (A) (A) (A) (A) (A) (A) (A) (A) (A) (A) (A) (A)
                 (A) (A) (A) (A) (A) (A) (A) (A) (A) (A) (A) (A)
                 (A) (A) (A) (A) (A) (A) (A) (A) (A) (A) (A) (A)
                 (A) (A) (A) (A) (A) (A) (A) (A) (A) (A) (A) (A)
                 (A) (A) (A) (A) (A) (A) (A) (A) (A) (A) (A) (A)
                 (A) (A) (A) (A) (A) (A) (A) (A) (A) (A) (A) (A)
                 (A) (A) (A) (A) (A) (A) (A) (A) (A) (A) (A) (A)
                 (A) (A) (A) (A) (A) (A) (A) (A) (A) (A) (A) (A)
                 (A) (A) (A) (A) (A) (A) (A) (A) (A) (A) (A) (A)
                 (A) (A) (A) (A) (A) (A) (A) (A) (A) (A) (A) (A)
                 (A) (A) (A) (A) (A) (A) (A) (A) (A) (A) (A) (A)
                 (A) (A) (A) (A) (A) (A) (A) (A) (A) (A) (A) (A)
                 (A) (A) (A) (A) (A) (A) (A) (A) (A) (A) (A) (A)
                 (A) (A) (A) (A) (A) (A) (A) (A) (A) (A) (A) (A)
                 (A) (A) (A) (A) (A) (A) (A) (A) (A) (A) (A) (A)
                 (A) (A) (A) (A) (A) (A) (A) (A) (A) (A) (A) (A)
                 (A) (A) (A) (A) (A) (A) (A) (A) (A) (A) (A) (A)
                 (A) (A) (A) (A) (A) (A) (A) (A) (A) (A) (A) (A)
                 (A) (A) (A) (A) (A) (A) (A) (A) (A) (A) (A) (A)
                 (A) (A) (A) (A) (A) (A) (A) (A) (A) (A) (A) (A)
                 (A) (A) (A) (A) (A) (A) (A) (A) (A) (A) (A) (A)
                 (A) (A) (A) (A) (A) (A) (A) (A) (A) (A) (A) (A)
                 (A) (A)
 The electronic state is 1-A.
 Alpha  occ. eigenvalues --  -10.17741 -10.17741 -10.17585 -10.17585 -10.17150
 Alpha  occ. eigenvalues --  -10.16602 -10.16523 -10.16521 -10.15124 -10.15124
 Alpha  occ. eigenvalues --  -10.15050 -10.15050  -0.86108  -0.81638  -0.78991
 Alpha  occ. eigenvalues --   -0.73945  -0.72301  -0.69083  -0.69063  -0.62876
 Alpha  occ. eigenvalues --   -0.60722  -0.59108  -0.53946  -0.51612  -0.48007
 Alpha  occ. eigenvalues --   -0.46446  -0.44683  -0.44545  -0.43636  -0.42730
 Alpha  occ. eigenvalues --   -0.41150  -0.40965  -0.40297  -0.39253  -0.37809
 Alpha  occ. eigenvalues --   -0.37137  -0.36062  -0.35011  -0.34331  -0.34153
 Alpha  occ. eigenvalues --   -0.33201  -0.32555  -0.31094  -0.24670  -0.23929
 Alpha virt. eigenvalues --   -0.01314  -0.00817   0.00100   0.01094   0.01595
 Alpha virt. eigenvalues --    0.02639   0.02864   0.03089   0.03740   0.04522
 Alpha virt. eigenvalues --    0.05622   0.05696   0.05758   0.06639   0.06669
 Alpha virt. eigenvalues --    0.07059   0.08404   0.08455   0.08769   0.09271
 Alpha virt. eigenvalues --    0.09438   0.10120   0.10536   0.11101   0.11720
 Alpha virt. eigenvalues --    0.12184   0.12526   0.12635   0.14051   0.14346
 Alpha virt. eigenvalues --    0.14925   0.14940   0.16300   0.16681   0.17388
 Alpha virt. eigenvalues --    0.17609   0.17915   0.18062   0.18523   0.19218
 Alpha virt. eigenvalues --    0.19292   0.20031   0.20512   0.20864   0.21530
 Alpha virt. eigenvalues --    0.21647   0.22145   0.22229   0.22382   0.22973
 Alpha virt. eigenvalues --    0.23058   0.23758   0.23784   0.24625   0.25087
 Alpha virt. eigenvalues --    0.25368   0.25463   0.25712   0.26306   0.26766
 Alpha virt. eigenvalues --    0.26890   0.27325   0.28128   0.28551   0.28787
 Alpha virt. eigenvalues --    0.29937   0.29960   0.30906   0.31531   0.32348
 Alpha virt. eigenvalues --    0.32959   0.34349   0.34564   0.36460   0.36705
 Alpha virt. eigenvalues --    0.39272   0.39431   0.40029   0.40202   0.41362
 Alpha virt. eigenvalues --    0.44765   0.45161   0.48366   0.48645   0.48979
 Alpha virt. eigenvalues --    0.49409   0.50416   0.51477   0.52228   0.52498
 Alpha virt. eigenvalues --    0.55067   0.55680   0.56226   0.56997   0.58028
 Alpha virt. eigenvalues --    0.58267   0.59189   0.60198   0.61449   0.62475
 Alpha virt. eigenvalues --    0.63819   0.64399   0.64796   0.65192   0.65681
 Alpha virt. eigenvalues --    0.67694   0.67839   0.68425   0.68612   0.70095
 Alpha virt. eigenvalues --    0.70894   0.71239   0.71602   0.71678   0.72475
 Alpha virt. eigenvalues --    0.72602   0.73319   0.73565   0.73856   0.74386
 Alpha virt. eigenvalues --    0.75220   0.75957   0.76795   0.76937   0.78029
 Alpha virt. eigenvalues --    0.78893   0.80039   0.81179   0.83279   0.86203
 Alpha virt. eigenvalues --    0.86750   0.87579   0.89219   0.91570   0.91830
 Alpha virt. eigenvalues --    0.94029   0.95709   0.96350   0.98459   0.99693
 Alpha virt. eigenvalues --    0.99813   1.03150   1.04161   1.04909   1.07294
 Alpha virt. eigenvalues --    1.08492   1.12418   1.12909   1.13757   1.15217
 Alpha virt. eigenvalues --    1.18932   1.21753   1.23946   1.26761   1.27535
 Alpha virt. eigenvalues --    1.31583   1.32394   1.34680   1.41112   1.41271
 Alpha virt. eigenvalues --    1.45202   1.45658   1.47455   1.47758   1.48534
 Alpha virt. eigenvalues --    1.48546   1.49900   1.50931   1.51617   1.52290
 Alpha virt. eigenvalues --    1.52771   1.54473   1.55439   1.56147   1.56374
 Alpha virt. eigenvalues --    1.57379   1.57736   1.58394   1.59201   1.60050
 Alpha virt. eigenvalues --    1.61018   1.62354   1.64539   1.64566   1.65702
 Alpha virt. eigenvalues --    1.66711   1.69629   1.69727   1.71289   1.71708
 Alpha virt. eigenvalues --    1.72218   1.72537   1.75071   1.76054   1.77015
 Alpha virt. eigenvalues --    1.77741   1.79696   1.80561   1.81346   1.83270
 Alpha virt. eigenvalues --    1.83703   1.87090   1.88982   1.90943   1.92567
 Alpha virt. eigenvalues --    1.93344   1.94328   1.96350   1.97280   1.97970
 Alpha virt. eigenvalues --    1.98462   1.99852   2.02007   2.04720   2.05606
 Alpha virt. eigenvalues --    2.09432   2.10080   2.11593   2.11780   2.12005
 Alpha virt. eigenvalues --    2.13668   2.14292   2.16265   2.17079   2.19336
 Alpha virt. eigenvalues --    2.20104   2.26602   2.28314   2.32198   2.32393
 Alpha virt. eigenvalues --    2.35231   2.36018   2.40619   2.41072   2.42166
 Alpha virt. eigenvalues --    2.44692   2.44850   2.49656   2.50349   2.54262
 Alpha virt. eigenvalues --    2.54343   2.54496   2.54954   2.55746   2.56431
 Alpha virt. eigenvalues --    2.56605   2.57689   2.58619   2.58996   2.59981
 Alpha virt. eigenvalues --    2.61055   2.62793   2.62987   2.64973   2.66096
 Alpha virt. eigenvalues --    2.69072   2.70564   2.70982   2.71454   2.71923
 Alpha virt. eigenvalues --    2.72880   2.73044   2.75284   2.76211   2.76846
 Alpha virt. eigenvalues --    2.77629   2.81165   2.83332   2.83780   2.85231
 Alpha virt. eigenvalues --    2.87420   2.87613   2.89150   2.89465   2.93847
 Alpha virt. eigenvalues --    2.93925   2.94960   2.96294   2.98421   2.98709
 Alpha virt. eigenvalues --    3.01109   3.03445   3.11294   3.12218   3.16460
 Alpha virt. eigenvalues --    3.18051   3.20599   3.25717   3.39987   3.40657
 Alpha virt. eigenvalues --    3.42156   3.45894   3.54981   3.62946   3.69111
 Alpha virt. eigenvalues --    3.71350   3.85024   3.85143   3.86094   3.86375
 Alpha virt. eigenvalues --    3.89635   3.89742   3.91728   3.91739   4.05932
 Alpha virt. eigenvalues --    4.11549   4.12767   4.18072   4.19376   4.28613
 Alpha virt. eigenvalues --    4.30298   4.36920   4.41486   4.86944  23.63220
 Alpha virt. eigenvalues --   23.85594  23.86177  23.97118  23.98335  24.02794
 Alpha virt. eigenvalues --   24.03510  24.03655  24.04398  24.09661  24.10070
 Alpha virt. eigenvalues --   24.18569
          Condensed to atoms (all electrons):
               1          2          3          4          5          6
     1  C    9.531041  -0.751538  -0.388100  -1.724849  -0.100489  -0.848855
     2  C   -0.751538  10.064776   0.165045  -0.338336  -1.724853   0.732149
     3  C   -0.388100   0.165045   7.052154   0.165046  -0.388105  -0.736182
     4  C   -1.724849  -0.338336   0.165046  10.064784  -0.751546   0.732146
     5  C   -0.100489  -1.724853  -0.388105  -0.751546   9.531051  -0.848856
     6  C   -0.848855   0.732149  -0.736182   0.732146  -0.848856   6.974797
     7  H    0.294546  -0.006587   0.001556  -0.000046  -0.014681   0.029211
     8  H   -0.014681  -0.000046   0.001556  -0.006587   0.294546   0.029211
     9  H   -0.014794  -0.002603   0.000386  -0.002603  -0.014795   0.368998
    10  C    0.358741  -0.267854   0.122053  -2.199208  -0.238151  -0.026419
    11  H   -0.004913   0.039939   0.034926  -0.100346  -0.039765   0.002921
    12  C   -0.238158  -2.199202   0.122051  -0.267851   0.358739  -0.026417
    13  H   -0.039765  -0.100347   0.034926   0.039939  -0.004913   0.002921
    14  H   -0.002083  -0.040121   0.425433  -0.040120  -0.002082  -0.010268
    15  C   -0.044061  -0.148795  -0.221143   0.352468   0.287529  -0.033101
    16  H   -0.012229   0.005502  -0.002948  -0.004421  -0.075199   0.009573
    17  H    0.001076   0.001475   0.000369   0.046325   0.023443   0.002303
    18  H    0.005590  -0.003697   0.020393  -0.041093   0.000851  -0.018675
    19  C    0.052647   0.070465   0.135450  -0.346163   0.081242  -0.002757
    20  H    0.011917   0.018659   0.081169  -0.143313  -0.013756  -0.013370
    21  H   -0.000822  -0.006039  -0.012320   0.048792  -0.001299   0.005501
    22  H   -0.005133  -0.000149  -0.049795  -0.039847   0.060770   0.005421
    23  C    0.081243  -0.346159   0.135449   0.070465   0.052647  -0.002758
    24  H   -0.013755  -0.143312   0.081169   0.018659   0.011917  -0.013370
    25  H   -0.001298   0.048791  -0.012320  -0.006039  -0.000822   0.005501
    26  H    0.060770  -0.039847  -0.049795  -0.000149  -0.005133   0.005421
    27  C    0.287526   0.352467  -0.221139  -0.148794  -0.044061  -0.033101
    28  H    0.023442   0.046326   0.000369   0.001475   0.001076   0.002303
    29  H    0.000851  -0.041092   0.020394  -0.003697   0.005590  -0.018675
    30  H   -0.075198  -0.004422  -0.002948   0.005502  -0.012228   0.009574
               7          8          9         10         11         12
     1  C    0.294546  -0.014681  -0.014794   0.358741  -0.004913  -0.238158
     2  C   -0.006587  -0.000046  -0.002603  -0.267854   0.039939  -2.199202
     3  C    0.001556   0.001556   0.000386   0.122053   0.034926   0.122051
     4  C   -0.000046  -0.006587  -0.002603  -2.199208  -0.100346  -0.267851
     5  C   -0.014681   0.294546  -0.014795  -0.238151  -0.039765   0.358739
     6  C    0.029211   0.029211   0.368998  -0.026419   0.002921  -0.026417
     7  H    0.565400  -0.000428  -0.008240   0.000713  -0.000003   0.046780
     8  H   -0.000428   0.565400  -0.008240   0.046779   0.000172   0.000713
     9  H   -0.008240  -0.008240   0.552704   0.004032   0.000025   0.004032
    10  C    0.000713   0.046779   0.004032   7.846679   0.449335  -0.114457
    11  H   -0.000003   0.000172   0.000025   0.449335   0.564820   0.001299
    12  C    0.046780   0.000713   0.004032  -0.114457   0.001299   7.846681
    13  H    0.000172  -0.000003   0.000025   0.001299   0.000051   0.449337
    14  H   -0.000257  -0.000257   0.000082   0.000466   0.002362   0.000465
    15  C   -0.000249  -0.024742   0.000290  -0.279968  -0.052326   0.005496
    16  H    0.000001   0.002919   0.000057   0.046594   0.009077  -0.000239
    17  H    0.000000   0.000564  -0.000004  -0.127063  -0.006751   0.000205
    18  H    0.000000   0.000043   0.000016  -0.000920  -0.006558  -0.000277
    19  C   -0.000319   0.009193  -0.000066   0.318295  -0.021003  -0.023624
    20  H    0.000000   0.000050   0.000004   0.036607  -0.006124  -0.000860
    21  H    0.000000  -0.000111  -0.000001  -0.092576  -0.005192  -0.000320
    22  H   -0.000001  -0.000185   0.000032   0.007439   0.007222   0.001526
    23  C    0.009193  -0.000319  -0.000066  -0.023624   0.000425   0.318291
    24  H    0.000050   0.000000   0.000004  -0.000860  -0.000024   0.036607
    25  H   -0.000111   0.000000  -0.000001  -0.000320   0.000001  -0.092575
    26  H   -0.000185  -0.000001   0.000032   0.001526   0.000002   0.007439
    27  C   -0.024742  -0.000249   0.000290   0.005495  -0.000208  -0.279967
    28  H    0.000564   0.000000  -0.000004   0.000205   0.000000  -0.127064
    29  H    0.000043   0.000000   0.000016  -0.000277   0.000000  -0.000920
    30  H    0.002919   0.000001   0.000057  -0.000239   0.000000   0.046595
              13         14         15         16         17         18
     1  C   -0.039765  -0.002083  -0.044061  -0.012229   0.001076   0.005590
     2  C   -0.100347  -0.040121  -0.148795   0.005502   0.001475  -0.003697
     3  C    0.034926   0.425433  -0.221143  -0.002948   0.000369   0.020393
     4  C    0.039939  -0.040120   0.352468  -0.004421   0.046325  -0.041093
     5  C   -0.004913  -0.002082   0.287529  -0.075199   0.023443   0.000851
     6  C    0.002921  -0.010268  -0.033101   0.009573   0.002303  -0.018675
     7  H    0.000172  -0.000257  -0.000249   0.000001   0.000000   0.000000
     8  H   -0.000003  -0.000257  -0.024742   0.002919   0.000564   0.000043
     9  H    0.000025   0.000082   0.000290   0.000057  -0.000004   0.000016
    10  C    0.001299   0.000466  -0.279968   0.046594  -0.127063  -0.000920
    11  H    0.000051   0.002362  -0.052326   0.009077  -0.006751  -0.006558
    12  C    0.449337   0.000465   0.005496  -0.000239   0.000205  -0.000277
    13  H    0.564820   0.002362  -0.000208   0.000000   0.000000   0.000000
    14  H    0.002362   0.554757   0.003952   0.000012  -0.000021   0.000058
    15  C   -0.000208   0.003952   5.689994   0.389991   0.431265   0.412045
    16  H    0.000000   0.000012   0.389991   0.565197  -0.031216  -0.028796
    17  H    0.000000  -0.000021   0.431265  -0.031216   0.549751  -0.023440
    18  H    0.000000   0.000058   0.412045  -0.028796  -0.023440   0.530089
    19  C    0.000425   0.001969  -0.259492   0.002689  -0.002179   0.012940
    20  H   -0.000024   0.000418   0.001643  -0.000126   0.000167  -0.000545
    21  H    0.000001  -0.000120   0.009408  -0.000885   0.003490   0.000119
    22  H    0.000002   0.000037  -0.014866   0.003420  -0.000693  -0.000108
    23  C   -0.021003   0.001969   0.006110   0.000046   0.000001  -0.000104
    24  H   -0.006124   0.000418   0.000187   0.000000   0.000000   0.000001
    25  H   -0.005192  -0.000120   0.000009   0.000000   0.000000   0.000000
    26  H    0.007222   0.000037  -0.000259   0.000000   0.000000   0.000001
    27  C   -0.052327   0.003952  -0.004769  -0.000031   0.000005   0.000037
    28  H   -0.006751  -0.000021   0.000005   0.000000   0.000000   0.000000
    29  H   -0.006558   0.000058   0.000037   0.000000   0.000000   0.000000
    30  H    0.009077   0.000012  -0.000031   0.000000   0.000000   0.000000
              19         20         21         22         23         24
     1  C    0.052647   0.011917  -0.000822  -0.005133   0.081243  -0.013755
     2  C    0.070465   0.018659  -0.006039  -0.000149  -0.346159  -0.143312
     3  C    0.135450   0.081169  -0.012320  -0.049795   0.135449   0.081169
     4  C   -0.346163  -0.143313   0.048792  -0.039847   0.070465   0.018659
     5  C    0.081242  -0.013756  -0.001299   0.060770   0.052647   0.011917
     6  C   -0.002757  -0.013370   0.005501   0.005421  -0.002758  -0.013370
     7  H   -0.000319   0.000000   0.000000  -0.000001   0.009193   0.000050
     8  H    0.009193   0.000050  -0.000111  -0.000185  -0.000319   0.000000
     9  H   -0.000066   0.000004  -0.000001   0.000032  -0.000066   0.000004
    10  C    0.318295   0.036607  -0.092576   0.007439  -0.023624  -0.000860
    11  H   -0.021003  -0.006124  -0.005192   0.007222   0.000425  -0.000024
    12  C   -0.023624  -0.000860  -0.000320   0.001526   0.318291   0.036607
    13  H    0.000425  -0.000024   0.000001   0.000002  -0.021003  -0.006124
    14  H    0.001969   0.000418  -0.000120   0.000037   0.001969   0.000418
    15  C   -0.259492   0.001643   0.009408  -0.014866   0.006110   0.000187
    16  H    0.002689  -0.000126  -0.000885   0.003420   0.000046   0.000000
    17  H   -0.002179   0.000167   0.003490  -0.000693   0.000001   0.000000
    18  H    0.012940  -0.000545   0.000119  -0.000108  -0.000104   0.000001
    19  C    5.293229   0.399930   0.419728   0.412519  -0.002114  -0.000151
    20  H    0.399930   0.544098  -0.026156  -0.027002  -0.000151  -0.000001
    21  H    0.419728  -0.026156   0.556980  -0.028922   0.000001   0.000000
    22  H    0.412519  -0.027002  -0.028922   0.524529   0.000063   0.000000
    23  C   -0.002114  -0.000151   0.000001   0.000063   5.293230   0.399930
    24  H   -0.000151  -0.000001   0.000000   0.000000   0.399930   0.544098
    25  H    0.000001   0.000000   0.000000   0.000000   0.419728  -0.026156
    26  H    0.000063   0.000000   0.000000   0.000000   0.412519  -0.027002
    27  C    0.006110   0.000187   0.000009  -0.000259  -0.259491   0.001643
    28  H    0.000001   0.000000   0.000000   0.000000  -0.002179   0.000167
    29  H   -0.000104   0.000001   0.000000   0.000001   0.012940  -0.000545
    30  H    0.000046   0.000000   0.000000   0.000000   0.002689  -0.000126
              25         26         27         28         29         30
     1  C   -0.001298   0.060770   0.287526   0.023442   0.000851  -0.075198
     2  C    0.048791  -0.039847   0.352467   0.046326  -0.041092  -0.004422
     3  C   -0.012320  -0.049795  -0.221139   0.000369   0.020394  -0.002948
     4  C   -0.006039  -0.000149  -0.148794   0.001475  -0.003697   0.005502
     5  C   -0.000822  -0.005133  -0.044061   0.001076   0.005590  -0.012228
     6  C    0.005501   0.005421  -0.033101   0.002303  -0.018675   0.009574
     7  H   -0.000111  -0.000185  -0.024742   0.000564   0.000043   0.002919
     8  H    0.000000  -0.000001  -0.000249   0.000000   0.000000   0.000001
     9  H   -0.000001   0.000032   0.000290  -0.000004   0.000016   0.000057
    10  C   -0.000320   0.001526   0.005495   0.000205  -0.000277  -0.000239
    11  H    0.000001   0.000002  -0.000208   0.000000   0.000000   0.000000
    12  C   -0.092575   0.007439  -0.279967  -0.127064  -0.000920   0.046595
    13  H   -0.005192   0.007222  -0.052327  -0.006751  -0.006558   0.009077
    14  H   -0.000120   0.000037   0.003952  -0.000021   0.000058   0.000012
    15  C    0.000009  -0.000259  -0.004769   0.000005   0.000037  -0.000031
    16  H    0.000000   0.000000  -0.000031   0.000000   0.000000   0.000000
    17  H    0.000000   0.000000   0.000005   0.000000   0.000000   0.000000
    18  H    0.000000   0.000001   0.000037   0.000000   0.000000   0.000000
    19  C    0.000001   0.000063   0.006110   0.000001  -0.000104   0.000046
    20  H    0.000000   0.000000   0.000187   0.000000   0.000001   0.000000
    21  H    0.000000   0.000000   0.000009   0.000000   0.000000   0.000000
    22  H    0.000000   0.000000  -0.000259   0.000000   0.000001   0.000000
    23  C    0.419728   0.412519  -0.259491  -0.002179   0.012940   0.002689
    24  H   -0.026156  -0.027002   0.001643   0.000167  -0.000545  -0.000126
    25  H    0.556980  -0.028921   0.009408   0.003490   0.000119  -0.000885
    26  H   -0.028921   0.524529  -0.014867  -0.000693  -0.000108   0.003420
    27  C    0.009408  -0.014867   5.689992   0.431265   0.412045   0.389991
    28  H    0.003490  -0.000693   0.431265   0.549751  -0.023440  -0.031216
    29  H    0.000119  -0.000108   0.412045  -0.023440   0.530089  -0.028796
    30  H   -0.000885   0.003420   0.389991  -0.031216  -0.028796   0.565197
 Mulliken charges:
               1
     1  C   -0.428665
     2  C    0.619406
     3  C   -0.515101
     4  C    0.619407
     5  C   -0.428667
     6  C   -0.285147
     7  H    0.104703
     8  H    0.104703
     9  H    0.120335
    10  C    0.125678
    11  H    0.130637
    12  C    0.125677
    13  H    0.130637
    14  H    0.096653
    15  C   -0.506420
    16  H    0.121008
    17  H    0.130930
    18  H    0.142032
    19  C   -0.558970
    20  H    0.136577
    21  H    0.130734
    22  H    0.143981
    23  C   -0.558970
    24  H    0.136577
    25  H    0.130735
    26  H    0.143981
    27  C   -0.506420
    28  H    0.130930
    29  H    0.142032
    30  H    0.121008
 Sum of Mulliken charges =   0.00000
 Mulliken charges with hydrogens summed into heavy atoms:
               1
     1  C   -0.323962
     2  C    0.619406
     3  C   -0.418448
     4  C    0.619407
     5  C   -0.323964
     6  C   -0.164812
    10  C    0.256315
    12  C    0.256314
    15  C   -0.112451
    19  C   -0.147678
    23  C   -0.147678
    27  C   -0.112451
 Electronic spatial extent (au):  <R**2>=           2743.1762
 Charge=              0.0000 electrons
 Dipole moment (field-independent basis, Debye):
    X=              0.0000    Y=             -0.4772    Z=              0.0000  Tot=              0.4772
 Quadrupole moment (field-independent basis, Debye-Ang):
   XX=            -72.7829   YY=            -72.5279   ZZ=            -80.1990
   XY=              0.0000   XZ=             -0.5401   YZ=              0.0000
 Traceless Quadrupole moment (field-independent basis, Debye-Ang):
   XX=              2.3871   YY=              2.6421   ZZ=             -5.0291
   XY=              0.0000   XZ=             -0.5401   YZ=              0.0000
 Octapole moment (field-independent basis, Debye-Ang**2):
  XXX=              0.0000  YYY=              3.7252  ZZZ=              0.0000  XYY=              0.0000
  XXY=             -1.9748  XXZ=              0.0000  XZZ=              0.0000  YZZ=             -3.3729
  YYZ=              0.0000  XYZ=              2.9952
 Hexadecapole moment (field-independent basis, Debye-Ang**3):
 XXXX=          -2861.1543 YYYY=           -608.5342 ZZZZ=           -381.5425 XXXY=             -0.0001
 XXXZ=              2.0696 YYYX=              0.0000 YYYZ=              0.0000 ZZZX=             -7.9118
 ZZZY=              0.0000 XXYY=           -566.5316 XXZZ=           -561.8635 YYZZ=           -179.6632
 XXYZ=              0.0000 YYXZ=             -2.5308 ZZXY=              0.0000
 N-N= 6.914935102347D+02 E-N=-2.467744888374D+03  KE= 4.664054027073D+02
 There are a total of      247664 grid points.
 ElSum from          density=       90.0001052274
 ElSum from atomic densities=       90.0002018525

 Hirshfeld populations at iteration   1 (CX, CA, CB, DipXYZ):
               1          2          3          4          5          6
     1  C    0.000000   3.028285   3.028285   0.052437   0.024052  -0.002772
     2  C    0.000000   2.997578   2.997578   0.063549  -0.034547   0.003352
     3  C    0.000000   3.028227   3.028227   0.000000  -0.062543   0.000000
     4  C    0.000000   2.997578   2.997578  -0.063549  -0.034547  -0.003352
     5  C    0.000000   3.028285   3.028285  -0.052437   0.024052   0.002772
     6  C    0.000000   3.023675   3.023675   0.000000   0.063110   0.000000
     7  H    0.000001   0.479466   0.479466   0.124435   0.088444  -0.006598
     8  H    0.000001   0.479466   0.479466  -0.124435   0.088444   0.006598
     9  H    0.000002   0.478389   0.478389   0.000000   0.159410   0.000000
    10  C    0.000000   3.006996   3.006996  -0.005765  -0.000124  -0.003269
    11  H    0.000000   0.482408   0.482408   0.013395  -0.129899   0.068061
    12  C    0.000000   3.006996   3.006996   0.005765  -0.000124   0.003270
    13  H    0.000000   0.482408   0.482408  -0.013395  -0.129899  -0.068062
    14  H    0.000000   0.478786   0.478786   0.000000  -0.154552   0.000000
    15  C    0.000000   3.051310   3.051310   0.001920  -0.011580  -0.004901
    16  H    0.000000   0.483020   0.483020  -0.028522   0.125580  -0.065739
    17  H    0.000001   0.483153   0.483153  -0.124089  -0.077975   0.008708
    18  H    0.000001   0.482630   0.482630   0.047988   0.017052   0.138788
    19  C    0.000000   3.051191   3.051191  -0.004705  -0.003739   0.010453
    20  H    0.000000   0.483444   0.483444   0.093106  -0.083317  -0.073240
    21  H    0.000000   0.483313   0.483313  -0.124367  -0.075162   0.011957
    22  H    0.000000   0.482693   0.482693  -0.026711   0.123929  -0.069959
    23  C    0.000000   3.051191   3.051191   0.004705  -0.003739  -0.010453
    24  H    0.000000   0.483444   0.483444  -0.093106  -0.083317   0.073239
    25  H    0.000000   0.483313   0.483313   0.124367  -0.075162  -0.011957
    26  H    0.000000   0.482693   0.482693   0.026711   0.123929   0.069960
    27  C    0.000000   3.051310   3.051310  -0.001920  -0.011580   0.004901
    28  H    0.000001   0.483153   0.483153   0.124089  -0.077975  -0.008708
    29  H    0.000001   0.482630   0.482630  -0.047988   0.017052  -0.138788
    30  H    0.000000   0.483020   0.483020   0.028522   0.125579   0.065740
       Tot   0.000009  45.000053  45.000053   0.000000  -0.069148   0.000001

 Dip from Atomic Chgs              0.000000  -0.118621   0.000000
         Total Dipole              0.000000  -0.187768   0.000001

 Hirshfeld charges, spin densities, dipoles, and CM5 charges using IRadAn=      4:
              Q-H        S-H        Dx         Dy         Dz        Q-CM5   
     1  C   -0.056571   0.000000   0.052437   0.024052  -0.002772  -0.112905
     2  C    0.004843   0.000000   0.063549  -0.034547   0.003352  -0.009472
     3  C   -0.056455   0.000000   0.000000  -0.062543   0.000000  -0.109937
     4  C    0.004843   0.000000  -0.063549  -0.034547  -0.003352  -0.009472
     5  C   -0.056571   0.000000  -0.052437   0.024052   0.002772  -0.112905
     6  C   -0.047350   0.000000   0.000000   0.063110   0.000000  -0.104799
     7  H    0.041068   0.000000   0.124435   0.088444  -0.006598   0.101073
     8  H    0.041068   0.000000  -0.124435   0.088444   0.006598   0.101073
     9  H    0.043222   0.000000   0.000000   0.159410   0.000000   0.100809
    10  C   -0.013992   0.000000  -0.005765  -0.000124  -0.003269  -0.086738
    11  H    0.035184   0.000000   0.013395  -0.129899   0.068061   0.097021
    12  C   -0.013992   0.000000   0.005765  -0.000124   0.003270  -0.086738
    13  H    0.035184   0.000000  -0.013395  -0.129899  -0.068062   0.097021
    14  H    0.042428   0.000000   0.000000  -0.154552   0.000000   0.101978
    15  C   -0.102621   0.000000   0.001920  -0.011580  -0.004901  -0.259992
    16  H    0.033960   0.000000  -0.028522   0.125580  -0.065739   0.090570
    17  H    0.033695   0.000000  -0.124089  -0.077975   0.008708   0.088397
    18  H    0.034740   0.000000   0.047988   0.017052   0.138788   0.089936
    19  C   -0.102382   0.000000  -0.004705  -0.003739   0.010453  -0.258560
    20  H    0.033113   0.000000   0.093106  -0.083317  -0.073240   0.088177
    21  H    0.033373   0.000000  -0.124367  -0.075162   0.011957   0.088058
    22  H    0.034614   0.000000  -0.026711   0.123929  -0.069959   0.090356
    23  C   -0.102382   0.000000   0.004705  -0.003739  -0.010453  -0.258560
    24  H    0.033113   0.000000  -0.093106  -0.083317   0.073239   0.088177
    25  H    0.033373   0.000000   0.124367  -0.075162  -0.011957   0.088058
    26  H    0.034614   0.000000   0.026711   0.123929   0.069960   0.090356
    27  C   -0.102621   0.000000  -0.001920  -0.011580   0.004901  -0.259992
    28  H    0.033695   0.000000   0.124089  -0.077975  -0.008708   0.088397
    29  H    0.034740   0.000000  -0.047988   0.017052  -0.138788   0.089936
    30  H    0.033960   0.000000   0.028522   0.125579   0.065740   0.090570
       Tot  -0.000105   0.000000   0.000000  -0.069148   0.000001  -0.000105
 Hirshfeld charges with hydrogens summed into heavy atoms:
              Q-H       Q-CM5   
     1  C   -0.015503  -0.011832
     2  C    0.004843  -0.009472
     3  C   -0.014027  -0.007959
     4  C    0.004843  -0.009472
     5  C   -0.015503  -0.011832
     6  C   -0.004128  -0.003990
    10  C    0.021191   0.010283
    12  C    0.021191   0.010283
    15  C   -0.000226   0.008911
    19  C   -0.001281   0.008031
    23  C   -0.001281   0.008031
    27  C   -0.000226   0.008911
 
 EQQ= 0.000000000000E+00 EQD= 0.000000000000E+00 EDD= 0.480136027519E-02
 EQQ+QD+DD= 0.480136027519E-02
 
          MBS Condensed to atoms (all electrons):
               1          2          3          4          5          6
     1  C    4.862872   0.503752  -0.030937  -0.011565  -0.031058   0.503991
     2  C    0.503752   4.820303   0.502815  -0.028390  -0.011565  -0.029338
     3  C   -0.030937   0.502815   4.866167   0.502815  -0.030937  -0.011246
     4  C   -0.011565  -0.028390   0.502815   4.820303   0.503752  -0.029338
     5  C   -0.031058  -0.011565  -0.030937   0.503752   4.862872   0.503991
     6  C    0.503991  -0.029338  -0.011246  -0.029338   0.503991   4.827079
     7  H    0.392992  -0.026716   0.001484   0.000054   0.001475  -0.025772
     8  H    0.001475   0.000054   0.001484  -0.026716   0.392992  -0.025772
     9  H   -0.026178   0.001491   0.000045   0.001491  -0.026178   0.392277
    10  C    0.000022   0.000825  -0.026633   0.374790  -0.026043   0.000828
    11  H    0.000000   0.000027  -0.003802  -0.024709   0.001163  -0.000023
    12  C   -0.026043   0.374790  -0.026633   0.000825   0.000022   0.000828
    13  H    0.001163  -0.024709  -0.003802   0.000027   0.000000  -0.000023
    14  H    0.001500  -0.027097   0.390511  -0.027097   0.001500   0.000046
    15  C   -0.000001  -0.000009   0.000675  -0.024640  -0.008167   0.000072
    16  H   -0.000001   0.000000   0.000012  -0.003135  -0.003410   0.000012
    17  H    0.000000   0.000000  -0.000018   0.001558   0.000172  -0.000001
    18  H   -0.000001  -0.000001   0.000047  -0.001927   0.000386  -0.000015
    19  C    0.000001  -0.000009  -0.000858  -0.024910  -0.000903  -0.000009
    20  H    0.000000  -0.000012   0.000513  -0.001950   0.000021  -0.000001
    21  H    0.000000   0.000000   0.000008   0.001643   0.000007   0.000000
    22  H   -0.000001  -0.000001   0.000012  -0.002074   0.000575  -0.000015
    23  C   -0.000903  -0.024910  -0.000858  -0.000009   0.000001  -0.000009
    24  H    0.000021  -0.001950   0.000513  -0.000012   0.000000  -0.000001
    25  H    0.000007   0.001643   0.000008   0.000000   0.000000   0.000000
    26  H    0.000575  -0.002074   0.000012  -0.000001  -0.000001  -0.000015
    27  C   -0.008167  -0.024640   0.000675  -0.000009  -0.000001   0.000072
    28  H    0.000172   0.001558  -0.000018   0.000000   0.000000  -0.000001
    29  H    0.000386  -0.001927   0.000047  -0.000001  -0.000001  -0.000015
    30  H   -0.003410  -0.003135   0.000012   0.000000  -0.000001   0.000012
               7          8          9         10         11         12
     1  C    0.392992   0.001475  -0.026178   0.000022   0.000000  -0.026043
     2  C   -0.026716   0.000054   0.001491   0.000825   0.000027   0.374790
     3  C    0.001484   0.001484   0.000045  -0.026633  -0.003802  -0.026633
     4  C    0.000054  -0.026716   0.001491   0.374790  -0.024709   0.000825
     5  C    0.001475   0.392992  -0.026178  -0.026043   0.001163   0.000022
     6  C   -0.025772  -0.025772   0.392277   0.000828  -0.000023   0.000828
     7  H    0.560812  -0.000040  -0.003634   0.000001   0.000000  -0.003869
     8  H   -0.000040   0.560812  -0.003634  -0.003869   0.000062   0.000001
     9  H   -0.003634  -0.003634   0.558049  -0.000019   0.000001  -0.000019
    10  C    0.000001  -0.003869  -0.000019   4.756472   0.381525  -0.000005
    11  H    0.000000   0.000062   0.000001   0.381525   0.609348  -0.000001
    12  C   -0.003869   0.000001  -0.000019  -0.000005  -0.000001   4.756472
    13  H    0.000062   0.000000   0.000001  -0.000001   0.000000   0.381525
    14  H   -0.000043  -0.000043   0.000003  -0.003640   0.001232  -0.003640
    15  C    0.000000  -0.002682   0.000001   0.366158  -0.024233   0.000000
    16  H    0.000000   0.001262   0.000005  -0.022924   0.002332   0.000000
    17  H    0.000000  -0.000011   0.000000  -0.021786  -0.002351   0.000000
    18  H    0.000000  -0.000102   0.000001  -0.022031  -0.002325   0.000000
    19  C    0.000000   0.000090   0.000000   0.360854  -0.024487   0.000000
    20  H    0.000000   0.000004   0.000000  -0.022148  -0.002234   0.000000
    21  H    0.000000  -0.000013   0.000000  -0.021730  -0.002325   0.000000
    22  H    0.000000   0.000153   0.000001  -0.023594   0.002388   0.000000
    23  C    0.000090   0.000000   0.000000   0.000000   0.000000   0.360854
    24  H    0.000004   0.000000   0.000000   0.000000   0.000000  -0.022148
    25  H   -0.000013   0.000000   0.000000   0.000000   0.000000  -0.021730
    26  H    0.000153   0.000000   0.000001   0.000000   0.000000  -0.023594
    27  C   -0.002682   0.000000   0.000001   0.000000   0.000000   0.366158
    28  H   -0.000011   0.000000   0.000000   0.000000   0.000000  -0.021786
    29  H   -0.000102   0.000000   0.000001   0.000000   0.000000  -0.022031
    30  H    0.001262   0.000000   0.000005   0.000000   0.000000  -0.022924
              13         14         15         16         17         18
     1  C    0.001163   0.001500  -0.000001  -0.000001   0.000000  -0.000001
     2  C   -0.024709  -0.027097  -0.000009   0.000000   0.000000  -0.000001
     3  C   -0.003802   0.390511   0.000675   0.000012  -0.000018   0.000047
     4  C    0.000027  -0.027097  -0.024640  -0.003135   0.001558  -0.001927
     5  C    0.000000   0.001500  -0.008167  -0.003410   0.000172   0.000386
     6  C   -0.000023   0.000046   0.000072   0.000012  -0.000001  -0.000015
     7  H    0.000062  -0.000043   0.000000   0.000000   0.000000   0.000000
     8  H    0.000000  -0.000043  -0.002682   0.001262  -0.000011  -0.000102
     9  H    0.000001   0.000003   0.000001   0.000005   0.000000   0.000001
    10  C   -0.000001  -0.003640   0.366158  -0.022924  -0.021786  -0.022031
    11  H    0.000000   0.001232  -0.024233   0.002332  -0.002351  -0.002325
    12  C    0.381525  -0.003640   0.000000   0.000000   0.000000   0.000000
    13  H    0.609348   0.001232   0.000000   0.000000   0.000000   0.000000
    14  H    0.001232   0.566798   0.000024   0.000001  -0.000002   0.000004
    15  C    0.000000   0.000024   4.849479   0.383502   0.380578   0.381583
    16  H    0.000000   0.000001   0.383502   0.601444  -0.022954  -0.023525
    17  H    0.000000  -0.000002   0.380578  -0.022954   0.600697  -0.022276
    18  H    0.000000   0.000004   0.381583  -0.023525  -0.022276   0.593831
    19  C    0.000000   0.000067  -0.026759  -0.002877  -0.002361   0.001650
    20  H    0.000000   0.000174   0.001653   0.000016   0.000019  -0.000066
    21  H    0.000000  -0.000014  -0.002507  -0.000030   0.000917   0.000015
    22  H    0.000000   0.000009  -0.002818   0.001334  -0.000060   0.000018
    23  C   -0.024487   0.000067   0.000000   0.000000   0.000000   0.000000
    24  H   -0.002234   0.000174   0.000000   0.000000   0.000000   0.000000
    25  H   -0.002325  -0.000014   0.000000   0.000000   0.000000   0.000000
    26  H    0.002388   0.000009   0.000000   0.000000   0.000000   0.000000
    27  C   -0.024233   0.000024   0.000000   0.000000   0.000000   0.000000
    28  H   -0.002351  -0.000002   0.000000   0.000000   0.000000   0.000000
    29  H   -0.002325   0.000004   0.000000   0.000000   0.000000   0.000000
    30  H    0.002332   0.000001   0.000000   0.000000   0.000000   0.000000
              19         20         21         22         23         24
     1  C    0.000001   0.000000   0.000000  -0.000001  -0.000903   0.000021
     2  C   -0.000009  -0.000012   0.000000  -0.000001  -0.024910  -0.001950
     3  C   -0.000858   0.000513   0.000008   0.000012  -0.000858   0.000513
     4  C   -0.024910  -0.001950   0.001643  -0.002074  -0.000009  -0.000012
     5  C   -0.000903   0.000021   0.000007   0.000575   0.000001   0.000000
     6  C   -0.000009  -0.000001   0.000000  -0.000015  -0.000009  -0.000001
     7  H    0.000000   0.000000   0.000000   0.000000   0.000090   0.000004
     8  H    0.000090   0.000004  -0.000013   0.000153   0.000000   0.000000
     9  H    0.000000   0.000000   0.000000   0.000001   0.000000   0.000000
    10  C    0.360854  -0.022148  -0.021730  -0.023594   0.000000   0.000000
    11  H   -0.024487  -0.002234  -0.002325   0.002388   0.000000   0.000000
    12  C    0.000000   0.000000   0.000000   0.000000   0.360854  -0.022148
    13  H    0.000000   0.000000   0.000000   0.000000  -0.024487  -0.002234
    14  H    0.000067   0.000174  -0.000014   0.000009   0.000067   0.000174
    15  C   -0.026759   0.001653  -0.002507  -0.002818   0.000000   0.000000
    16  H   -0.002877   0.000016  -0.000030   0.001334   0.000000   0.000000
    17  H   -0.002361   0.000019   0.000917  -0.000060   0.000000   0.000000
    18  H    0.001650  -0.000066   0.000015   0.000018   0.000000   0.000000
    19  C    4.849559   0.380797   0.378461   0.381323   0.000000   0.000000
    20  H    0.380797   0.595981  -0.022591  -0.022731   0.000000   0.000000
    21  H    0.378461  -0.022591   0.603475  -0.022867   0.000000   0.000000
    22  H    0.381323  -0.022731  -0.022867   0.595266   0.000000   0.000000
    23  C    0.000000   0.000000   0.000000   0.000000   4.849559   0.380797
    24  H    0.000000   0.000000   0.000000   0.000000   0.380797   0.595981
    25  H    0.000000   0.000000   0.000000   0.000000   0.378461  -0.022591
    26  H    0.000000   0.000000   0.000000   0.000000   0.381323  -0.022731
    27  C    0.000000   0.000000   0.000000   0.000000  -0.026759   0.001653
    28  H    0.000000   0.000000   0.000000   0.000000  -0.002361   0.000019
    29  H    0.000000   0.000000   0.000000   0.000000   0.001650  -0.000066
    30  H    0.000000   0.000000   0.000000   0.000000  -0.002877   0.000016
              25         26         27         28         29         30
     1  C    0.000007   0.000575  -0.008167   0.000172   0.000386  -0.003410
     2  C    0.001643  -0.002074  -0.024640   0.001558  -0.001927  -0.003135
     3  C    0.000008   0.000012   0.000675  -0.000018   0.000047   0.000012
     4  C    0.000000  -0.000001  -0.000009   0.000000  -0.000001   0.000000
     5  C    0.000000  -0.000001  -0.000001   0.000000  -0.000001  -0.000001
     6  C    0.000000  -0.000015   0.000072  -0.000001  -0.000015   0.000012
     7  H   -0.000013   0.000153  -0.002682  -0.000011  -0.000102   0.001262
     8  H    0.000000   0.000000   0.000000   0.000000   0.000000   0.000000
     9  H    0.000000   0.000001   0.000001   0.000000   0.000001   0.000005
    10  C    0.000000   0.000000   0.000000   0.000000   0.000000   0.000000
    11  H    0.000000   0.000000   0.000000   0.000000   0.000000   0.000000
    12  C   -0.021730  -0.023594   0.366158  -0.021786  -0.022031  -0.022924
    13  H   -0.002325   0.002388  -0.024233  -0.002351  -0.002325   0.002332
    14  H   -0.000014   0.000009   0.000024  -0.000002   0.000004   0.000001
    15  C    0.000000   0.000000   0.000000   0.000000   0.000000   0.000000
    16  H    0.000000   0.000000   0.000000   0.000000   0.000000   0.000000
    17  H    0.000000   0.000000   0.000000   0.000000   0.000000   0.000000
    18  H    0.000000   0.000000   0.000000   0.000000   0.000000   0.000000
    19  C    0.000000   0.000000   0.000000   0.000000   0.000000   0.000000
    20  H    0.000000   0.000000   0.000000   0.000000   0.000000   0.000000
    21  H    0.000000   0.000000   0.000000   0.000000   0.000000   0.000000
    22  H    0.000000   0.000000   0.000000   0.000000   0.000000   0.000000
    23  C    0.378461   0.381323  -0.026759  -0.002361   0.001650  -0.002877
    24  H   -0.022591  -0.022731   0.001653   0.000019  -0.000066   0.000016
    25  H    0.603475  -0.022867  -0.002507   0.000917   0.000015  -0.000030
    26  H   -0.022867   0.595266  -0.002818  -0.000060   0.000018   0.001334
    27  C   -0.002507  -0.002818   4.849479   0.380578   0.381583   0.383502
    28  H    0.000917  -0.000060   0.380578   0.600697  -0.022276  -0.022954
    29  H    0.000015   0.000018   0.381583  -0.022276   0.593831  -0.023525
    30  H   -0.000030   0.001334   0.383502  -0.022954  -0.023525   0.601444
 MBS Mulliken charges:
               1
     1  C   -0.130667
     2  C   -0.000773
     3  C   -0.132116
     4  C   -0.000773
     5  C   -0.130667
     6  C   -0.107615
     7  H    0.104494
     8  H    0.104494
     9  H    0.106289
    10  C   -0.047050
    11  H    0.088412
    12  C   -0.047050
    13  H    0.088412
    14  H    0.098213
    15  C   -0.271909
    16  H    0.088936
    17  H    0.087878
    18  H    0.094734
    19  C   -0.269630
    20  H    0.092557
    21  H    0.087551
    22  H    0.093082
    23  C   -0.269630
    24  H    0.092557
    25  H    0.087551
    26  H    0.093082
    27  C   -0.271909
    28  H    0.087878
    29  H    0.094734
    30  H    0.088936
 Sum of MBS Mulliken charges =   0.00000
 MBS Mulliken charges with hydrogens summed into heavy atoms:
               1
     1  C   -0.026173
     2  C   -0.000773
     3  C   -0.033903
     4  C   -0.000773
     5  C   -0.026173
     6  C   -0.001326
    10  C    0.041362
    12  C    0.041362
    15  C   -0.000361
    19  C    0.003559
    23  C    0.003559
    27  C   -0.000361
 Breneman (CHELPG) radii used.
 Generate Potential Derived Charges using the Breneman model, NDens= 1.
 Grid spacing= 0.300 Box extension= 2.800
 NStep X,Y,Z=   50     36     33   Total possible points=       59400
 Number of Points to Fit=   17206

 **********************************************************************

            Electrostatic Properties Using The SCF Density

 **********************************************************************

       Atomic Center    1 is at   1.211297  1.387062 -0.075510
       Atomic Center    2 is at   1.211297 -0.014338 -0.075511
       Atomic Center    3 is at   0.000000 -0.715038 -0.000003
       Atomic Center    4 is at  -1.211297 -0.014338  0.075508
       Atomic Center    5 is at  -1.211296  1.387062  0.075510
       Atomic Center    6 is at   0.000000  2.087762  0.000001
       Atomic Center    7 is at   2.136149  1.922062 -0.133162
       Atomic Center    8 is at  -2.136148  1.922062  0.133166
       Atomic Center    9 is at   0.000000  3.157762  0.000000
       Atomic Center   10 is at  -2.542392 -0.784338  0.158486
       Atomic Center   11 is at  -2.383314 -1.719276  0.653950
       Atomic Center   12 is at   2.542392 -0.784338 -0.158486
       Atomic Center   13 is at   2.383315 -1.719275 -0.653952
       Atomic Center   14 is at   0.000000 -1.785038 -0.000004
       Atomic Center   15 is at  -3.568407  0.047939  0.949819
       Atomic Center   16 is at  -3.727485  0.982877  0.454356
       Atomic Center   17 is at  -4.493259 -0.487061  1.007473
       Atomic Center   18 is at  -3.197357  0.226271  1.937453
       Atomic Center   19 is at  -3.076426 -1.041002 -1.262968
       Atomic Center   20 is at  -2.363546 -1.619273 -1.812791
       Atomic Center   21 is at  -4.001278 -1.576002 -1.205315
       Atomic Center   22 is at  -3.235504 -0.106064 -1.758432
       Atomic Center   23 is at   3.076423 -1.041005  1.262968
       Atomic Center   24 is at   2.363541 -1.619276  1.812788
       Atomic Center   25 is at   4.001275 -1.576005  1.205316
       Atomic Center   26 is at   3.235500 -0.106068  1.758434
       Atomic Center   27 is at   3.568409  0.047940 -0.949816
       Atomic Center   28 is at   4.493261 -0.487060 -1.007468
       Atomic Center   29 is at   3.197362  0.226274 -1.937450
       Atomic Center   30 is at   3.727486  0.982878 -0.454350
   17206 points will be used for fitting atomic charges
 Fitting point charges to electrostatic potential
 Charges from ESP fit, RMS=   0.00314 RRMS=   0.43508:
 ESP charges:
               1
     1  C   -0.146161
     2  C    0.106366
     3  C   -0.300831
     4  C    0.106365
     5  C   -0.146162
     6  C   -0.125121
     7  H    0.102033
     8  H    0.102034
     9  H    0.097032
    10  C    0.241286
    11  H   -0.011987
    12  C    0.241285
    13  H   -0.011987
    14  H    0.121209
    15  C   -0.299475
    16  H    0.083146
    17  H    0.076236
    18  H    0.035126
    19  C   -0.153887
    20  H    0.011684
    21  H    0.041428
    22  H    0.018060
    23  C   -0.153890
    24  H    0.011685
    25  H    0.041429
    26  H    0.018061
    27  C   -0.299475
    28  H    0.076236
    29  H    0.035126
    30  H    0.083146
 Sum of ESP charges =   0.00000
 ESP charges with hydrogens summed into heavy atoms:
               1
     1  C   -0.044128
     2  C    0.106366
     3  C   -0.179622
     4  C    0.106365
     5  C   -0.044128
     6  C   -0.028088
    10  C    0.229299
    12  C    0.229299
    15  C   -0.104967
    19  C   -0.082714
    23  C   -0.082715
    27  C   -0.104967
 Charge=   0.00000 Dipole=     0.0000    -0.4090     0.0000 Tot=     0.4090
 -----------------------------------------------------------------

              Electrostatic Properties (Atomic Units)

 -----------------------------------------------------------------
    Center     Electric         -------- Electric Field --------
               Potential          X             Y             Z
 -----------------------------------------------------------------
    1 Atom    -14.785857
    2 Atom    -14.773827
    3 Atom    -14.785420
    4 Atom    -14.773827
    5 Atom    -14.785857
    6 Atom    -14.779910
    7 Atom     -1.115565
    8 Atom     -1.115565
    9 Atom     -1.115808
   10 Atom    -14.768703
   11 Atom     -1.132702
   12 Atom    -14.768703
[...]
 70702,-0.00979104,0.00019696,0.00052263,0.00084170,-0.00002472,-0.0000
 2347,-0.00004058,0.00000719,0.00001170,0.00001867,-0.00000082,-0.00000
 386,-0.00000011,0.00000544,0.00001674,-0.00000209,-0.00000068,-0.00001
 012,0.00000041,0.00001002,0.00001505,-0.00000908,-0.00000180,-0.000004
 84,-0.00000609,0.00000448,0.00001328,0.00000928,-0.00000077,-0.0000050
 5,-0.00000119,-0.05290777,-0.16709552,0.12010987,0.05799551,0.17923623
 ,0.00041222,-0.00026169,0.00029521,-0.00067334,0.00154893,0.00093652,-
 0.00003979,-0.00035310,0.00024285,0.00002944,-0.00017689,-0.00010677,-
 0.00008611,-0.00003074,-0.00004785,0.00005295,0.00014064,-0.00006825,-
 0.00007932,-0.00001070,-0.00000332,-0.00001260,-0.00000465,0.00001664,
 0.00000617,-0.00001112,-0.00001006,0.00001285,-0.00002194,-0.00000611,
 -0.00000472,0.00000149,-0.00000877,0.00966730,0.02032409,-0.01965279,-
 0.00057833,0.00022975,0.00102882,-0.00003979,-0.00001581,-0.00010864,0
 .00000884,-0.00000613,-0.00001937,-0.00000540,-0.00000101,0.00000279,0
 .00000386,0.00000763,0.00000629,-0.00000479,-0.00001142,0.00001866,-0.
 00000175,0.00000950,-0.00001578,0.00000106,-0.00000537,0.00000759,0.00
 000147,0.00000568,0.00000485,-0.00000328,0.00000006,0.00000234,0.05222
 155,0.11834878,-0.16448210,-0.05715070,-0.12934076,0.18144421,0.000011
 23,-0.00000647,0.00019498,0.00071406,0.00038429,-0.00043851,-0.0001440
 5,-0.00033370,0.00014180,-0.00023476,0.00019395,0.00006230,0.00024867,
 0.00014977,0.00003126,0.00015585,-0.00026576,0.00024676,0.00032580,0.0
 0010963,-0.00034185,0.00000673,0.00003807,-0.00003293,-0.00001260,-0.0
 0000984,0.00000511,-0.00004275,-0.00001132,-0.00005486,0.00001078,0.00
 000419,0.00000229,0.00095784,-0.00290915,-0.00142128,0.00063382,-0.000
 19501,0.00050591,0.00003026,-0.00000098,-0.00001615,0.00002535,0.00002
 901,0.00003183,-0.00000262,-0.00000847,0.00000007,0.00000801,0.0000245
 6,-0.00000835,-0.00000281,-0.00000765,0.00000183,0.00001950,0.00001702
 ,-0.00001302,-0.00000155,-0.00000692,-0.00000328,0.00000500,0.00001752
 ,0.00001258,-0.00000285,-0.00000534,-0.00000301,-0.13707744,0.12197614
 ,0.01088881,0.00617811,-0.00860017,-0.00163993,0.14540239,-0.00036740,
 -0.00007971,-0.00015273,-0.00102430,0.00023862,-0.00283151,0.00060414,
 -0.00001756,-0.00018259,-0.00001396,-0.00005083,0.00021305,0.00004647,
 -0.00014425,-0.00004076,-0.00003596,-0.00003417,0.00013599,0.00013243,
 0.00007193,-0.00005451,0.00002301,-0.00000986,-0.00002499,0.00003958,-
 0.00002897,0.00001756,0.00010352,0.00003064,0.00002541,-0.00002089,0.0
 0000174,-0.00000427,0.00716754,-0.01072563,-0.00043651,-0.00042751,-0.
 00003793,0.00016171,-0.00004957,-0.00002091,-0.00007545,-0.00002097,-0
 .00003213,-0.00003322,-0.00000087,0.00001524,0.00000038,-0.00001733,-0
 .00004133,0.00000356,0.00000968,0.00001746,-0.00000332,-0.00002168,-0.
 00003815,0.00002335,0.00000492,0.00001328,0.00000722,-0.00001174,-0.00
 003350,-0.00002198,-0.00000046,0.00001327,0.00000343,0.12219572,-0.213
 27997,-0.01340913,0.01286181,-0.01679127,-0.00189826,-0.13521602,0.231
 43614,0.00000171,-0.00044285,0.00016025,-0.00160681,-0.00108066,-0.005
 27923,0.00081000,-0.00066990,0.00001379,-0.00008350,-0.00026611,0.0003
 4339,0.00002273,-0.00024630,-0.00010990,-0.00002413,0.00008295,0.00023
 925,0.00014655,0.00018416,-0.00008868,0.00001830,0.00000249,-0.0000298
 3,0.00004984,-0.00002864,-0.00001252,0.00009692,0.00000065,0.00002055,
 -0.00001376,0.00000449,-0.00000522,0.01919846,-0.02452155,-0.00327464,
 -0.00027566,0.00042529,0.00132428,-0.00006616,0.00001299,-0.00019185,-
 0.00000697,-0.00003474,-0.00003899,-0.00000223,0.00001062,-0.00000160,
 -0.00001507,-0.00002443,0.00001273,-0.00000351,0.00000592,0.00000574,-
 0.00000694,-0.00003163,0.00002168,0.00000240,0.00000780,0.00000511,-0.
 00000732,-0.00001818,-0.00001352,-0.00000135,0.00000996,0.00000077,0.0
 0986444,-0.01254307,-0.04807423,-0.01416049,0.01661060,0.00177612,-0.0
 1053145,0.01675021,0.05221362,-0.00029566,-0.00012695,0.00056754,0.000
 18060,0.00084546,-0.00026861,0.00003452,-0.00019549,-0.00010902,-0.000
 08649,0.00007737,0.00005050,0.00014654,0.00002356,-0.00004061,0.000228
 64,-0.00010397,0.00012268,0.00010143,0.00060316,0.00030225,0.00001441,
 0.00001948,-0.00001036,0.00002302,-0.00004196,0.00003452,-0.00000839,0
 .00000526,-0.00000968,0.00001683,0.00000732,0.00000651,-0.00184973,-0.
 00088451,-0.00063581,0.00160835,0.00007081,-0.00017227,0.00005816,0.00
 005045,0.00001899,0.00001075,0.00000586,0.00000769,0.00000625,-0.00000
 476,-0.00000067,-0.00000311,0.00000039,-0.00000157,-0.00000487,0.00000
 259,-0.00000477,0.00001015,0.00000059,0.00000243,-0.00000212,0.0000010
 9,0.00000207,-0.00000372,-0.00000064,0.00000002,0.00000471,-0.00000207
 ,-0.00000172,-0.27369535,-0.06637753,-0.05139158,-0.00852884,-0.001762
 20,-0.00157540,-0.01729351,-0.00543529,-0.00338739,0.29819467,-0.00026
 006,-0.00024692,0.00007327,-0.00114297,0.00090254,0.00049490,0.0000066
 4,-0.00057317,-0.00003649,-0.00028066,0.00026312,0.00001796,0.00030942
 ,0.00020751,0.00004427,0.00029401,-0.00038546,0.00015729,0.00053682,0.
 00016810,-0.00044649,0.00002845,0.00003903,-0.00002107,0.00000212,-0.0
 0001405,-0.00002395,-0.00004426,-0.00001352,-0.00001400,0.00002398,0.0
 0001020,0.00000715,-0.01247639,-0.00483683,-0.00327318,0.00019956,-0.0
 0037115,-0.00265033,0.00013645,0.00008524,0.00003502,0.00002066,0.0000
 2285,0.00002192,0.00000576,-0.00001237,-0.00000030,0.00000682,0.000017
 26,-0.00000381,-0.00000746,-0.00000368,-0.00000166,0.00002121,0.000021
 32,-0.00000829,-0.00000288,-0.00000507,-0.00000070,0.00000236,0.000013
 31,0.00001099,0.00000368,-0.00000883,-0.00000512,-0.06537876,-0.065783
 71,-0.01424134,-0.02084732,-0.00621243,-0.00538370,0.02495262,0.008200
 99,0.00587052,0.07273235,0.06781669,-0.00047406,-0.00028122,-0.0000736
 2,-0.00029876,0.00142342,0.00104391,-0.00002700,-0.00060469,0.00011045
 ,-0.00025872,0.00024009,0.00006089,0.00028906,0.00022564,0.00006844,0.
 00036603,-0.00024296,0.00007562,0.00064222,-0.00010941,-0.00024912,0.0
 0003774,0.00003502,-0.00001800,0.00000348,-0.00003379,-0.00000078,-0.0
 0001553,0.00000370,-0.00003073,0.00001501,0.00001092,0.00000030,-0.030
 11857,-0.00860811,-0.00819926,-0.00004341,-0.00257404,-0.00570897,0.00
 013868,0.00014050,-0.00002403,0.00001797,0.00001316,0.00000194,0.00000
 140,-0.00000664,0.00000633,0.00000265,0.00000663,-0.00000313,0.0000004
 7,-0.00000215,0.00000231,0.00000606,0.00000330,-0.00000166,-0.00000404
 ,-0.00000099,0.00000213,0.00000176,0.00000344,0.00000160,0.00000379,-0
 .00000586,-0.00000268,-0.05057608,-0.01433142,-0.05779152,0.02118246,0
 .00497311,0.00502310,0.00202705,0.00106008,-0.00041878,0.05696356,0.01
 857466,0.06385303,-0.00076144,0.00215714,0.00019932,0.00744293,0.01101
 131,-0.01351752,-0.00164635,0.00056764,-0.00022932,-0.00017163,0.00040
 339,0.00069468,0.00020005,0.00080084,0.00002450,0.00022647,-0.00097026
 ,0.00021269,-0.00051010,0.00011034,-0.00046287,0.00000590,-0.00004333,
 0.00003208,-0.00006551,0.00002430,0.00002840,-0.00018539,0.00001098,-0
 .00001649,0.00003841,0.00000300,0.00000085,-0.08738194,-0.01764204,0.0
 1788608,-0.00868151,-0.02281155,0.02337939,0.00035068,0.00025400,0.000
 02852,-0.00000816,0.00003146,0.00003569,0.00001151,-0.00002244,-0.0000
 0183,0.00001883,0.00002615,0.00000046,-0.00001039,-0.00001020,-0.00000
 516,0.00001846,0.00005317,0.00000395,-0.00000898,-0.00001206,-0.000005
 97,0.00002710,0.00002961,0.00002535,0.00001701,-0.00002577,-0.00001406
 ,0.00116229,0.00136520,-0.00079870,0.00050480,0.00008276,-0.00104199,-
 0.00017623,-0.00015302,0.00056797,0.00065398,0.00080808,-0.00112420,0.
 55346858,-0.00082053,0.00031735,0.00047410,-0.00305680,-0.02869473,0.0
 1815074,0.00209655,-0.00028059,0.00063479,0.00042752,-0.00044374,-0.00
 135051,-0.00020701,-0.00031678,-0.00006706,-0.00057865,0.00010698,-0.0
 0059930,-0.00006211,-0.00027346,-0.00005405,0.00000101,-0.00005176,0.0
 0007864,-0.00000795,0.00005192,0.00012780,0.00017141,-0.00000605,0.000
 01602,-0.00004167,-0.00000784,0.00000627,-0.02080318,-0.11696480,0.046
 88373,-0.00331515,-0.00779877,0.00785784,-0.00022954,-0.00015878,0.000
 56421,-0.00001494,-0.00003361,-0.00006378,-0.00000174,0.00001553,0.000
 00347,-0.00000854,-0.00003275,0.00001101,0.00000389,0.00001114,0.00000
 038,-0.00004533,-0.00008803,0.00001782,0.00000282,0.00001161,-0.000005
 64,-0.00001828,-0.00003211,-0.00004087,-0.00000917,0.00002251,0.000010
 98,0.00285249,0.00939564,-0.00548699,0.00010392,-0.00068137,-0.0042177
 7,0.00009400,0.00043074,-0.00090446,0.00011296,0.00026889,-0.00043955,
 -0.02064729,0.51045306,0.00099231,-0.00073825,0.00038364,-0.00493042,0
 .00472505,0.00185076,0.00072871,-0.00225428,-0.00103130,-0.00016456,0.
 00002087,-0.00052513,0.00022089,-0.00036072,-0.00001109,0.00011371,0.0
 0015230,0.00001151,-0.00004918,0.00012613,0.00003119,0.00002809,-0.000
 02801,0.00004872,0.00007582,-0.00005187,-0.00002151,0.00012573,0.00000
 263,0.00010569,-0.00002428,0.00000647,0.00001231,0.01888924,0.04110149
 ,-0.11777056,-0.00017896,-0.00184443,0.00222812,0.00001340,-0.00000233
 ,0.00032636,-0.00001789,-0.00005789,-0.00007117,0.00000128,0.00001507,
 0.00000275,-0.00001560,-0.00004463,0.00001694,0.00000241,0.00001929,-0
 .00001219,-0.00001097,-0.00007960,0.00007727,-0.00000323,0.00001605,-0
 .00002261,-0.00001354,-0.00002671,-0.00004076,-0.00000386,0.00001566,-
 0.00000398,0.01085371,0.02198264,-0.03176682,-0.00032199,-0.00220217,-
 0.00537764,-0.00008914,0.00103229,0.00169991,0.00019288,0.00092186,0.0
 0215606,0.01856176,0.05714531,0.51558818,0.00009230,-0.00002550,-0.000
 24545,-0.00008879,-0.00049870,0.00157721,0.00009537,-0.00040838,-0.000
 29684,-0.00021042,0.00017440,-0.00014263,0.00023288,0.00007406,0.00008
 874,0.00022582,-0.00012402,-0.00030908,0.00023896,0.00000077,0.0004550
 9,-0.00000166,0.00002162,0.00005023,-0.00000047,-0.00001397,-0.0000066
 3,-0.00003281,-0.00002756,0.00003452,0.00000770,0.00000478,0.00000279,
 0.00508628,-0.00894956,0.00036007,0.00075267,0.00018439,-0.00062157,-0
 .00000094,-0.00001874,0.00005932,0.00001495,0.00000589,0.00001556,-0.0
 0000354,-0.00000392,0.00000068,0.00000524,0.00001627,-0.00000306,-0.00
 000139,-0.00000572,-0.00000015,0.00002764,0.00002622,-0.00000704,-0.00
 000275,-0.00000492,-0.00000641,0.00000242,0.00001627,0.00001256,-0.000
 00275,-0.00000580,-0.00000263,0.00006146,-0.00004272,-0.00032484,0.000
 04430,-0.00021795,-0.00018482,0.00025367,-0.00001338,-0.00023462,-0.00
 008086,0.00013603,0.00003992,-0.13715762,0.12254916,0.01032779,0.14624
 693,-0.00034570,-0.00023204,-0.00008019,-0.00261942,-0.00165468,0.0035
 8843,0.00079417,-0.00032024,0.00028852,0.00005613,-0.00002757,-0.00034
 586,0.00002977,-0.00024243,0.00000069,0.00000224,0.00008045,-0.0001893
 4,0.00013222,0.00008789,0.00014441,0.00001904,-0.00002204,0.00003256,0
 .00005790,-0.00003275,-0.00000963,0.00013537,0.00003308,0.00001356,-0.
 00002565,0.00000189,0.00000013,0.01341186,-0.01842883,-0.00175860,-0.0
 0036535,0.00034553,-0.00062274,-0.00010236,-0.00005863,0.00010044,-0.0
 0001303,-0.00003289,-0.00004969,-0.00000058,0.00001641,0.00000218,-0.0
 0001805,-0.00004446,0.00000640,0.00000680,0.00001727,-0.00000103,-0.00
 003209,-0.00005583,0.00002057,0.00000652,0.00001677,0.00000965,-0.0000
 1682,-0.00004137,-0.00002979,-0.00000232,0.00001718,0.00000623,0.00045
 124,0.00062148,-0.00136722,-0.00036136,0.00022638,-0.00011456,-0.00024
 191,0.00071151,0.00063795,-0.00008990,0.00003321,0.00007322,0.12217190
 ,-0.21231567,-0.01515537,-0.13428352,0.23234852,-0.00017788,0.00030025
 ,0.00023191,0.00209715,0.00230358,-0.00258253,-0.00057129,0.00049279,0
 .00007687,-0.00005696,0.00017631,0.00029602,0.00007007,0.00022584,0.00
 000426,0.00002713,-0.00018337,0.00005438,-0.00000497,-0.00011470,-0.00
 001816,-0.00000423,0.00000740,-0.00000930,-0.00002906,0.00002053,-0.00
 002091,-0.00006618,0.00000149,0.00000807,0.00000864,-0.00000127,-0.000
 00230,-0.01429398,0.01804206,0.00030188,0.00001656,-0.00078316,0.00082
 160,0.00008517,0.00002958,-0.00012298,-0.00000114,0.00001293,0.0000209
 6,0.00000053,-0.00000543,-0.00000167,0.00000515,0.00001102,-0.00000280
 ,-0.00000135,-0.00000485,0.00000097,0.00001185,0.00003646,-0.00001756,
 0.00000421,-0.00000341,0.00000637,0.00000548,0.00000812,0.00001836,0.0
 0000171,-0.00000547,-0.00000340,-0.00093628,0.00053655,0.00127207,0.00
 014736,-0.00023381,0.00031543,0.00040854,-0.00019593,-0.00052954,-0.00
 000984,0.00000073,-0.00011852,0.01132280,-0.01600040,-0.04895581,-0.01
 370744,0.01449676,0.05045285,-0.00025208,-0.00031976,-0.00003367,0.000
 13895,0.00014568,-0.00047955,0.00012840,0.00019734,0.00000336,0.000051
 80,-0.00007807,0.00002623,-0.00012561,-0.00001539,-0.00001337,0.000003
 40,0.00022847,0.00016973,0.00014229,-0.00001610,-0.00008606,0.00000092
 ,0.00001164,-0.00001761,-0.00000131,-0.00000093,-0.00002250,0.00003359
 ,0.00000013,0.00000131,-0.00001479,-0.00000245,0.00000188,-0.00034151,
 0.00396711,0.00835680,0.00016924,0.00060347,-0.00001229,-0.00006191,-0
 .00004085,0.00000120,-0.00001122,-0.00000410,-0.00000236,-0.00000225,0
 .00000427,-0.00000273,-0.00000161,-0.00000649,0.00000069,0.00000183,0.
 00000181,0.00000156,-0.00000953,-0.00000282,-0.00000372,0.00001342,0.0
 0000081,0.00000350,-0.00000262,-0.00000868,0.00000116,-0.00000552,0.00
 000761,-0.00000256,-0.00013482,-0.00142540,0.00114061,0.00052897,0.000
 02068,0.00060473,0.00008273,-0.00028258,-0.00034425,0.00025758,0.00005
 688,0.00038909,-0.04918986,-0.00844043,-0.02106080,0.00164943,0.006737
 36,0.01859469,0.04884052,-0.00000305,0.00003877,-0.00015065,0.00008593
 ,0.00140773,0.00064005,-0.00018101,0.00019236,-0.00013600,0.00005215,-
 0.00012397,-0.00000638,-0.00007770,0.00004443,0.00002303,0.00006522,0.
 00003848,0.00001874,-0.00000068,0.00001159,0.00001713,-0.00001074,0.00
 001090,-0.00000365,-0.00000948,-0.00000414,-0.00000365,-0.00003196,-0.
 00002183,-0.00000489,0.00000446,-0.00000233,0.00000309,0.00312032,0.00
 823389,0.02173577,0.00023195,0.00091160,-0.00085106,-0.00005145,-0.000
 04918,0.00005048,0.00000456,0.00001118,0.00002123,-0.00000158,-0.00000
 460,-0.00000175,0.00000659,0.00001726,-0.00000320,-0.00000177,-0.00000
 710,-0.00000001,0.00001226,0.00001145,-0.00000368,-0.00000050,-0.00001
 014,-0.00001195,0.00000561,0.00001743,0.00000771,-0.00000195,-0.000003
 63,-0.00000277,-0.00118927,-0.00334053,0.00272490,-0.00011099,0.000726
 86,0.00138118,-0.00029934,0.00014852,0.00010192,0.00012994,-0.00013004
 ,-0.00000578,-0.00867577,-0.08566234,-0.09370978,-0.00359883,-0.009584
 53,-0.02335473,0.01059679,0.09143696,-0.00060899,0.00010425,0.00021376
 ,0.00061190,-0.00141697,0.00063833,-0.00007776,0.00039907,0.00033890,0
 .00002350,0.00015681,-0.00004147,0.00003931,0.00005912,-0.00000664,-0.
 00000407,-0.00003863,-0.00008312,0.00012472,0.00000830,0.00000568,0.00
 000472,0.00000519,0.00001564,-0.00000841,0.00001387,-0.00001516,-0.000
 01629,0.00001735,-0.00000270,0.00000522,0.00000004,-0.00000631,-0.0027
 2759,-0.00866334,-0.01947029,0.00048173,-0.00014516,0.00076788,0.00003
 502,0.00002614,-0.00007157,0.00000543,-0.00000062,-0.00001140,0.000001
 63,-0.00000174,0.00000180,-0.00000053,-0.00000281,0.00000120,-0.000003
 72,0.00000044,0.00000980,-0.00000225,0.00001798,-0.00002191,0.00000286
 ,0.00000065,0.00002075,-0.00000406,-0.00000580,0.00000557,0.00000266,0
 .00000039,0.00000291,0.00189948,0.00471232,-0.00207863,-0.00007267,-0.
 00055718,-0.00143573,0.00001128,-0.00003410,0.00035491,-0.00005313,0.0
 0002151,0.00035136,-0.02113396,-0.09182386,-0.26708592,0.00022961,-0.0
 0064263,-0.00090310,0.02177454,0.09923322,0.29202077,-0.00023858,0.000
 03188,-0.00063766,0.00009032,0.00104680,0.00045270,0.00002089,-0.00032
 225,-0.00003506,-0.00012103,0.00014361,-0.00004828,0.00018420,0.000047
 75,0.00009658,0.00032890,-0.00010300,-0.00009253,0.00026444,0.00058849
 ,0.00002503,0.00001675,0.00001839,0.00002685,0.00003314,-0.00003438,-0
 .00004205,-0.00001410,0.00000092,0.00001464,0.00001939,0.00000998,0.00
 000261,-0.00899919,-0.00309309,-0.00090727,0.00113794,-0.00111371,0.00
 152442,0.00008093,0.00007483,0.00003975,0.00001057,0.00000072,0.000000
 68,0.00000477,-0.00000385,0.00000217,-0.00000316,-0.00000023,-0.000000
 88,-0.00000223,0.00000201,-0.00000270,0.00001488,0.00000917,0.00000007
 ,-0.00000520,0.00000081,0.00000324,-0.00000316,0.00000055,0.00000168,0
 .00000643,-0.00000528,-0.00000131,0.00047534,0.00021277,-0.00054530,0.
 00033587,0.00011845,0.00009960,-0.00007863,-0.00007592,-0.00000772,0.0
 0030204,0.00015686,0.00081198,-0.27819188,-0.07010742,-0.03424332,-0.0
 1745399,-0.00549447,-0.00294645,-0.00188844,-0.00006968,-0.00054019,0.
 30367278,-0.00036347,-0.00027832,-0.00022778,-0.00099216,0.00156780,-0
 .00060020,0.00003197,-0.00068777,-0.00026840,-0.00034376,0.00033435,-0
 .00000596,0.00037547,0.00026034,0.00013116,0.00044210,-0.00037215,-0.0
 0020699,0.00056305,-0.00013018,0.00068194,0.00002919,0.00003404,0.0000
 4965,-0.00000299,-0.00003011,0.00001440,-0.00005027,-0.00001688,0.0000
 0534,0.00002703,0.00001320,0.00000549,-0.02252721,-0.00805336,-0.00285
 779,-0.00097168,-0.00273808,0.00361993,0.00016771,0.00011862,0.0000667
 2,0.00001766,0.00001576,0.00002042,0.00000345,-0.00001174,0.00000267,0
 .00000500,0.00001646,-0.00000424,-0.00000364,-0.00000462,-0.00000282,0
 .00002834,0.00003016,-0.00000345,-0.00000631,-0.00000392,-0.00000271,0
 .00000519,0.00001532,0.00001246,0.00000653,-0.00001237,-0.00000515,0.0
 0072176,0.00063363,-0.00133485,0.00021405,-0.00007869,-0.00013209,0.00
 012728,0.00003612,0.00009401,0.00033665,0.00052697,0.00045971,-0.06889
 753,-0.06724219,-0.01072705,0.02503331,0.00853640,0.00418411,-0.011936
 00,-0.00431506,-0.00144382,0.07795927,0.07183625,0.00030685,0.00019665
 ,-0.00009818,-0.00025724,-0.00099622,0.00046902,-0.00001487,0.00022639
 ,0.00023866,0.00010571,-0.00011632,0.00002425,-0.00012040,-0.00013153,
 -0.00002198,-0.00016267,0.00006863,-0.00003828,-0.00033210,0.00035675,
 -0.00011479,-0.00001761,-0.00000909,-0.00001539,0.00000284,0.00001427,
 0.00000520,0.00000198,0.00000100,-0.00002167,0.00000030,-0.00000276,-0
 .00000528,0.02287209,0.00657498,0.00216588,0.00144525,0.00350766,-0.00
 287153,-0.00004701,-0.00006236,-0.00008025,0.00000395,0.00000384,0.000
 00345,-0.00000095,0.00000168,0.00000018,-0.00000110,0.00000222,-0.0000
 0211,0.00000165,-0.00000124,0.00000180,-0.00000398,0.00000076,-0.00000
 949,-0.00000516,0.00000007,0.00000286,-0.00000050,0.00000057,-0.000001
 14,0.00000071,-0.00000176,0.00000615,0.00099279,-0.00013268,0.00196981
 ,-0.00033852,-0.00010773,0.00022176,0.00002137,-0.00003499,-0.00012355
 ,-0.00059919,-0.00014162,-0.00011668,-0.03465240,-0.01092888,-0.051842
 91,0.00283912,0.00094496,-0.00059340,-0.02898962,-0.00770851,-0.003515
 31,0.03694873,0.00847529,0.05436290\\0.00000247,-0.00000344,-0.0000030
 0,-0.00000068,-0.00001667,0.00000552,0.00000398,0.00000002,0.00000053,
 0.00000061,0.00001667,-0.00000553,0.00000156,0.00000346,0.00000354,0.0
 0000160,0.,0.00000021,0.00000173,-0.00000114,0.00000251,0.00000232,0.0
 0000116,-0.00000197,0.00000252,0.00000001,0.00000034,-0.00000580,-0.00
 000212,-0.00000195,-0.00000072,-0.00000046,0.00000284,-0.00000613,0.00
 000205,0.00000035,0.00000004,0.00000045,-0.00000293,-0.00000094,0.,-0.
 00000012,-0.00000131,-0.00000437,0.00000509,0.00000272,-0.00000077,0.0
 0000058,-0.00000200,-0.00000081,-0.00000391,0.00000040,0.00000190,-0.0
 0000046,0.00000036,-0.00000303,0.00000209,0.00000099,0.00000131,-0.000
 00168,-0.00000183,-0.00000173,0.00000002,-0.00000081,0.00000137,-0.000
 00010,0.00000086,0.00000304,-0.00000192,0.00000053,-0.00000130,0.00000
 189,-0.00000178,0.00000171,-0.00000051,-0.00000079,-0.00000138,-0.0000
 0011,0.00000002,0.00000436,-0.00000526,-0.00000297,0.00000078,0.000003
 25,0.00000029,-0.00000189,0.00000055,0.00000277,0.00000080,0.00000015\
 \\@


 IBM COMPATIBILITY IS LIKE PREGNANCY. YOU ARE OR
 OR YOU ARE NOT. -- ADAM OSBORNE
 Job cpu time:       0 days  1 hours 52 minutes 47.8 seconds.
 File lengths (MBytes):  RWF=    351 Int=      0 D2E=      0 Chk=     12 Scr=      1
 Normal termination of Gaussian 09 at Tue Apr 23 15:12:04 2024.
