 Entering Gaussian System, Link 0=g09
 Initial command:
 /cm/shared/apps/gaussian/g09revD.01/g09/l1.exe "//home/sweav003/CHB/validation/G09-Traceless8_Smith.com.o9822906.tmp/Gau-109409.inp" -scrdir="//home/sweav003/CHB/validation/G09-Traceless8_Smith.com.o9822906.tmp/"
 Entering Link 1 = /cm/shared/apps/gaussian/g09revD.01/g09/l1.exe PID=    109410.
  
 Copyright (c) 1988,1990,1992,1993,1995,1998,2003,2009,2013,
            Gaussian, Inc.  All Rights Reserved.
  
 This is part of the Gaussian(R) 09 program.  It is based on
 the Gaussian(R) 03 system (copyright 2003, Gaussian, Inc.),
 the Gaussian(R) 98 system (copyright 1998, Gaussian, Inc.),
 the Gaussian(R) 94 system (copyright 1995, Gaussian, Inc.),
 the Gaussian 92(TM) system (copyright 1992, Gaussian, Inc.),
 the Gaussian 90(TM) system (copyright 1990, Gaussian, Inc.),
 the Gaussian 88(TM) system (copyright 1988, Gaussian, Inc.),
 the Gaussian 86(TM) system (copyright 1986, Carnegie Mellon
 University), and the Gaussian 82(TM) system (copyright 1983,
 Carnegie Mellon University). Gaussian is a federally registered
 trademark of Gaussian, Inc.
  
 This software contains proprietary and confidential information,
 including trade secrets, belonging to Gaussian, Inc.
  
 This software is provided under written license and may be
 used, copied, transmitted, or stored only in accord with that
 written license.
  
 The following legend is applicable only to US Government
 contracts under FAR:
  
                    RESTRICTED RIGHTS LEGEND
  
 Use, reproduction and disclosure by the US Government is
 subject to restrictions as set forth in subparagraphs (a)
 and (c) of the Commercial Computer Software - Restricted
 Rights clause in FAR 52.227-19.
  
 Gaussian, Inc.
 340 Quinnipiac St., Bldg. 40, Wallingford CT 06492
  
  
 ---------------------------------------------------------------
 Warning -- This program may not be used in any manner that
 competes with the business of Gaussian, Inc. or will provide
 assistance to any competitor of Gaussian, Inc.  The licensee
 of this program is prohibited from giving any competitor of
 Gaussian, Inc. access to this program.  By using this program,
 the user acknowledges that Gaussian, Inc. is engaged in the
 business of creating and licensing software in the field of
 computational chemistry and represents and warrants to the
 licensee that it is not a competitor of Gaussian, Inc. and that
 it will not use this program in any manner prohibited above.
 ---------------------------------------------------------------
  

 Cite this work as:
 Gaussian 09, Revision D.01,
 M. J. Frisch, G. W. Trucks, H. B. Schlegel, G. E. Scuseria, 
 M. A. Robb, J. R. Cheeseman, G. Scalmani, V. Barone, B. Mennucci, 
 G. A. Petersson, H. Nakatsuji, M. Caricato, X. Li, H. P. Hratchian, 
 A. F. Izmaylov, J. Bloino, G. Zheng, J. L. Sonnenberg, M. Hada, 
 M. Ehara, K. Toyota, R. Fukuda, J. Hasegawa, M. Ishida, T. Nakajima, 
 Y. Honda, O. Kitao, H. Nakai, T. Vreven, J. A. Montgomery, Jr., 
 J. E. Peralta, F. Ogliaro, M. Bearpark, J. J. Heyd, E. Brothers, 
 K. N. Kudin, V. N. Staroverov, T. Keith, R. Kobayashi, J. Normand, 
 K. Raghavachari, A. Rendell, J. C. Burant, S. S. Iyengar, J. Tomasi, 
 M. Cossi, N. Rega, J. M. Millam, M. Klene, J. E. Knox, J. B. Cross, 
 V. Bakken, C. Adamo, J. Jaramillo, R. Gomperts, R. E. Stratmann, 
 O. Yazyev, A. J. Austin, R. Cammi, C. Pomelli, J. W. Ochterski, 
 R. L. Martin, K. Morokuma, V. G. Zakrzewski, G. A. Voth, 
 P. Salvador, J. J. Dannenberg, S. Dapprich, A. D. Daniels, 
 O. Farkas, J. B. Foresman, J. V. Ortiz, J. Cioslowski, 
 and D. J. Fox, Gaussian, Inc., Wallingford CT, 2013.
 
 ******************************************
 Gaussian 09:  ES64L-G09RevD.01 24-Apr-2013
                 9-Jan-2023 
 ******************************************
 %nprocshared=20
 Will use up to   20 processors via shared memory.
 %mem=4GB
 %chk=Traceless8_Smith.chk
 ----------------------------------------------------------------------
 # opt freq b3lyp/6-311+g(d,p) geom=connectivity pop=(hirshfeld,chelpg,
 mbs,npa)
 ----------------------------------------------------------------------
 1/14=-1,18=20,19=15,26=3,38=1,57=2/1,3;
 2/9=110,12=2,17=6,18=5,40=1/2;
 3/5=4,6=6,7=111,11=2,16=1,25=1,30=1,71=1,74=-5/1,2,3;
 4//1;
 5/5=2,38=5/2;
 6/7=2,8=2,9=2,10=2,15=8,20=3,27=100,28=1,40=-1,79=1/1,2,7;
 7//1,2,3,16;
 1/14=-1,18=20,19=15,26=3/3(2);
 2/9=110/2;
 99//99;
 2/9=110/2;
 3/5=4,6=6,7=111,11=2,16=1,25=1,30=1,71=1,74=-5/1,2,3;
 4/5=5,16=3,69=1/1;
 5/5=2,38=5/2;
 7//1,2,3,16;
 1/14=-1,18=20,19=15,26=3/3(-5);
 2/9=110/2;
 6/7=2,8=2,9=2,10=2,15=8,19=2,20=3,27=100,28=1,40=-1,79=1/1,2,7;
 99/9=1/99;
 -------------------
 Title Card Required
 -------------------
 Symbolic Z-matrix:
 Charge =  0 Multiplicity = 1
 C                    -1.92113   0.35921  -0.46242 
 C                    -0.73156  -0.36976  -0.46242 
 C                     0.49423   0.29556  -0.46242 
 C                     0.53083   1.6905   -0.46362 
 C                    -0.65849   2.41923  -0.4641 
 C                    -1.88458   1.75356  -0.4631 
 H                     1.43191  -0.27896  -0.46179 
 H                     1.49745   2.21486  -0.46368 
 H                    -2.82205   2.32826  -0.46328 
 N                    -0.62039   3.88874  -0.46537 
 H                    -0.1422    4.21049   0.35182 
 H                    -0.13881   4.20899  -1.28117 
 H                    -0.75965  -1.43939  -0.46242 
 O                    -3.17785  -0.32311  -0.46172 
 C                    -3.40604  -0.90192   0.82584 
 H                    -4.43112  -1.19768   0.90733 
 H                    -2.77681  -1.75864   0.94835 
 H                    -3.18093  -0.18253   1.58525 
 

 GradGradGradGradGradGradGradGradGradGradGradGradGradGradGradGradGradGrad
 Berny optimization.
 Initialization pass.
                           ----------------------------
                           !    Initial Parameters    !
                           ! (Angstroms and Degrees)  !
 --------------------------                            --------------------------
 ! Name  Definition              Value          Derivative Info.                !
 --------------------------------------------------------------------------------
 ! R1    R(1,2)                  1.3952         estimate D2E/DX2                !
 ! R2    R(1,6)                  1.3948         estimate D2E/DX2                !
 ! R3    R(1,14)                 1.43           estimate D2E/DX2                !
 ! R4    R(2,3)                  1.3947         estimate D2E/DX2                !
 ! R5    R(2,13)                 1.07           estimate D2E/DX2                !
 ! R6    R(3,4)                  1.3954         estimate D2E/DX2                !
 ! R7    R(3,7)                  1.0997         estimate D2E/DX2                !
 ! R8    R(4,5)                  1.3948         estimate D2E/DX2                !
 ! R9    R(4,8)                  1.0997         estimate D2E/DX2                !
 ! R10   R(5,6)                  1.3951         estimate D2E/DX2                !
 ! R11   R(5,10)                 1.47           estimate D2E/DX2                !
 ! R12   R(6,9)                  1.0996         estimate D2E/DX2                !
 ! R13   R(10,11)                1.0            estimate D2E/DX2                !
 ! R14   R(10,12)                1.0            estimate D2E/DX2                !
 ! R15   R(14,15)                1.43           estimate D2E/DX2                !
 ! R16   R(15,16)                1.07           estimate D2E/DX2                !
 ! R17   R(15,17)                1.07           estimate D2E/DX2                !
 ! R18   R(15,18)                1.07           estimate D2E/DX2                !
 ! A1    A(2,1,6)              119.9985         estimate D2E/DX2                !
 ! A2    A(2,1,14)             120.0008         estimate D2E/DX2                !
 ! A3    A(6,1,14)             120.0008         estimate D2E/DX2                !
 ! A4    A(1,2,3)              120.0086         estimate D2E/DX2                !
 ! A5    A(1,2,13)             119.9957         estimate D2E/DX2                !
 ! A6    A(3,2,13)             119.9957         estimate D2E/DX2                !
 ! A7    A(2,3,4)              119.9942         estimate D2E/DX2                !
 ! A8    A(2,3,7)              120.0128         estimate D2E/DX2                !
 ! A9    A(4,3,7)              119.993          estimate D2E/DX2                !
 ! A10   A(3,4,5)              119.994          estimate D2E/DX2                !
 ! A11   A(3,4,8)              119.9811         estimate D2E/DX2                !
 ! A12   A(5,4,8)              120.0249         estimate D2E/DX2                !
 ! A13   A(4,5,6)              120.0047         estimate D2E/DX2                !
 ! A14   A(4,5,10)             120.0113         estimate D2E/DX2                !
 ! A15   A(6,5,10)             119.984          estimate D2E/DX2                !
 ! A16   A(1,6,5)              120.0            estimate D2E/DX2                !
 ! A17   A(1,6,9)              120.008          estimate D2E/DX2                !
 ! A18   A(5,6,9)              119.992          estimate D2E/DX2                !
 ! A19   A(5,10,11)            109.4712         estimate D2E/DX2                !
 ! A20   A(5,10,12)            109.4712         estimate D2E/DX2                !
 ! A21   A(11,10,12)           109.4713         estimate D2E/DX2                !
 ! A22   A(1,14,15)            109.5            estimate D2E/DX2                !
 ! A23   A(14,15,16)           109.4712         estimate D2E/DX2                !
 ! A24   A(14,15,17)           109.4712         estimate D2E/DX2                !
 ! A25   A(14,15,18)           109.4712         estimate D2E/DX2                !
 ! A26   A(16,15,17)           109.4712         estimate D2E/DX2                !
 ! A27   A(16,15,18)           109.4712         estimate D2E/DX2                !
 ! A28   A(17,15,18)           109.4712         estimate D2E/DX2                !
 ! D1    D(6,1,2,3)              0.0323         estimate D2E/DX2                !
 ! D2    D(6,1,2,13)          -179.9677         estimate D2E/DX2                !
 ! D3    D(14,1,2,3)          -179.9677         estimate D2E/DX2                !
 ! D4    D(14,1,2,13)            0.0323         estimate D2E/DX2                !
 ! D5    D(2,1,6,5)              0.0149         estimate D2E/DX2                !
 ! D6    D(2,1,6,9)            179.9892         estimate D2E/DX2                !
 ! D7    D(14,1,6,5)          -179.9851         estimate D2E/DX2                !
 ! D8    D(14,1,6,9)            -0.0108         estimate D2E/DX2                !
 ! D9    D(2,1,14,15)           72.7311         estimate D2E/DX2                !
 ! D10   D(6,1,14,15)         -107.2689         estimate D2E/DX2                !
 ! D11   D(1,2,3,4)             -0.0568         estimate D2E/DX2                !
 ! D12   D(1,2,3,7)            179.9619         estimate D2E/DX2                !
 ! D13   D(13,2,3,4)           179.9432         estimate D2E/DX2                !
 ! D14   D(13,2,3,7)            -0.0381         estimate D2E/DX2                !
 ! D15   D(2,3,4,5)              0.0341         estimate D2E/DX2                !
 ! D16   D(2,3,4,8)           -179.9964         estimate D2E/DX2                !
 ! D17   D(7,3,4,5)           -179.9846         estimate D2E/DX2                !
 ! D18   D(7,3,4,8)             -0.0151         estimate D2E/DX2                !
 ! D19   D(3,4,5,6)              0.0131         estimate D2E/DX2                !
 ! D20   D(3,4,5,10)          -179.9995         estimate D2E/DX2                !
 ! D21   D(8,4,5,6)           -179.9563         estimate D2E/DX2                !
 ! D22   D(8,4,5,10)             0.0311         estimate D2E/DX2                !
 ! D23   D(4,5,6,1)             -0.0376         estimate D2E/DX2                !
 ! D24   D(4,5,6,9)            179.9881         estimate D2E/DX2                !
 ! D25   D(10,5,6,1)           179.975          estimate D2E/DX2                !
 ! D26   D(10,5,6,9)             0.0007         estimate D2E/DX2                !
 ! D27   D(4,5,10,11)          -60.1262         estimate D2E/DX2                !
 ! D28   D(4,5,10,12)           59.8738         estimate D2E/DX2                !
 ! D29   D(6,5,10,11)          119.8611         estimate D2E/DX2                !
 ! D30   D(6,5,10,12)         -120.1389         estimate D2E/DX2                !
 ! D31   D(1,14,15,16)         166.0677         estimate D2E/DX2                !
 ! D32   D(1,14,15,17)         -73.9323         estimate D2E/DX2                !
 ! D33   D(1,14,15,18)          46.0677         estimate D2E/DX2                !
 --------------------------------------------------------------------------------
 Trust Radius=3.00D-01 FncErr=1.00D-07 GrdErr=1.00D-06
 Number of steps in this run=     89 maximum allowed number of steps=    108.
 GradGradGradGradGradGradGradGradGradGradGradGradGradGradGradGradGradGrad

                          Input orientation:                          
 ---------------------------------------------------------------------
 Center     Atomic      Atomic             Coordinates (Angstroms)
 Number     Number       Type             X           Y           Z
 ---------------------------------------------------------------------
      1          6           0       -1.921133    0.359212   -0.462423
      2          6           0       -0.731564   -0.369757   -0.462423
      3          6           0        0.494234    0.295557   -0.462423
      4          6           0        0.530830    1.690504   -0.463622
      5          6           0       -0.658495    2.419231   -0.464101
      6          6           0       -1.884583    1.753562   -0.463105
      7          1           0        1.431907   -0.278956   -0.461789
      8          1           0        1.497446    2.214860   -0.463681
      9          1           0       -2.822054    2.328259   -0.463285
     10          7           0       -0.620388    3.888737   -0.465375
     11          1           0       -0.142197    4.210490    0.351821
     12          1           0       -0.138806    4.208986   -1.281168
     13          1           0       -0.759653   -1.439388   -0.462423
     14          8           0       -3.177851   -0.323108   -0.461724
     15          6           0       -3.406039   -0.901918    0.825836
     16          1           0       -4.431115   -1.197682    0.907333
     17          1           0       -2.776813   -1.758636    0.948345
     18          1           0       -3.180930   -0.182530    1.585249
 ---------------------------------------------------------------------
                    Distance matrix (angstroms):
                    1          2          3          4          5
     1  C    0.000000
     2  C    1.395160   0.000000
     3  C    2.416205   1.394712   0.000000
     4  C    2.790065   2.416260   1.395427   0.000000
     5  C    2.416183   2.789946   2.416356   1.394825   0.000000
     6  C    1.394829   2.416183   2.790080   2.416236   1.395138
     7  H    3.413229   2.165375   1.099680   2.165806   3.413209
     8  H    3.889745   3.413024   2.165678   1.099680   2.165606
     9  H    2.165365   3.413128   3.889684   3.412999   2.165471
    10  N    3.761581   4.259946   3.762091   2.481438   1.470000
    11  H    4.319716   4.689244   4.049041   2.732808   2.034920
    12  H    4.320625   4.688987   4.047964   2.731218   2.034920
    13  H    2.141027   1.070000   2.140623   3.385495   3.859946
    14  O    1.430000   2.446732   3.723835   4.220065   3.723921
    15  C    2.335595   3.015895   4.278514   4.886950   4.499218
    16  H    3.255788   4.030927   5.325885   5.902714   5.403291
    17  H    2.684723   2.846453   4.112143   4.983043   4.892530
    18  H    2.464453   3.198032   4.234188   4.635007   4.163133
                    6          7          8          9         10
     6  C    0.000000
     7  H    3.889760   0.000000
     8  H    3.413344   2.494678   0.000000
     9  H    1.099604   4.989364   4.320988   0.000000
    10  N    2.481364   4.645598   2.699460   2.698598   0.000000
    11  H    3.120338   4.826477   2.708507   3.374733   1.000000
    12  H    3.121870   4.824951   2.705946   3.377260   1.000000
    13  H    3.385321   2.479827   4.295117   4.295191   5.329946
    14  O    2.446446   4.609969   5.319745   2.675134   4.927501
    15  C    3.320808   5.044975   5.951581   3.526601   5.690118
    16  H    4.131920   6.090450   6.976601   4.110952   6.502124
    17  H    3.888933   4.678809   6.004314   4.324056   6.208188
    18  H    3.102373   5.047566   5.642056   3.260268   5.228446
                   11         12         13         14         15
    11  H    0.000000
    12  H    1.632993   0.000000
    13  H    5.741548   5.741074   0.000000
    14  O    5.516390   5.517895   2.663411   0.000000
    15  C    6.083919   6.421496   2.991963   1.430000   0.000000
    16  H    6.924719   7.241927   3.926103   2.051796   1.070000
    17  H    6.551909   6.895095   2.482160   2.051796   1.070000
    18  H    5.482141   6.062696   3.411045   2.051796   1.070000
                   16         17         18
    16  H    0.000000
    17  H    1.747303   0.000000
    18  H    1.747303   1.747303   0.000000
 Stoichiometry    C7H9NO
 Framework group  C1[X(C7H9NO)]
 Deg. of freedom    48
 Full point group                 C1      NOp   1
 Largest Abelian subgroup         C1      NOp   1
 Largest concise Abelian subgroup C1      NOp   1
                         Standard orientation:                         
 ---------------------------------------------------------------------
 Center     Atomic      Atomic             Coordinates (Angstroms)
 Number     Number       Type             X           Y           Z
 ---------------------------------------------------------------------
      1          6           0        0.821442   -0.057982   -0.326274
      2          6           0        0.634094    1.317867   -0.190593
      3          6           0       -0.641652    1.827797    0.049547
      4          6           0       -1.730973    0.961824    0.152930
      5          6           0       -1.543668   -0.413647    0.016798
      6          6           0       -0.267314   -0.923647   -0.222432
      7          1           0       -0.789301    2.912196    0.157129
      8          1           0       -2.736768    1.364122    0.342217
      9          1           0       -0.119862   -2.008045   -0.329521
     10          7           0       -2.690935   -1.326245    0.125626
     11          1           0       -3.109480   -1.229317    1.028635
     12          1           0       -3.363598   -1.101613   -0.579403
     13          1           0        1.469250    1.981935   -0.270775
     14          8           0        2.129647   -0.580685   -0.571799
     15          6           0        2.914478   -0.481918    0.619497
     16          1           0        3.794762   -1.081567    0.517410
     17          1           0        3.194479    0.538472    0.778566
     18          1           0        2.341443   -0.828757    1.453904
 ---------------------------------------------------------------------
 Rotational constants (GHZ):      3.2026069      1.1530183      0.8999346
 Standard basis: 6-311+G(d,p) (5D, 7F)
 There are   261 symmetry adapted cartesian basis functions of A   symmetry.
 There are   252 symmetry adapted basis functions of A   symmetry.
   252 basis functions,   396 primitive gaussians,   261 cartesian basis functions
    33 alpha electrons       33 beta electrons
       nuclear repulsion energy       423.7636820651 Hartrees.
 NAtoms=   18 NActive=   18 NUniq=   18 SFac= 1.00D+00 NAtFMM=   60 NAOKFM=F Big=F
 Integral buffers will be    131072 words long.
 Raffenetti 2 integral format.
 Two-electron integral symmetry is turned on.
 One-electron integrals computed using PRISM.
 NBasis=   252 RedAO= T EigKep=  2.97D-06  NBF=   252
 NBsUse=   252 1.00D-06 EigRej= -1.00D+00 NBFU=   252
 ExpMin= 4.38D-02 ExpMax= 8.59D+03 ExpMxC= 1.30D+03 IAcc=2 IRadAn=         4 AccDes= 0.00D+00
 Harris functional with IExCor=  402 and IRadAn=       4 diagonalized for initial guess.
 HarFok:  IExCor=  402 AccDes= 0.00D+00 IRadAn=         4 IDoV= 1 UseB2=F ITyADJ=14
 ICtDFT=  3500011 ScaDFX=  1.000000  1.000000  1.000000  1.000000
 FoFCou: FMM=F IPFlag=           0 FMFlag=      100000 FMFlg1=           0
         NFxFlg=           0 DoJE=T BraDBF=F KetDBF=T FulRan=T
         wScrn=  0.000000 ICntrl=     500 IOpCl=  0 I1Cent=   200000004 NGrid=           0
         NMat0=    1 NMatS0=      1 NMatT0=    0 NMatD0=    1 NMtDS0=    0 NMtDT0=    0
 Petite list used in FoFCou.
 Keep R1 ints in memory in canonical form, NReq=517341691.
 Requested convergence on RMS density matrix=1.00D-08 within 128 cycles.
 Requested convergence on MAX density matrix=1.00D-06.
 Requested convergence on             energy=1.00D-06.
 No special actions if energy rises.
 SCF Done:  E(RB3LYP) =  -402.224000754     A.U. after   14 cycles
            NFock= 14  Conv=0.44D-08     -V/T= 2.0043

 **********************************************************************

            Population analysis using the SCF density.

 **********************************************************************

 Orbital symmetries:
       Occupied  (A) (A) (A) (A) (A) (A) (A) (A) (A) (A) (A) (A)
                 (A) (A) (A) (A) (A) (A) (A) (A) (A) (A) (A) (A)
                 (A) (A) (A) (A) (A) (A) (A) (A) (A)
       Virtual   (A) (A) (A) (A) (A) (A) (A) (A) (A) (A) (A) (A)
                 (A) (A) (A) (A) (A) (A) (A) (A) (A) (A) (A) (A)
                 (A) (A) (A) (A) (A) (A) (A) (A) (A) (A) (A) (A)
                 (A) (A) (A) (A) (A) (A) (A) (A) (A) (A) (A) (A)
                 (A) (A) (A) (A) (A) (A) (A) (A) (A) (A) (A) (A)
                 (A) (A) (A) (A) (A) (A) (A) (A) (A) (A) (A) (A)
                 (A) (A) (A) (A) (A) (A) (A) (A) (A) (A) (A) (A)
                 (A) (A) (A) (A) (A) (A) (A) (A) (A) (A) (A) (A)
                 (A) (A) (A) (A) (A) (A) (A) (A) (A) (A) (A) (A)
                 (A) (A) (A) (A) (A) (A) (A) (A) (A) (A) (A) (A)
                 (A) (A) (A) (A) (A) (A) (A) (A) (A) (A) (A) (A)
                 (A) (A) (A) (A) (A) (A) (A) (A) (A) (A) (A) (A)
                 (A) (A) (A) (A) (A) (A) (A) (A) (A) (A) (A) (A)
                 (A) (A) (A) (A) (A) (A) (A) (A) (A) (A) (A) (A)
                 (A) (A) (A) (A) (A) (A) (A) (A) (A) (A) (A) (A)
                 (A) (A) (A) (A) (A) (A) (A) (A) (A) (A) (A) (A)
                 (A) (A) (A) (A) (A) (A) (A) (A) (A) (A) (A) (A)
                 (A) (A) (A) (A) (A) (A) (A) (A) (A) (A) (A) (A)
                 (A) (A) (A)
 The electronic state is 1-A.
 Alpha  occ. eigenvalues --  -19.14014 -14.30512 -10.23617 -10.21646 -10.21178
 Alpha  occ. eigenvalues --  -10.18767 -10.18053 -10.17990 -10.17944  -1.04373
 Alpha  occ. eigenvalues --   -0.90756  -0.84659  -0.75700  -0.73914  -0.69404
 Alpha  occ. eigenvalues --   -0.61314  -0.60019  -0.53036  -0.50144  -0.49073
 Alpha  occ. eigenvalues --   -0.48613  -0.46266  -0.45762  -0.44179  -0.43122
 Alpha  occ. eigenvalues --   -0.38538  -0.37474  -0.37057  -0.34521  -0.28443
 Alpha  occ. eigenvalues --   -0.26361  -0.26236  -0.25085
 Alpha virt. eigenvalues --   -0.02020  -0.01988  -0.00271   0.00958   0.01830
 Alpha virt. eigenvalues --    0.03547   0.03845   0.04243   0.05241   0.05684
 Alpha virt. eigenvalues --    0.06498   0.07585   0.08595   0.09143   0.09905
 Alpha virt. eigenvalues --    0.11228   0.11332   0.12116   0.12874   0.13265
 Alpha virt. eigenvalues --    0.13897   0.14392   0.15535   0.15784   0.16086
 Alpha virt. eigenvalues --    0.16414   0.16974   0.17675   0.18990   0.19189
 Alpha virt. eigenvalues --    0.19514   0.20212   0.20354   0.20937   0.21753
 Alpha virt. eigenvalues --    0.22575   0.22623   0.23386   0.23601   0.23710
 Alpha virt. eigenvalues --    0.25097   0.25333   0.26772   0.27640   0.28524
 Alpha virt. eigenvalues --    0.29500   0.30348   0.31030   0.33464   0.34128
 Alpha virt. eigenvalues --    0.34864   0.36651   0.37111   0.38054   0.40813
 Alpha virt. eigenvalues --    0.44426   0.46728   0.47411   0.49210   0.51853
 Alpha virt. eigenvalues --    0.52332   0.54081   0.54913   0.55409   0.55793
 Alpha virt. eigenvalues --    0.57443   0.58383   0.59712   0.60264   0.61340
 Alpha virt. eigenvalues --    0.62161   0.64186   0.66147   0.66790   0.68441
 Alpha virt. eigenvalues --    0.69717   0.70298   0.71654   0.72570   0.74965
 Alpha virt. eigenvalues --    0.75985   0.78115   0.80805   0.81719   0.82479
 Alpha virt. eigenvalues --    0.83305   0.83928   0.86554   0.88709   0.89814
 Alpha virt. eigenvalues --    0.91286   0.92332   0.93131   0.95614   1.00589
 Alpha virt. eigenvalues --    1.01283   1.02434   1.04236   1.05344   1.07350
 Alpha virt. eigenvalues --    1.09313   1.11750   1.15769   1.19182   1.22324
 Alpha virt. eigenvalues --    1.28351   1.28792   1.31679   1.36026   1.38564
 Alpha virt. eigenvalues --    1.42934   1.44983   1.47175   1.50418   1.51602
 Alpha virt. eigenvalues --    1.54064   1.54874   1.55979   1.56992   1.58286
 Alpha virt. eigenvalues --    1.59082   1.61292   1.65429   1.65865   1.66340
 Alpha virt. eigenvalues --    1.67395   1.69950   1.73366   1.74728   1.76164
 Alpha virt. eigenvalues --    1.77277   1.80030   1.84768   1.88974   1.90021
 Alpha virt. eigenvalues --    1.90449   1.92309   1.93607   1.96285   1.99126
 Alpha virt. eigenvalues --    1.99964   2.00324   2.02043   2.03173   2.04629
 Alpha virt. eigenvalues --    2.07618   2.14263   2.16551   2.18423   2.22539
 Alpha virt. eigenvalues --    2.24859   2.31526   2.36609   2.37838   2.43014
 Alpha virt. eigenvalues --    2.44758   2.46062   2.52474   2.53697   2.54990
 Alpha virt. eigenvalues --    2.56304   2.56693   2.57549   2.60974   2.62919
 Alpha virt. eigenvalues --    2.68179   2.69576   2.70832   2.71300   2.74915
 Alpha virt. eigenvalues --    2.75456   2.77720   2.79499   2.81530   2.83477
 Alpha virt. eigenvalues --    2.83778   2.86375   2.88469   2.89565   2.91884
 Alpha virt. eigenvalues --    3.00767   3.03544   3.06971   3.09193   3.11152
 Alpha virt. eigenvalues --    3.12161   3.16765   3.26398   3.28955   3.35123
 Alpha virt. eigenvalues --    3.36441   3.41314   3.48776   3.60012   3.62681
 Alpha virt. eigenvalues --    3.80436   3.84677   3.85889   3.99075   4.03919
 Alpha virt. eigenvalues --    4.10239   4.12529   4.15653   4.16806   4.76915
 Alpha virt. eigenvalues --    4.83913   4.88615   5.14279   5.38370   5.68150
 Alpha virt. eigenvalues --   23.52789  23.90779  23.93418  23.96455  24.06321
 Alpha virt. eigenvalues --   24.07629  24.17744  35.63065  49.93503
          Condensed to atoms (all electrons):
               1          2          3          4          5          6
     1  C    8.192147   0.228631   0.240109  -0.586409   0.052255  -2.481535
     2  C    0.228631   7.972196  -0.478944   0.202830   0.037644  -2.016592
     3  C    0.240109  -0.478944   5.643656   0.044656   0.131538   0.235707
     4  C   -0.586409   0.202830   0.044656   6.318199   0.435306  -0.396870
     5  C    0.052255   0.037644   0.131538   0.435306   7.168439  -1.838922
     6  C   -2.481535  -2.016592   0.235707  -0.396870  -1.838922  12.226629
     7  H    0.013916  -0.011527   0.379038  -0.031919   0.010578  -0.012323
     8  H    0.018372  -0.003226   0.048748   0.414080  -0.042766  -0.070015
     9  H   -0.014627  -0.015800   0.001962  -0.008515   0.020162   0.383489
    10  N    0.058211  -0.042414  -0.050643  -0.337088   0.329195   0.060275
    11  H   -0.004012   0.002061  -0.008564   0.009560  -0.029467  -0.001877
    12  H    0.005401  -0.003418  -0.006418  -0.005052  -0.026679   0.004846
    13  H   -0.015967   0.392332   0.029904  -0.013955   0.019942  -0.054300
    14  O    0.706255  -0.288128   0.039270   0.012613   0.017453  -0.338269
    15  C   -0.307332   0.018542  -0.020835   0.039684  -0.057279   0.175997
    16  H    0.002972   0.005029   0.000302   0.001094  -0.003210   0.008686
    17  H    0.043317   0.031294  -0.009659  -0.005216   0.006563  -0.066353
    18  H   -0.097723  -0.024744   0.007504   0.008630   0.000174   0.098742
               7          8          9         10         11         12
     1  C    0.013916   0.018372  -0.014627   0.058211  -0.004012   0.005401
     2  C   -0.011527  -0.003226  -0.015800  -0.042414   0.002061  -0.003418
     3  C    0.379038   0.048748   0.001962  -0.050643  -0.008564  -0.006418
     4  C   -0.031919   0.414080  -0.008515  -0.337088   0.009560  -0.005052
     5  C    0.010578  -0.042766   0.020162   0.329195  -0.029467  -0.026679
     6  C   -0.012323  -0.070015   0.383489   0.060275  -0.001877   0.004846
     7  H    0.539560  -0.007225   0.000053  -0.001845   0.000030   0.000035
     8  H   -0.007225   0.545281  -0.000120  -0.029508   0.000996   0.001131
     9  H    0.000053  -0.000120   0.504018  -0.005948   0.000412   0.000371
    10  N   -0.001845  -0.029508  -0.005948   6.630244   0.399012   0.400625
    11  H    0.000030   0.000996   0.000412   0.399012   0.453715  -0.055032
    12  H    0.000035   0.001131   0.000371   0.400625  -0.055032   0.450444
    13  H   -0.007679  -0.000258  -0.000107   0.000340  -0.000006  -0.000006
    14  O   -0.000608   0.000120  -0.004598  -0.001068   0.000066   0.000046
    15  C    0.000152  -0.000102  -0.000746   0.001408   0.000191  -0.000101
    16  H   -0.000003   0.000000  -0.000221  -0.000003   0.000000   0.000000
    17  H    0.000060   0.000000   0.000028  -0.000051   0.000000   0.000000
    18  H   -0.000005  -0.000002   0.000510   0.000028   0.000001   0.000000
              13         14         15         16         17         18
     1  C   -0.015967   0.706255  -0.307332   0.002972   0.043317  -0.097723
     2  C    0.392332  -0.288128   0.018542   0.005029   0.031294  -0.024744
     3  C    0.029904   0.039270  -0.020835   0.000302  -0.009659   0.007504
     4  C   -0.013955   0.012613   0.039684   0.001094  -0.005216   0.008630
     5  C    0.019942   0.017453  -0.057279  -0.003210   0.006563   0.000174
     6  C   -0.054300  -0.338269   0.175997   0.008686  -0.066353   0.098742
     7  H   -0.007679  -0.000608   0.000152  -0.000003   0.000060  -0.000005
     8  H   -0.000258   0.000120  -0.000102   0.000000   0.000000  -0.000002
     9  H   -0.000107  -0.004598  -0.000746  -0.000221   0.000028   0.000510
    10  N    0.000340  -0.001068   0.001408  -0.000003  -0.000051   0.000028
    11  H   -0.000006   0.000066   0.000191   0.000000   0.000000   0.000001
    12  H   -0.000006   0.000046  -0.000101   0.000000   0.000000   0.000000
    13  H    0.532732  -0.007043   0.000103  -0.000244   0.001204   0.000395
    14  O   -0.007043   8.031541   0.169086  -0.050446  -0.047931  -0.049954
    15  C    0.000103   0.169086   4.995961   0.411587   0.414248   0.419806
    16  H   -0.000244  -0.050446   0.411587   0.536556  -0.032820  -0.025706
    17  H    0.001204  -0.047931   0.414248  -0.032820   0.588125  -0.052228
    18  H    0.000395  -0.049954   0.419806  -0.025706  -0.052228   0.577142
 Mulliken charges:
               1
     1  C   -0.053980
     2  C   -0.005767
     3  C   -0.227332
     4  C   -0.101629
     5  C   -0.230925
     6  C    0.082685
     7  H    0.129713
     8  H    0.124494
     9  H    0.139678
    10  N   -0.410770
    11  H    0.232915
    12  H    0.233805
    13  H    0.122613
    14  O   -0.188405
    15  C   -0.260370
    16  H    0.146426
    17  H    0.129420
    18  H    0.137429
 Sum of Mulliken charges =   0.00000
 Mulliken charges with hydrogens summed into heavy atoms:
               1
     1  C   -0.053980
     2  C    0.116846
     3  C   -0.097619
     4  C    0.022866
     5  C   -0.230925
     6  C    0.222362
    10  N    0.055950
    14  O   -0.188405
    15  C    0.152905
 Electronic spatial extent (au):  <R**2>=           1307.6549
 Charge=              0.0000 electrons
 Dipole moment (field-independent basis, Debye):
    X=             -0.7906    Y=              1.6420    Z=              1.7049  Tot=              2.4956
 Quadrupole moment (field-independent basis, Debye-Ang):
   XX=            -44.9599   YY=            -54.6522   ZZ=            -56.2541
   XY=             -1.4038   XZ=              2.8739   YZ=             -1.0624
 Traceless Quadrupole moment (field-independent basis, Debye-Ang):
   XX=              6.9955   YY=             -2.6968   ZZ=             -4.2987
   XY=             -1.4038   XZ=              2.8739   YZ=             -1.0624
 Octapole moment (field-independent basis, Debye-Ang**2):
  XXX=            -10.5242  YYY=             12.7520  ZZZ=              1.6734  XYY=             11.1739
  XXY=              1.8485  XXZ=             12.4474  XZZ=             -4.0983  YZZ=             -5.9572
  YYZ=              1.1560  XYZ=             -2.8493
 Hexadecapole moment (field-independent basis, Debye-Ang**3):
 XXXX=          -1012.6574 YYYY=           -454.4217 ZZZZ=           -113.4899 XXXY=             -2.9846
 XXXZ=             17.1596 YYYX=            -29.7726 YYYZ=              3.1785 ZZZX=             -4.1049
 ZZZY=             -3.0255 XXYY=           -284.2513 XXZZ=           -208.1918 YYZZ=           -100.8189
 XXYZ=             -8.1415 YYXZ=             -3.2962 ZZXY=              9.0309
 N-N= 4.237636820651D+02 E-N=-1.784625322070D+03  KE= 4.005182388697D+02
 There are a total of      148116 grid points.
 ElSum from          density=       66.0000172145
 ElSum from atomic densities=       66.0001299272

 Hirshfeld populations at iteration   1 (CX, CA, CB, DipXYZ):
               1          2          3          4          5          6
     1  C    0.000000   2.963998   2.963998   0.135598  -0.054735  -0.023313
     2  C    0.000000   3.029419   3.029419   0.045149   0.039547  -0.006301
     3  C    0.000000   3.022984   3.022984  -0.004346   0.063842   0.001961
     4  C    0.000000   3.032877   3.032877  -0.050147   0.019288   0.006841
     5  C    0.000000   2.976959   2.976959  -0.084916  -0.068190   0.005143
     6  C    0.000000   3.027381   3.027381   0.004623  -0.047080  -0.010935
     7  H    0.000002   0.474834   0.474834  -0.021123   0.157977   0.015105
     8  H    0.000001   0.478257   0.478257  -0.136599   0.066334   0.026176
     9  H    0.000001   0.472164   0.472164   0.029763  -0.153789  -0.016821
    10  N    0.000000   3.618557   3.618557  -0.033589   0.198457   0.019947
    11  H    0.000001   0.445972   0.445972  -0.085788   0.023110   0.182548
    12  H    0.000001   0.445595   0.445595  -0.136934   0.048992  -0.142345
    13  H    0.000001   0.475124   0.475124   0.122341   0.109076  -0.012141
    14  O    0.000005   4.087640   4.087640  -0.047116   0.070096   0.169526
    15  C    0.000000   3.008921   3.008921  -0.009877  -0.014780  -0.048983
    16  H    0.000001   0.474939   0.474939   0.132921  -0.086085  -0.005785
    17  H    0.000000   0.482558   0.482558   0.051314   0.133729   0.025519
    18  H    0.000000   0.481829   0.481829  -0.059479  -0.052296   0.120471
       Tot   0.000015  33.000009  33.000009  -0.148204   0.453492   0.306614

 Dip from Atomic Chgs             -0.162797   0.192481   0.364218
         Total Dipole             -0.311001   0.645973   0.670832

 Hirshfeld charges, spin densities, dipoles, and CM5 charges using IRadAn=      4:
              Q-H        S-H        Dx         Dy         Dz        Q-CM5   
     1  C    0.072003   0.000000   0.135598  -0.054735  -0.023313   0.083523
     2  C   -0.058839   0.000000   0.045149   0.039547  -0.006301  -0.111841
     3  C   -0.045968   0.000000  -0.004346   0.063842   0.001961  -0.099402
     4  C   -0.065754   0.000000  -0.050147   0.019288   0.006841  -0.113244
     5  C    0.046082   0.000000  -0.084916  -0.068190   0.005143   0.084261
     6  C   -0.054762   0.000000   0.004623  -0.047080  -0.010935  -0.096652
     7  H    0.050332   0.000000  -0.021123   0.157977   0.015105   0.104052
     8  H    0.043487   0.000000  -0.136599   0.066334   0.026176   0.099973
     9  H    0.055672   0.000000   0.029763  -0.153789  -0.016821   0.114688
    10  N   -0.237115   0.000000  -0.033589   0.198457   0.019947  -0.682652
    11  H    0.108055   0.000000  -0.085788   0.023110   0.182548   0.302019
    12  H    0.108811   0.000000  -0.136934   0.048992  -0.142345   0.302777
    13  H    0.049752   0.000000   0.122341   0.109076  -0.012141   0.110335
    14  O   -0.175280   0.000000  -0.047116   0.070096   0.169526  -0.259810
    15  C   -0.017843   0.000000  -0.009877  -0.014780  -0.048983  -0.147796
    16  H    0.050122   0.000000   0.132921  -0.086085  -0.005785   0.111827
    17  H    0.034884   0.000000   0.051314   0.133729   0.025519   0.097927
    18  H    0.036343   0.000000  -0.059479  -0.052296   0.120471   0.099999
       Tot  -0.000017   0.000000  -0.148204   0.453492   0.306614  -0.000017
 Hirshfeld charges with hydrogens summed into heavy atoms:
              Q-H       Q-CM5   
     1  C    0.072003   0.083523
     2  C   -0.009087  -0.001506
     3  C    0.004364   0.004650
     4  C   -0.022267  -0.013271
     5  C    0.046082   0.084261
     6  C    0.000910   0.018036
    10  N   -0.020248  -0.077856
    14  O   -0.175280  -0.259810
    15  C    0.103506   0.161956
 
 EQQ= 0.000000000000E+00 EQD= 0.000000000000E+00 EDD= 0.610643458975E-02
 EQQ+QD+DD= 0.610643458975E-02
 
          MBS Condensed to atoms (all electrons):
               1          2          3          4          5          6
     1  C    4.709158   0.496321  -0.028240  -0.010906  -0.026002   0.495339
     2  C    0.496321   4.861535   0.503482  -0.031949  -0.010709  -0.037504
     3  C   -0.028240   0.503482   4.824316   0.500840  -0.029868  -0.009481
     4  C   -0.010906  -0.031949   0.500840   4.866382   0.502104  -0.036660
     5  C   -0.026002  -0.010709  -0.029868   0.502104   4.724364   0.500703
     6  C    0.495339  -0.037504  -0.009481  -0.036660   0.500703   4.863678
     7  H    0.001384  -0.024845   0.386791  -0.024818   0.001430  -0.000008
     8  H    0.000070   0.001489  -0.024302   0.384401  -0.025577   0.001439
     9  H   -0.023421   0.001390   0.000058   0.001442  -0.022795   0.379773
    10  N    0.000567   0.000005   0.000653  -0.028753   0.341058  -0.029834
    11  H   -0.000041   0.000005  -0.000003  -0.001913  -0.029686   0.001147
    12  H   -0.000041   0.000005  -0.000002  -0.001957  -0.029664   0.001157
    13  H   -0.025931   0.390308  -0.024407   0.001529   0.000073   0.001453
    14  O    0.286435  -0.021610   0.000323   0.000003   0.000308  -0.021913
    15  C   -0.037544  -0.003144   0.000007   0.000003  -0.000019  -0.000206
    16  H    0.002554   0.000023   0.000001   0.000000   0.000000  -0.000001
    17  H   -0.002225   0.000925  -0.000040   0.000000   0.000003  -0.000109
    18  H   -0.005233  -0.000117  -0.000004  -0.000003  -0.000029   0.001192
               7          8          9         10         11         12
     1  C    0.001384   0.000070  -0.023421   0.000567  -0.000041  -0.000041
     2  C   -0.024845   0.001489   0.001390   0.000005   0.000005   0.000005
     3  C    0.386791  -0.024302   0.000058   0.000653  -0.000003  -0.000002
     4  C   -0.024818   0.384401   0.001442  -0.028753  -0.001913  -0.001957
     5  C    0.001430  -0.025577  -0.022795   0.341058  -0.029686  -0.029664
     6  C   -0.000008   0.001439   0.379773  -0.029834   0.001147   0.001157
     7  H    0.562314  -0.003797   0.000002  -0.000012   0.000000   0.000000
     8  H   -0.003797   0.568084  -0.000040  -0.002177   0.000703   0.000708
     9  H    0.000002  -0.000040   0.536322  -0.001018   0.000066   0.000067
    10  N   -0.000012  -0.002177  -0.001018   6.662373   0.333211   0.333325
    11  H    0.000000   0.000703   0.000066   0.333211   0.470451  -0.030837
    12  H    0.000000   0.000708   0.000067   0.333325  -0.030837   0.469387
    13  H   -0.003941  -0.000038  -0.000044   0.000000   0.000000   0.000000
    14  O   -0.000005   0.000000  -0.000647   0.000000   0.000000   0.000000
    15  C    0.000000   0.000000   0.000043   0.000000   0.000000   0.000000
    16  H    0.000000   0.000000  -0.000018   0.000000   0.000000   0.000000
    17  H    0.000002   0.000000   0.000006   0.000000   0.000000   0.000000
    18  H    0.000000   0.000000   0.000064   0.000000   0.000000   0.000000
              13         14         15         16         17         18
     1  C   -0.025931   0.286435  -0.037544   0.002554  -0.002225  -0.005233
     2  C    0.390308  -0.021610  -0.003144   0.000023   0.000925  -0.000117
     3  C   -0.024407   0.000323   0.000007   0.000001  -0.000040  -0.000004
     4  C    0.001529   0.000003   0.000003   0.000000   0.000000  -0.000003
     5  C    0.000073   0.000308  -0.000019   0.000000   0.000003  -0.000029
     6  C    0.001453  -0.021913  -0.000206  -0.000001  -0.000109   0.001192
     7  H   -0.003941  -0.000005   0.000000   0.000000   0.000002   0.000000
     8  H   -0.000038   0.000000   0.000000   0.000000   0.000000   0.000000
     9  H   -0.000044  -0.000647   0.000043  -0.000018   0.000006   0.000064
    10  N    0.000000   0.000000   0.000000   0.000000   0.000000   0.000000
    11  H    0.000000   0.000000   0.000000   0.000000   0.000000   0.000000
    12  H    0.000000   0.000000   0.000000   0.000000   0.000000   0.000000
    13  H    0.545306  -0.000958  -0.000241  -0.000018   0.000160   0.000073
    14  O   -0.000958   7.952897   0.267988  -0.017621  -0.020101  -0.018252
    15  C   -0.000241   0.267988   4.727333   0.379803   0.374669   0.373848
    16  H   -0.000018  -0.017621   0.379803   0.566713  -0.025507  -0.023097
    17  H    0.000160  -0.020101   0.374669  -0.025507   0.601800  -0.027438
    18  H    0.000073  -0.018252   0.373848  -0.023097  -0.027438   0.596383
 MBS Mulliken charges:
               1
     1  C    0.167756
     2  C   -0.125609
     3  C   -0.100123
     4  C   -0.119743
     5  C    0.104305
     6  C   -0.110163
     7  H    0.105503
     8  H    0.099038
     9  H    0.128751
    10  N   -0.609396
    11  H    0.256898
    12  H    0.257853
    13  H    0.116678
    14  O   -0.406845
    15  C   -0.082541
    16  H    0.117169
    17  H    0.097855
    18  H    0.102612
 Sum of MBS Mulliken charges =   0.00000
 MBS Mulliken charges with hydrogens summed into heavy atoms:
               1
     1  C    0.167756
     2  C   -0.008931
     3  C    0.005380
     4  C   -0.020705
     5  C    0.104305
     6  C    0.018588
    10  N   -0.094644
    14  O   -0.406845
    15  C    0.235096
 Breneman (CHELPG) radii used.
 Generate Potential Derived Charges using the Breneman model, NDens= 1.
 Grid spacing= 0.300 Box extension= 2.800
 NStep X,Y,Z=   44     37     26   Total possible points=       42328
 Number of Points to Fit=   12610

 **********************************************************************

            Electrostatic Properties Using The SCF Density

 **********************************************************************

       Atomic Center    1 is at   0.821442 -0.057982 -0.326274
       Atomic Center    2 is at   0.634094  1.317867 -0.190593
       Atomic Center    3 is at  -0.641652  1.827797  0.049547
       Atomic Center    4 is at  -1.730973  0.961824  0.152930
       Atomic Center    5 is at  -1.543668 -0.413647  0.016798
       Atomic Center    6 is at  -0.267314 -0.923647 -0.222432
       Atomic Center    7 is at  -0.789301  2.912196  0.157129
       Atomic Center    8 is at  -2.736768  1.364122  0.342217
       Atomic Center    9 is at  -0.119862 -2.008045 -0.329521
       Atomic Center   10 is at  -2.690935 -1.326245  0.125626
       Atomic Center   11 is at  -3.109480 -1.229317  1.028635
       Atomic Center   12 is at  -3.363598 -1.101613 -0.579403
       Atomic Center   13 is at   1.469250  1.981935 -0.270775
       Atomic Center   14 is at   2.129647 -0.580685 -0.571799
       Atomic Center   15 is at   2.914478 -0.481918  0.619497
       Atomic Center   16 is at   3.794762 -1.081567  0.517410
       Atomic Center   17 is at   3.194479  0.538472  0.778566
       Atomic Center   18 is at   2.341443 -0.828757  1.453904
   12610 points will be used for fitting atomic charges
 Fitting point charges to electrostatic potential
 Charges from ESP fit, RMS=   0.00405 RRMS=   0.29649:
 ESP charges:
               1
     1  C    0.411769
     2  C   -0.338386
     3  C   -0.001335
     4  C   -0.321634
     5  C    0.482582
     6  C   -0.273609
     7  H    0.089212
     8  H    0.122125
     9  H    0.146450
    10  N   -0.963250
    11  H    0.357190
    12  H    0.358025
    13  H    0.180254
    14  O   -0.506735
    15  C    0.370405
    16  H    0.006466
    17  H   -0.051807
    18  H   -0.067721
 Sum of ESP charges =   0.00000
 ESP charges with hydrogens summed into heavy atoms:
               1
     1  C    0.411769
     2  C   -0.158132
     3  C    0.087878
     4  C   -0.199509
     5  C    0.482582
     6  C   -0.127159
    10  N   -0.248036
    14  O   -0.506735
    15  C    0.257342
 Charge=   0.00000 Dipole=    -0.8162     1.6429     1.5915 Tot=     2.4286
 -----------------------------------------------------------------

              Electrostatic Properties (Atomic Units)

 -----------------------------------------------------------------
    Center     Electric         -------- Electric Field --------
               Potential          X             Y             Z
 -----------------------------------------------------------------
    1 Atom    -14.713212
    2 Atom    -14.771656
    3 Atom    -14.763395
    4 Atom    -14.771035
    5 Atom    -14.732712
    6 Atom    -14.772457
    7 Atom     -1.098343
    8 Atom     -1.097638
    9 Atom     -1.101695
   10 Atom    -18.407058
   11 Atom     -1.053423
   12 Atom     -1.053525
   13 Atom     -1.100407
   14 Atom    -22.354739
   15 Atom    -14.735284
   16 Atom     -1.112002
   17 Atom     -1.118754
   18 Atom     -1.116365
 -----------------------------------------------------------------
 ******************************Gaussian NBO Version 3.1******************************
             N A T U R A L   A T O M I C   O R B I T A L   A N D
          N A T U R A L   B O N D   O R B I T A L   A N A L Y S I S
 ******************************Gaussian NBO Version 3.1******************************
       /RESON  / : Allow strongly delocalized NBO set

 Analyzing the SCF density

 Job title: Title Card Required                                             

 Storage needed:    191754 in NPA ( 536869112 available)


 NATURAL POPULATIONS:  Natural atomic orbital occupancies 
                                                          
   NAO  Atom  No  lang   Type(AO)    Occupancy      Energy
 ----------------------------------------------------------
     1    C    1  S      Cor( 1S)     1.99868     -10.10542
     2    C    1  S      Val( 2S)     0.84481      -0.14509
     3    C    1  S      Ryd( 3S)     0.00087       0.85088
     4    C    1  S      Ryd( 4S)     0.00030       1.08602
     5    C    1  S      Ryd( 5S)     0.00001      22.58453
     6    C    1  px     Val( 2p)     0.80603      -0.04579
     7    C    1  px     Ryd( 4p)     0.00624       1.15688
     8    C    1  px     Ryd( 3p)     0.00041       0.73823
     9    C    1  px     Ryd( 5p)     0.00018       2.88311
    10    C    1  py     Val( 2p)     1.02724      -0.05163
    11    C    1  py     Ryd( 4p)     0.00530       1.07589
    12    C    1  py     Ryd( 3p)     0.00021       0.76089
    13    C    1  py     Ryd( 5p)     0.00014       2.88185
    14    C    1  pz     Val( 2p)     0.98496      -0.11687
    15    C    1  pz     Ryd( 4p)     0.00268       0.66722
    16    C    1  pz     Ryd( 3p)     0.00034       0.65046
    17    C    1  pz     Ryd( 5p)     0.00009       2.45144
    18    C    1  dxy    Ryd( 3d)     0.00184       2.48192
    19    C    1  dxz    Ryd( 3d)     0.00173       1.68954
    20    C    1  dyz    Ryd( 3d)     0.00073       1.69787
    21    C    1  dx2y2  Ryd( 3d)     0.00186       2.47445
    22    C    1  dz2    Ryd( 3d)     0.00069       2.02524

    23    C    2  S      Cor( 1S)     1.99901     -10.03049
    24    C    2  S      Val( 2S)     0.95111      -0.16382
    25    C    2  S      Ryd( 4S)     0.00142       0.80597
    26    C    2  S      Ryd( 3S)     0.00019       0.59003
    27    C    2  S      Ryd( 5S)     0.00001      23.25415
    28    C    2  px     Val( 2p)     1.14118      -0.06199
    29    C    2  px     Ryd( 4p)     0.00521       1.03454
    30    C    2  px     Ryd( 3p)     0.00029       0.37619
    31    C    2  px     Ryd( 5p)     0.00010       3.13560
    32    C    2  py     Val( 2p)     1.11859      -0.06421
    33    C    2  py     Ryd( 4p)     0.00461       0.90156
    34    C    2  py     Ryd( 3p)     0.00038       0.37752
    35    C    2  py     Ryd( 5p)     0.00013       3.12576
    36    C    2  pz     Val( 2p)     1.02620      -0.11394
    37    C    2  pz     Ryd( 4p)     0.00126       0.54072
    38    C    2  pz     Ryd( 3p)     0.00031       0.31170
    39    C    2  pz     Ryd( 5p)     0.00002       2.72379
    40    C    2  dxy    Ryd( 3d)     0.00069       2.48806
    41    C    2  dxz    Ryd( 3d)     0.00044       1.69813
    42    C    2  dyz    Ryd( 3d)     0.00054       1.69600
    43    C    2  dx2y2  Ryd( 3d)     0.00073       2.57696
    44    C    2  dz2    Ryd( 3d)     0.00043       2.03650

    45    C    3  S      Cor( 1S)     1.99917     -10.04281
    46    C    3  S      Val( 2S)     0.95373      -0.17340
    47    C    3  S      Ryd( 3S)     0.00177       0.77469
    48    C    3  S      Ryd( 4S)     0.00016       1.53050
    49    C    3  S      Ryd( 5S)     0.00000      22.25338
    50    C    3  px     Val( 2p)     1.05474      -0.05150
    51    C    3  px     Ryd( 4p)     0.00473       0.76019
    52    C    3  px     Ryd( 3p)     0.00036       0.41993
    53    C    3  px     Ryd( 5p)     0.00015       3.05296
    54    C    3  py     Val( 2p)     1.16769      -0.06351
    55    C    3  py     Ryd( 4p)     0.00685       1.07216
    56    C    3  py     Ryd( 3p)     0.00030       0.28174
    57    C    3  py     Ryd( 5p)     0.00007       3.17520
    58    C    3  pz     Val( 2p)     0.99494      -0.11292
    59    C    3  pz     Ryd( 4p)     0.00105       0.52854
    60    C    3  pz     Ryd( 3p)     0.00029       0.34204
    61    C    3  pz     Ryd( 5p)     0.00002       2.65340
    62    C    3  dxy    Ryd( 3d)     0.00063       2.54219
    63    C    3  dxz    Ryd( 3d)     0.00053       1.72765
    64    C    3  dyz    Ryd( 3d)     0.00040       1.63504
    65    C    3  dx2y2  Ryd( 3d)     0.00075       2.45021
    66    C    3  dz2    Ryd( 3d)     0.00041       2.00782

    67    C    4  S      Cor( 1S)     1.99900     -10.03218
    68    C    4  S      Val( 2S)     0.95311      -0.16403
    69    C    4  S      Ryd( 3S)     0.00196       0.76108
    70    C    4  S      Ryd( 4S)     0.00017       1.15224
    71    C    4  S      Ryd( 5S)     0.00001      22.67403
    72    C    4  px     Val( 2p)     1.15778      -0.06649
    73    C    4  px     Ryd( 4p)     0.00643       1.04773
    74    C    4  px     Ryd( 3p)     0.00039       0.33028
    75    C    4  px     Ryd( 5p)     0.00006       3.15620
    76    C    4  py     Val( 2p)     1.08331      -0.05791
    77    C    4  py     Ryd( 4p)     0.00473       0.76351
    78    C    4  py     Ryd( 3p)     0.00047       0.36368
    79    C    4  py     Ryd( 5p)     0.00017       3.15212
    80    C    4  pz     Val( 2p)     1.02955      -0.11410
    81    C    4  pz     Ryd( 4p)     0.00154       0.50827
    82    C    4  pz     Ryd( 3p)     0.00031       0.30144
    83    C    4  pz     Ryd( 5p)     0.00002       2.71560
    84    C    4  dxy    Ryd( 3d)     0.00068       2.50339
    85    C    4  dxz    Ryd( 3d)     0.00042       1.66511
    86    C    4  dyz    Ryd( 3d)     0.00050       1.70177
    87    C    4  dx2y2  Ryd( 3d)     0.00072       2.50427
    88    C    4  dz2    Ryd( 3d)     0.00041       2.02920

    89    C    5  S      Cor( 1S)     1.99890     -10.07851
    90    C    5  S      Val( 2S)     0.85997      -0.14156
    91    C    5  S      Ryd( 3S)     0.00086       0.79001
    92    C    5  S      Ryd( 4S)     0.00020       0.90426
    93    C    5  S      Ryd( 5S)     0.00001      22.77452
    94    C    5  px     Val( 2p)     0.96655      -0.05241
    95    C    5  px     Ryd( 4p)     0.00416       1.04105
    96    C    5  px     Ryd( 3p)     0.00062       0.58943
    97    C    5  px     Ryd( 5p)     0.00013       3.02648
    98    C    5  py     Val( 2p)     1.00832      -0.05125
    99    C    5  py     Ryd( 4p)     0.00663       1.04742
   100    C    5  py     Ryd( 3p)     0.00073       0.57041
   101    C    5  py     Ryd( 5p)     0.00015       2.93201
   102    C    5  pz     Val( 2p)     0.99744      -0.11165
   103    C    5  pz     Ryd( 4p)     0.00166       0.59302
   104    C    5  pz     Ryd( 3p)     0.00036       0.52941
   105    C    5  pz     Ryd( 5p)     0.00003       2.48088
   106    C    5  dxy    Ryd( 3d)     0.00125       2.42591
   107    C    5  dxz    Ryd( 3d)     0.00090       1.68352
   108    C    5  dyz    Ryd( 3d)     0.00060       1.69943
   109    C    5  dx2y2  Ryd( 3d)     0.00130       2.56692
   110    C    5  dz2    Ryd( 3d)     0.00049       2.00302

   111    C    6  S      Cor( 1S)     1.99887     -10.02918
   112    C    6  S      Val( 2S)     0.95873      -0.16143
   113    C    6  S      Ryd( 4S)     0.00173       0.86416
   114    C    6  S      Ryd( 3S)     0.00025       0.69591
   115    C    6  S      Ryd( 5S)     0.00001      23.11051
   116    C    6  px     Val( 2p)     1.07259      -0.05593
   117    C    6  px     Ryd( 4p)     0.00511       0.85081
   118    C    6  px     Ryd( 3p)     0.00024       0.45617
   119    C    6  px     Ryd( 5p)     0.00015       3.15888
   120    C    6  py     Val( 2p)     1.19123      -0.07291
   121    C    6  py     Ryd( 4p)     0.00593       1.12201
   122    C    6  py     Ryd( 3p)     0.00031       0.34127
   123    C    6  py     Ryd( 5p)     0.00008       3.15327
   124    C    6  pz     Val( 2p)     1.00990      -0.10906
   125    C    6  pz     Ryd( 4p)     0.00136       0.54903
   126    C    6  pz     Ryd( 3p)     0.00027       0.31084
   127    C    6  pz     Ryd( 5p)     0.00002       2.73420
   128    C    6  dxy    Ryd( 3d)     0.00085       2.57329
   129    C    6  dxz    Ryd( 3d)     0.00052       1.73779
   130    C    6  dyz    Ryd( 3d)     0.00057       1.65972
   131    C    6  dx2y2  Ryd( 3d)     0.00063       2.47664
   132    C    6  dz2    Ryd( 3d)     0.00043       2.05172

   133    H    7  S      Val( 1S)     0.78879       0.03192
   134    H    7  S      Ryd( 2S)     0.00076       0.61201
   135    H    7  S      Ryd( 3S)     0.00017       2.13230
   136    H    7  px     Ryd( 2p)     0.00012       1.96724
   137    H    7  py     Ryd( 2p)     0.00043       2.64517
   138    H    7  pz     Ryd( 2p)     0.00020       1.60298

   139    H    8  S      Val( 1S)     0.78959       0.02939
   140    H    8  S      Ryd( 2S)     0.00089       0.82244
   141    H    8  S      Ryd( 3S)     0.00016       1.86530
   142    H    8  px     Ryd( 2p)     0.00040       2.55942
   143    H    8  py     Ryd( 2p)     0.00015       2.06495
   144    H    8  pz     Ryd( 2p)     0.00021       1.62266

   145    H    9  S      Val( 1S)     0.76207       0.04697
   146    H    9  S      Ryd( 2S)     0.00143       1.20039
   147    H    9  S      Ryd( 3S)     0.00014       1.49197
   148    H    9  px     Ryd( 2p)     0.00015       2.02088
   149    H    9  py     Ryd( 2p)     0.00041       2.68932
   150    H    9  pz     Ryd( 2p)     0.00014       1.63241

   151    N   10  S      Cor( 1S)     1.99950     -14.12968
   152    N   10  S      Val( 2S)     1.40187      -0.57008
   153    N   10  S      Ryd( 3S)     0.00056       0.67623
   154    N   10  S      Ryd( 4S)     0.00016       1.19820
   155    N   10  S      Ryd( 5S)     0.00000      35.43619
   156    N   10  px     Val( 2p)     1.31997      -0.18855
   157    N   10  px     Ryd( 3p)     0.00378       0.50958
   158    N   10  px     Ryd( 4p)     0.00021       0.65405
   159    N   10  px     Ryd( 5p)     0.00002       4.14432
   160    N   10  py     Val( 2p)     1.75856      -0.23141
   161    N   10  py     Ryd( 3p)     0.00856       0.49151
   162    N   10  py     Ryd( 4p)     0.00042       0.68395
   163    N   10  py     Ryd( 5p)     0.00002       3.91968
   164    N   10  pz     Val( 2p)     1.35057      -0.18594
   165    N   10  pz     Ryd( 3p)     0.00275       0.47209
   166    N   10  pz     Ryd( 4p)     0.00003       0.62008
   167    N   10  pz     Ryd( 5p)     0.00003       4.16274
   168    N   10  dxy    Ryd( 3d)     0.00131       2.63731
   169    N   10  dxz    Ryd( 3d)     0.00090       2.84587
   170    N   10  dyz    Ryd( 3d)     0.00086       2.35877
   171    N   10  dx2y2  Ryd( 3d)     0.00074       2.46517
   172    N   10  dz2    Ryd( 3d)     0.00068       2.64523

   173    H   11  S      Val( 1S)     0.63752       0.09552
   174    H   11  S      Ryd( 2S)     0.00059       0.80746
   175    H   11  S      Ryd( 3S)     0.00023       2.07116
   176    H   11  px     Ryd( 2p)     0.00052       1.89729
   177    H   11  py     Ryd( 2p)     0.00090       1.66526
   178    H   11  pz     Ryd( 2p)     0.00034       2.50264

   179    H   12  S      Val( 1S)     0.63672       0.09629
   180    H   12  S      Ryd( 2S)     0.00059       0.82790
   181    H   12  S      Ryd( 3S)     0.00023       2.04856
   182    H   12  px     Ryd( 2p)     0.00056       2.14106
   183    H   12  py     Ryd( 2p)     0.00091       1.69387
   184    H   12  pz     Ryd( 2p)     0.00030       2.23169

   185    H   13  S      Val( 1S)     0.78479       0.05157
   186    H   13  S      Ryd( 2S)     0.00067       1.04820
   187    H   13  S      Ryd( 3S)     0.00018       1.69584
   188    H   13  px     Ryd( 2p)     0.00029       2.44796
   189    H   13  py     Ryd( 2p)     0.00022       2.29173
   190    H   13  pz     Ryd( 2p)     0.00019       1.62703

   191    O   14  S      Cor( 1S)     1.99976     -18.94478
   192    O   14  S      Val( 2S)     1.62915      -0.86743
   193    O   14  S      Ryd( 3S)     0.00369       0.94852
   194    O   14  S      Ryd( 4S)     0.00011       1.55486
   195    O   14  S      Ryd( 5S)     0.00000      49.59038
   196    O   14  px     Val( 2p)     1.43449      -0.28647
   197    O   14  px     Ryd( 3p)     0.00327       0.77421
   198    O   14  px     Ryd( 4p)     0.00062       0.83758
   199    O   14  px     Ryd( 5p)     0.00002       5.12945
   200    O   14  py     Val( 2p)     1.87940      -0.30133
   201    O   14  py     Ryd( 3p)     0.00537       0.60579
   202    O   14  py     Ryd( 4p)     0.00029       0.83551
   203    O   14  py     Ryd( 5p)     0.00002       5.00734
   204    O   14  pz     Val( 2p)     1.62072      -0.30529
   205    O   14  pz     Ryd( 3p)     0.00202       0.63776
   206    O   14  pz     Ryd( 4p)     0.00044       0.82169
   207    O   14  pz     Ryd( 5p)     0.00004       5.10090
   208    O   14  dxy    Ryd( 3d)     0.00046       3.18567
   209    O   14  dxz    Ryd( 3d)     0.00097       3.29128
   210    O   14  dyz    Ryd( 3d)     0.00077       2.98126
   211    O   14  dx2y2  Ryd( 3d)     0.00046       3.23514
   212    O   14  dz2    Ryd( 3d)     0.00108       3.19581

   213    C   15  S      Cor( 1S)     1.99919     -10.08175
   214    C   15  S      Val( 2S)     1.06701      -0.25356
   215    C   15  S      Ryd( 3S)     0.00205       0.87419
   216    C   15  S      Ryd( 4S)     0.00016       0.88070
   217    C   15  S      Ryd( 5S)     0.00000      23.05121
   218    C   15  px     Val( 2p)     1.06064      -0.09516
   219    C   15  px     Ryd( 3p)     0.00120       0.70636
   220    C   15  px     Ryd( 4p)     0.00031       1.28058
   221    C   15  px     Ryd( 5p)     0.00008       1.87882
   222    C   15  py     Val( 2p)     1.18374      -0.10106
   223    C   15  py     Ryd( 3p)     0.00087       0.63957
   224    C   15  py     Ryd( 4p)     0.00070       1.28339
   225    C   15  py     Ryd( 5p)     0.00002       1.94534
   226    C   15  pz     Val( 2p)     0.86420      -0.08127
   227    C   15  pz     Ryd( 3p)     0.00278       0.59236
   228    C   15  pz     Ryd( 4p)     0.00033       1.30013
   229    C   15  pz     Ryd( 5p)     0.00005       1.90573
   230    C   15  dxy    Ryd( 3d)     0.00115       2.10956
   231    C   15  dxz    Ryd( 3d)     0.00190       2.18465
   232    C   15  dyz    Ryd( 3d)     0.00134       1.86134
   233    C   15  dx2y2  Ryd( 3d)     0.00103       2.03253
   234    C   15  dz2    Ryd( 3d)     0.00181       2.10113

   235    H   16  S      Val( 1S)     0.81707       0.02431
   236    H   16  S      Ryd( 2S)     0.00053       0.45790
   237    H   16  S      Ryd( 3S)     0.00013       2.20611
   238    H   16  px     Ryd( 2p)     0.00028       2.41215
   239    H   16  py     Ryd( 2p)     0.00027       2.05648
   240    H   16  pz     Ryd( 2p)     0.00009       1.71379

   241    H   17  S      Val( 1S)     0.83865       0.01577
   242    H   17  S      Ryd( 2S)     0.00136       0.48183
   243    H   17  S      Ryd( 3S)     0.00017       2.22300
   244    H   17  px     Ryd( 2p)     0.00016       1.89821
   245    H   17  py     Ryd( 2p)     0.00039       2.63405
   246    H   17  pz     Ryd( 2p)     0.00011       1.74062

   247    H   18  S      Val( 1S)     0.83171       0.01687
   248    H   18  S      Ryd( 2S)     0.00139       0.53917
   249    H   18  S      Ryd( 3S)     0.00014       2.20944
   250    H   18  px     Ryd( 2p)     0.00025       2.01289
   251    H   18  py     Ryd( 2p)     0.00021       1.88546
   252    H   18  pz     Ryd( 2p)     0.00021       2.35920

 WARNING:  1 low occupancy (<1.9990e) core orbital  found on  C    1
           1 low occupancy (<1.9990e) core orbital  found on  C    5
           1 low occupancy (<1.9990e) core orbital  found on  C    6

 WARNING:  Population inversion found on atom  C    1
           Population inversion found on atom  C    2
           Population inversion found on atom  C    3
           Population inversion found on atom  C    4
           Population inversion found on atom  C    5
           Population inversion found on atom  C    6


 Summary of Natural Population Analysis:                  
                                                          
                                       Natural Population 
                Natural  -----------------------------------------------
    Atom  No    Charge         Core      Valence    Rydberg      Total
 -----------------------------------------------------------------------
      C    1    0.31466      1.99868     3.66304    0.02362     5.68534
      C    2   -0.25284      1.99901     4.23708    0.01675     6.25284
      C    3   -0.18876      1.99917     4.17110    0.01849     6.18876
      C    4   -0.24174      1.99900     4.22375    0.01899     6.24174
      C    5    0.14873      1.99890     3.83228    0.02009     5.85127
      C    6   -0.24974      1.99887     4.23244    0.01844     6.24974
      H    7    0.20952      0.00000     0.78879    0.00168     0.79048
      H    8    0.20861      0.00000     0.78959    0.00181     0.79139
      H    9    0.23565      0.00000     0.76207    0.00227     0.76435
      N   10   -0.85151      1.99950     5.83097    0.02104     7.85151
      H   11    0.35990      0.00000     0.63752    0.00259     0.64010
      H   12    0.36069      0.00000     0.63672    0.00258     0.63931
      H   13    0.21365      0.00000     0.78479    0.00156     0.78635
      O   14   -0.58315      1.99976     6.56376    0.01962     8.58315
      C   15   -0.19056      1.99919     4.17559    0.01578     6.19056
      H   16    0.18164      0.00000     0.81707    0.00130     0.81836
      H   17    0.15915      0.00000     0.83865    0.00220     0.84085
      H   18    0.16609      0.00000     0.83171    0.00220     0.83391
 =======================================================================
   * Total *    0.00000     17.99208    47.81692    0.19100    66.00000

                                 Natural Population      
 --------------------------------------------------------
   Core                      17.99208 ( 99.9560% of  18)
   Valence                   47.81692 ( 99.6186% of  48)
   Natural Minimal Basis     65.80900 ( 99.7106% of  66)
   Natural Rydberg Basis      0.19100 (  0.2894% of  66)
 --------------------------------------------------------

    Atom  No          Natural Electron Configuration
 ----------------------------------------------------------------------------
      C    1      [core]2S( 0.84)2p( 2.82)3d( 0.01)4p( 0.01)
      C    2      [core]2S( 0.95)2p( 3.29)4p( 0.01)
      C    3      [core]2S( 0.95)2p( 3.22)4p( 0.01)
      C    4      [core]2S( 0.95)2p( 3.27)4p( 0.01)
      C    5      [core]2S( 0.86)2p( 2.97)4p( 0.01)
      C    6      [core]2S( 0.96)2p( 3.27)4p( 0.01)
      H    7            1S( 0.79)
      H    8            1S( 0.79)
      H    9            1S( 0.76)
      N   10      [core]2S( 1.40)2p( 4.43)3p( 0.02)
      H   11            1S( 0.64)
      H   12            1S( 0.64)
      H   13            1S( 0.78)
      O   14      [core]2S( 1.63)2p( 4.93)3p( 0.01)
      C   15      [core]2S( 1.07)2p( 3.11)3d( 0.01)
      H   16            1S( 0.82)
      H   17            1S( 0.84)
      H   18            1S( 0.83)


 NBO analysis skipped by request.
 Calling FoFJK, ICntrl=      2127 FMM=F ISym2X=0 I1Cent= 0 IOpClX= 0 NMat=1 NMatS=1 NMatT=0.
 ***** Axes restored to original set *****
 -------------------------------------------------------------------
 Center     Atomic                   Forces (Hartrees/Bohr)
 Number     Number              X              Y              Z
 -------------------------------------------------------------------
      1        6          -0.014290317   -0.010228566   -0.003073241
      2        6           0.000604047    0.006104249   -0.000311508
      3        6           0.005285635   -0.002085840    0.000143599
      4        6           0.009307423   -0.002829574    0.000143625
      5        6           0.005171280    0.016084211   -0.000767085
      6        6          -0.013426490    0.005318663   -0.000508473
      7        1          -0.008869432    0.004786328   -0.000235636
      8        1          -0.008947773   -0.003995846   -0.000038557
      9        1           0.009460250   -0.005172265   -0.000088581
     10        7          -0.020020694   -0.025633585    0.000106700
     11        1           0.006982248    0.006232256    0.008685981
     12        1           0.006883181    0.006196573   -0.008745210
     13        1          -0.001136471   -0.009675250   -0.000656259
     14        8           0.024185966    0.019304448    0.000867455
     15        6           0.002497616    0.003614383   -0.011302130
     16        1          -0.014080624   -0.003132601   -0.003337868
     17        1           0.008693580   -0.014535034    0.005150220
     18        1           0.001700574    0.009647450    0.013966967
 -------------------------------------------------------------------
 Cartesian Forces:  Max     0.025633585 RMS     0.009328699

 GradGradGradGradGradGradGradGradGradGradGradGradGradGradGradGradGradGrad
 Berny optimization.
 FormGI is forming the generalized inverse of G from B-inverse, IUseBI=4.
 Internal  Forces:  Max     0.027319078 RMS     0.006509018
 Search for a local minimum.
 Step number   1 out of a maximum of   89
 All quantities printed in internal units (Hartrees-Bohrs-Radians)
 Mixed Optimization -- RFO/linear search
 Second derivative matrix not updated -- first step.
 ITU=  0
     Eigenvalues ---    0.00766   0.01295   0.01295   0.01727   0.01999
     Eigenvalues ---    0.02152   0.02153   0.02154   0.02155   0.02155
     Eigenvalues ---    0.02156   0.02156   0.05453   0.10344   0.10344
     Eigenvalues ---    0.16000   0.16000   0.16000   0.16000   0.16000
     Eigenvalues ---    0.16000   0.16000   0.16000   0.16000   0.22000
     Eigenvalues ---    0.23479   0.23493   0.25000   0.25000   0.25000
     Eigenvalues ---    0.33718   0.33718   0.33726   0.35740   0.37230
     Eigenvalues ---    0.37230   0.37230   0.37230   0.40989   0.40989
     Eigenvalues ---    0.42209   0.42404   0.46412   0.46453   0.46466
     Eigenvalues ---    0.46497   0.47688   0.47688
 RFO step:  Lambda=-1.03439492D-02 EMin= 7.65814437D-03
 Linear search not attempted -- first point.
 Iteration  1 RMS(Cart)=  0.06677688 RMS(Int)=  0.00316194
 Iteration  2 RMS(Cart)=  0.00492027 RMS(Int)=  0.00023387
 Iteration  3 RMS(Cart)=  0.00002625 RMS(Int)=  0.00023332
 Iteration  4 RMS(Cart)=  0.00000001 RMS(Int)=  0.00023332
 Variable       Old X    -DE/DX   Delta X   Delta X   Delta X     New X
                                 (Linear)    (Quad)   (Total)
    R1        2.63647  -0.00238   0.00000  -0.00524  -0.00519   2.63128
    R2        2.63584  -0.00341   0.00000  -0.00745  -0.00740   2.62845
    R3        2.70231  -0.02732   0.00000  -0.06501  -0.06501   2.63730
    R4        2.63562  -0.00170   0.00000  -0.00352  -0.00352   2.63211
    R5        2.02201   0.00970   0.00000   0.02535   0.02535   2.04736
    R6        2.63697  -0.00050   0.00000  -0.00080  -0.00085   2.63613
    R7        2.07809  -0.01006   0.00000  -0.02896  -0.02896   2.04914
    R8        2.63584   0.00320   0.00000   0.00696   0.00691   2.64274
    R9        2.07809  -0.00977   0.00000  -0.02811  -0.02811   2.04998
   R10        2.63643  -0.00260   0.00000  -0.00552  -0.00552   2.63090
   R11        2.77790  -0.01336   0.00000  -0.03633  -0.03633   2.74157
   R12        2.07795  -0.01077   0.00000  -0.03098  -0.03098   2.04697
   R13        1.88973   0.01244   0.00000   0.02553   0.02553   1.91526
   R14        1.88973   0.01244   0.00000   0.02552   0.02552   1.91525
   R15        2.70231   0.00601   0.00000   0.01430   0.01430   2.71661
   R16        2.02201   0.01410   0.00000   0.03685   0.03685   2.05886
   R17        2.02201   0.01734   0.00000   0.04532   0.04532   2.06732
   R18        2.02201   0.01676   0.00000   0.04380   0.04380   2.06580
    A1        2.09437   0.00498   0.00000   0.01844   0.01830   2.11267
    A2        2.09441   0.00168   0.00000   0.00680   0.00645   2.10086
    A3        2.09441  -0.00666   0.00000  -0.02524  -0.02556   2.06885
    A4        2.09455  -0.00382   0.00000  -0.01673  -0.01665   2.07790
    A5        2.09432   0.00102   0.00000   0.00313   0.00306   2.09738
    A6        2.09432   0.00280   0.00000   0.01359   0.01352   2.10783
    A7        2.09429   0.00119   0.00000   0.00602   0.00600   2.10030
    A8        2.09462  -0.00117   0.00000  -0.00637  -0.00639   2.08823
    A9        2.09427  -0.00002   0.00000   0.00035   0.00034   2.09461
   A10        2.09429   0.00048   0.00000   0.00332   0.00326   2.09755
   A11        2.09407   0.00054   0.00000   0.00295   0.00296   2.09703
   A12        2.09483  -0.00102   0.00000  -0.00626  -0.00625   2.08858
   A13        2.09448  -0.00221   0.00000  -0.00796  -0.00798   2.08650
   A14        2.09459   0.01061   0.00000   0.04050   0.04050   2.13510
   A15        2.09411  -0.00840   0.00000  -0.03253  -0.03253   2.06159
   A16        2.09440  -0.00062   0.00000  -0.00309  -0.00301   2.09139
   A17        2.09453   0.00086   0.00000   0.00480   0.00475   2.09928
   A18        2.09426  -0.00025   0.00000  -0.00171  -0.00176   2.09249
   A19        1.91063   0.00298   0.00000   0.01710   0.01703   1.92767
   A20        1.91063   0.00294   0.00000   0.01682   0.01676   1.92739
   A21        1.91063  -0.00309   0.00000  -0.01895  -0.01907   1.89157
   A22        1.91114   0.01901   0.00000   0.07300   0.07300   1.98414
   A23        1.91063  -0.00922   0.00000  -0.05885  -0.05867   1.85196
   A24        1.91063   0.00613   0.00000   0.03834   0.03789   1.94852
   A25        1.91063   0.00521   0.00000   0.03297   0.03249   1.94312
   A26        1.91063  -0.00048   0.00000  -0.00755  -0.00733   1.90330
   A27        1.91063   0.00000   0.00000  -0.00466  -0.00452   1.90611
   A28        1.91063  -0.00164   0.00000  -0.00025  -0.00124   1.90940
    D1        0.00056   0.00037   0.00000   0.01251   0.01260   0.01316
    D2       -3.14103   0.00078   0.00000   0.02544   0.02558  -3.11545
    D3       -3.14103  -0.00095   0.00000  -0.03077  -0.03122   3.11094
    D4        0.00056  -0.00053   0.00000  -0.01785  -0.01824  -0.01767
    D5        0.00026  -0.00027   0.00000  -0.00936  -0.00943  -0.00917
    D6        3.14140  -0.00052   0.00000  -0.01704  -0.01705   3.12436
    D7       -3.14133   0.00105   0.00000   0.03393   0.03360  -3.10774
    D8       -0.00019   0.00080   0.00000   0.02625   0.02598   0.02579
    D9        1.26940   0.00110   0.00000   0.04072   0.04044   1.30984
   D10       -1.87220  -0.00021   0.00000  -0.00256  -0.00228  -1.87448
   D11       -0.00099  -0.00018   0.00000  -0.00617  -0.00620  -0.00719
   D12        3.14093   0.00013   0.00000   0.00375   0.00379  -3.13847
   D13        3.14060  -0.00060   0.00000  -0.01910  -0.01926   3.12134
   D14       -0.00067  -0.00029   0.00000  -0.00918  -0.00928  -0.00994
   D15        0.00060  -0.00010   0.00000  -0.00330  -0.00324  -0.00265
   D16       -3.14153   0.00015   0.00000   0.00479   0.00486  -3.13667
   D17       -3.14132  -0.00041   0.00000  -0.01323  -0.01326   3.12860
   D18       -0.00026  -0.00016   0.00000  -0.00514  -0.00516  -0.00543
   D19        0.00023   0.00020   0.00000   0.00646   0.00647   0.00670
   D20       -3.14158   0.00022   0.00000   0.00717   0.00713  -3.13445
   D21       -3.14083  -0.00005   0.00000  -0.00164  -0.00159   3.14077
   D22        0.00054  -0.00003   0.00000  -0.00093  -0.00093  -0.00039
   D23       -0.00066  -0.00002   0.00000  -0.00012  -0.00020  -0.00086
   D24        3.14138   0.00023   0.00000   0.00755   0.00738  -3.13442
   D25        3.14116  -0.00004   0.00000  -0.00084  -0.00084   3.14031
   D26        0.00001   0.00021   0.00000   0.00684   0.00674   0.00675
   D27       -1.04940   0.00014   0.00000   0.00476   0.00474  -1.04466
   D28        1.04499  -0.00002   0.00000   0.00233   0.00241   1.04740
   D29        2.09197   0.00016   0.00000   0.00547   0.00539   2.09736
   D30       -2.09682   0.00000   0.00000   0.00304   0.00306  -2.09376
   D31        2.89843   0.00110   0.00000   0.04702   0.04709   2.94552
   D32       -1.29036  -0.00138   0.00000   0.02522   0.02427  -1.26609
   D33        0.80403   0.00356   0.00000   0.06858   0.06945   0.87349
         Item               Value     Threshold  Converged?
 Maximum Force            0.027319     0.000450     NO 
 RMS     Force            0.006509     0.000300     NO 
 Maximum Displacement     0.275786     0.001800     NO 
 RMS     Displacement     0.069639     0.001200     NO 
 Predicted change in Energy=-5.421130D-03
 GradGradGradGradGradGradGradGradGradGradGradGradGradGradGradGradGradGrad

                          Input orientation:                          
 ---------------------------------------------------------------------
 Center     Atomic      Atomic             Coordinates (Angstroms)
 Number     Number       Type             X           Y           Z
 ---------------------------------------------------------------------
      1          6           0       -1.870103    0.358883   -0.416543
      2          6           0       -0.689380   -0.378090   -0.456269
      3          6           0        0.528591    0.296901   -0.487345
      4          6           0        0.561494    1.691491   -0.487348
      5          6           0       -0.630169    2.422857   -0.459296
      6          6           0       -1.848242    1.749608   -0.423277
      7          1           0        1.453884   -0.267463   -0.521327
      8          1           0        1.511675    2.214100   -0.516212
      9          1           0       -2.774803    2.310501   -0.408161
     10          7           0       -0.650626    3.873469   -0.466782
     11          1           0       -0.156810    4.238696    0.339418
     12          1           0       -0.203282    4.229299   -1.303718
     13          1           0       -0.723675   -1.460804   -0.474898
     14          8           0       -3.106455   -0.288499   -0.421660
     15          6           0       -3.443843   -0.898896    0.835393
     16          1           0       -4.492933   -1.183405    0.761393
     17          1           0       -2.843525   -1.793937    1.023312
     18          1           0       -3.319003   -0.197289    1.664365
 ---------------------------------------------------------------------
                    Distance matrix (angstroms):
                    1          2          3          4          5
     1  C    0.000000
     2  C    1.392414   0.000000
     3  C    2.400539   1.392850   0.000000
     4  C    2.773720   2.418433   1.394979   0.000000
     5  C    2.408163   2.801575   2.421405   1.398480   0.000000
     6  C    1.390913   2.423046   2.786360   2.411289   1.392215
     7  H    3.384107   2.147103   1.084356   2.152909   3.403667
     8  H    3.858521   3.401130   2.154748   1.084802   2.152747
     9  H    2.151131   3.402915   3.869531   3.394161   2.148183
    10  N    3.720478   4.251749   3.766008   2.496134   1.450775
    11  H    4.308108   4.715025   4.085469   2.772680   2.039432
    12  H    4.306448   4.709830   4.082384   2.773411   2.039244
    13  H    2.151503   1.083417   2.158206   3.404230   3.884818
    14  O    1.395599   2.418983   3.682468   4.168757   3.672173
    15  C    2.371921   3.086535   4.354285   4.949998   4.541698
    16  H    3.262732   4.074095   5.382040   5.947404   5.423665
    17  H    2.766833   2.972225   4.245568   5.101417   4.987826
    18  H    2.595923   3.383001   4.435996   4.822408   4.313342
                    6          7          8          9         10
     6  C    0.000000
     7  H    3.870688   0.000000
     8  H    3.393145   2.482241   0.000000
     9  H    1.083210   4.953837   4.288923   0.000000
    10  N    2.438639   4.645348   2.726077   2.637884   0.000000
    11  H    3.104545   4.862169   2.759517   3.336270   1.013511
    12  H    3.103214   4.855842   2.760846   3.331145   1.013506
    13  H    3.402068   2.483542   4.301560   4.293522   5.334779
    14  O    2.395200   4.561477   5.253482   2.620110   4.832712
    15  C    3.338378   5.121242   6.006225   3.506319   5.680949
    16  H    4.123154   6.152150   7.016454   4.065367   6.468671
    17  H    3.954733   4.814951   6.115738   4.347441   6.256889
    18  H    3.211198   5.250012   5.822814   3.298565   5.313482
                   11         12         13         14         15
    11  H    0.000000
    12  H    1.643820   0.000000
    13  H    5.785218   5.773649   0.000000
    14  O    5.456660   5.442145   2.656083   0.000000
    15  C    6.119266   6.432372   3.071143   1.437566   0.000000
    16  H    6.955516   7.208547   3.976515   2.030466   1.089500
    17  H    6.639187   6.976053   2.617131   2.103192   1.093981
    18  H    5.606506   6.173485   3.592861   2.098809   1.093175
                   16         17         18
    16  H    0.000000
    17  H    1.778172   0.000000
    18  H    1.779297   1.785025   0.000000
 Stoichiometry    C7H9NO
 Framework group  C1[X(C7H9NO)]
 Deg. of freedom    48
 Full point group                 C1      NOp   1
 Largest Abelian subgroup         C1      NOp   1
 Largest concise Abelian subgroup C1      NOp   1
                         Standard orientation:                         
 ---------------------------------------------------------------------
[...]
 ,-0.0547151,-0.2609047,0.084682,-0.2208939,-0.4087617,0.064813,-0.2628
 591,-0.4906086,0.0781883,0.0521569,0.1066799,-0.2272836,-0.0534214,0.0
 822057,-0.0008435,0.0898347,0.0090185,0.0177771,-0.0021939,0.0181281,0
 .1280659,-0.0793672,-0.070207,0.0325297,-0.0798495,0.015793,0.034629,0
 .0329528,0.0315539,0.1425189,-0.0151431,0.0738101,-0.0011163,0.0752383
 ,0.0075132,0.0241121,-0.0015099,0.0211015,0.1491991,-0.1720178,-0.1709
 021,-0.0045989,-0.230983,-1.5281976,0.1210091,-0.0526703,-0.2137908,-0
 .3848121,0.1369277,0.0646069,0.0496808,0.0717743,0.225923,0.0216606,0.
 0898904,0.1672299,0.1975883,0.093275,-0.0107518,-0.0294597,-0.0276942,
 0.2457423,0.0390309,-0.0201709,0.186002,0.2100909,0.077836,-0.0138597,
 0.0092704,-0.0341254,-0.0689132,0.0476839,0.0131139,0.0463464,0.147086
 2,-1.3893455,-0.7534092,0.244013,-0.6037846,-0.9652977,0.1873839,0.207
 7687,0.1974077,-0.3385766,0.3407647,0.1166311,-0.0238025,0.4142072,0.8
 643212,-0.1391558,-0.0824959,-0.1145472,0.3678973,-0.1384879,-0.081361
 1,0.0352131,-0.0139805,0.0435125,0.0114903,0.0214646,0.0164471,0.08927
 71,0.0590583,0.0856448,0.0619978,-0.0599538,-0.094578,-0.031874,0.0382
 987,-0.1003453,-0.0762504,0.0391863,0.0649689,-0.1148838,-0.0687906,-0
 .0442738,0.032964,-0.0355832,0.0781037,-0.1048722\Polar=108.7791279,12
 .7642275,119.3175276,-6.550829,-12.852437,63.0116189\PG=C01 [X(C7H9N1O
 1)]\NImag=0\\0.64265801,-0.02461815,0.67658441,-0.03407999,-0.10001622
 ,0.18177227,-0.22296766,0.05515763,0.00214843,0.64428196,0.11832025,-0
 .20645482,0.01860890,0.00813805,0.71416637,-0.01047840,0.02359261,-0.0
 6733304,-0.04507479,-0.12006645,0.13644310,-0.05993849,0.03936542,-0.0
 0297003,-0.28751789,-0.10250585,0.03912853,0.69328951,-0.00991520,0.06
 304456,-0.01146201,-0.04329467,-0.15170274,0.02242099,-0.03927980,0.67
 786396,0.00702023,-0.01551124,0.00354393,0.02726216,0.02732254,-0.0631
 8476,-0.03775457,-0.10392420,0.15623865,-0.00643120,0.02214105,-0.0040
 8156,0.01569406,-0.03037026,0.00529409,-0.12640062,-0.05394500,0.01656
 328,0.69373631,0.02685886,-0.05521400,0.00831006,-0.07439298,-0.016929
 35,0.01095256,0.00326660,-0.33626301,0.05493668,0.03464348,0.67451647,
 -0.00545714,0.00930194,-0.00380412,0.01503625,0.00734345,0.00522075,0.
 00449383,0.05835252,-0.06717103,-0.05187704,-0.11123298,0.13932209,0.0
 2318197,-0.08942596,0.01592532,-0.06775394,0.00604234,0.00412763,0.045
 97995,0.06909760,-0.01757494,-0.24433623,0.04410454,0.00556827,0.68632
 105,-0.03839154,-0.01097972,0.00488362,0.01095343,0.00503134,-0.002443
 75,0.02201138,-0.04124665,0.00716896,0.10784459,-0.16994105,0.01301353
 ,0.00039140,0.66198859,0.00497344,0.00829593,-0.00662008,0.00310989,-0
 .00104530,-0.00186092,-0.00719235,0.00267844,0.00201169,-0.00833421,0.
 01725088,-0.06827246,-0.04370391,-0.10569181,0.18699024,-0.11472932,0.
 03068099,-0.00205001,0.03616066,0.01795417,-0.00570359,-0.02109881,-0.
 02409610,0.00649937,-0.04741718,0.02702321,-0.00099384,-0.29511843,-0.
 08880796,0.03809918,0.71704703,-0.03042380,-0.30785366,0.05100250,0.05
 578860,-0.03132622,0.00339084,-0.02626762,-0.03770502,0.00951407,-0.00
 670750,0.05067430,-0.00838450,-0.02722245,-0.14610353,0.01899452,-0.02
 426140,0.67857104,0.01003210,0.04471324,-0.07138288,-0.01396341,0.0065
 6952,0.00821943,0.00712161,0.00977480,-0.00317846,0.00574011,-0.011066
 72,0.00886465,0.02475206,0.02507091,-0.06839120,-0.04523587,-0.1080589
 7,0.13582443,-0.00291058,-0.00363845,0.00150325,-0.01832022,0.01830832
 ,-0.00183263,-0.23719095,0.13129422,-0.00954042,0.00582757,-0.00370844
 ,0.00053650,0.00156923,-0.00151737,0.00070822,0.00011421,-0.00072693,0
 .00004468,0.25057845,-0.00280092,0.00011475,0.00153380,-0.01121821,0.0
 1027649,-0.00046729,0.13101328,-0.15367380,0.01249491,0.02617403,-0.01
 303306,0.00110598,-0.00192047,-0.00465151,0.00239260,-0.00083161,-0.00
 040558,-0.00008099,-0.14125968,0.16041214,0.00133699,0.00159730,0.0063
 2159,0.00393831,-0.00287032,0.00364448,-0.00947673,0.01243530,-0.03822
 763,-0.00537679,0.00364130,0.00331342,0.00088482,0.00252750,0.00677709
 ,-0.00000812,-0.00010541,-0.00119426,0.00951845,-0.01511127,0.02769965
 ,0.00028105,0.00114934,-0.00028370,0.00212271,-0.00018356,0.00032796,0
 .00011533,0.00074073,-0.00004652,-0.28793678,-0.09331132,0.03748871,-0
 .01906025,-0.01410092,0.00441051,-0.00198342,0.00419671,-0.00029191,0.
 00077113,-0.00042112,-0.00028587,0.30524956,0.00088013,-0.00129481,0.0
 0009639,0.00083702,-0.00461181,0.00213057,-0.02990097,-0.00726475,0.00
 388517,-0.09361075,-0.09530666,0.02011436,0.01720851,0.00883065,-0.002
 53319,0.00304661,-0.00174853,0.00098113,0.00027254,0.00080614,-0.00100
 715,0.10199196,0.09847587,-0.00019336,0.00013067,-0.00049117,0.0001723
 2,0.00229232,0.00624025,0.00612130,0.00172471,0.00020432,0.03707668,0.
 01972315,-0.03552022,-0.00140133,-0.00022318,0.00255226,-0.00009030,0.
 00089900,0.00462433,-0.00046097,-0.00097886,-0.00411061,-0.04087529,-0
 .02292318,0.02891081,0.00384387,-0.00254858,0.00046387,0.00122299,-0.0
 0079945,0.00048574,-0.00000421,-0.00097787,0.00007609,-0.00311592,-0.0
 0362570,0.00142651,-0.01761677,0.01921576,-0.00204776,-0.24209048,0.13
 047449,-0.00725040,-0.00002502,0.00006970,-0.00004051,-0.00096800,0.00
 087197,-0.00007485,0.25619133,0.02824844,-0.01279920,0.00083909,-0.002
 26564,-0.00489408,0.00206378,-0.00095031,-0.00056268,-0.00003758,-0.00
 274571,-0.00005009,0.00129943,-0.01058422,0.00910057,-0.00025061,0.129
 13168,-0.14761261,0.01211986,0.00006055,-0.00000028,-0.00009247,-0.000
 57589,0.00049719,-0.00001245,-0.14153671,0.15275350,-0.00563654,0.0035
 8326,0.00365216,0.00070570,0.00203516,0.00427046,0.00016148,0.00001466
 ,-0.00119700,0.00127653,0.00137790,0.00526379,0.00346830,-0.00295621,0
 .00347180,-0.00660550,0.01163314,-0.03178790,-0.00004596,-0.00009289,-
 0.00042554,0.00022485,-0.00013253,0.00029724,0.00730379,-0.01380161,0.
 02319998,-0.00717940,0.00929694,-0.00176685,0.00635259,-0.00196137,-0.
 00020427,-0.00915232,-0.00323980,0.00268352,0.00810430,0.03962969,-0.0
 0658786,-0.12301702,-0.01420542,0.00804768,-0.00513883,-0.04914810,0.0
 0920240,0.00013010,0.00149374,-0.00031752,0.00167302,0.00034865,-0.001
 18812,0.00183954,-0.00047595,0.00043220,0.77640020,0.00315947,0.007609
 34,0.00005132,-0.00148221,-0.00786699,0.00161110,0.00190944,0.00634813
 ,-0.00012183,0.00797871,-0.04321522,0.00792627,-0.01736935,-0.27676568
 ,0.02952985,-0.01754337,-0.03077358,0.00790394,0.00017314,-0.00061440,
 0.00001088,-0.00078132,0.00172571,-0.00108310,0.00079357,0.00144309,-0
 .00143217,-0.04332958,0.54963269,0.00208817,0.00132818,0.00493280,-0.0
 0063488,-0.00101533,-0.00104792,-0.00000326,0.00194339,0.00389010,0.00
 186072,0.00449979,0.00644147,0.01347649,0.07452950,-0.05156393,0.00023
 920,0.00976872,0.00629061,0.00005413,0.00021185,0.00008107,0.00011087,
 -0.00115252,-0.00235201,-0.00083819,-0.00110490,-0.00291627,-0.0651842
 8,-0.23322149,0.21790657,-0.00021174,-0.00035845,0.00008480,0.00020654
 ,0.00068073,-0.00015605,-0.00058975,-0.00083698,-0.00079776,0.00169127
 ,0.00322291,-0.00143725,-0.00177530,-0.00436089,0.00135129,0.00185703,
 0.00045936,0.00054657,-0.00001856,0.00006481,0.00003977,-0.00035727,-0
 .00013032,0.00079228,0.00033072,0.00012354,0.00005603,-0.33186322,-0.0
 7543108,0.15181515,0.35021801,-0.00208043,0.00025629,0.00005841,0.0005
 3190,0.00030949,0.00001882,-0.00015871,-0.00070911,-0.00052142,-0.0016
 4917,0.00211203,-0.00107108,-0.03573055,-0.01075509,0.01690124,0.00235
 142,-0.00553988,0.00170227,-0.00001381,0.00007425,0.00000757,0.0014017
 9,-0.00005016,0.00044851,-0.00009774,0.00013322,-0.00004607,-0.0660112
 4,-0.07758603,0.06291367,0.08631751,0.08641634,0.00017291,-0.00139209,
 0.00233762,-0.00070860,0.00068580,-0.00014022,0.00019761,0.00019513,-0
 .00060898,-0.00035036,0.00005016,-0.00009229,0.00025764,-0.00912090,-0
 .00553455,0.00076455,0.00172768,0.00132550,-0.00001328,0.00000122,0.00
 000438,-0.00064562,0.00047111,0.00019939,-0.00000462,-0.00018975,-0.00
 074015,0.18470310,0.08243524,-0.10895296,-0.16890525,-0.06878670,0.107
 96980,-0.00030187,0.00088096,0.00071777,0.00021940,-0.00042884,0.00008
 470,0.00011061,-0.00001680,0.00022196,0.00081530,-0.00167680,-0.000059
 95,0.00681794,-0.00122061,0.00109435,0.00142012,-0.00297319,0.00087104
 ,0.00003656,-0.00006089,-0.00000532,0.00030384,-0.00019922,-0.00017054
 ,-0.00052037,0.00025092,-0.00064905,-0.31752410,0.14324638,-0.10280289
 ,-0.01945452,0.01482279,-0.01545459,0.32821023,-0.00036357,-0.00111496
 ,-0.00068943,-0.00015448,0.00065140,-0.00002248,0.00178608,-0.00059863
 ,-0.00009612,-0.00390073,-0.00448607,0.00220781,0.03333276,-0.01938687
 ,0.01250068,0.00166045,0.00249822,-0.00155613,-0.00010866,-0.00048916,
 0.00005282,0.00008048,0.00015210,-0.00005409,-0.00118823,0.00024478,0.
 00080871,0.13087152,-0.12894245,0.08089655,-0.00969919,0.00592126,-0.0
 0619053,-0.15252540,0.14521415,-0.00033737,0.00004999,-0.00050346,0.00
 078572,0.00056160,-0.00019026,-0.00027535,-0.00103825,0.00191996,-0.00
 020981,0.00183335,0.00166690,-0.00342646,-0.00877855,-0.00496686,0.000
 41475,0.00044824,-0.00031925,-0.00001695,-0.00002366,-0.00015056,-0.00
 018447,-0.00013401,-0.00058750,0.00073592,0.00027884,0.00022047,-0.130
 48285,0.10637966,-0.07239358,0.01642815,-0.01167633,0.00446467,0.11637
 006,-0.08783861,0.07097037,0.00872533,0.02439498,-0.00540131,-0.058551
 27,-0.02105854,0.00679653,0.00151744,-0.02940706,0.00571761,-0.0045291
 5,-0.00115532,0.00109042,-0.00164943,0.00005197,0.00004626,-0.00403850
 ,0.00231562,0.00025624,0.00104037,0.00036795,-0.00047467,-0.00011457,-
 0.00132709,0.00034484,0.00015459,0.00134050,-0.00025298,0.00040046,0.0
 0001409,-0.00002681,-0.00000711,0.00009672,-0.00006263,-0.00003025,-0.
 00008852,0.00002893,0.06021393,-0.00517528,-0.01436914,0.00356917,-0.0
 2009324,-0.32720822,0.06098801,0.00094281,-0.00820876,0.00163366,-0.00
 205710,0.00176738,0.00100335,0.00038621,0.00043980,-0.00030974,0.00348
 885,0.00011222,0.00064133,-0.00029586,0.00068915,-0.00088413,0.0000964
 9,-0.00044037,0.00023560,-0.00028871,-0.00073196,0.00026962,-0.0000556
 9,0.00002793,-0.00001624,-0.00001598,0.00002488,-0.00001643,0.00001353
 ,0.00004223,-0.00005982,0.02679376,0.34745481,0.00042572,0.00115799,0.
 00131939,0.00660045,0.06106621,-0.03871288,-0.00025975,0.00406703,-0.0
 0033612,0.00126455,0.00094355,0.00572398,0.00002139,-0.00020389,-0.000
 75458,0.00001567,0.00074408,0.00466147,-0.00035226,-0.00093124,-0.0036
 9784,0.00004171,0.00035819,0.00068546,0.00008786,0.00013689,0.00043130
 ,-0.00006868,-0.00021284,-0.00029355,0.00019761,0.00000827,0.00000935,
 -0.00019699,0.00003385,-0.00011530,-0.00850303,-0.06659452,0.03444583,
 -0.25543947,-0.01898186,0.02071096,-0.04998116,-0.01216445,0.00716317,
 0.00133346,0.00610230,-0.00083652,-0.00592318,-0.00202492,0.00105061,0
 .00529744,0.00418890,-0.00101140,-0.01966674,-0.02641396,0.00775733,-0
 .00181907,-0.00072378,0.00029356,-0.00009204,-0.00027110,-0.00004698,0
 .00059293,0.00031062,-0.00042601,-0.00055477,-0.00152845,-0.00027366,-
 0.00001642,0.00039745,0.00007177,-0.00007130,0.00032541,0.00018877,0.0
 0111313,-0.00035299,-0.00022726,0.40857156,-0.05660381,-0.11800169,0.0
 1950211,0.01463578,0.01504448,-0.00238640,0.00004455,-0.00667145,0.002
 56025,-0.00449394,0.00311957,-0.00040332,0.00997285,-0.00395426,0.0006
 9822,-0.05793779,-0.02386780,0.01092528,0.00071776,0.00045406,-0.00016
 390,-0.00029589,0.00018174,-0.00014548,-0.00029354,0.00221589,-0.00106
 820,-0.00306314,-0.00158803,0.00035324,-0.00002671,-0.00045173,0.00018
 840,-0.00006792,0.00039766,0.00004218,-0.00203680,0.00014245,-0.000391
 73,0.10478331,0.42710633,0.02837547,0.01658619,-0.04847210,0.00194943,
 -0.00024536,0.00876891,0.00038743,0.00204343,0.00597126,0.00129343,-0.
 00068491,-0.00115270,-0.00207114,0.00136765,0.00436526,0.01366360,0.00
 823375,0.00427695,0.00000106,-0.00004873,-0.00007901,0.00002702,-0.000
 10834,-0.00046176,-0.00025220,-0.00107795,-0.00299539,0.00067426,0.000
 45928,0.00025599,-0.00002048,-0.00000188,-0.00013033,-0.00001494,-0.00
 011814,-0.00007185,0.00009479,-0.00053885,-0.00261955,-0.04837623,-0.0
 8024978,0.08694324,-0.01501185,-0.04335691,0.00939251,-0.00164158,-0.0
 0180496,0.00042336,0.00046664,-0.00104483,0.00016264,0.00042003,-0.000
 04746,-0.00001618,-0.00034321,-0.00186139,0.00050672,-0.00414520,0.002
 09497,0.00009918,0.00017851,0.00006565,-0.00002940,0.00001749,-0.00002
 474,-0.00000640,0.00020428,-0.00038812,-0.00000956,-0.00027894,0.00034
 472,0.00012142,-0.00002641,-0.00015655,-0.00005432,-0.00000902,-0.0000
 4036,-0.00001987,-0.00223957,-0.00179534,0.00055107,-0.08758860,0.0073
 8244,0.00088442,0.61134330,-0.02321923,-0.01940106,0.00459950,0.007553
 05,0.00485640,-0.00179190,-0.00017074,-0.00254642,0.00053421,0.0017941
 6,0.00139740,-0.00048201,-0.00058392,-0.00152800,0.00080532,0.00226516
 ,0.00375045,-0.00051118,0.00064753,0.00008665,-0.00007417,0.00008697,-
 0.00003032,-0.00001228,-0.00012564,-0.00005910,-0.00013181,0.00035311,
 0.00081069,0.00002969,0.00000901,-0.00011686,-0.00009376,-0.00007121,-
 0.00021012,-0.00002455,0.00063314,-0.00092755,0.00014250,-0.02398916,-
 0.20960462,0.03212730,-0.01991116,0.45121099,0.00533801,0.00617763,-0.
 00731661,-0.00146251,-0.00103484,-0.00078430,0.00000508,0.00060023,-0.
 00005535,-0.00036343,-0.00023732,0.00028991,0.00028139,0.00083939,0.00
 178347,0.00009046,-0.00039822,0.00257036,-0.00014494,-0.00002441,0.000
 00518,-0.00003498,-0.00002746,-0.00018389,-0.00006436,-0.00010460,-0.0
 0076777,-0.00006641,-0.00029573,-0.00026697,0.00001664,0.00003715,-0.0
 0008264,-0.00000588,0.00008712,0.00005466,0.00006619,0.00034265,0.0000
 0801,0.00719887,0.02971365,-0.06481808,0.00013948,0.02379604,0.5580527
 8,0.00258208,0.00015529,-0.00018543,-0.00021220,0.00031703,-0.00001954
 ,0.00022548,-0.00002445,0.00000615,-0.00003732,-0.00022423,0.00005134,
 0.00000162,0.00023412,-0.00002198,-0.00037056,-0.00008128,0.00006628,-
 0.00001936,0.00001703,0.00000141,-0.00001978,-0.00004025,0.00000560,0.
 00000993,-0.00003141,0.00000670,-0.00006699,-0.00032268,-0.00003019,0.
 00001879,0.00001290,0.00002200,-0.00001200,0.00003153,0.00003026,0.000
 07644,-0.00040350,0.00003142,-0.00455614,-0.00604506,0.00159944,-0.317
 33834,-0.01872320,0.02540569,0.33970461,0.00166035,-0.00513029,0.00101
 519,0.00077482,-0.00087858,0.00017361,-0.00036364,0.00036422,0.0000042
 8,-0.00004007,0.00014144,-0.00003205,0.00048054,-0.00039660,0.00003153
 ,-0.00183127,-0.00018555,0.00022787,-0.00006591,-0.00002754,0.00001754
 ,-0.00001096,0.00004461,-0.00001688,0.00005735,-0.00003454,0.00000666,
 -0.00020871,-0.00005054,0.00002495,-0.00000592,-0.00004633,0.00000269,
 -0.00000061,0.00002971,0.00000090,0.00005792,0.00079119,-0.00025896,-0
 .04323630,-0.01696624,0.00695837,-0.00590168,-0.04509990,-0.00066652,0
 .02449484,0.06233892,-0.00049791,0.00112061,0.00038180,-0.00011420,0.0
 0021138,0.00029063,0.00007560,-0.00001988,0.00023303,0.00000890,-0.000
 02239,-0.00004260,-0.00009773,0.00006021,0.00002494,0.00041385,0.00008
 930,0.00016307,0.00001768,0.00001085,0.00003107,0.00000172,-0.00001257
 ,-0.00003188,-0.00001141,0.00001242,0.00001325,0.00004825,0.00002121,-
 0.00005084,-0.00000296,0.00001073,-0.00001738,0.00000168,-0.00000044,0
 .00001157,-0.00006011,-0.00022250,-0.00045048,0.00902216,0.00393894,-0
 .00117519,0.02285901,0.00038319,-0.05281861,-0.02872025,-0.00510052,0.
 05010540,0.00195745,-0.00041947,-0.00163826,0.00035517,0.00066339,-0.0
 0023756,-0.00054973,-0.00045861,0.00058108,-0.00008825,0.00071576,-0.0
 0011765,0.00076887,-0.00019021,0.00009168,-0.00041192,-0.00050725,0.00
 039692,0.00002207,-0.00002457,-0.00003814,-0.00000645,0.00001320,-0.00
 007985,-0.00002668,0.00004304,-0.00004810,-0.00007188,0.00008449,-0.00
 000594,0.00000141,-0.00001561,-0.00000101,-0.00000055,-0.00000386,-0.0
 0000849,-0.00116895,-0.00076625,-0.00091318,0.00352363,-0.00506503,-0.
 00583090,-0.07888161,0.04655707,0.06415193,-0.00791574,0.01738884,0.02
 452631,0.07732850,0.00755814,0.00238036,-0.00202551,-0.00066376,0.0006
 3022,0.00025609,-0.00038480,-0.00010304,0.00027230,-0.00055807,0.00034
 878,-0.00006534,0.00096669,0.00021482,0.00023397,-0.00118451,-0.001159
 97,0.00085222,-0.00007868,-0.00001575,0.00000405,-0.00003450,0.0000185
 5,-0.00005550,-0.00001791,0.00015147,-0.00027146,-0.00015609,-0.000078
 39,-0.00002331,-0.00001364,0.00000289,-0.00001041,0.00001770,0.0000412
 9,-0.00001871,-0.00061061,0.00022736,-0.00053383,0.00381183,-0.0400346
 9,-0.01877667,0.04297817,-0.12209001,-0.10283390,0.00037720,0.00324720
 ,0.00166044,-0.04966026,0.14924956,0.00053720,0.00012370,0.00091268,0.
 00034683,-0.00121111,0.00019943,-0.00003888,0.00052671,-0.00017932,-0.
 00003613,-0.00011998,-0.00000658,-0.00009286,-0.00008546,-0.00011164,-
 0.00018372,0.00009915,-0.00034977,-0.00003024,-0.00002049,0.00001687,0
 .00001532,0.00005763,0.00001420,0.00001816,0.00005431,0.00003593,0.000
 00568,0.00016589,0.00004391,-0.00001507,-0.00000520,-0.00001050,0.0000
 1664,0.00000056,-0.00002179,-0.00016113,0.00067941,-0.00006946,-0.0047
 1092,0.00492083,0.01284897,0.06279079,-0.10703034,-0.20006117,0.000166
 30,-0.00017106,-0.00111267,-0.06869446,0.11679644,0.20756142,0.0018918
 2,0.00012523,0.00151023,0.00032984,0.00085301,-0.00012489,-0.00059567,
 -0.00069769,-0.00024338,-0.00007302,0.00070212,-0.00019553,0.00073251,
 -0.00023524,-0.00012762,-0.00038966,-0.00059628,-0.00014493,0.00003555
 ,-0.00000495,0.00003974,0.00000443,0.00003385,0.00007498,-0.00002274,0
 .00004466,0.00003813,-0.00005274,0.00008404,0.00003396,-0.00000347,-0.
 00001866,0.00001071,-0.00001001,-0.00001524,-0.00002093,-0.00091292,-0
 .00042171,0.00128370,0.00527677,-0.00160704,0.00761553,-0.10512594,0.0
 2689508,-0.10055122,-0.01207053,0.00675043,-0.02747059,0.00516466,-0.0
 0234692,0.01006648,0.10582114,0.00690630,0.00262363,0.00012310,-0.0008
 0508,0.00090662,-0.00042070,-0.00035709,-0.00036482,-0.00011462,-0.000
 49775,0.00036114,0.00000263,0.00085348,0.00010317,-0.00048252,-0.00110
 852,-0.00132430,-0.00020838,-0.00006025,-0.00000256,0.00001457,-0.0000
 2900,0.00001483,0.00005105,0.00001724,0.00020483,0.00020383,-0.0001385
 5,-0.00011627,0.00003425,0.00000129,0.00000455,0.00004315,0.00000920,0
 .00003546,-0.00000226,-0.00038269,0.00016660,0.00046846,0.00976713,-0.
 02752167,0.03407462,0.02346754,-0.06049862,0.04402912,0.00025614,0.001
 85883,-0.00214099,-0.00835467,0.00696936,-0.01478100,-0.02954470,0.076
 57921,-0.00361952,-0.00083969,0.00074923,-0.00009709,0.00079184,-0.000
 04314,0.00027845,-0.00033301,0.00012571,0.00025104,-0.00015507,-0.0000
 4496,-0.00039493,0.00004246,0.00009946,0.00067031,0.00040213,-0.000217
 08,0.00005370,0.00002862,-0.00000935,-0.00000031,-0.00006361,0.0000107
 6,-0.00001367,-0.00013270,-0.00002637,0.00006976,-0.00012749,-0.000004
 50,0.00000653,0.00000202,-0.00000069,-0.00001805,-0.00002212,0.0000118
 1,0.00050087,-0.00072057,-0.00023504,0.00245176,0.01196571,-0.00145462
 ,-0.09779488,0.04773423,-0.23560899,0.00158479,-0.00221758,0.00444490,
 -0.01213437,0.00453913,-0.01971052,0.10820562,-0.06089430,0.25191337\\
 0.00002733,-0.00000514,-0.00002390,-0.00002497,0.00000221,-0.00000666,
 0.00002573,0.00000021,0.00000077,0.00000464,-0.00000946,-0.00001105,-0
 .00003131,-0.00002747,0.00002973,0.00000702,0.00000314,0.00000952,-0.0
 0000116,0.00000610,-0.00000826,-0.00000381,0.00000630,0.00000299,-0.00
 000273,-0.00000871,-0.00001122,0.00001244,0.00003907,0.00000544,-0.000
 00529,0.00000406,-0.00000989,-0.00000893,0.00000281,-0.00000707,-0.000
 00555,-0.00000212,0.00001146,-0.00003417,0.00002259,0.00001014,0.00002
 429,-0.00003091,0.00001129,0.00000205,0.00000022,0.00000101,0.00000788
 ,-0.00000228,-0.00000350,0.00000652,-0.00000063,-0.00000079\\\@


 ALMOST ANYTHING IS EASIER TO GET INTO THAN OUT OF.

                         -- AGNES ALLEN'S LAW FROM
                PAUL DICKSON'S "THE OFFICIAL RULES"
 Job cpu time:       0 days  0 hours 27 minutes 39.6 seconds.
 File lengths (MBytes):  RWF=    160 Int=      0 D2E=      0 Chk=      6 Scr=      1
 Normal termination of Gaussian 09 at Mon Jan  9 17:57:42 2023.
