 Entering Gaussian System, Link 0=g09
 Initial command:
 /cm/shared/apps/gaussian/g09revD.01/g09/l1.exe "//home/sweav003/CHB/CHActivation_Mkhalid/OtherCharges/G09-Chart5_3.com.o9447082.tmp/Gau-58054.inp" -scrdir="//home/sweav003/CHB/CHActivation_Mkhalid/OtherCharges/G09-Chart5_3.com.o9447082.tmp/"
 Entering Link 1 = /cm/shared/apps/gaussian/g09revD.01/g09/l1.exe PID=     58055.
  
 Copyright (c) 1988,1990,1992,1993,1995,1998,2003,2009,2013,
            Gaussian, Inc.  All Rights Reserved.
  
 This is part of the Gaussian(R) 09 program.  It is based on
 the Gaussian(R) 03 system (copyright 2003, Gaussian, Inc.),
 the Gaussian(R) 98 system (copyright 1998, Gaussian, Inc.),
 the Gaussian(R) 94 system (copyright 1995, Gaussian, Inc.),
 the Gaussian 92(TM) system (copyright 1992, Gaussian, Inc.),
 the Gaussian 90(TM) system (copyright 1990, Gaussian, Inc.),
 the Gaussian 88(TM) system (copyright 1988, Gaussian, Inc.),
 the Gaussian 86(TM) system (copyright 1986, Carnegie Mellon
 University), and the Gaussian 82(TM) system (copyright 1983,
 Carnegie Mellon University). Gaussian is a federally registered
 trademark of Gaussian, Inc.
  
 This software contains proprietary and confidential information,
 including trade secrets, belonging to Gaussian, Inc.
  
 This software is provided under written license and may be
 used, copied, transmitted, or stored only in accord with that
 written license.
  
 The following legend is applicable only to US Government
 contracts under FAR:
  
                    RESTRICTED RIGHTS LEGEND
  
 Use, reproduction and disclosure by the US Government is
 subject to restrictions as set forth in subparagraphs (a)
 and (c) of the Commercial Computer Software - Restricted
 Rights clause in FAR 52.227-19.
  
 Gaussian, Inc.
 340 Quinnipiac St., Bldg. 40, Wallingford CT 06492
  
  
 ---------------------------------------------------------------
 Warning -- This program may not be used in any manner that
 competes with the business of Gaussian, Inc. or will provide
 assistance to any competitor of Gaussian, Inc.  The licensee
 of this program is prohibited from giving any competitor of
 Gaussian, Inc. access to this program.  By using this program,
 the user acknowledges that Gaussian, Inc. is engaged in the
 business of creating and licensing software in the field of
 computational chemistry and represents and warrants to the
 licensee that it is not a competitor of Gaussian, Inc. and that
 it will not use this program in any manner prohibited above.
 ---------------------------------------------------------------
  

 Cite this work as:
 Gaussian 09, Revision D.01,
 M. J. Frisch, G. W. Trucks, H. B. Schlegel, G. E. Scuseria, 
 M. A. Robb, J. R. Cheeseman, G. Scalmani, V. Barone, B. Mennucci, 
 G. A. Petersson, H. Nakatsuji, M. Caricato, X. Li, H. P. Hratchian, 
 A. F. Izmaylov, J. Bloino, G. Zheng, J. L. Sonnenberg, M. Hada, 
 M. Ehara, K. Toyota, R. Fukuda, J. Hasegawa, M. Ishida, T. Nakajima, 
 Y. Honda, O. Kitao, H. Nakai, T. Vreven, J. A. Montgomery, Jr., 
 J. E. Peralta, F. Ogliaro, M. Bearpark, J. J. Heyd, E. Brothers, 
 K. N. Kudin, V. N. Staroverov, T. Keith, R. Kobayashi, J. Normand, 
 K. Raghavachari, A. Rendell, J. C. Burant, S. S. Iyengar, J. Tomasi, 
 M. Cossi, N. Rega, J. M. Millam, M. Klene, J. E. Knox, J. B. Cross, 
 V. Bakken, C. Adamo, J. Jaramillo, R. Gomperts, R. E. Stratmann, 
 O. Yazyev, A. J. Austin, R. Cammi, C. Pomelli, J. W. Ochterski, 
 R. L. Martin, K. Morokuma, V. G. Zakrzewski, G. A. Voth, 
 P. Salvador, J. J. Dannenberg, S. Dapprich, A. D. Daniels, 
 O. Farkas, J. B. Foresman, J. V. Ortiz, J. Cioslowski, 
 and D. J. Fox, Gaussian, Inc., Wallingford CT, 2013.
 
 ******************************************
 Gaussian 09:  ES64L-G09RevD.01 24-Apr-2013
                23-Jul-2021 
 ******************************************
 %mem=100MW
 %nprocshared=20
 Will use up to   20 processors via shared memory.
 ---------------------------------------------------------------------
 # b3lyp/6-311+g(d,p) geom=connectivity pop=(hirshfeld,chelpg,mbs,npa)
 ---------------------------------------------------------------------
 1/38=1,57=2/1;
 2/12=2,17=6,18=5,40=1/2;
 3/5=4,6=6,7=111,11=2,16=1,25=1,30=1,74=-5/1,2,3;
 4//1;
 5/5=2,38=5/2;
 6/7=2,8=2,9=2,10=2,15=8,20=3,27=100,28=1,40=-1,79=1/1,2,7;
 99/5=1,9=1/99;
 --------
 Chart5_3
 --------
 Symbolic Z-matrix:
 Charge =  0 Multiplicity = 1
 6                    -1.22348  -0.27009  -0.01314 
 6                    -1.2083    1.12829  -0.01696 
 6                     0.        1.82105   0. 
 6                     1.2083    1.12829   0.01696 
 6                     1.22348  -0.27009   0.01314 
 6                     0.       -0.94737   0. 
 1                    -2.14515   1.67611  -0.03116 
 1                     0.        2.90577   0. 
 1                     2.14515   1.67611   0.03116 
 1                     0.       -2.03418   0. 
 6                     2.52768  -1.03148  -0.00883 
 1                     2.43094  -2.00441   0.47894 
 1                     2.85901  -1.21256  -1.03741 
 1                     3.32147  -0.4763    0.49659 
 6                    -2.52768  -1.03148   0.00883 
 1                    -2.43094  -2.00441  -0.47894 
 1                    -2.85901  -1.21256   1.03741 
 1                    -3.32147  -0.4763   -0.49659 
 
                          Input orientation:                          
 ---------------------------------------------------------------------
 Center     Atomic      Atomic             Coordinates (Angstroms)
 Number     Number       Type             X           Y           Z
 ---------------------------------------------------------------------
      1          6           0       -1.223476   -0.270088   -0.013135
      2          6           0       -1.208299    1.128288   -0.016964
      3          6           0        0.000000    1.821053    0.000000
      4          6           0        1.208299    1.128288    0.016964
      5          6           0        1.223476   -0.270088    0.013135
      6          6           0        0.000000   -0.947367    0.000000
      7          1           0       -2.145150    1.676107   -0.031163
      8          1           0        0.000000    2.905765    0.000000
      9          1           0        2.145150    1.676107    0.031163
     10          1           0        0.000000   -2.034180    0.000000
     11          6           0        2.527680   -1.031481   -0.008833
     12          1           0        2.430936   -2.004406    0.478936
     13          1           0        2.859014   -1.212563   -1.037407
     14          1           0        3.321470   -0.476302    0.496590
     15          6           0       -2.527680   -1.031481    0.008833
     16          1           0       -2.430936   -2.004406   -0.478936
     17          1           0       -2.859014   -1.212563    1.037407
     18          1           0       -3.321470   -0.476302   -0.496590
 ---------------------------------------------------------------------
                    Distance matrix (angstroms):
                    1          2          3          4          5
     1  C    0.000000
     2  C    1.398464   0.000000
     3  C    2.422795   1.392910   0.000000
     4  C    2.805333   2.416836   1.392910   0.000000
     5  C    2.447093   2.805333   2.422795   1.398464   0.000000
     6  C    1.398490   2.401795   2.768420   2.401795   1.398490
     7  H    2.153482   1.085356   2.150267   3.398241   3.890666
     8  H    3.403397   2.149348   1.084712   2.149348   3.403397
     9  H    3.890666   3.398241   2.150267   1.085356   2.153482
    10  H    2.146878   3.385480   3.855233   3.385480   2.146878
    11  C    3.827651   4.315346   3.811324   2.531014   1.510348
    12  H    4.074889   4.827393   4.557737   3.394412   2.163975
    13  H    4.313249   4.802491   4.295696   3.052236   2.160297
    14  H    4.578087   4.832934   4.068981   2.696339   2.162830
    15  C    1.510348   2.531014   3.811324   4.315346   3.827651
    16  H    2.163975   3.394412   4.557737   4.827393   4.074889
    17  H    2.160297   3.052236   4.295696   4.802491   4.313249
    18  H    2.162830   2.696339   4.068981   4.832934   4.578087
                    6          7          8          9         10
     6  C    0.000000
     7  H    3.388990   0.000000
     8  H    3.853132   2.472792   0.000000
     9  H    3.388990   4.290753   2.472792   0.000000
    10  H    1.086813   4.285892   4.939945   4.285892   0.000000
    11  C    2.529095   5.400636   4.678798   2.734769   2.719310
    12  H    2.693726   5.894654   5.499874   3.718649   2.477845
    13  H    3.052950   5.865032   5.119648   3.161623   3.150433
    14  H    3.391263   5.898756   4.766250   2.496641   3.702128
    15  C    2.529095   2.734769   4.678798   5.400636   2.719310
    16  H    2.693726   3.718649   5.499874   5.894654   2.477845
    17  H    3.052950   3.161623   5.119648   5.865032   3.150433
    18  H    3.391263   2.496641   4.766250   5.898756   3.702128
                   11         12         13         14         15
    11  C    0.000000
    12  H    1.092639   0.000000
    13  H    1.095690   1.763395   0.000000
    14  H    1.092602   1.768747   1.763262   0.000000
    15  C    5.055391   5.074983   5.490344   5.895650   0.000000
    16  H    5.074983   4.955332   5.377962   6.031329   1.092639
    17  H    5.490344   5.377962   6.082820   6.247635   1.095690
    18  H    5.895650   6.031329   6.247635   6.716774   1.092602
                   16         17         18
    16  H    0.000000
    17  H    1.763395   0.000000
    18  H    1.768747   1.763262   0.000000
 Stoichiometry    C8H10
 Framework group  C2[C2(HCCH),X(C6H8)]
 Deg. of freedom    23
 Full point group                 C2      NOp   2
 Largest Abelian subgroup         C2      NOp   2
 Largest concise Abelian subgroup C2      NOp   2
                         Standard orientation:                         
 ---------------------------------------------------------------------
 Center     Atomic      Atomic             Coordinates (Angstroms)
 Number     Number       Type             X           Y           Z
 ---------------------------------------------------------------------
      1          6           0        0.000000    1.223547   -0.270088
      2          6           0        0.003992    1.208411    1.128288
      3          6           0        0.000000    0.000000    1.821053
      4          6           0       -0.003992   -1.208411    1.128288
      5          6           0        0.000000   -1.223547   -0.270088
      6          6           0        0.000000    0.000000   -0.947367
      7          1           0        0.008133    2.145361    1.676107
      8          1           0        0.000000    0.000000    2.905765
      9          1           0       -0.008133   -2.145361    1.676107
     10          1           0        0.000000    0.000000   -2.034180
     11          6           0        0.035968   -2.527440   -1.031481
     12          1           0       -0.452812   -2.435937   -2.004406
     13          1           0        1.068039   -2.847712   -1.212563
     14          1           0       -0.460905   -3.326610   -0.476302
     15          6           0       -0.035968    2.527440   -1.031481
     16          1           0        0.452812    2.435937   -2.004406
     17          1           0       -1.068039    2.847712   -1.212563
     18          1           0        0.460905    3.326610   -0.476302
 ---------------------------------------------------------------------
 Rotational constants (GHZ):      3.5762480      1.7587685      1.1965124
 Standard basis: 6-311+G(d,p) (5D, 7F)
 There are   127 symmetry adapted cartesian basis functions of A   symmetry.
 There are   117 symmetry adapted cartesian basis functions of B   symmetry.
 There are   122 symmetry adapted basis functions of A   symmetry.
 There are   114 symmetry adapted basis functions of B   symmetry.
   236 basis functions,   368 primitive gaussians,   244 cartesian basis functions
    29 alpha electrons       29 beta electrons
       nuclear repulsion energy       340.8255074653 Hartrees.
 NAtoms=   18 NActive=   18 NUniq=   11 SFac= 2.68D+00 NAtFMM=   60 NAOKFM=F Big=F
 Integral buffers will be    131072 words long.
 Raffenetti 2 integral format.
 Two-electron integral symmetry is turned on.
 One-electron integrals computed using PRISM.
 NBasis=   236 RedAO= T EigKep=  2.36D-06  NBF=   122   114
 NBsUse=   236 1.00D-06 EigRej= -1.00D+00 NBFU=   122   114
 ExpMin= 4.38D-02 ExpMax= 4.56D+03 ExpMxC= 6.82D+02 IAcc=2 IRadAn=         4 AccDes= 0.00D+00
 Harris functional with IExCor=  402 and IRadAn=       4 diagonalized for initial guess.
 HarFok:  IExCor=  402 AccDes= 0.00D+00 IRadAn=         4 IDoV= 1 UseB2=F ITyADJ=14
 ICtDFT=  3500011 ScaDFX=  1.000000  1.000000  1.000000  1.000000
 FoFCou: FMM=F IPFlag=           0 FMFlag=      100000 FMFlg1=           0
         NFxFlg=           0 DoJE=T BraDBF=F KetDBF=T FulRan=T
         wScrn=  0.000000 ICntrl=     500 IOpCl=  0 I1Cent=   200000004 NGrid=           0
         NMat0=    1 NMatS0=      1 NMatT0=    0 NMatD0=    1 NMtDS0=    0 NMtDT0=    0
 Petite list used in FoFCou.
 Initial guess orbital symmetries:
       Occupied  (B) (A) (A) (B) (A) (A) (B) (A) (A) (B) (A) (A)
                 (B) (A) (B) (A) (B) (A) (A) (B) (B) (A) (A) (B)
                 (B) (A) (B) (B) (A)
       Virtual   (B) (A) (A) (B) (A) (B) (A) (B) (A) (B) (A) (A)
                 (B) (B) (A) (B) (B) (A) (B) (A) (A) (B) (A) (B)
                 (A) (A) (B) (B) (A) (B) (A) (B) (B) (A) (A) (B)
                 (B) (A) (A) (B) (A) (B) (A) (A) (B) (A) (B) (B)
                 (A) (A) (B) (B) (A) (B) (A) (A) (B) (A) (B) (B)
                 (A) (B) (A) (B) (A) (B) (A) (B) (A) (A) (B) (B)
                 (A) (A) (B) (A) (B) (A) (B) (A) (B) (A) (A) (B)
                 (B) (A) (A) (B) (A) (B) (B) (A) (A) (A) (B) (B)
                 (A) (A) (B) (B) (B) (B) (A) (A) (A) (A) (B) (B)
                 (A) (A) (B) (A) (B) (B) (A) (A) (A) (B) (A) (B)
                 (B) (B) (A) (B) (A) (B) (B) (A) (A) (B) (B) (B)
                 (A) (A) (B) (A) (B) (A) (A) (B) (B) (B) (A) (B)
                 (A) (B) (A) (A) (A) (B) (A) (A) (B) (B) (B) (A)
                 (B) (A) (A) (B) (B) (A) (B) (A) (B) (A) (A) (B)
                 (B) (A) (B) (A) (A) (A) (B) (A) (B) (B) (A) (B)
                 (B) (A) (B) (A) (B) (A) (A) (B) (A) (A) (B) (A)
                 (B) (A) (B) (A) (A) (B) (B) (A) (B) (A) (A) (B)
                 (B) (A) (A)
 The electronic state of the initial guess is 1-A.
 Requested convergence on RMS density matrix=1.00D-08 within 128 cycles.
 Requested convergence on MAX density matrix=1.00D-06.
 Requested convergence on             energy=1.00D-06.
 No special actions if energy rises.
 SCF Done:  E(RB3LYP) =  -310.966252543     A.U. after   12 cycles
            NFock= 12  Conv=0.26D-08     -V/T= 2.0049

 **********************************************************************

            Population analysis using the SCF density.

 **********************************************************************

 Orbital symmetries:
       Occupied  (B) (A) (A) (B) (A) (B) (A) (A) (A) (B) (A) (A)
                 (B) (A) (B) (A) (B) (A) (B) (A) (A) (B) (A) (B)
                 (B) (B) (A) (B) (A)
       Virtual   (B) (A) (A) (B) (A) (A) (B) (B) (A) (A) (A) (B)
                 (B) (B) (B) (A) (A) (B) (A) (B) (B) (A) (B) (A)
                 (A) (B) (A) (B) (A) (B) (A) (B) (B) (A) (A) (B)
                 (A) (B) (A) (B) (A) (A) (B) (B) (A) (B) (A) (A)
                 (B) (A) (B) (A) (B) (B) (A) (A) (A) (B) (B) (B)
                 (A) (B) (B) (A) (B) (A) (A) (B) (A) (B) (A) (A)
                 (B) (B) (A) (B) (A) (B) (A) (A) (B) (A) (A) (B)
                 (B) (A) (A) (A) (B) (B) (A) (B) (A) (A) (B) (A)
                 (B) (B) (A) (B) (A) (B) (B) (A) (A) (A) (B) (A)
                 (B) (A) (B) (A) (B) (B) (A) (A) (B) (A) (B) (A)
                 (B) (B) (A) (B) (A) (B) (B) (A) (A) (B) (B) (B)
                 (A) (A) (B) (A) (B) (A) (A) (B) (B) (B) (A) (B)
                 (A) (B) (A) (A) (B) (A) (A) (B) (A) (B) (B) (A)
                 (B) (A) (A) (B) (A) (B) (A) (B) (B) (A) (A) (B)
                 (A) (A) (B) (B) (A) (A) (B) (B) (A) (A) (B) (B)
                 (B) (A) (B) (A) (B) (A) (A) (B) (A) (A) (B) (A)
                 (B) (A) (B) (A) (A) (B) (B) (A) (B) (A) (A) (B)
                 (B) (A) (A)
 The electronic state is 1-A.
 Alpha  occ. eigenvalues --  -10.18222 -10.18222 -10.17240 -10.16787 -10.16783
 Alpha  occ. eigenvalues --  -10.16775 -10.16775 -10.16739  -0.86035  -0.78318
 Alpha  occ. eigenvalues --   -0.75999  -0.69321  -0.68166  -0.59896  -0.57291
 Alpha  occ. eigenvalues --   -0.50511  -0.47186  -0.44706  -0.42672  -0.41591
 Alpha  occ. eigenvalues --   -0.41342  -0.40614  -0.39845  -0.37742  -0.34724
 Alpha  occ. eigenvalues --   -0.34087  -0.33867  -0.24876  -0.24102
 Alpha virt. eigenvalues --   -0.01343  -0.01081   0.00371   0.01761   0.01926
 Alpha virt. eigenvalues --    0.03834   0.03918   0.04198   0.05730   0.06179
 Alpha virt. eigenvalues --    0.06433   0.07154   0.08072   0.08294   0.10025
 Alpha virt. eigenvalues --    0.10275   0.11338   0.11565   0.12144   0.13606
 Alpha virt. eigenvalues --    0.14176   0.14689   0.15612   0.16029   0.16214
 Alpha virt. eigenvalues --    0.16869   0.17548   0.18381   0.18710   0.19791
 Alpha virt. eigenvalues --    0.19977   0.20825   0.21177   0.21532   0.21755
 Alpha virt. eigenvalues --    0.22771   0.23649   0.23960   0.24726   0.25080
 Alpha virt. eigenvalues --    0.25343   0.26587   0.27016   0.28411   0.28429
 Alpha virt. eigenvalues --    0.30651   0.31878   0.32908   0.33559   0.34708
 Alpha virt. eigenvalues --    0.38528   0.42245   0.42508   0.44978   0.47660
 Alpha virt. eigenvalues --    0.48501   0.50572   0.52150   0.54268   0.54891
 Alpha virt. eigenvalues --    0.54927   0.55699   0.58112   0.58203   0.59675
 Alpha virt. eigenvalues --    0.60425   0.61461   0.63015   0.63747   0.64243
 Alpha virt. eigenvalues --    0.64921   0.66592   0.67358   0.68012   0.68666
 Alpha virt. eigenvalues --    0.70325   0.70655   0.71658   0.72193   0.75288
 Alpha virt. eigenvalues --    0.75926   0.77692   0.83268   0.84103   0.86496
 Alpha virt. eigenvalues --    0.87472   0.90598   0.92320   0.93097   0.94247
 Alpha virt. eigenvalues --    0.95580   0.96386   1.01501   1.01880   1.02308
 Alpha virt. eigenvalues --    1.04415   1.07066   1.11149   1.13058   1.13585
 Alpha virt. eigenvalues --    1.31411   1.31471   1.34908   1.37555   1.39982
 Alpha virt. eigenvalues --    1.42621   1.46206   1.48614   1.49133   1.52405
 Alpha virt. eigenvalues --    1.52765   1.53507   1.55087   1.56405   1.58074
 Alpha virt. eigenvalues --    1.59588   1.59795   1.60638   1.62138   1.62303
 Alpha virt. eigenvalues --    1.66106   1.69883   1.69903   1.72065   1.74221
 Alpha virt. eigenvalues --    1.76149   1.78868   1.83320   1.84072   1.85156
 Alpha virt. eigenvalues --    1.90235   1.92523   1.92749   1.92901   1.95973
 Alpha virt. eigenvalues --    2.01220   2.01356   2.02947   2.04121   2.05796
 Alpha virt. eigenvalues --    2.06847   2.15855   2.17540   2.18850   2.21703
 Alpha virt. eigenvalues --    2.22818   2.30501   2.32277   2.38188   2.38907
 Alpha virt. eigenvalues --    2.40898   2.43068   2.43669   2.44760   2.52386
 Alpha virt. eigenvalues --    2.53802   2.55927   2.56756   2.57641   2.59048
 Alpha virt. eigenvalues --    2.61262   2.63447   2.67254   2.68283   2.70926
 Alpha virt. eigenvalues --    2.71331   2.74736   2.75512   2.76952   2.79753
 Alpha virt. eigenvalues --    2.80970   2.83415   2.84688   2.88331   2.89853
 Alpha virt. eigenvalues --    2.91636   2.91965   2.96052   2.96167   3.10616
 Alpha virt. eigenvalues --    3.17982   3.20536   3.22619   3.37049   3.39076
 Alpha virt. eigenvalues --    3.51532   3.58757   3.66055   3.68782   3.80586
 Alpha virt. eigenvalues --    3.80609   3.81897   3.83146   4.01676   4.12014
 Alpha virt. eigenvalues --    4.15373   4.32550   4.34989   4.84804  23.59045
 Alpha virt. eigenvalues --   23.92112  23.93251  23.97738  23.98906  24.08577
 Alpha virt. eigenvalues --   24.09840  24.19240
          Condensed to atoms (all electrons):
               1          2          3          4          5          6
     1  C    7.702889  -0.605306   0.783229  -0.821955   1.166384  -1.641557
     2  C   -0.605306   7.375600  -0.120135  -0.142306  -0.821955   0.274550
     3  C    0.783229  -0.120135   5.994468  -0.120135   0.783229  -1.228957
     4  C   -0.821955  -0.142306  -0.120135   7.375600  -0.605306   0.274550
     5  C    1.166384  -0.821955   0.783229  -0.605306   7.702889  -1.641557
     6  C   -1.641557   0.274550  -1.228957   0.274550  -1.641557   9.563920
     7  H   -0.015794   0.308998   0.020857  -0.009770   0.004993  -0.005776
     8  H    0.002390  -0.004590   0.360458  -0.004590   0.002390  -0.021519
     9  H    0.004993  -0.009770   0.020857   0.308998  -0.015794  -0.005776
    10  H    0.015872   0.016434  -0.011085   0.016434   0.015872   0.227065
    11  C   -0.359594   0.219303  -0.252850   0.048454  -0.933410   0.523510
    12  H    0.017277  -0.001362  -0.003570  -0.094999  -0.147542   0.160239
    13  H    0.019058  -0.006031   0.004142  -0.023697   0.097004  -0.070452
    14  H   -0.003354   0.005470   0.025590   0.119875  -0.129653  -0.094236
    15  C   -0.933410   0.048454  -0.252850   0.219303  -0.359594   0.523510
    16  H   -0.147542  -0.094999  -0.003570  -0.001362   0.017277   0.160239
    17  H    0.097004  -0.023697   0.004142  -0.006031   0.019058  -0.070452
    18  H   -0.129653   0.119875   0.025590   0.005470  -0.003354  -0.094236
               7          8          9         10         11         12
     1  C   -0.015794   0.002390   0.004993   0.015872  -0.359594   0.017277
     2  C    0.308998  -0.004590  -0.009770   0.016434   0.219303  -0.001362
     3  C    0.020857   0.360458   0.020857  -0.011085  -0.252850  -0.003570
     4  C   -0.009770  -0.004590   0.308998   0.016434   0.048454  -0.094999
     5  C    0.004993   0.002390  -0.015794   0.015872  -0.933410  -0.147542
     6  C   -0.005776  -0.021519  -0.005776   0.227065   0.523510   0.160239
     7  H    0.552887  -0.008418  -0.000276  -0.000302  -0.001290  -0.000002
     8  H   -0.008418   0.550630  -0.008418   0.000081   0.004783   0.000015
     9  H   -0.000276  -0.008418   0.552887  -0.000302   0.036616   0.000217
    10  H   -0.000302   0.000081  -0.000302   0.557821   0.025072   0.000903
    11  C   -0.001290   0.004783   0.036616   0.025072   6.021973   0.435102
    12  H   -0.000002   0.000015   0.000217   0.000903   0.435102   0.552148
    13  H   -0.000001   0.000010   0.000330   0.000438   0.332983  -0.028653
    14  H   -0.000001  -0.000014   0.001099   0.000266   0.441792  -0.028903
    15  C    0.036616   0.004783  -0.001290   0.025072   0.012559   0.000344
    16  H    0.000217   0.000015  -0.000002   0.000903   0.000344   0.000035
    17  H    0.000330   0.000010  -0.000001   0.000438   0.000239  -0.000019
    18  H    0.001099  -0.000014  -0.000001   0.000266  -0.000801   0.000001
              13         14         15         16         17         18
     1  C    0.019058  -0.003354  -0.933410  -0.147542   0.097004  -0.129653
     2  C   -0.006031   0.005470   0.048454  -0.094999  -0.023697   0.119875
     3  C    0.004142   0.025590  -0.252850  -0.003570   0.004142   0.025590
     4  C   -0.023697   0.119875   0.219303  -0.001362  -0.006031   0.005470
     5  C    0.097004  -0.129653  -0.359594   0.017277   0.019058  -0.003354
     6  C   -0.070452  -0.094236   0.523510   0.160239  -0.070452  -0.094236
     7  H   -0.000001  -0.000001   0.036616   0.000217   0.000330   0.001099
     8  H    0.000010  -0.000014   0.004783   0.000015   0.000010  -0.000014
     9  H    0.000330   0.001099  -0.001290  -0.000002  -0.000001  -0.000001
    10  H    0.000438   0.000266   0.025072   0.000903   0.000438   0.000266
    11  C    0.332983   0.441792   0.012559   0.000344   0.000239  -0.000801
    12  H   -0.028653  -0.028903   0.000344   0.000035  -0.000019   0.000001
    13  H    0.536448  -0.028041   0.000239  -0.000019   0.000003   0.000000
    14  H   -0.028041   0.551432  -0.000801   0.000001   0.000000  -0.000001
    15  C    0.000239  -0.000801   6.021973   0.435102   0.332983   0.441792
    16  H   -0.000019   0.000001   0.435102   0.552148  -0.028653  -0.028903
    17  H    0.000003   0.000000   0.332983  -0.028653   0.536448  -0.028041
    18  H    0.000000  -0.000001   0.441792  -0.028903  -0.028041   0.551432
 Mulliken charges:
               1
     1  C    0.849067
     2  C   -0.538534
     3  C   -0.029412
     4  C   -0.538534
     5  C    0.849067
     6  C   -0.833067
     7  H    0.115632
     8  H    0.121998
     9  H    0.115632
    10  H    0.108751
    11  C   -0.554784
    12  H    0.138768
    13  H    0.166237
    14  H    0.139479
    15  C   -0.554784
    16  H    0.138768
    17  H    0.166237
    18  H    0.139479
 Sum of Mulliken charges =   0.00000
 Mulliken charges with hydrogens summed into heavy atoms:
               1
     1  C    0.849067
     2  C   -0.422901
     3  C    0.092586
     4  C   -0.422901
     5  C    0.849067
     6  C   -0.724316
    11  C   -0.110301
    15  C   -0.110301
 Electronic spatial extent (au):  <R**2>=           1030.1584
 Charge=              0.0000 electrons
 Dipole moment (field-independent basis, Debye):
    X=              0.0000    Y=              0.0000    Z=             -0.3791  Tot=              0.3791
 Quadrupole moment (field-independent basis, Debye-Ang):
   XX=            -52.8449   YY=            -44.9303   ZZ=            -46.0453
   XY=             -0.1804   XZ=              0.0000   YZ=              0.0000
 Traceless Quadrupole moment (field-independent basis, Debye-Ang):
   XX=             -4.9047   YY=              3.0099   ZZ=              1.8949
   XY=             -0.1804   XZ=              0.0000   YZ=              0.0000
 Octapole moment (field-independent basis, Debye-Ang**2):
  XXX=              0.0000  YYY=              0.0000  ZZZ=              2.4667  XYY=              0.0000
  XXY=              0.0000  XXZ=             -3.4960  XZZ=              0.0000  YZZ=              0.0000
  YYZ=              1.6160  XYZ=              0.5886
 Hexadecapole moment (field-independent basis, Debye-Ang**3):
 XXXX=            -76.4032 YYYY=           -890.3670 ZZZZ=           -442.9730 XXXY=              0.4665
 XXXZ=              0.0000 YYYX=              7.0467 YYYZ=              0.0000 ZZZX=              0.0000
 ZZZY=              0.0000 XXYY=           -164.9885 XXZZ=            -98.3109 YYZZ=           -225.4130
 XXYZ=              0.0000 YYXZ=              0.0000 ZZXY=              2.8687
 N-N= 3.408255074653D+02 E-N=-1.402153558185D+03  KE= 3.094574630854D+02
 Symmetry A    KE= 1.879249021262D+02
 Symmetry B    KE= 1.215325609592D+02
 There are a total of      147800 grid points.
 ElSum from          density=       58.0000369798
 ElSum from atomic densities=       58.0000922246

 Hirshfeld populations at iteration   1 (CX, CA, CB, DipXYZ):
               1          2          3          4          5          6
     1  C    0.000000   2.999117   2.999117  -0.003298   0.067405  -0.038954
     2  C    0.000000   3.029354   3.029354  -0.002452   0.051081   0.023717
     3  C    0.000000   3.024684   3.024684   0.000000   0.000000   0.061798
     4  C    0.000000   3.029354   3.029354   0.002452  -0.051081   0.023717
     5  C    0.000000   2.999117   2.999117   0.003298  -0.067405  -0.038954
     6  C    0.000000   3.029278   3.029278   0.000000   0.000000  -0.050386
     7  H    0.000001   0.478881   0.478881   0.000418   0.132066   0.082072
     8  H    0.000002   0.477362   0.477362   0.000000   0.000000   0.158713
     9  H    0.000001   0.478881   0.478881  -0.000418  -0.132066   0.082072
    10  H    0.000000   0.479869   0.479869   0.000000   0.000000  -0.151149
    11  C    0.000000   3.048154   3.048154  -0.000251   0.013293   0.008110
    12  H    0.000001   0.479970   0.479970  -0.066688   0.009095  -0.131874
    13  H    0.000001   0.479129   0.479129   0.140198  -0.046136  -0.025936
    14  H    0.000001   0.479809   0.479809  -0.067775  -0.110047   0.072788
    15  C    0.000000   3.048154   3.048154   0.000251  -0.013293   0.008110
    16  H    0.000001   0.479970   0.479970   0.066688  -0.009095  -0.131874
    17  H    0.000001   0.479129   0.479129  -0.140198   0.046136  -0.025936
    18  H    0.000001   0.479809   0.479809   0.067775   0.110047   0.072788
       Tot   0.000010  29.000018  29.000018   0.000000   0.000000  -0.001179

 Dip from Atomic Chgs              0.000000   0.000000  -0.147811
         Total Dipole              0.000000   0.000000  -0.148990

 Hirshfeld charges, spin densities, dipoles, and CM5 charges using IRadAn=      4:
              Q-H        S-H        Dx         Dy         Dz        Q-CM5   
     1  C    0.001765   0.000000  -0.003298   0.067405  -0.038954  -0.015525
     2  C   -0.058707   0.000000  -0.002452   0.051081   0.023717  -0.112277
     3  C   -0.049367   0.000000   0.000000   0.000000   0.061798  -0.104871
     4  C   -0.058707   0.000000   0.002452  -0.051081   0.023717  -0.112277
     5  C    0.001765   0.000000   0.003298  -0.067405  -0.038954  -0.015525
     6  C   -0.058556   0.000000   0.000000   0.000000  -0.050386  -0.109958
     7  H    0.042238   0.000000   0.000418   0.132066   0.082072   0.098659
     8  H    0.045277   0.000000   0.000000   0.000000   0.158713   0.101010
     9  H    0.042238   0.000000  -0.000418  -0.132066   0.082072   0.098659
    10  H    0.040262   0.000000   0.000000   0.000000  -0.151149   0.097485
    11  C   -0.096308   0.000000  -0.000251   0.013293   0.008110  -0.240029
    12  H    0.040061   0.000000  -0.066688   0.009095  -0.131874   0.091988
    13  H    0.041742   0.000000   0.140198  -0.046136  -0.025936   0.093017
    14  H    0.040382   0.000000  -0.067775  -0.110047   0.072788   0.092315
    15  C   -0.096308   0.000000   0.000251  -0.013293   0.008110  -0.240029
    16  H    0.040061   0.000000   0.066688  -0.009095  -0.131874   0.091988
    17  H    0.041742   0.000000  -0.140198   0.046136  -0.025936   0.093017
    18  H    0.040382   0.000000   0.067775   0.110047   0.072788   0.092315
       Tot  -0.000037   0.000000   0.000000   0.000000  -0.001179  -0.000037
 Hirshfeld charges with hydrogens summed into heavy atoms:
              Q-H       Q-CM5   
     1  C    0.001765  -0.015525
     2  C   -0.016469  -0.013618
     3  C   -0.004090  -0.003861
     4  C   -0.016469  -0.013618
     5  C    0.001765  -0.015525
     6  C   -0.018293  -0.012473
    11  C    0.025877   0.037291
    15  C    0.025877   0.037291
 
 EQQ= 0.000000000000E+00 EQD= 0.000000000000E+00 EDD= 0.444486344194E-02
 EQQ+QD+DD= 0.444486344194E-02
 
          MBS Condensed to atoms (all electrons):
               1          2          3          4          5          6
     1  C    4.780186   0.503220  -0.029781  -0.011440  -0.026659   0.504879
     2  C    0.503220   4.850389   0.507456  -0.031368  -0.011440  -0.033003
     3  C   -0.029781   0.507456   4.821286   0.507456  -0.029781  -0.012295
     4  C   -0.011440  -0.031368   0.507456   4.850389   0.503220  -0.033003
     5  C   -0.026659  -0.011440  -0.029781   0.503220   4.780186   0.504879
     6  C    0.504879  -0.033003  -0.012295  -0.033003   0.504879   4.865376
     7  H   -0.026908   0.388745  -0.025908   0.001521   0.000051   0.001560
     8  H    0.001493  -0.025896   0.389937  -0.025896   0.001493   0.000045
     9  H    0.000051   0.001521  -0.025908   0.388745  -0.026908   0.001560
    10  H   -0.027345   0.001574   0.000061   0.001574  -0.027345   0.386541
    11  C    0.000844   0.000022   0.000893  -0.028405   0.387518  -0.028472
    12  H    0.000034   0.000001  -0.000028   0.001283  -0.021501  -0.003895
    13  H   -0.000019   0.000005  -0.000019  -0.000593  -0.021269  -0.000584
    14  H   -0.000027   0.000001   0.000034  -0.003836  -0.021526   0.001279
    15  C    0.387518  -0.028405   0.000893   0.000022   0.000844  -0.028472
    16  H   -0.021501   0.001283  -0.000028   0.000001   0.000034  -0.003895
    17  H   -0.021269  -0.000593  -0.000019   0.000005  -0.000019  -0.000584
    18  H   -0.021526  -0.003836   0.000034   0.000001  -0.000027   0.001279
               7          8          9         10         11         12
     1  C   -0.026908   0.001493   0.000051  -0.027345   0.000844   0.000034
     2  C    0.388745  -0.025896   0.001521   0.001574   0.000022   0.000001
     3  C   -0.025908   0.389937  -0.025908   0.000061   0.000893  -0.000028
     4  C    0.001521  -0.025896   0.388745   0.001574  -0.028405   0.001283
     5  C    0.000051   0.001493  -0.026908  -0.027345   0.387518  -0.021501
     6  C    0.001560   0.000045   0.001560   0.386541  -0.028472  -0.003895
     7  H    0.569750  -0.003887  -0.000041  -0.000046   0.000001   0.000000
     8  H   -0.003887   0.563302  -0.003887   0.000002  -0.000019   0.000001
     9  H   -0.000041  -0.003887   0.569750  -0.000046  -0.003616   0.000033
    10  H   -0.000046   0.000002  -0.000046   0.578072  -0.003856   0.001185
    11  C    0.000001  -0.000019  -0.003616  -0.003856   4.809225   0.376855
    12  H    0.000000   0.000001   0.000033   0.001185   0.376855   0.596311
    13  H    0.000000   0.000001   0.000145   0.000154   0.371707  -0.022180
    14  H    0.000000  -0.000002   0.001135   0.000037   0.376888  -0.021993
    15  C   -0.003616  -0.000019   0.000001  -0.003856  -0.000005  -0.000001
    16  H    0.000033   0.000001   0.000000   0.001185  -0.000001   0.000000
    17  H    0.000145   0.000001   0.000000   0.000154   0.000000   0.000000
    18  H    0.001135  -0.000002   0.000000   0.000037   0.000000   0.000000
              13         14         15         16         17         18
     1  C   -0.000019  -0.000027   0.387518  -0.021501  -0.021269  -0.021526
     2  C    0.000005   0.000001  -0.028405   0.001283  -0.000593  -0.003836
     3  C   -0.000019   0.000034   0.000893  -0.000028  -0.000019   0.000034
     4  C   -0.000593  -0.003836   0.000022   0.000001   0.000005   0.000001
     5  C   -0.021269  -0.021526   0.000844   0.000034  -0.000019  -0.000027
     6  C   -0.000584   0.001279  -0.028472  -0.003895  -0.000584   0.001279
     7  H    0.000000   0.000000  -0.003616   0.000033   0.000145   0.001135
     8  H    0.000001  -0.000002  -0.000019   0.000001   0.000001  -0.000002
     9  H    0.000145   0.001135   0.000001   0.000000   0.000000   0.000000
    10  H    0.000154   0.000037  -0.003856   0.001185   0.000154   0.000037
    11  C    0.371707   0.376888  -0.000005  -0.000001   0.000000   0.000000
    12  H   -0.022180  -0.021993  -0.000001   0.000000   0.000000   0.000000
    13  H    0.593526  -0.022154   0.000000   0.000000   0.000000   0.000000
    14  H   -0.022154   0.595689   0.000000   0.000000   0.000000   0.000000
    15  C    0.000000   0.000000   4.809225   0.376855   0.371707   0.376888
    16  H    0.000000   0.000000   0.376855   0.596311  -0.022180  -0.021993
    17  H    0.000000   0.000000   0.371707  -0.022180   0.593526  -0.022154
    18  H    0.000000   0.000000   0.376888  -0.021993  -0.022154   0.595689
 MBS Mulliken charges:
               1
     1  C    0.008251
     2  C   -0.119676
     3  C   -0.104284
     4  C   -0.119676
     5  C    0.008251
     6  C   -0.123193
     7  H    0.097466
     8  H    0.103331
     9  H    0.097466
    10  H    0.091916
    11  C   -0.259579
    12  H    0.093898
    13  H    0.101280
    14  H    0.094475
    15  C   -0.259579
    16  H    0.093898
    17  H    0.101280
    18  H    0.094475
 Sum of MBS Mulliken charges =   0.00000
 MBS Mulliken charges with hydrogens summed into heavy atoms:
               1
     1  C    0.008251
     2  C   -0.022210
     3  C   -0.000953
     4  C   -0.022210
     5  C    0.008251
     6  C   -0.031277
    11  C    0.030074
    15  C    0.030074
 Breneman (CHELPG) radii used.
 Generate Potential Derived Charges using the Breneman model, NDens= 1.
 Grid spacing= 0.300 Box extension= 2.800
 NStep X,Y,Z=   27     42     37   Total possible points=       41958
 Number of Points to Fit=   12592

 **********************************************************************

            Electrostatic Properties Using The SCF Density

 **********************************************************************

       Atomic Center    1 is at   0.000000  1.223547 -0.270088
       Atomic Center    2 is at   0.003992  1.208411  1.128288
       Atomic Center    3 is at   0.000000  0.000000  1.821053
       Atomic Center    4 is at  -0.003992 -1.208411  1.128288
       Atomic Center    5 is at   0.000000 -1.223547 -0.270088
       Atomic Center    6 is at   0.000000  0.000000 -0.947367
       Atomic Center    7 is at   0.008133  2.145361  1.676107
       Atomic Center    8 is at   0.000000  0.000000  2.905765
       Atomic Center    9 is at  -0.008133 -2.145361  1.676107
       Atomic Center   10 is at   0.000000  0.000000 -2.034180
       Atomic Center   11 is at   0.035968 -2.527440 -1.031481
       Atomic Center   12 is at  -0.452812 -2.435937 -2.004406
       Atomic Center   13 is at   1.068039 -2.847712 -1.212563
       Atomic Center   14 is at  -0.460905 -3.326610 -0.476302
       Atomic Center   15 is at  -0.035968  2.527440 -1.031481
       Atomic Center   16 is at   0.452812  2.435937 -2.004406
       Atomic Center   17 is at  -1.068039  2.847712 -1.212563
       Atomic Center   18 is at   0.460905  3.326610 -0.476302
   12592 points will be used for fitting atomic charges
 Fitting point charges to electrostatic potential
 Charges from ESP fit, RMS=   0.00378 RRMS=   0.46015:
 ESP charges:
               1
     1  C    0.233035
     2  C   -0.232686
     3  C   -0.043607
     4  C   -0.232686
     5  C    0.233035
     6  C   -0.337291
     7  H    0.112288
     8  H    0.085395
     9  H    0.112288
    10  H    0.140911
    11  C   -0.207703
    12  H    0.056606
    13  H    0.057894
    14  H    0.057863
    15  C   -0.207703
    16  H    0.056606
    17  H    0.057894
    18  H    0.057863
 Sum of ESP charges =   0.00000
 ESP charges with hydrogens summed into heavy atoms:
               1
     1  C    0.233035
     2  C   -0.120398
     3  C    0.041787
     4  C   -0.120398
     5  C    0.233035
     6  C   -0.196380
    11  C   -0.035341
    15  C   -0.035341
 Charge=   0.00000 Dipole=     0.0000     0.0000    -0.3212 Tot=     0.3212
 -----------------------------------------------------------------

              Electrostatic Properties (Atomic Units)

 -----------------------------------------------------------------
    Center     Electric         -------- Electric Field --------
               Potential          X             Y             Z
 -----------------------------------------------------------------
    1 Atom    -14.768447
    2 Atom    -14.783411
    3 Atom    -14.779141
    4 Atom    -14.783411
    5 Atom    -14.768447
    6 Atom    -14.784165
    7 Atom     -1.114101
    8 Atom     -1.113120
    9 Atom     -1.114101
   10 Atom     -1.113953
   11 Atom    -14.778019
   12 Atom     -1.118783
   13 Atom     -1.116872
   14 Atom     -1.118805
   15 Atom    -14.778019
   16 Atom     -1.118783
   17 Atom     -1.116872
   18 Atom     -1.118805
 -----------------------------------------------------------------
 ******************************Gaussian NBO Version 3.1******************************
             N A T U R A L   A T O M I C   O R B I T A L   A N D
          N A T U R A L   B O N D   O R B I T A L   A N A L Y S I S
 ******************************Gaussian NBO Version 3.1******************************
       /RESON  / : Allow strongly delocalized NBO set

 Analyzing the SCF density

 Job title: Chart5_3                                                        

 Storage needed:    168314 in NPA ( 104855800 available)


 NATURAL POPULATIONS:  Natural atomic orbital occupancies 
                                                          
   NAO  Atom  No  lang   Type(AO)    Occupancy      Energy
 ----------------------------------------------------------
     1    C    1  S      Cor( 1S)     1.99905     -10.03545
     2    C    1  S      Val( 2S)     0.88973      -0.13277
     3    C    1  S      Ryd( 3S)     0.00069       0.68497
     4    C    1  S      Ryd( 4S)     0.00021       1.24282
     5    C    1  S      Ryd( 5S)     0.00001      22.65888
     6    C    1  px     Val( 2p)     0.97791      -0.09385
     7    C    1  px     Ryd( 3p)     0.00132       0.58457
     8    C    1  px     Ryd( 4p)     0.00036       0.83061
     9    C    1  px     Ryd( 5p)     0.00003       2.26173
    10    C    1  py     Val( 2p)     1.06370      -0.04618
    11    C    1  py     Ryd( 4p)     0.00522       1.16124
    12    C    1  py     Ryd( 3p)     0.00043       0.86266
    13    C    1  py     Ryd( 5p)     0.00007       2.89632
    14    C    1  pz     Val( 2p)     1.07860      -0.04484
    15    C    1  pz     Ryd( 4p)     0.00403       0.98069
    16    C    1  pz     Ryd( 3p)     0.00033       0.88824
    17    C    1  pz     Ryd( 5p)     0.00009       2.84770
    18    C    1  dxy    Ryd( 3d)     0.00059       1.68002
    19    C    1  dxz    Ryd( 3d)     0.00056       1.68077
    20    C    1  dyz    Ryd( 3d)     0.00073       2.51809
    21    C    1  dx2y2  Ryd( 3d)     0.00048       2.19581
    22    C    1  dz2    Ryd( 3d)     0.00068       2.47114

    23    C    2  S      Cor( 1S)     1.99905     -10.01815
    24    C    2  S      Val( 2S)     0.93986      -0.14310
    25    C    2  S      Ryd( 4S)     0.00124       0.85603
    26    C    2  S      Ryd( 3S)     0.00018       0.64252
    27    C    2  S      Ryd( 5S)     0.00001      23.12460
    28    C    2  px     Val( 2p)     1.02253      -0.10210
    29    C    2  px     Ryd( 4p)     0.00125       0.51488
    30    C    2  px     Ryd( 3p)     0.00032       0.30223
    31    C    2  px     Ryd( 5p)     0.00002       2.72252
    32    C    2  py     Val( 2p)     1.14558      -0.04715
    33    C    2  py     Ryd( 4p)     0.00580       1.04164
    34    C    2  py     Ryd( 3p)     0.00034       0.34815
    35    C    2  py     Ryd( 5p)     0.00008       3.19718
    36    C    2  pz     Val( 2p)     1.09213      -0.04075
    37    C    2  pz     Ryd( 4p)     0.00439       0.81883
    38    C    2  pz     Ryd( 3p)     0.00046       0.37531
    39    C    2  pz     Ryd( 5p)     0.00013       3.16876
    40    C    2  dxy    Ryd( 3d)     0.00039       1.63837
    41    C    2  dxz    Ryd( 3d)     0.00047       1.67416
    42    C    2  dyz    Ryd( 3d)     0.00080       2.53306
    43    C    2  dx2y2  Ryd( 3d)     0.00049       2.17030
    44    C    2  dz2    Ryd( 3d)     0.00060       2.46908

    45    C    3  S      Cor( 1S)     1.99916     -10.02486
    46    C    3  S      Val( 2S)     0.94779      -0.15337
    47    C    3  S      Ryd( 3S)     0.00164       0.77162
    48    C    3  S      Ryd( 4S)     0.00017       1.12096
    49    C    3  S      Ryd( 5S)     0.00000      22.61816
    50    C    3  px     Val( 2p)     0.99096      -0.10188
    51    C    3  px     Ryd( 4p)     0.00097       0.52116
    52    C    3  px     Ryd( 3p)     0.00029       0.34629
    53    C    3  px     Ryd( 5p)     0.00001       2.65623
    54    C    3  py     Val( 2p)     1.06187      -0.03732
    55    C    3  py     Ryd( 4p)     0.00463       0.78056
    56    C    3  py     Ryd( 3p)     0.00039       0.41909
    57    C    3  py     Ryd( 5p)     0.00016       3.05718
    58    C    3  pz     Val( 2p)     1.17038      -0.04640
    59    C    3  pz     Ryd( 4p)     0.00725       1.06516
    60    C    3  pz     Ryd( 3p)     0.00029       0.27590
    61    C    3  pz     Ryd( 5p)     0.00006       3.19757
    62    C    3  dxy    Ryd( 3d)     0.00054       1.68693
    63    C    3  dxz    Ryd( 3d)     0.00035       1.61606
    64    C    3  dyz    Ryd( 3d)     0.00062       2.59834
    65    C    3  dx2y2  Ryd( 3d)     0.00046       2.23279
    66    C    3  dz2    Ryd( 3d)     0.00075       2.32287

    67    C    4  S      Cor( 1S)     1.99905     -10.01815
    68    C    4  S      Val( 2S)     0.93986      -0.14310
    69    C    4  S      Ryd( 4S)     0.00124       0.85603
    70    C    4  S      Ryd( 3S)     0.00018       0.64252
    71    C    4  S      Ryd( 5S)     0.00001      23.12460
    72    C    4  px     Val( 2p)     1.02253      -0.10210
    73    C    4  px     Ryd( 4p)     0.00125       0.51488
    74    C    4  px     Ryd( 3p)     0.00032       0.30223
    75    C    4  px     Ryd( 5p)     0.00002       2.72252
    76    C    4  py     Val( 2p)     1.14558      -0.04715
    77    C    4  py     Ryd( 4p)     0.00580       1.04164
    78    C    4  py     Ryd( 3p)     0.00034       0.34815
    79    C    4  py     Ryd( 5p)     0.00008       3.19718
    80    C    4  pz     Val( 2p)     1.09213      -0.04075
    81    C    4  pz     Ryd( 4p)     0.00439       0.81883
    82    C    4  pz     Ryd( 3p)     0.00046       0.37531
    83    C    4  pz     Ryd( 5p)     0.00013       3.16876
    84    C    4  dxy    Ryd( 3d)     0.00039       1.63837
    85    C    4  dxz    Ryd( 3d)     0.00047       1.67416
    86    C    4  dyz    Ryd( 3d)     0.00080       2.53306
    87    C    4  dx2y2  Ryd( 3d)     0.00049       2.17030
    88    C    4  dz2    Ryd( 3d)     0.00060       2.46908

    89    C    5  S      Cor( 1S)     1.99905     -10.03545
    90    C    5  S      Val( 2S)     0.88973      -0.13277
    91    C    5  S      Ryd( 3S)     0.00069       0.68497
    92    C    5  S      Ryd( 4S)     0.00021       1.24282
    93    C    5  S      Ryd( 5S)     0.00001      22.65888
    94    C    5  px     Val( 2p)     0.97791      -0.09385
    95    C    5  px     Ryd( 3p)     0.00132       0.58457
    96    C    5  px     Ryd( 4p)     0.00036       0.83061
    97    C    5  px     Ryd( 5p)     0.00003       2.26173
    98    C    5  py     Val( 2p)     1.06370      -0.04618
    99    C    5  py     Ryd( 4p)     0.00522       1.16124
   100    C    5  py     Ryd( 3p)     0.00043       0.86266
   101    C    5  py     Ryd( 5p)     0.00007       2.89632
   102    C    5  pz     Val( 2p)     1.07860      -0.04484
   103    C    5  pz     Ryd( 4p)     0.00403       0.98069
   104    C    5  pz     Ryd( 3p)     0.00033       0.88824
   105    C    5  pz     Ryd( 5p)     0.00009       2.84770
   106    C    5  dxy    Ryd( 3d)     0.00059       1.68002
   107    C    5  dxz    Ryd( 3d)     0.00056       1.68077
   108    C    5  dyz    Ryd( 3d)     0.00073       2.51809
   109    C    5  dx2y2  Ryd( 3d)     0.00048       2.19581
   110    C    5  dz2    Ryd( 3d)     0.00068       2.47114

   111    C    6  S      Cor( 1S)     1.99895     -10.01472
   112    C    6  S      Val( 2S)     0.93041      -0.13310
   113    C    6  S      Ryd( 4S)     0.00110       0.92010
   114    C    6  S      Ryd( 3S)     0.00018       0.65845
   115    C    6  S      Ryd( 5S)     0.00001      23.13346
   116    C    6  px     Val( 2p)     1.02328      -0.10246
   117    C    6  px     Ryd( 4p)     0.00103       0.51376
   118    C    6  px     Ryd( 3p)     0.00042       0.29426
   119    C    6  px     Ryd( 5p)     0.00001       2.75682
   120    C    6  py     Val( 2p)     1.07112      -0.03892
   121    C    6  py     Ryd( 4p)     0.00351       0.79524
   122    C    6  py     Ryd( 3p)     0.00035       0.47527
   123    C    6  py     Ryd( 5p)     0.00014       3.25346
   124    C    6  pz     Val( 2p)     1.16982      -0.05088
   125    C    6  pz     Ryd( 4p)     0.00585       1.08420
   126    C    6  pz     Ryd( 3p)     0.00029       0.35628
   127    C    6  pz     Ryd( 5p)     0.00005       3.23645
   128    C    6  dxy    Ryd( 3d)     0.00052       1.69271
   129    C    6  dxz    Ryd( 3d)     0.00035       1.62646
   130    C    6  dyz    Ryd( 3d)     0.00070       2.58638
   131    C    6  dx2y2  Ryd( 3d)     0.00048       2.26232
   132    C    6  dz2    Ryd( 3d)     0.00075       2.32342

   133    H    7  S      Val( 1S)     0.79667       0.05032
   134    H    7  S      Ryd( 2S)     0.00070       0.86050
   135    H    7  S      Ryd( 3S)     0.00016       1.87816
   136    H    7  px     Ryd( 2p)     0.00021       1.60903
   137    H    7  py     Ryd( 2p)     0.00033       2.54218
   138    H    7  pz     Ryd( 2p)     0.00021       2.18701

   139    H    8  S      Val( 1S)     0.79486       0.05077
   140    H    8  S      Ryd( 2S)     0.00077       0.61685
   141    H    8  S      Ryd( 3S)     0.00017       2.14394
   142    H    8  px     Ryd( 2p)     0.00021       1.60103
   143    H    8  py     Ryd( 2p)     0.00012       1.98300
   144    H    8  pz     Ryd( 2p)     0.00042       2.70306

   145    H    9  S      Val( 1S)     0.79667       0.05032
   146    H    9  S      Ryd( 2S)     0.00070       0.86050
   147    H    9  S      Ryd( 3S)     0.00016       1.87816
   148    H    9  px     Ryd( 2p)     0.00021       1.60903
   149    H    9  py     Ryd( 2p)     0.00033       2.54218
   150    H    9  pz     Ryd( 2p)     0.00021       2.18701

   151    H   10  S      Val( 1S)     0.79985       0.04670
   152    H   10  S      Ryd( 2S)     0.00090       0.97089
   153    H   10  S      Ryd( 3S)     0.00014       1.74609
   154    H   10  px     Ryd( 2p)     0.00020       1.61443
   155    H   10  py     Ryd( 2p)     0.00013       2.03242
   156    H   10  pz     Ryd( 2p)     0.00044       2.73448

   157    C   11  S      Cor( 1S)     1.99931     -10.02375
   158    C   11  S      Val( 2S)     1.07785      -0.24146
   159    C   11  S      Ryd( 4S)     0.00051       0.83192
   160    C   11  S      Ryd( 3S)     0.00012       0.69091
   161    C   11  S      Ryd( 5S)     0.00000      23.26087
   162    C   11  px     Val( 2p)     1.20838      -0.09508
   163    C   11  px     Ryd( 4p)     0.00054       0.50489
   164    C   11  px     Ryd( 3p)     0.00005       0.26041
   165    C   11  px     Ryd( 5p)     0.00006       3.05490
   166    C   11  py     Val( 2p)     1.11305      -0.08647
   167    C   11  py     Ryd( 4p)     0.00190       0.49320
   168    C   11  py     Ryd( 3p)     0.00026       0.26124
   169    C   11  py     Ryd( 5p)     0.00006       3.06543
   170    C   11  pz     Val( 2p)     1.18031      -0.09138
   171    C   11  pz     Ryd( 4p)     0.00309       0.51050
   172    C   11  pz     Ryd( 3p)     0.00016       0.28806
   173    C   11  pz     Ryd( 5p)     0.00003       3.08549
   174    C   11  dxy    Ryd( 3d)     0.00060       1.96046
   175    C   11  dxz    Ryd( 3d)     0.00057       2.01061
   176    C   11  dyz    Ryd( 3d)     0.00068       2.19638
   177    C   11  dx2y2  Ryd( 3d)     0.00069       2.14989
   178    C   11  dz2    Ryd( 3d)     0.00059       2.09410

   179    H   12  S      Val( 1S)     0.79212       0.03311
   180    H   12  S      Ryd( 2S)     0.00073       0.67205
   181    H   12  S      Ryd( 3S)     0.00009       2.09335
   182    H   12  px     Ryd( 2p)     0.00014       1.95081
   183    H   12  py     Ryd( 2p)     0.00013       1.72311
   184    H   12  pz     Ryd( 2p)     0.00025       2.50093

   185    H   13  S      Val( 1S)     0.78611       0.03209
   186    H   13  S      Ryd( 2S)     0.00071       0.61184
   187    H   13  S      Ryd( 3S)     0.00009       2.18546
   188    H   13  px     Ryd( 2p)     0.00028       2.56758
   189    H   13  py     Ryd( 2p)     0.00019       1.84038
   190    H   13  pz     Ryd( 2p)     0.00014       1.81120

   191    H   14  S      Val( 1S)     0.79156       0.03345
   192    H   14  S      Ryd( 2S)     0.00071       0.67758
   193    H   14  S      Ryd( 3S)     0.00009       2.08674
   194    H   14  px     Ryd( 2p)     0.00014       1.95772
   195    H   14  py     Ryd( 2p)     0.00022       2.25052
   196    H   14  pz     Ryd( 2p)     0.00015       1.96663

   197    C   15  S      Cor( 1S)     1.99931     -10.02375
   198    C   15  S      Val( 2S)     1.07785      -0.24146
   199    C   15  S      Ryd( 4S)     0.00051       0.83192
   200    C   15  S      Ryd( 3S)     0.00012       0.69091
   201    C   15  S      Ryd( 5S)     0.00000      23.26087
   202    C   15  px     Val( 2p)     1.20838      -0.09508
   203    C   15  px     Ryd( 4p)     0.00054       0.50489
   204    C   15  px     Ryd( 3p)     0.00005       0.26041
   205    C   15  px     Ryd( 5p)     0.00006       3.05490
   206    C   15  py     Val( 2p)     1.11305      -0.08647
   207    C   15  py     Ryd( 4p)     0.00190       0.49320
   208    C   15  py     Ryd( 3p)     0.00026       0.26124
   209    C   15  py     Ryd( 5p)     0.00006       3.06543
   210    C   15  pz     Val( 2p)     1.18031      -0.09138
   211    C   15  pz     Ryd( 4p)     0.00309       0.51050
   212    C   15  pz     Ryd( 3p)     0.00016       0.28806
   213    C   15  pz     Ryd( 5p)     0.00003       3.08549
   214    C   15  dxy    Ryd( 3d)     0.00060       1.96046
   215    C   15  dxz    Ryd( 3d)     0.00057       2.01061
   216    C   15  dyz    Ryd( 3d)     0.00068       2.19638
   217    C   15  dx2y2  Ryd( 3d)     0.00069       2.14989
   218    C   15  dz2    Ryd( 3d)     0.00059       2.09410

   219    H   16  S      Val( 1S)     0.79212       0.03311
   220    H   16  S      Ryd( 2S)     0.00073       0.67205
   221    H   16  S      Ryd( 3S)     0.00009       2.09335
   222    H   16  px     Ryd( 2p)     0.00014       1.95081
   223    H   16  py     Ryd( 2p)     0.00013       1.72311
   224    H   16  pz     Ryd( 2p)     0.00025       2.50093

   225    H   17  S      Val( 1S)     0.78611       0.03209
   226    H   17  S      Ryd( 2S)     0.00071       0.61184
   227    H   17  S      Ryd( 3S)     0.00009       2.18546
   228    H   17  px     Ryd( 2p)     0.00028       2.56758
   229    H   17  py     Ryd( 2p)     0.00019       1.84038
   230    H   17  pz     Ryd( 2p)     0.00014       1.81120

   231    H   18  S      Val( 1S)     0.79156       0.03345
   232    H   18  S      Ryd( 2S)     0.00071       0.67758
   233    H   18  S      Ryd( 3S)     0.00009       2.08674
   234    H   18  px     Ryd( 2p)     0.00014       1.95772
   235    H   18  py     Ryd( 2p)     0.00022       2.25052
   236    H   18  pz     Ryd( 2p)     0.00015       1.96663

 WARNING:  1 low occupancy (<1.9990e) core orbital  found on  C    6

 WARNING:  Population inversion found on atom  C    1
           Population inversion found on atom  C    2
           Population inversion found on atom  C    3
           Population inversion found on atom  C    4
           Population inversion found on atom  C    5
           Population inversion found on atom  C    6
           Population inversion found on atom  C   11
           Population inversion found on atom  C   15


 Summary of Natural Population Analysis:                  
                                                          
                                       Natural Population 
                Natural  -----------------------------------------------
    Atom  No    Charge         Core      Valence    Rydberg      Total
 -----------------------------------------------------------------------
      C    1   -0.02481      1.99905     4.00995    0.01582     6.02481
      C    2   -0.21612      1.99905     4.20011    0.01696     6.21612
      C    3   -0.18875      1.99916     4.17100    0.01859     6.18875
      C    4   -0.21612      1.99905     4.20011    0.01696     6.21612
      C    5   -0.02481      1.99905     4.00995    0.01582     6.02481
      C    6   -0.20932      1.99895     4.19463    0.01574     6.20932
      H    7    0.20171      0.00000     0.79667    0.00162     0.79829
      H    8    0.20345      0.00000     0.79486    0.00169     0.79655
      H    9    0.20171      0.00000     0.79667    0.00162     0.79829
      H   10    0.19833      0.00000     0.79985    0.00181     0.80167
      C   11   -0.58879      1.99931     4.57958    0.00989     6.58879
      H   12    0.20654      0.00000     0.79212    0.00134     0.79346
      H   13    0.21248      0.00000     0.78611    0.00141     0.78752
      H   14    0.20712      0.00000     0.79156    0.00132     0.79288
      C   15   -0.58879      1.99931     4.57958    0.00989     6.58879
      H   16    0.20654      0.00000     0.79212    0.00134     0.79346
      H   17    0.21248      0.00000     0.78611    0.00141     0.78752
      H   18    0.20712      0.00000     0.79156    0.00132     0.79288
 =======================================================================
   * Total *    0.00000     15.99291    41.87254    0.13455    58.00000

                                 Natural Population      
 --------------------------------------------------------
   Core                      15.99291 ( 99.9557% of  16)
   Valence                   41.87254 ( 99.6965% of  42)
   Natural Minimal Basis     57.86545 ( 99.7680% of  58)
   Natural Rydberg Basis      0.13455 (  0.2320% of  58)
 --------------------------------------------------------

    Atom  No          Natural Electron Configuration
 ----------------------------------------------------------------------------
      C    1      [core]2S( 0.89)2p( 3.12)4p( 0.01)
      C    2      [core]2S( 0.94)2p( 3.26)4p( 0.01)
      C    3      [core]2S( 0.95)2p( 3.22)4p( 0.01)
      C    4      [core]2S( 0.94)2p( 3.26)4p( 0.01)
      C    5      [core]2S( 0.89)2p( 3.12)4p( 0.01)
      C    6      [core]2S( 0.93)2p( 3.26)4p( 0.01)
      H    7            1S( 0.80)
      H    8            1S( 0.79)
      H    9            1S( 0.80)
      H   10            1S( 0.80)
      C   11      [core]2S( 1.08)2p( 3.50)4p( 0.01)
      H   12            1S( 0.79)
      H   13            1S( 0.79)
      H   14            1S( 0.79)
      C   15      [core]2S( 1.08)2p( 3.50)4p( 0.01)
      H   16            1S( 0.79)
      H   17            1S( 0.79)
      H   18            1S( 0.79)


 NBO analysis skipped by request.
 1\1\GINC-COREV3-23-050\SP\RB3LYP\6-311+G(d,p)\C8H10\ROOT\23-Jul-2021\0
 \\# b3lyp/6-311+g(d,p) geom=connectivity pop=(hirshfeld,chelpg,mbs,npa
 )\\Chart5_3\\0,1\C,0,-1.223476,-0.270088,-0.013135\C,0,-1.208299,1.128
 288,-0.016964\C,0,0.,1.821053,0.\C,0,1.208299,1.128288,0.016964\C,0,1.
 223476,-0.270088,0.013135\C,0,0.,-0.947367,0.\H,0,-2.14515,1.676107,-0
 .031163\H,0,0.,2.905765,0.\H,0,2.14515,1.676107,0.031163\H,0,0.,-2.034
 18,0.\C,0,2.52768,-1.031481,-0.008833\H,0,2.430936,-2.004406,0.478936\
 H,0,2.859014,-1.212563,-1.037407\H,0,3.32147,-0.476302,0.49659\C,0,-2.
 52768,-1.031481,0.008833\H,0,-2.430936,-2.004406,-0.478936\H,0,-2.8590
 14,-1.212563,1.037407\H,0,-3.32147,-0.476302,-0.49659\\Version=ES64L-G
 09RevD.01\State=1-A\HF=-310.9662525\RMSD=2.610e-09\Dipole=0.,-0.149136
 1,0.\Quadrupole=2.2399592,1.4087752,-3.6487344,0.,-0.0709214,0.\PG=C02
  [C2(H1C1C1H1),X(C6H8)]\\@


 EVERYTHING'S GOT A MORAL, IF ONLY YOU CAN FIND IT.

                                    -- LEWIS CARROL, ALICE IN WONDERLAND
 Job cpu time:       0 days  0 hours  5 minutes 53.6 seconds.
 File lengths (MBytes):  RWF=     71 Int=      0 D2E=      0 Chk=      3 Scr=      1
 Normal termination of Gaussian 09 at Fri Jul 23 17:25:51 2021.
