 Entering Gaussian System, Link 0=g09
 Initial command:
 /cm/shared/apps/gaussian/g09revD.01/g09/l1.exe "//home/sweav003/CHB/validation/G09-Traceless2_Smith.com.o9822900.tmp/Gau-100909.inp" -scrdir="//home/sweav003/CHB/validation/G09-Traceless2_Smith.com.o9822900.tmp/"
 Entering Link 1 = /cm/shared/apps/gaussian/g09revD.01/g09/l1.exe PID=    100910.
  
 Copyright (c) 1988,1990,1992,1993,1995,1998,2003,2009,2013,
            Gaussian, Inc.  All Rights Reserved.
  
 This is part of the Gaussian(R) 09 program.  It is based on
 the Gaussian(R) 03 system (copyright 2003, Gaussian, Inc.),
 the Gaussian(R) 98 system (copyright 1998, Gaussian, Inc.),
 the Gaussian(R) 94 system (copyright 1995, Gaussian, Inc.),
 the Gaussian 92(TM) system (copyright 1992, Gaussian, Inc.),
 the Gaussian 90(TM) system (copyright 1990, Gaussian, Inc.),
 the Gaussian 88(TM) system (copyright 1988, Gaussian, Inc.),
 the Gaussian 86(TM) system (copyright 1986, Carnegie Mellon
 University), and the Gaussian 82(TM) system (copyright 1983,
 Carnegie Mellon University). Gaussian is a federally registered
 trademark of Gaussian, Inc.
  
 This software contains proprietary and confidential information,
 including trade secrets, belonging to Gaussian, Inc.
  
 This software is provided under written license and may be
 used, copied, transmitted, or stored only in accord with that
 written license.
  
 The following legend is applicable only to US Government
 contracts under FAR:
  
                    RESTRICTED RIGHTS LEGEND
  
 Use, reproduction and disclosure by the US Government is
 subject to restrictions as set forth in subparagraphs (a)
 and (c) of the Commercial Computer Software - Restricted
 Rights clause in FAR 52.227-19.
  
 Gaussian, Inc.
 340 Quinnipiac St., Bldg. 40, Wallingford CT 06492
  
  
 ---------------------------------------------------------------
 Warning -- This program may not be used in any manner that
 competes with the business of Gaussian, Inc. or will provide
 assistance to any competitor of Gaussian, Inc.  The licensee
 of this program is prohibited from giving any competitor of
 Gaussian, Inc. access to this program.  By using this program,
 the user acknowledges that Gaussian, Inc. is engaged in the
 business of creating and licensing software in the field of
 computational chemistry and represents and warrants to the
 licensee that it is not a competitor of Gaussian, Inc. and that
 it will not use this program in any manner prohibited above.
 ---------------------------------------------------------------
  

 Cite this work as:
 Gaussian 09, Revision D.01,
 M. J. Frisch, G. W. Trucks, H. B. Schlegel, G. E. Scuseria, 
 M. A. Robb, J. R. Cheeseman, G. Scalmani, V. Barone, B. Mennucci, 
 G. A. Petersson, H. Nakatsuji, M. Caricato, X. Li, H. P. Hratchian, 
 A. F. Izmaylov, J. Bloino, G. Zheng, J. L. Sonnenberg, M. Hada, 
 M. Ehara, K. Toyota, R. Fukuda, J. Hasegawa, M. Ishida, T. Nakajima, 
 Y. Honda, O. Kitao, H. Nakai, T. Vreven, J. A. Montgomery, Jr., 
 J. E. Peralta, F. Ogliaro, M. Bearpark, J. J. Heyd, E. Brothers, 
 K. N. Kudin, V. N. Staroverov, T. Keith, R. Kobayashi, J. Normand, 
 K. Raghavachari, A. Rendell, J. C. Burant, S. S. Iyengar, J. Tomasi, 
 M. Cossi, N. Rega, J. M. Millam, M. Klene, J. E. Knox, J. B. Cross, 
 V. Bakken, C. Adamo, J. Jaramillo, R. Gomperts, R. E. Stratmann, 
 O. Yazyev, A. J. Austin, R. Cammi, C. Pomelli, J. W. Ochterski, 
 R. L. Martin, K. Morokuma, V. G. Zakrzewski, G. A. Voth, 
 P. Salvador, J. J. Dannenberg, S. Dapprich, A. D. Daniels, 
 O. Farkas, J. B. Foresman, J. V. Ortiz, J. Cioslowski, 
 and D. J. Fox, Gaussian, Inc., Wallingford CT, 2013.
 
 ******************************************
 Gaussian 09:  ES64L-G09RevD.01 24-Apr-2013
                 9-Jan-2023 
 ******************************************
 %nprocshared=20
 Will use up to   20 processors via shared memory.
 %mem=4GB
 %chk=Traceless2_Smith.chk
 ----------------------------------------------------------------------
 # opt freq b3lyp/6-311+g(d,p) geom=connectivity pop=(hirshfeld,chelpg,
 mbs,npa)
 ----------------------------------------------------------------------
 1/14=-1,18=20,19=15,26=3,38=1,57=2/1,3;
 2/9=110,12=2,17=6,18=5,40=1/2;
 3/5=4,6=6,7=111,11=2,16=1,25=1,30=1,71=1,74=-5/1,2,3;
 4//1;
 5/5=2,38=5/2;
 6/7=2,8=2,9=2,10=2,15=8,20=3,27=100,28=1,40=-1,79=1/1,2,7;
 7//1,2,3,16;
 1/14=-1,18=20,19=15,26=3/3(2);
 2/9=110/2;
 99//99;
 2/9=110/2;
 3/5=4,6=6,7=111,11=2,16=1,25=1,30=1,71=1,74=-5/1,2,3;
 4/5=5,16=3,69=1/1;
 5/5=2,38=5/2;
 7//1,2,3,16;
 1/14=-1,18=20,19=15,26=3/3(-5);
 2/9=110/2;
 6/7=2,8=2,9=2,10=2,15=8,19=2,20=3,27=100,28=1,40=-1,79=1/1,2,7;
 99/9=1/99;
 -------------------
 Title Card Required
 -------------------
 Symbolic Z-matrix:
 Charge =  0 Multiplicity = 1
 C                    -1.96154  -1.2356    0. 
 C                    -0.77197  -1.96457   0. 
 C                     0.45383  -1.29925   0. 
 C                     0.49042   0.09569  -0.0012 
 C                    -0.6989    0.82442  -0.00168 
 C                    -1.92499   0.15875  -0.00068 
 H                     1.3915   -1.87377   0.00063 
 H                     1.45704   0.62005  -0.00126 
 H                    -2.86246   0.73345  -0.00086 
 N                    -0.66079   2.29393  -0.00295 
 H                    -0.1826    2.61568   0.81424 
 H                    -0.17921   2.61418  -0.81875 
 O                    -0.80951  -3.39408   0. 
 H                    -0.82577  -3.71421   0.9049 
 Cl                   -3.50822  -2.07547   0.00072 
 

 GradGradGradGradGradGradGradGradGradGradGradGradGradGradGradGradGradGrad
 Berny optimization.
 Initialization pass.
                           ----------------------------
                           !    Initial Parameters    !
                           ! (Angstroms and Degrees)  !
 --------------------------                            --------------------------
 ! Name  Definition              Value          Derivative Info.                !
 --------------------------------------------------------------------------------
 ! R1    R(1,2)                  1.3952         estimate D2E/DX2                !
 ! R2    R(1,6)                  1.3948         estimate D2E/DX2                !
 ! R3    R(1,15)                 1.76           estimate D2E/DX2                !
 ! R4    R(2,3)                  1.3947         estimate D2E/DX2                !
 ! R5    R(2,13)                 1.43           estimate D2E/DX2                !
 ! R6    R(3,4)                  1.3954         estimate D2E/DX2                !
 ! R7    R(3,7)                  1.0997         estimate D2E/DX2                !
 ! R8    R(4,5)                  1.3948         estimate D2E/DX2                !
 ! R9    R(4,8)                  1.0997         estimate D2E/DX2                !
 ! R10   R(5,6)                  1.3951         estimate D2E/DX2                !
 ! R11   R(5,10)                 1.47           estimate D2E/DX2                !
 ! R12   R(6,9)                  1.0996         estimate D2E/DX2                !
 ! R13   R(10,11)                1.0            estimate D2E/DX2                !
 ! R14   R(10,12)                1.0            estimate D2E/DX2                !
 ! R15   R(13,14)                0.96           estimate D2E/DX2                !
 ! A1    A(2,1,6)              119.9985         estimate D2E/DX2                !
 ! A2    A(2,1,15)             119.9972         estimate D2E/DX2                !
 ! A3    A(6,1,15)             120.0043         estimate D2E/DX2                !
 ! A4    A(1,2,3)              120.0086         estimate D2E/DX2                !
 ! A5    A(1,2,13)             119.9957         estimate D2E/DX2                !
 ! A6    A(3,2,13)             119.9957         estimate D2E/DX2                !
 ! A7    A(2,3,4)              119.9942         estimate D2E/DX2                !
 ! A8    A(2,3,7)              120.0128         estimate D2E/DX2                !
 ! A9    A(4,3,7)              119.993          estimate D2E/DX2                !
 ! A10   A(3,4,5)              119.994          estimate D2E/DX2                !
 ! A11   A(3,4,8)              119.9811         estimate D2E/DX2                !
 ! A12   A(5,4,8)              120.0249         estimate D2E/DX2                !
 ! A13   A(4,5,6)              120.0047         estimate D2E/DX2                !
 ! A14   A(4,5,10)             120.0113         estimate D2E/DX2                !
 ! A15   A(6,5,10)             119.984          estimate D2E/DX2                !
 ! A16   A(1,6,5)              120.0            estimate D2E/DX2                !
 ! A17   A(1,6,9)              120.008          estimate D2E/DX2                !
 ! A18   A(5,6,9)              119.992          estimate D2E/DX2                !
 ! A19   A(5,10,11)            109.4712         estimate D2E/DX2                !
 ! A20   A(5,10,12)            109.4712         estimate D2E/DX2                !
 ! A21   A(11,10,12)           109.4713         estimate D2E/DX2                !
 ! A22   A(2,13,14)            109.5            estimate D2E/DX2                !
 ! D1    D(6,1,2,3)              0.0323         estimate D2E/DX2                !
 ! D2    D(6,1,2,13)          -179.9677         estimate D2E/DX2                !
 ! D3    D(15,1,2,3)          -179.9729         estimate D2E/DX2                !
 ! D4    D(15,1,2,13)            0.0271         estimate D2E/DX2                !
 ! D5    D(2,1,6,5)              0.0149         estimate D2E/DX2                !
 ! D6    D(2,1,6,9)            179.9892         estimate D2E/DX2                !
 ! D7    D(15,1,6,5)          -179.9798         estimate D2E/DX2                !
 ! D8    D(15,1,6,9)            -0.0056         estimate D2E/DX2                !
 ! D9    D(1,2,3,4)             -0.0568         estimate D2E/DX2                !
 ! D10   D(1,2,3,7)            179.9619         estimate D2E/DX2                !
 ! D11   D(13,2,3,4)           179.9432         estimate D2E/DX2                !
 ! D12   D(13,2,3,7)            -0.0381         estimate D2E/DX2                !
 ! D13   D(1,2,13,14)          -89.5032         estimate D2E/DX2                !
 ! D14   D(3,2,13,14)           90.4968         estimate D2E/DX2                !
 ! D15   D(2,3,4,5)              0.0341         estimate D2E/DX2                !
 ! D16   D(2,3,4,8)           -179.9964         estimate D2E/DX2                !
 ! D17   D(7,3,4,5)           -179.9846         estimate D2E/DX2                !
 ! D18   D(7,3,4,8)             -0.0151         estimate D2E/DX2                !
 ! D19   D(3,4,5,6)              0.0131         estimate D2E/DX2                !
 ! D20   D(3,4,5,10)          -179.9995         estimate D2E/DX2                !
 ! D21   D(8,4,5,6)           -179.9563         estimate D2E/DX2                !
 ! D22   D(8,4,5,10)             0.0311         estimate D2E/DX2                !
 ! D23   D(4,5,6,1)             -0.0376         estimate D2E/DX2                !
 ! D24   D(4,5,6,9)            179.9881         estimate D2E/DX2                !
 ! D25   D(10,5,6,1)           179.975          estimate D2E/DX2                !
 ! D26   D(10,5,6,9)             0.0007         estimate D2E/DX2                !
 ! D27   D(4,5,10,11)          -60.1262         estimate D2E/DX2                !
 ! D28   D(4,5,10,12)           59.8738         estimate D2E/DX2                !
 ! D29   D(6,5,10,11)          119.8611         estimate D2E/DX2                !
 ! D30   D(6,5,10,12)         -120.1389         estimate D2E/DX2                !
 --------------------------------------------------------------------------------
 Trust Radius=3.00D-01 FncErr=1.00D-07 GrdErr=1.00D-06
 Number of steps in this run=     77 maximum allowed number of steps=    100.
 GradGradGradGradGradGradGradGradGradGradGradGradGradGradGradGradGradGrad

                          Input orientation:                          
 ---------------------------------------------------------------------
 Center     Atomic      Atomic             Coordinates (Angstroms)
 Number     Number       Type             X           Y           Z
 ---------------------------------------------------------------------
      1          6           0       -1.961540   -1.235600    0.000000
      2          6           0       -0.771971   -1.964569    0.000000
      3          6           0        0.453826   -1.299254    0.000000
      4          6           0        0.490423    0.095692   -0.001199
      5          6           0       -0.698902    0.824420   -0.001678
      6          6           0       -1.924990    0.158750   -0.000682
      7          1           0        1.391499   -1.873767    0.000634
      8          1           0        1.457039    0.620049   -0.001258
      9          1           0       -2.862461    0.733448   -0.000862
     10          7           0       -0.660795    2.293925   -0.002952
     11          1           0       -0.182604    2.615678    0.814244
     12          1           0       -0.179213    2.614175   -0.818746
     13          8           0       -0.809512   -3.394076    0.000000
     14          1           0       -0.825768   -3.714214    0.904902
     15         17           0       -3.508218   -2.075474    0.000720
 ---------------------------------------------------------------------
                    Distance matrix (angstroms):
                    1          2          3          4          5
     1  C    0.000000
     2  C    1.395160   0.000000
     3  C    2.416205   1.394712   0.000000
     4  C    2.790065   2.416260   1.395427   0.000000
     5  C    2.416183   2.789946   2.416356   1.394825   0.000000
     6  C    1.394829   2.416183   2.790080   2.416236   1.395138
     7  H    3.413229   2.165375   1.099680   2.165806   3.413209
     8  H    3.889745   3.413024   2.165678   1.099680   2.165606
     9  H    2.165365   3.413128   3.889684   3.412999   2.165471
    10  N    3.761581   4.259946   3.762091   2.481438   1.470000
    11  H    4.319716   4.689244   4.049041   2.732808   2.034920
    12  H    4.320625   4.688987   4.047964   2.731218   2.034920
    13  O    2.446669   1.430000   2.446283   3.724018   4.219946
    14  H    2.872691   1.970533   2.878930   4.131436   4.630030
    15  Cl   1.760000   2.738494   4.037364   4.550065   4.037529
                    6          7          8          9         10
     6  C    0.000000
     7  H    3.889760   0.000000
     8  H    3.413344   2.494678   0.000000
     9  H    1.099604   4.989364   4.320988   0.000000
    10  N    2.481364   4.645598   2.699460   2.698598   0.000000
    11  H    3.120338   4.826477   2.708507   3.374733   1.000000
    12  H    3.121870   4.824951   2.705946   3.377260   1.000000
    13  O    3.723824   2.675030   4.609821   4.609887   5.689946
    14  H    4.126527   3.020136   4.981783   4.974960   6.078581
    15  Cl   2.738315   4.903867   5.649745   2.882194   5.215312
                   11         12         13         14         15
    11  H    0.000000
    12  H    1.632993   0.000000
    13  O    6.096979   6.096450   0.000000
    14  H    6.363129   6.590713   0.960000   0.000000
    15  Cl   5.807619   5.809182   3.003619   3.270864   0.000000
 Stoichiometry    C6H6ClNO
 Framework group  C1[X(C6H6ClNO)]
 Deg. of freedom    39
 Full point group                 C1      NOp   1
 Largest Abelian subgroup         C1      NOp   1
 Largest concise Abelian subgroup C1      NOp   1
                         Standard orientation:                         
 ---------------------------------------------------------------------
 Center     Atomic      Atomic             Coordinates (Angstroms)
 Number     Number       Type             X           Y           Z
 ---------------------------------------------------------------------
      1          6           0        0.617016   -0.370295   -0.011456
      2          6           0        0.643724    1.024458   -0.032000
      3          6           0       -0.550411    1.745057   -0.032619
      4          6           0       -1.772023    1.070868   -0.013888
      5          6           0       -1.798650   -0.323559    0.006171
      6          6           0       -0.604053   -1.044215    0.007784
      7          1           0       -0.529434    2.844427   -0.048177
      8          1           0       -2.713426    1.639247   -0.014439
      9          1           0       -0.625288   -2.143497    0.023797
     10          7           0       -3.085331   -1.034167    0.025897
     11          1           0       -3.598063   -0.772625    0.843639
     12          1           0       -3.611991   -0.792731   -0.789172
     13          8           0        1.895611    1.715300   -0.052424
     14          1           0        2.187429    1.876428    0.847843
     15         17           0        2.124093   -1.279315   -0.009961
 ---------------------------------------------------------------------
 Rotational constants (GHZ):      2.2944405      1.0457936      0.7227627
 Standard basis: 6-311+G(d,p) (5D, 7F)
 There are   251 symmetry adapted cartesian basis functions of A   symmetry.
 There are   242 symmetry adapted basis functions of A   symmetry.
   242 basis functions,   389 primitive gaussians,   251 cartesian basis functions
    37 alpha electrons       37 beta electrons
       nuclear repulsion energy       486.7325480175 Hartrees.
 NAtoms=   15 NActive=   15 NUniq=   15 SFac= 1.00D+00 NAtFMM=   60 NAOKFM=F Big=F
 Integral buffers will be    131072 words long.
 Raffenetti 2 integral format.
 Two-electron integral symmetry is turned on.
 One-electron integrals computed using PRISM.
 NBasis=   242 RedAO= T EigKep=  2.02D-06  NBF=   242
 NBsUse=   242 1.00D-06 EigRej= -1.00D+00 NBFU=   242
 ExpMin= 4.38D-02 ExpMax= 1.06D+05 ExpMxC= 3.62D+03 IAcc=2 IRadAn=         4 AccDes= 0.00D+00
 Harris functional with IExCor=  402 and IRadAn=       4 diagonalized for initial guess.
 HarFok:  IExCor=  402 AccDes= 0.00D+00 IRadAn=         4 IDoV= 1 UseB2=F ITyADJ=14
 ICtDFT=  3500011 ScaDFX=  1.000000  1.000000  1.000000  1.000000
 FoFCou: FMM=F IPFlag=           0 FMFlag=      100000 FMFlg1=           0
         NFxFlg=           0 DoJE=T BraDBF=F KetDBF=T FulRan=T
         wScrn=  0.000000 ICntrl=     500 IOpCl=  0 I1Cent=   200000004 NGrid=           0
         NMat0=    1 NMatS0=      1 NMatT0=    0 NMatD0=    1 NMtDS0=    0 NMtDT0=    0
 Petite list used in FoFCou.
 Keep R1 ints in memory in canonical form, NReq=440498720.
 Requested convergence on RMS density matrix=1.00D-08 within 128 cycles.
 Requested convergence on MAX density matrix=1.00D-06.
 Requested convergence on             energy=1.00D-06.
 No special actions if energy rises.
 SCF Done:  E(RB3LYP) =  -822.536426737     A.U. after   15 cycles
            NFock= 15  Conv=0.77D-08     -V/T= 2.0033

 **********************************************************************

            Population analysis using the SCF density.

 **********************************************************************

 Orbital symmetries:
       Occupied  (A) (A) (A) (A) (A) (A) (A) (A) (A) (A) (A) (A)
                 (A) (A) (A) (A) (A) (A) (A) (A) (A) (A) (A) (A)
                 (A) (A) (A) (A) (A) (A) (A) (A) (A) (A) (A) (A)
                 (A)
       Virtual   (A) (A) (A) (A) (A) (A) (A) (A) (A) (A) (A) (A)
                 (A) (A) (A) (A) (A) (A) (A) (A) (A) (A) (A) (A)
                 (A) (A) (A) (A) (A) (A) (A) (A) (A) (A) (A) (A)
                 (A) (A) (A) (A) (A) (A) (A) (A) (A) (A) (A) (A)
                 (A) (A) (A) (A) (A) (A) (A) (A) (A) (A) (A) (A)
                 (A) (A) (A) (A) (A) (A) (A) (A) (A) (A) (A) (A)
                 (A) (A) (A) (A) (A) (A) (A) (A) (A) (A) (A) (A)
                 (A) (A) (A) (A) (A) (A) (A) (A) (A) (A) (A) (A)
                 (A) (A) (A) (A) (A) (A) (A) (A) (A) (A) (A) (A)
                 (A) (A) (A) (A) (A) (A) (A) (A) (A) (A) (A) (A)
                 (A) (A) (A) (A) (A) (A) (A) (A) (A) (A) (A) (A)
                 (A) (A) (A) (A) (A) (A) (A) (A) (A) (A) (A) (A)
                 (A) (A) (A) (A) (A) (A) (A) (A) (A) (A) (A) (A)
                 (A) (A) (A) (A) (A) (A) (A) (A) (A) (A) (A) (A)
                 (A) (A) (A) (A) (A) (A) (A) (A) (A) (A) (A) (A)
                 (A) (A) (A) (A) (A) (A) (A) (A) (A) (A) (A) (A)
                 (A) (A) (A) (A) (A) (A) (A) (A) (A) (A) (A) (A)
                 (A)
 The electronic state is 1-A.
 Alpha  occ. eigenvalues -- -101.55901 -19.15140 -14.31343 -10.25424 -10.24909
 Alpha  occ. eigenvalues --  -10.22685 -10.19908 -10.19757 -10.19541  -9.47327
 Alpha  occ. eigenvalues --   -7.23808  -7.22816  -7.22754  -1.04935  -0.91982
 Alpha  occ. eigenvalues --   -0.88692  -0.83821  -0.75917  -0.73774  -0.63150
 Alpha  occ. eigenvalues --   -0.61472  -0.55528  -0.51220  -0.50943  -0.49617
 Alpha  occ. eigenvalues --   -0.46494  -0.44462  -0.43933  -0.40834  -0.38935
 Alpha  occ. eigenvalues --   -0.38302  -0.34282  -0.32461  -0.31377  -0.27208
 Alpha  occ. eigenvalues --   -0.27032  -0.25761
 Alpha virt. eigenvalues --   -0.03713  -0.02772  -0.00930  -0.00515   0.00539
 Alpha virt. eigenvalues --    0.02339   0.03142   0.04878   0.05170   0.05665
 Alpha virt. eigenvalues --    0.07257   0.07606   0.07931   0.08943   0.09959
 Alpha virt. eigenvalues --    0.10976   0.11094   0.11398   0.12576   0.13206
 Alpha virt. eigenvalues --    0.13796   0.14241   0.15215   0.15844   0.16224
 Alpha virt. eigenvalues --    0.16837   0.17503   0.18404   0.18708   0.18843
 Alpha virt. eigenvalues --    0.19183   0.20164   0.20652   0.21278   0.21754
 Alpha virt. eigenvalues --    0.22381   0.22520   0.23535   0.24758   0.25726
 Alpha virt. eigenvalues --    0.26532   0.27101   0.28444   0.29009   0.30854
 Alpha virt. eigenvalues --    0.31832   0.32397   0.32975   0.33658   0.35464
 Alpha virt. eigenvalues --    0.36026   0.39693   0.44946   0.46479   0.47128
 Alpha virt. eigenvalues --    0.48054   0.50315   0.50510   0.52512   0.53315
 Alpha virt. eigenvalues --    0.54072   0.54960   0.56129   0.57095   0.58441
 Alpha virt. eigenvalues --    0.59766   0.60326   0.61109   0.62435   0.64741
 Alpha virt. eigenvalues --    0.67031   0.69427   0.70625   0.72250   0.74459
 Alpha virt. eigenvalues --    0.76338   0.79397   0.81550   0.82030   0.82750
 Alpha virt. eigenvalues --    0.83607   0.84160   0.85196   0.85678   0.87033
 Alpha virt. eigenvalues --    0.88132   0.89973   0.91779   0.94174   0.94966
 Alpha virt. eigenvalues --    0.98416   0.99196   1.00092   1.01485   1.03559
 Alpha virt. eigenvalues --    1.04092   1.07559   1.12218   1.13251   1.17043
 Alpha virt. eigenvalues --    1.18657   1.23667   1.26577   1.27093   1.28450
 Alpha virt. eigenvalues --    1.31933   1.37788   1.40313   1.41972   1.45940
 Alpha virt. eigenvalues --    1.49550   1.52433   1.55103   1.56228   1.56879
 Alpha virt. eigenvalues --    1.58034   1.59386   1.64219   1.65401   1.68029
 Alpha virt. eigenvalues --    1.69008   1.72295   1.74539   1.79127   1.83537
 Alpha virt. eigenvalues --    1.83943   1.88350   1.90012   1.92320   1.93729
 Alpha virt. eigenvalues --    1.95387   1.96220   1.99835   1.99968   2.02830
 Alpha virt. eigenvalues --    2.06199   2.11209   2.14162   2.16449   2.21547
 Alpha virt. eigenvalues --    2.27702   2.28017   2.29782   2.36087   2.39526
 Alpha virt. eigenvalues --    2.45600   2.51072   2.51528   2.53732   2.55568
 Alpha virt. eigenvalues --    2.56754   2.58819   2.63462   2.65683   2.67490
 Alpha virt. eigenvalues --    2.69612   2.74538   2.77174   2.77608   2.78008
 Alpha virt. eigenvalues --    2.82299   2.83634   2.86806   2.87253   2.88380
 Alpha virt. eigenvalues --    2.97525   3.04270   3.06277   3.10020   3.10666
 Alpha virt. eigenvalues --    3.12607   3.17335   3.28716   3.30451   3.31330
 Alpha virt. eigenvalues --    3.34914   3.41923   3.51186   3.58002   3.77812
 Alpha virt. eigenvalues --    3.81443   3.83484   4.03867   4.08610   4.11020
 Alpha virt. eigenvalues --    4.15762   4.76068   4.82381   4.87363   5.12457
 Alpha virt. eigenvalues --    5.34329   5.67195   9.77987  23.45070  23.85804
 Alpha virt. eigenvalues --   23.89938  24.01267  24.05145  24.14183  25.83537
 Alpha virt. eigenvalues --   26.16761  26.63249  35.62169  49.92398 215.77105
          Condensed to atoms (all electrons):
               1          2          3          4          5          6
     1  C   16.998740  -4.031338  -2.727131  -2.056732  -0.757352  -1.738168
     2  C   -4.031338  15.848143   0.639105  -0.023775  -2.294111  -3.408978
     3  C   -2.727131   0.639105   9.670887   0.263404  -0.130318  -2.219880
     4  C   -2.056732  -0.023775   0.263404   6.964771   0.741606   0.049420
     5  C   -0.757352  -2.294111  -0.130318   0.741606   8.718098  -0.030681
     6  C   -1.738168  -3.408978  -2.219880   0.049420  -0.030681  13.441571
     7  H    0.006123  -0.061768   0.407024  -0.006385   0.005291   0.003472
     8  H    0.027146  -0.014206   0.031473   0.437350  -0.057005  -0.060208
     9  H    0.031335   0.014760   0.010780  -0.017978  -0.021899   0.330656
    10  N    0.055465   0.007300  -0.112985  -0.245171   0.283074   0.020851
    11  H   -0.002112   0.000721  -0.005679   0.013120  -0.030280  -0.007247
    12  H   -0.004374  -0.003916  -0.007905   0.003595  -0.022607   0.004001
    13  O   -0.181267   0.446892  -0.318479   0.005725  -0.003591   0.081758
    14  H   -0.034466   0.050263   0.023507  -0.009228   0.002938  -0.031764
    15  Cl  -1.098125   0.118345   0.387359   0.043202  -0.039418   0.091863
               7          8          9         10         11         12
     1  C    0.006123   0.027146   0.031335   0.055465  -0.002112  -0.004374
     2  C   -0.061768  -0.014206   0.014760   0.007300   0.000721  -0.003916
     3  C    0.407024   0.031473   0.010780  -0.112985  -0.005679  -0.007905
     4  C   -0.006385   0.437350  -0.017978  -0.245171   0.013120   0.003595
     5  C    0.005291  -0.057005  -0.021899   0.283074  -0.030280  -0.022607
     6  C    0.003472  -0.060208   0.330656   0.020851  -0.007247   0.004001
     7  H    0.518731  -0.007019   0.000024  -0.001331   0.000031   0.000022
     8  H   -0.007019   0.535686  -0.000135  -0.029360   0.000996   0.001040
     9  H    0.000024  -0.000135   0.489491  -0.003244   0.000350   0.000232
    10  N   -0.001331  -0.029360  -0.003244   6.628121   0.400402   0.401588
    11  H    0.000031   0.000996   0.000350   0.400402   0.448598  -0.053508
    12  H    0.000022   0.001040   0.000232   0.401588  -0.053508   0.445855
    13  O   -0.007006  -0.000501  -0.000484   0.000172   0.000005  -0.000011
    14  H    0.000492   0.000021   0.000021  -0.000064  -0.000002   0.000002
    15  Cl   0.002023   0.000942   0.004083   0.005396  -0.000213   0.000008
              13         14         15
     1  C   -0.181267  -0.034466  -1.098125
     2  C    0.446892   0.050263   0.118345
     3  C   -0.318479   0.023507   0.387359
     4  C    0.005725  -0.009228   0.043202
     5  C   -0.003591   0.002938  -0.039418
     6  C    0.081758  -0.031764   0.091863
     7  H   -0.007006   0.000492   0.002023
     8  H   -0.000501   0.000021   0.000942
     9  H   -0.000484   0.000021   0.004083
    10  N    0.000172  -0.000064   0.005396
    11  H    0.000005  -0.000002  -0.000213
    12  H   -0.000011   0.000002   0.000008
    13  O    7.994447   0.271906   0.011132
    14  H    0.271906   0.453482   0.003583
    15  Cl   0.011132   0.003583  17.195408
 Mulliken charges:
               1
     1  C    1.512257
     2  C   -1.287437
     3  C    0.088838
     4  C   -0.162924
     5  C   -0.363745
     6  C   -0.526664
     7  H    0.140276
     8  H    0.133782
     9  H    0.162009
    10  N   -0.410214
    11  H    0.234818
    12  H    0.235978
    13  O   -0.300698
    14  H    0.269309
    15  Cl   0.274413
 Sum of Mulliken charges =   0.00000
 Mulliken charges with hydrogens summed into heavy atoms:
               1
     1  C    1.512257
     2  C   -1.287437
     3  C    0.229115
     4  C   -0.029142
     5  C   -0.363745
     6  C   -0.364655
    10  N    0.060583
    13  O   -0.031388
    15  Cl   0.274413
 Electronic spatial extent (au):  <R**2>=           1480.7943
 Charge=              0.0000 electrons
 Dipole moment (field-independent basis, Debye):
    X=             -2.5138    Y=              1.7606    Z=              1.4849  Tot=              3.4094
 Quadrupole moment (field-independent basis, Debye-Ang):
   XX=            -54.6299   YY=            -60.1292   ZZ=            -59.2823
   XY=             -3.4804   XZ=              3.9200   YZ=              3.2524
 Traceless Quadrupole moment (field-independent basis, Debye-Ang):
   XX=              3.3839   YY=             -2.1154   ZZ=             -1.2685
   XY=             -3.4804   XZ=              3.9200   YZ=              3.2524
 Octapole moment (field-independent basis, Debye-Ang**2):
  XXX=            -22.2573  YYY=             11.8385  ZZZ=              1.9774  XYY=              9.9291
  XXY=             11.3738  XXZ=              9.0010  XZZ=              2.4542  YZZ=              0.3998
  YYZ=              6.1160  XYZ=              7.7201
 Hexadecapole moment (field-independent basis, Debye-Ang**3):
 XXXX=          -1091.3030 YYYY=           -603.1401 ZZZZ=            -73.2593 XXXY=            -22.9790
 XXXZ=             22.5092 YYYX=            -28.7007 YYYZ=             13.6228 ZZZX=              4.0061
 ZZZY=              4.2262 XXYY=           -333.0769 XXZZ=           -196.4353 YYZZ=           -116.4221
 XXYZ=             19.2517 YYXZ=             16.2811 ZZXY=             15.5226
 N-N= 4.867325480175D+02 E-N=-2.912263006103D+03  KE= 8.198283781983D+02
 There are a total of      122930 grid points.
 ElSum from          density=       74.0000298850
 ElSum from atomic densities=       73.9999519699

 Hirshfeld populations at iteration   1 (CX, CA, CB, DipXYZ):
               1          2          3          4          5          6
     1  C    0.000001   2.988182   2.988182   0.076857  -0.049837  -0.007267
     2  C    0.000000   2.968773   2.968773   0.123687   0.070045  -0.011960
     3  C    0.000000   3.025617   3.025617  -0.002539   0.060502  -0.009770
     4  C    0.000000   3.028486   3.028486  -0.052167   0.032080  -0.004463
     5  C    0.000000   2.977599   2.977599  -0.095534  -0.052745  -0.001616
     6  C    0.000000   3.023508   3.023508  -0.005470  -0.050686  -0.002994
     7  H    0.000001   0.470813   0.470813  -0.010377   0.164998  -0.004014
     8  H    0.000001   0.475395   0.475395  -0.128864   0.090294  -0.001138
     9  H    0.000003   0.470371   0.470371  -0.000258  -0.157889   0.001539
    10  N    0.000000   3.617502   3.617502  -0.004760   0.199436  -0.003035
    11  H    0.000001   0.445069   0.445069  -0.105275   0.056310   0.165417
    12  H    0.000001   0.444783   0.444783  -0.108042   0.052376  -0.165549
    13  O    0.000004   4.114390   4.114390  -0.101494  -0.059966   0.143854
    14  H    0.000001   0.412873   0.412873   0.072197   0.045554   0.199122
    15  Cl   0.000008   8.536653   8.536653   0.008508  -0.006614  -0.012400
       Tot   0.000023  37.000015  37.000015  -0.333531   0.393859   0.285726

 Dip from Atomic Chgs             -0.655835   0.298657   0.298390
         Total Dipole             -0.989366   0.692516   0.584116

 Hirshfeld charges, spin densities, dipoles, and CM5 charges using IRadAn=      4:
              Q-H        S-H        Dx         Dy         Dz        Q-CM5   
     1  C    0.023636   0.000000   0.076857  -0.049837  -0.007267   0.021579
     2  C    0.062454   0.000000   0.123687   0.070045  -0.011960   0.074654
     3  C   -0.051233   0.000000  -0.002539   0.060502  -0.009770  -0.099996
     4  C   -0.056972   0.000000  -0.052167   0.032080  -0.004463  -0.104262
     5  C    0.044802   0.000000  -0.095534  -0.052745  -0.001616   0.083003
     6  C   -0.047017   0.000000  -0.005470  -0.050686  -0.002994  -0.089992
     7  H    0.058375   0.000000  -0.010377   0.164998  -0.004014   0.114465
     8  H    0.049209   0.000000  -0.128864   0.090294  -0.001138   0.105711
     9  H    0.059258   0.000000  -0.000258  -0.157889   0.001539   0.114731
    10  N   -0.235004   0.000000  -0.004760   0.199436  -0.003035  -0.680515
    11  H    0.109861   0.000000  -0.105275   0.056310   0.165417   0.303822
    12  H    0.110434   0.000000  -0.108042   0.052376  -0.165549   0.304397
    13  O   -0.228781   0.000000  -0.101494  -0.059966   0.143854  -0.421885
    14  H    0.174254   0.000000   0.072197   0.045554   0.199122   0.347575
    15  Cl  -0.073306   0.000000   0.008508  -0.006614  -0.012400  -0.073317
       Tot  -0.000030   0.000000  -0.333531   0.393859   0.285726  -0.000030
 Hirshfeld charges with hydrogens summed into heavy atoms:
              Q-H       Q-CM5   
     1  C    0.023636   0.021579
     2  C    0.062454   0.074654
     3  C    0.007141   0.014469
     4  C   -0.007763   0.001449
     5  C    0.044802   0.083003
     6  C    0.012241   0.024739
    10  N   -0.014709  -0.072296
    13  O   -0.054526  -0.074310
    15  Cl  -0.073306  -0.073317
 
 EQQ= 0.000000000000E+00 EQD= 0.000000000000E+00 EDD= 0.955652044884E-02
 EQQ+QD+DD= 0.955652044884E-02
 
          MBS Condensed to atoms (all electrons):
               1          2          3          4          5          6
     1  C    4.753712   0.489938  -0.036265  -0.009111  -0.027085   0.498541
     2  C    0.489938   4.709927   0.498129  -0.028793  -0.010829  -0.030011
     3  C   -0.036265   0.498129   4.846241   0.496894  -0.029846  -0.008876
     4  C   -0.009111  -0.028793   0.496894   4.857715   0.500377  -0.037474
     5  C   -0.027085  -0.010829  -0.029846   0.500377   4.723786   0.502429
     6  C    0.498541  -0.030011  -0.008876  -0.037474   0.502429   4.837217
     7  H    0.001296  -0.024197   0.383607  -0.022677   0.001406   0.000021
     8  H    0.000037   0.001390  -0.023735   0.384609  -0.025235   0.001455
     9  H   -0.023221   0.001238   0.000033   0.001455  -0.022553   0.381484
    10  N    0.000576   0.000011   0.000655  -0.028617   0.341869  -0.029694
    11  H   -0.000040   0.000004  -0.000002  -0.001938  -0.029768   0.001132
    12  H   -0.000040   0.000003  -0.000001  -0.001972  -0.029721   0.001134
    13  O   -0.023009   0.289278  -0.022015   0.000332   0.000007   0.000299
    14  H   -0.000017  -0.032994   0.000106  -0.000040   0.000004  -0.000032
    15  Cl   0.264442  -0.027389   0.000575   0.000010   0.000621  -0.027519
               7          8          9         10         11         12
     1  C    0.001296   0.000037  -0.023221   0.000576  -0.000040  -0.000040
     2  C   -0.024197   0.001390   0.001238   0.000011   0.000004   0.000003
     3  C    0.383607  -0.023735   0.000033   0.000655  -0.000002  -0.000001
     4  C   -0.022677   0.384609   0.001455  -0.028617  -0.001938  -0.001972
     5  C    0.001406  -0.025235  -0.022553   0.341869  -0.029768  -0.029721
     6  C    0.000021   0.001455   0.381484  -0.029694   0.001132   0.001134
     7  H    0.542554  -0.003987   0.000001  -0.000012   0.000000   0.000000
     8  H   -0.003987   0.559711  -0.000042  -0.002138   0.000695   0.000675
     9  H    0.000001  -0.000042   0.527533  -0.000987   0.000067   0.000060
    10  N   -0.000012  -0.002138  -0.000987   6.658645   0.333506   0.333608
    11  H    0.000000   0.000695   0.000067   0.333506   0.468391  -0.030879
    12  H    0.000000   0.000675   0.000060   0.333608  -0.030879   0.467573
    13  O   -0.000749  -0.000005  -0.000005   0.000000   0.000000   0.000000
    14  H    0.000172   0.000001   0.000001   0.000000   0.000000   0.000000
    15  Cl  -0.000015   0.000000  -0.002131  -0.000001   0.000000   0.000000
              13         14         15
     1  C   -0.023009  -0.000017   0.264442
     2  C    0.289278  -0.032994  -0.027389
     3  C   -0.022015   0.000106   0.000575
     4  C    0.000332  -0.000040   0.000010
     5  C    0.000007   0.000004   0.000621
     6  C    0.000299  -0.000032  -0.027519
     7  H   -0.000749   0.000172  -0.000015
     8  H   -0.000005   0.000001   0.000000
     9  H   -0.000005   0.000001  -0.002131
    10  N    0.000000   0.000000  -0.000001
    11  H    0.000000   0.000000   0.000000
    12  H    0.000000   0.000000   0.000000
    13  O    7.996679   0.265188   0.000158
    14  H    0.265188   0.417402   0.000596
    15  Cl   0.000158   0.000596  16.983991
 MBS Mulliken charges:
               1
     1  C    0.110245
     2  C    0.164294
     3  C   -0.105501
     4  C   -0.110770
     5  C    0.104538
     6  C   -0.090106
     7  H    0.122578
     8  H    0.106570
     9  H    0.137067
    10  N   -0.607422
    11  H    0.258832
    12  H    0.259560
    13  O   -0.506160
    14  H    0.349612
    15  Cl  -0.193339
 Sum of MBS Mulliken charges =   0.00000
 MBS Mulliken charges with hydrogens summed into heavy atoms:
               1
     1  C    0.110245
     2  C    0.164294
     3  C    0.017077
     4  C   -0.004200
     5  C    0.104538
     6  C    0.046961
    10  N   -0.089029
    13  O   -0.156548
    15  Cl  -0.193339
 Breneman (CHELPG) radii used.
 Generate Potential Derived Charges using the Breneman model, NDens= 1.
 Grid spacing= 0.300 Box extension= 2.800
 NStep X,Y,Z=   39     37     26   Total possible points=       37518
 Number of Points to Fit=   10891

 **********************************************************************

            Electrostatic Properties Using The SCF Density

 **********************************************************************

       Atomic Center    1 is at   0.617016 -0.370295 -0.011456
       Atomic Center    2 is at   0.643724  1.024458 -0.032000
       Atomic Center    3 is at  -0.550411  1.745057 -0.032619
       Atomic Center    4 is at  -1.772023  1.070868 -0.013888
       Atomic Center    5 is at  -1.798650 -0.323559  0.006171
       Atomic Center    6 is at  -0.604053 -1.044215  0.007784
       Atomic Center    7 is at  -0.529434  2.844427 -0.048177
       Atomic Center    8 is at  -2.713426  1.639247 -0.014439
       Atomic Center    9 is at  -0.625288 -2.143497  0.023797
       Atomic Center   10 is at  -3.085331 -1.034167  0.025897
       Atomic Center   11 is at  -3.598063 -0.772625  0.843639
       Atomic Center   12 is at  -3.611991 -0.792731 -0.789172
       Atomic Center   13 is at   1.895611  1.715300 -0.052424
       Atomic Center   14 is at   2.187429  1.876428  0.847843
       Atomic Center   15 is at   2.124093 -1.279315 -0.009961
   10891 points will be used for fitting atomic charges
 Fitting point charges to electrostatic potential
 Charges from ESP fit, RMS=   0.00447 RRMS=   0.27474:
 ESP charges:
               1
     1  C   -0.037407
     2  C    0.382697
     3  C   -0.225477
     4  C   -0.268428
     5  C    0.428672
     6  C   -0.162544
     7  H    0.150545
     8  H    0.139757
     9  H    0.129723
    10  N   -0.926934
    11  H    0.339567
    12  H    0.358984
    13  O   -0.575463
    14  H    0.362125
    15  Cl  -0.095816
 Sum of ESP charges =   0.00000
 ESP charges with hydrogens summed into heavy atoms:
               1
     1  C   -0.037407
     2  C    0.382697
     3  C   -0.074932
     4  C   -0.128672
     5  C    0.428672
     6  C   -0.032822
    10  N   -0.228383
    13  O   -0.213338
    15  Cl  -0.095816
 Charge=   0.00000 Dipole=    -2.6448     1.7384     1.4975 Tot=     3.5014
 -----------------------------------------------------------------

              Electrostatic Properties (Atomic Units)

 -----------------------------------------------------------------
    Center     Electric         -------- Electric Field --------
               Potential          X             Y             Z
 -----------------------------------------------------------------
    1 Atom    -14.701325
    2 Atom    -14.694127
    3 Atom    -14.752247
    4 Atom    -14.756237
    5 Atom    -14.722083
    6 Atom    -14.754222
    7 Atom     -1.082818
    8 Atom     -1.084401
    9 Atom     -1.087058
   10 Atom    -18.398706
   11 Atom     -1.045589
   12 Atom     -1.045721
   13 Atom    -22.342765
   14 Atom     -0.977154
   15 Atom    -64.391803
 -----------------------------------------------------------------
 ******************************Gaussian NBO Version 3.1******************************
             N A T U R A L   A T O M I C   O R B I T A L   A N D
          N A T U R A L   B O N D   O R B I T A L   A N A L Y S I S
 ******************************Gaussian NBO Version 3.1******************************
       /RESON  / : Allow strongly delocalized NBO set

 Analyzing the SCF density

 Job title: Title Card Required                                             

 Storage needed:    176870 in NPA ( 536869667 available)


 NATURAL POPULATIONS:  Natural atomic orbital occupancies 
                                                          
   NAO  Atom  No  lang   Type(AO)    Occupancy      Energy
 ----------------------------------------------------------
     1    C    1  S      Cor( 1S)     1.99844     -10.11839
     2    C    1  S      Val( 2S)     0.93691      -0.22731
     3    C    1  S      Ryd( 4S)     0.00074       0.74106
     4    C    1  S      Ryd( 3S)     0.00037       0.53406
     5    C    1  S      Ryd( 5S)     0.00002      23.30166
     6    C    1  px     Val( 2p)     0.97858      -0.14754
     7    C    1  px     Ryd( 4p)     0.00686       0.95730
     8    C    1  px     Ryd( 3p)     0.00031       0.44604
     9    C    1  px     Ryd( 5p)     0.00034       3.08252
    10    C    1  py     Val( 2p)     1.04971      -0.11604
    11    C    1  py     Ryd( 4p)     0.00654       0.86325
    12    C    1  py     Ryd( 3p)     0.00018       0.42022
    13    C    1  py     Ryd( 5p)     0.00028       3.21678
    14    C    1  pz     Val( 2p)     1.07995      -0.15666
    15    C    1  pz     Ryd( 4p)     0.00100       0.59244
    16    C    1  pz     Ryd( 3p)     0.00045       0.28551
    17    C    1  pz     Ryd( 5p)     0.00001       2.68710
    18    C    1  dxy    Ryd( 3d)     0.00160       2.23352
    19    C    1  dxz    Ryd( 3d)     0.00128       1.51771
    20    C    1  dyz    Ryd( 3d)     0.00089       1.59748
    21    C    1  dx2y2  Ryd( 3d)     0.00148       2.39799
    22    C    1  dz2    Ryd( 3d)     0.00086       1.97634

    23    C    2  S      Cor( 1S)     1.99846     -10.12051
    24    C    2  S      Val( 2S)     0.84043      -0.16053
    25    C    2  S      Ryd( 4S)     0.00120       0.83479
    26    C    2  S      Ryd( 3S)     0.00036       0.70675
    27    C    2  S      Ryd( 5S)     0.00002      22.84297
    28    C    2  px     Val( 2p)     0.84662      -0.07878
    29    C    2  px     Ryd( 4p)     0.00676       0.99370
    30    C    2  px     Ryd( 3p)     0.00038       0.40480
    31    C    2  px     Ryd( 5p)     0.00029       3.04785
    32    C    2  py     Val( 2p)     1.01429      -0.08591
    33    C    2  py     Ryd( 4p)     0.00508       1.03959
    34    C    2  py     Ryd( 3p)     0.00064       0.41620
    35    C    2  py     Ryd( 5p)     0.00018       3.00483
    36    C    2  pz     Val( 2p)     1.01605      -0.13683
    37    C    2  pz     Ryd( 4p)     0.00169       0.58337
    38    C    2  pz     Ryd( 3p)     0.00061       0.32793
    39    C    2  pz     Ryd( 5p)     0.00004       2.65751
    40    C    2  dxy    Ryd( 3d)     0.00164       2.45684
    41    C    2  dxz    Ryd( 3d)     0.00148       1.59947
    42    C    2  dyz    Ryd( 3d)     0.00085       1.62082
    43    C    2  dx2y2  Ryd( 3d)     0.00188       2.50151
    44    C    2  dz2    Ryd( 3d)     0.00059       2.01994

    45    C    3  S      Cor( 1S)     1.99903     -10.05258
    46    C    3  S      Val( 2S)     0.95841      -0.18630
    47    C    3  S      Ryd( 3S)     0.00221       0.63895
    48    C    3  S      Ryd( 4S)     0.00018       1.53857
    49    C    3  S      Ryd( 5S)     0.00001      22.32172
    50    C    3  px     Val( 2p)     1.05803      -0.06773
    51    C    3  px     Ryd( 4p)     0.00491       0.79334
    52    C    3  px     Ryd( 3p)     0.00035       0.40113
    53    C    3  px     Ryd( 5p)     0.00019       3.10289
    54    C    3  py     Val( 2p)     1.18329      -0.08629
    55    C    3  py     Ryd( 4p)     0.00571       1.10393
    56    C    3  py     Ryd( 3p)     0.00035       0.31162
    57    C    3  py     Ryd( 5p)     0.00008       3.13276
    58    C    3  pz     Val( 2p)     1.00556      -0.12864
    59    C    3  pz     Ryd( 4p)     0.00085       0.51181
    60    C    3  pz     Ryd( 3p)     0.00035       0.30671
    61    C    3  pz     Ryd( 5p)     0.00002       2.65663
    62    C    3  dxy    Ryd( 3d)     0.00071       2.57788
    63    C    3  dxz    Ryd( 3d)     0.00055       1.66078
    64    C    3  dyz    Ryd( 3d)     0.00051       1.59362
    65    C    3  dx2y2  Ryd( 3d)     0.00065       2.45701
    66    C    3  dz2    Ryd( 3d)     0.00043       2.02840

    67    C    4  S      Cor( 1S)     1.99902     -10.04749
    68    C    4  S      Val( 2S)     0.95436      -0.17894
    69    C    4  S      Ryd( 3S)     0.00203       0.73056
    70    C    4  S      Ryd( 4S)     0.00020       1.54567
    71    C    4  S      Ryd( 5S)     0.00001      22.29483
    72    C    4  px     Val( 2p)     1.14288      -0.07514
    73    C    4  px     Ryd( 4p)     0.00637       1.04848
    74    C    4  px     Ryd( 3p)     0.00048       0.33586
    75    C    4  px     Ryd( 5p)     0.00008       3.13325
    76    C    4  py     Val( 2p)     1.09652      -0.07108
    77    C    4  py     Ryd( 4p)     0.00478       0.78970
    78    C    4  py     Ryd( 3p)     0.00032       0.38235
    79    C    4  py     Ryd( 5p)     0.00016       3.14210
    80    C    4  pz     Val( 2p)     1.01047      -0.12776
    81    C    4  pz     Ryd( 4p)     0.00106       0.49113
    82    C    4  pz     Ryd( 3p)     0.00029       0.28695
    83    C    4  pz     Ryd( 5p)     0.00002       2.68553
    84    C    4  dxy    Ryd( 3d)     0.00068       2.48214
    85    C    4  dxz    Ryd( 3d)     0.00044       1.60816
    86    C    4  dyz    Ryd( 3d)     0.00051       1.64899
    87    C    4  dx2y2  Ryd( 3d)     0.00072       2.54513
    88    C    4  dz2    Ryd( 3d)     0.00042       2.05310

    89    C    5  S      Cor( 1S)     1.99888     -10.08897
    90    C    5  S      Val( 2S)     0.85727      -0.15192
    91    C    5  S      Ryd( 4S)     0.00096       0.72347
    92    C    5  S      Ryd( 3S)     0.00022       0.66621
    93    C    5  S      Ryd( 5S)     0.00001      23.04313
    94    C    5  px     Val( 2p)     0.93962      -0.06134
    95    C    5  px     Ryd( 4p)     0.00467       1.05523
    96    C    5  px     Ryd( 3p)     0.00052       0.53908
    97    C    5  px     Ryd( 5p)     0.00013       3.05129
    98    C    5  py     Val( 2p)     1.03626      -0.06361
    99    C    5  py     Ryd( 4p)     0.00634       1.00946
   100    C    5  py     Ryd( 3p)     0.00082       0.56997
   101    C    5  py     Ryd( 5p)     0.00016       2.94016
   102    C    5  pz     Val( 2p)     1.00469      -0.12454
   103    C    5  pz     Ryd( 4p)     0.00142       0.57338
   104    C    5  pz     Ryd( 3p)     0.00034       0.48965
   105    C    5  pz     Ryd( 5p)     0.00002       2.47359
   106    C    5  dxy    Ryd( 3d)     0.00139       2.47040
   107    C    5  dxz    Ryd( 3d)     0.00098       1.60806
   108    C    5  dyz    Ryd( 3d)     0.00056       1.66044
   109    C    5  dx2y2  Ryd( 3d)     0.00119       2.54776
   110    C    5  dz2    Ryd( 3d)     0.00046       2.02180

   111    C    6  S      Cor( 1S)     1.99885     -10.04537
   112    C    6  S      Val( 2S)     0.95189      -0.17309
   113    C    6  S      Ryd( 3S)     0.00224       0.78876
   114    C    6  S      Ryd( 4S)     0.00045       0.86844
   115    C    6  S      Ryd( 5S)     0.00001      22.99408
   116    C    6  px     Val( 2p)     1.06225      -0.07165
   117    C    6  px     Ryd( 4p)     0.00575       0.75813
   118    C    6  px     Ryd( 3p)     0.00028       0.41190
   119    C    6  px     Ryd( 5p)     0.00015       3.15793
   120    C    6  py     Val( 2p)     1.19806      -0.09102
   121    C    6  py     Ryd( 4p)     0.00601       1.04907
   122    C    6  py     Ryd( 3p)     0.00039       0.35520
   123    C    6  py     Ryd( 5p)     0.00008       3.19609
   124    C    6  pz     Val( 2p)     0.99248      -0.12434
   125    C    6  pz     Ryd( 4p)     0.00094       0.51016
   126    C    6  pz     Ryd( 3p)     0.00043       0.28535
   127    C    6  pz     Ryd( 5p)     0.00002       2.70386
   128    C    6  dxy    Ryd( 3d)     0.00083       2.56685
   129    C    6  dxz    Ryd( 3d)     0.00050       1.65898
   130    C    6  dyz    Ryd( 3d)     0.00054       1.59832
   131    C    6  dx2y2  Ryd( 3d)     0.00064       2.45727
   132    C    6  dz2    Ryd( 3d)     0.00042       2.03867

   133    H    7  S      Val( 1S)     0.77167       0.02326
   134    H    7  S      Ryd( 2S)     0.00111       0.65351
   135    H    7  S      Ryd( 3S)     0.00019       2.00095
   136    H    7  px     Ryd( 2p)     0.00010       1.97390
   137    H    7  py     Ryd( 2p)     0.00045       2.65833
   138    H    7  pz     Ryd( 2p)     0.00017       1.58150

   139    H    8  S      Val( 1S)     0.78525       0.01887
   140    H    8  S      Ryd( 2S)     0.00102       0.78935
   141    H    8  S      Ryd( 3S)     0.00017       1.87729
   142    H    8  px     Ryd( 2p)     0.00037       2.48625
   143    H    8  py     Ryd( 2p)     0.00020       2.15133
   144    H    8  pz     Ryd( 2p)     0.00018       1.57978

   145    H    9  S      Val( 1S)     0.75703       0.03419
   146    H    9  S      Ryd( 2S)     0.00129       0.98277
   147    H    9  S      Ryd( 3S)     0.00018       1.68352
   148    H    9  px     Ryd( 2p)     0.00017       1.97556
   149    H    9  py     Ryd( 2p)     0.00044       2.68090
   150    H    9  pz     Ryd( 2p)     0.00015       1.59236

   151    N   10  S      Cor( 1S)     1.99950     -14.13818
   152    N   10  S      Val( 2S)     1.40185      -0.57842
   153    N   10  S      Ryd( 3S)     0.00062       0.65617
   154    N   10  S      Ryd( 4S)     0.00015       1.18380
   155    N   10  S      Ryd( 5S)     0.00000      35.43223
   156    N   10  px     Val( 2p)     1.26818      -0.19484
   157    N   10  px     Ryd( 3p)     0.00318       0.49710
   158    N   10  px     Ryd( 4p)     0.00030       0.64256
   159    N   10  px     Ryd( 5p)     0.00002       4.15131
   160    N   10  py     Val( 2p)     1.81351      -0.24156
   161    N   10  py     Ryd( 3p)     0.00914       0.48580
   162    N   10  py     Ryd( 4p)     0.00036       0.67619
   163    N   10  py     Ryd( 5p)     0.00002       3.90308
   164    N   10  pz     Val( 2p)     1.34506      -0.19364
   165    N   10  pz     Ryd( 3p)     0.00261       0.46076
   166    N   10  pz     Ryd( 4p)     0.00004       0.60294
   167    N   10  pz     Ryd( 5p)     0.00003       4.16440
   168    N   10  dxy    Ryd( 3d)     0.00126       2.59826
   169    N   10  dxz    Ryd( 3d)     0.00078       2.81587
   170    N   10  dyz    Ryd( 3d)     0.00112       2.42862
   171    N   10  dx2y2  Ryd( 3d)     0.00077       2.47227
   172    N   10  dz2    Ryd( 3d)     0.00056       2.59619

   173    H   11  S      Val( 1S)     0.63635       0.08849
   174    H   11  S      Ryd( 2S)     0.00060       0.79150
   175    H   11  S      Ryd( 3S)     0.00023       2.06597
   176    H   11  px     Ryd( 2p)     0.00049       1.97591
   177    H   11  py     Ryd( 2p)     0.00098       1.69220
   178    H   11  pz     Ryd( 2p)     0.00030       2.37409

   179    H   12  S      Val( 1S)     0.63579       0.08913
   180    H   12  S      Ryd( 2S)     0.00058       0.81764
   181    H   12  S      Ryd( 3S)     0.00023       2.04046
   182    H   12  px     Ryd( 2p)     0.00049       1.98884
   183    H   12  py     Ryd( 2p)     0.00097       1.68459
   184    H   12  pz     Ryd( 2p)     0.00031       2.36929

   185    O   13  S      Cor( 1S)     1.99976     -18.94714
   186    O   13  S      Val( 2S)     1.67725      -0.91805
   187    O   13  S      Ryd( 4S)     0.00050       1.80382
   188    O   13  S      Ryd( 3S)     0.00036       1.25841
   189    O   13  S      Ryd( 5S)     0.00000      49.53216
   190    O   13  px     Val( 2p)     1.57155      -0.31172
   191    O   13  px     Ryd( 3p)     0.00216       0.53249
   192    O   13  px     Ryd( 4p)     0.00015       1.01651
   193    O   13  px     Ryd( 5p)     0.00002       4.96624
   194    O   13  py     Val( 2p)     1.84502      -0.31886
   195    O   13  py     Ryd( 3p)     0.00297       0.56650
   196    O   13  py     Ryd( 4p)     0.00007       1.01758
   197    O   13  py     Ryd( 5p)     0.00001       4.93188
   198    O   13  pz     Val( 2p)     1.61092      -0.30599
   199    O   13  pz     Ryd( 3p)     0.00189       0.60002
   200    O   13  pz     Ryd( 4p)     0.00016       1.00546
   201    O   13  pz     Ryd( 5p)     0.00002       5.04888
   202    O   13  dxy    Ryd( 3d)     0.00068       3.21698
   203    O   13  dxz    Ryd( 3d)     0.00086       3.11348
   204    O   13  dyz    Ryd( 3d)     0.00072       2.99467
   205    O   13  dx2y2  Ryd( 3d)     0.00048       3.11119
   206    O   13  dz2    Ryd( 3d)     0.00150       3.44020

   207    H   14  S      Val( 1S)     0.52080       0.10647
   208    H   14  S      Ryd( 2S)     0.00064       1.07911
   209    H   14  S      Ryd( 3S)     0.00037       1.66222
   210    H   14  px     Ryd( 2p)     0.00135       1.78028
   211    H   14  py     Ryd( 2p)     0.00166       1.59962
   212    H   14  pz     Ryd( 2p)     0.00073       2.46107

   213   Cl   15  S      Cor( 1S)     2.00000    -100.23250
   214   Cl   15  S      Cor( 2S)     1.99972     -10.48139
   215   Cl   15  S      Val( 3S)     1.84014      -1.00334
   216   Cl   15  S      Ryd( 4S)     0.00279       0.62831
   217   Cl   15  S      Ryd( 5S)     0.00009       1.18459
   218   Cl   15  S      Ryd( 6S)     0.00000      17.05236
   219   Cl   15  S      Ryd( 7S)     0.00000     207.91608
   220   Cl   15  px     Cor( 2p)     1.99994      -7.22883
   221   Cl   15  px     Val( 3p)     1.43014      -0.28661
   222   Cl   15  px     Ryd( 4p)     0.00320       0.38177
   223   Cl   15  px     Ryd( 5p)     0.00018       0.41187
   224   Cl   15  px     Ryd( 6p)     0.00003       3.53686
   225   Cl   15  px     Ryd( 7p)     0.00000      24.98229
   226   Cl   15  py     Cor( 2p)     1.99997      -7.22513
   227   Cl   15  py     Val( 3p)     1.76437      -0.30974
   228   Cl   15  py     Ryd( 4p)     0.00234       0.39373
   229   Cl   15  py     Ryd( 5p)     0.00015       0.43435
   230   Cl   15  py     Ryd( 6p)     0.00002       3.30934
   231   Cl   15  py     Ryd( 7p)     0.00000      24.96274
   232   Cl   15  pz     Cor( 2p)     1.99999      -7.22329
   233   Cl   15  pz     Val( 3p)     1.92563      -0.32303
   234   Cl   15  pz     Ryd( 4p)     0.00225       0.39256
   235   Cl   15  pz     Ryd( 5p)     0.00015       0.41181
   236   Cl   15  pz     Ryd( 6p)     0.00001       2.94911
   237   Cl   15  pz     Ryd( 7p)     0.00000      24.89499
   238   Cl   15  dxy    Ryd( 3d)     0.00364       1.21037
   239   Cl   15  dxz    Ryd( 3d)     0.00175       0.91874
   240   Cl   15  dyz    Ryd( 3d)     0.00060       0.88576
   241   Cl   15  dx2y2  Ryd( 3d)     0.00172       1.14730
   242   Cl   15  dz2    Ryd( 3d)     0.00139       0.98274

 WARNING:  1 low occupancy (<1.9990e) core orbital  found on  C    1
           1 low occupancy (<1.9990e) core orbital  found on  C    2
           1 low occupancy (<1.9990e) core orbital  found on  C    5
           1 low occupancy (<1.9990e) core orbital  found on  C    6

 WARNING:  Population inversion found on atom  C    1
           Population inversion found on atom  C    2
           Population inversion found on atom  C    3
           Population inversion found on atom  C    4
           Population inversion found on atom  C    5
           Population inversion found on atom  C    6
           Population inversion found on atom  O   13


 Summary of Natural Population Analysis:                  
                                                          
                                       Natural Population 
                Natural  -----------------------------------------------
    Atom  No    Charge         Core      Valence    Rydberg      Total
 -----------------------------------------------------------------------
      C    1   -0.06680      1.99844     4.04516    0.02320     6.06680
      C    2    0.26045      1.99846     3.71739    0.02370     5.73955
      C    3   -0.22237      1.99903     4.20528    0.01806     6.22237
      C    4   -0.22180      1.99902     4.20424    0.01854     6.22180
      C    5    0.14307      1.99888     3.83785    0.02019     5.85693
      C    6   -0.22322      1.99885     4.20467    0.01969     6.22322
      H    7    0.22631      0.00000     0.77167    0.00202     0.77369
      H    8    0.21281      0.00000     0.78525    0.00194     0.78719
      H    9    0.24074      0.00000     0.75703    0.00223     0.75926
      N   10   -0.84906      1.99950     5.82860    0.02096     7.84906
      H   11    0.36106      0.00000     0.63635    0.00259     0.63894
      H   12    0.36163      0.00000     0.63579    0.00258     0.63837
      O   13   -0.71707      1.99976     6.70474    0.01257     8.71707
      H   14    0.47446      0.00000     0.52080    0.00474     0.52554
     Cl   15    0.01979      9.99963     6.96027    0.02031    16.98021
 =======================================================================
   * Total *    0.00000     25.99157    47.81508    0.19335    74.00000

                                 Natural Population      
 --------------------------------------------------------
   Core                      25.99157 ( 99.9676% of  26)
   Valence                   47.81508 ( 99.6148% of  48)
   Natural Minimal Basis     73.80665 ( 99.7387% of  74)
   Natural Rydberg Basis      0.19335 (  0.2613% of  74)
 --------------------------------------------------------

    Atom  No          Natural Electron Configuration
 ----------------------------------------------------------------------------
      C    1      [core]2S( 0.94)2p( 3.11)3d( 0.01)4p( 0.01)
      C    2      [core]2S( 0.84)2p( 2.88)3d( 0.01)4p( 0.01)
      C    3      [core]2S( 0.96)2p( 3.25)4p( 0.01)
      C    4      [core]2S( 0.95)2p( 3.25)4p( 0.01)
      C    5      [core]2S( 0.86)2p( 2.98)4p( 0.01)
      C    6      [core]2S( 0.95)2p( 3.25)4p( 0.01)
      H    7            1S( 0.77)
      H    8            1S( 0.79)
      H    9            1S( 0.76)
      N   10      [core]2S( 1.40)2p( 4.43)3p( 0.01)
      H   11            1S( 0.64)
      H   12            1S( 0.64)
      O   13      [core]2S( 1.68)2p( 5.03)3p( 0.01)
      H   14            1S( 0.52)
     Cl   15      [core]3S( 1.84)3p( 5.12)3d( 0.01)4p( 0.01)


 NBO analysis skipped by request.
 Calling FoFJK, ICntrl=      2127 FMM=F ISym2X=0 I1Cent= 0 IOpClX= 0 NMat=1 NMatS=1 NMatT=0.
 ***** Axes restored to original set *****
 -------------------------------------------------------------------
 Center     Atomic                   Forces (Hartrees/Bohr)
 Number     Number              X              Y              Z
 -------------------------------------------------------------------
      1        6          -0.000332430    0.001378452   -0.001869355
      2        6           0.000916928   -0.032355894    0.007934243
      3        6           0.007329590   -0.001739243   -0.001221866
      4        6           0.006283615   -0.004699582   -0.000421076
      5        6           0.004265658    0.018325893    0.000004719
      6        6          -0.009670646    0.006770156   -0.000544798
      7        1          -0.010726386    0.003019128   -0.000095130
      8        1          -0.009010891   -0.004734702   -0.000042334
      9        1           0.010430270   -0.004973944   -0.000046625
     10        7          -0.019851760   -0.026665135    0.000041300
     11        1           0.006669161    0.006337323    0.008852928
     12        1           0.006651085    0.006309663   -0.008859555
     13        8           0.004136381    0.029208195   -0.007997124
     14        1          -0.001141783    0.000704810    0.003647910
     15       17           0.004051210    0.003114881    0.000616763
 -------------------------------------------------------------------
 Cartesian Forces:  Max     0.032355894 RMS     0.009997409

 GradGradGradGradGradGradGradGradGradGradGradGradGradGradGradGradGradGrad
 Berny optimization.
 FormGI is forming the generalized inverse of G from B-inverse, IUseBI=4.
 Internal  Forces:  Max     0.029981561 RMS     0.005734495
 Search for a local minimum.
 Step number   1 out of a maximum of   77
 All quantities printed in internal units (Hartrees-Bohrs-Radians)
 Mixed Optimization -- RFO/linear search
 Second derivative matrix not updated -- first step.
 ITU=  0
     Eigenvalues ---    0.00766   0.01295   0.01726   0.02002   0.02152
     Eigenvalues ---    0.02153   0.02154   0.02155   0.02155   0.02156
     Eigenvalues ---    0.02157   0.05453   0.16000   0.16000   0.16000
     Eigenvalues ---    0.16000   0.16000   0.16000   0.22375   0.23492
     Eigenvalues ---    0.24610   0.25000   0.25000   0.25000   0.29539
     Eigenvalues ---    0.33718   0.33718   0.33726   0.35740   0.40989
     Eigenvalues ---    0.42234   0.42552   0.46412   0.46453   0.46466
     Eigenvalues ---    0.46497   0.47688   0.47688   0.55473
 RFO step:  Lambda=-6.62546234D-03 EMin= 7.65814437D-03
 Linear search not attempted -- first point.
 Iteration  1 RMS(Cart)=  0.03168980 RMS(Int)=  0.00086298
 Iteration  2 RMS(Cart)=  0.00078530 RMS(Int)=  0.00022124
 Iteration  3 RMS(Cart)=  0.00000101 RMS(Int)=  0.00022124
 Iteration  4 RMS(Cart)=  0.00000000 RMS(Int)=  0.00022124
 Variable       Old X    -DE/DX   Delta X   Delta X   Delta X     New X
                                 (Linear)    (Quad)   (Total)
    R1        2.63647   0.00038   0.00000   0.00071   0.00081   2.63728
    R2        2.63584  -0.00150   0.00000  -0.00314  -0.00314   2.63270
    R3        3.32592  -0.00505   0.00000  -0.01671  -0.01671   3.30921
    R4        2.63562  -0.00497   0.00000  -0.01069  -0.01059   2.62504
    R5        2.70231  -0.02998   0.00000  -0.07198  -0.07198   2.63033
    R6        2.63697  -0.00194   0.00000  -0.00416  -0.00416   2.63281
    R7        2.07809  -0.01072   0.00000  -0.03119  -0.03119   2.04690
    R8        2.63584   0.00326   0.00000   0.00702   0.00692   2.64276
    R9        2.07809  -0.01018   0.00000  -0.02961  -0.02961   2.04849
   R10        2.63643  -0.00423   0.00000  -0.00884  -0.00893   2.62749
   R11        2.77790  -0.01418   0.00000  -0.03896  -0.03896   2.73893
   R12        2.07795  -0.01149   0.00000  -0.03342  -0.03342   2.04453
   R13        1.88973   0.01246   0.00000   0.02578   0.02578   1.91551
   R14        1.88973   0.01245   0.00000   0.02576   0.02576   1.91548
   R15        1.81414   0.00322   0.00000   0.00574   0.00574   1.81988
    A1        2.09437   0.00259   0.00000   0.00972   0.00993   2.10430
    A2        2.09435   0.00005   0.00000   0.00039   0.00026   2.09461
    A3        2.09447  -0.00264   0.00000  -0.01010  -0.01022   2.08425
    A4        2.09455  -0.00245   0.00000  -0.01030  -0.01078   2.08376
    A5        2.09432   0.00384   0.00000   0.01533   0.01431   2.10863
    A6        2.09432  -0.00139   0.00000  -0.00503  -0.00599   2.08833
    A7        2.09429   0.00070   0.00000   0.00238   0.00258   2.09687
    A8        2.09462  -0.00350   0.00000  -0.02011  -0.02023   2.07439
    A9        2.09427   0.00280   0.00000   0.01773   0.01760   2.11188
   A10        2.09429   0.00197   0.00000   0.00856   0.00857   2.10287
   A11        2.09407  -0.00085   0.00000  -0.00346  -0.00348   2.09059
   A12        2.09483  -0.00112   0.00000  -0.00510  -0.00511   2.08972
   A13        2.09448  -0.00317   0.00000  -0.01210  -0.01219   2.08229
   A14        2.09459   0.01182   0.00000   0.04593   0.04597   2.14056
   A15        2.09411  -0.00865   0.00000  -0.03384  -0.03380   2.06032
   A16        2.09440   0.00036   0.00000   0.00175   0.00177   2.09616
   A17        2.09453   0.00108   0.00000   0.00670   0.00669   2.10122
   A18        2.09426  -0.00144   0.00000  -0.00845  -0.00846   2.08580
   A19        1.91063   0.00321   0.00000   0.02010   0.01998   1.93062
   A20        1.91063   0.00320   0.00000   0.01999   0.01987   1.93050
   A21        1.91063  -0.00297   0.00000  -0.01621  -0.01644   1.89419
   A22        1.91114  -0.00337   0.00000  -0.02022  -0.02022   1.89091
    D1        0.00056  -0.00044   0.00000  -0.01747  -0.01748  -0.01692
    D2       -3.14103   0.00157   0.00000   0.05782   0.05806  -3.08296
    D3       -3.14112  -0.00019   0.00000  -0.00841  -0.00842   3.13364
    D4        0.00047   0.00182   0.00000   0.06688   0.06713   0.06760
    D5        0.00026   0.00019   0.00000   0.00739   0.00749   0.00775
    D6        3.14140   0.00015   0.00000   0.00573   0.00577  -3.13601
    D7       -3.14124  -0.00006   0.00000  -0.00167  -0.00152   3.14043
    D8       -0.00010  -0.00010   0.00000  -0.00333  -0.00324  -0.00334
    D9       -0.00099   0.00041   0.00000   0.01663   0.01649   0.01550
   D10        3.14093   0.00071   0.00000   0.02706   0.02674  -3.11552
   D11        3.14060  -0.00159   0.00000  -0.05865  -0.05817   3.08243
   D12       -0.00067  -0.00129   0.00000  -0.04823  -0.04791  -0.04858
   D13       -1.56213  -0.00003   0.00000   0.01187   0.01163  -1.55049
   D14        1.57947   0.00197   0.00000   0.08715   0.08738   1.66685
   D15        0.00060  -0.00014   0.00000  -0.00571  -0.00564  -0.00505
   D16       -3.14153   0.00000   0.00000  -0.00050  -0.00045   3.14120
   D17       -3.14132  -0.00044   0.00000  -0.01614  -0.01612   3.12574
   D18       -0.00026  -0.00030   0.00000  -0.01093  -0.01094  -0.01120
   D19        0.00023  -0.00010   0.00000  -0.00437  -0.00443  -0.00420
   D20       -3.14158   0.00000   0.00000   0.00059   0.00065  -3.14094
   D21       -3.14083  -0.00024   0.00000  -0.00958  -0.00962   3.13274
   D22        0.00054  -0.00014   0.00000  -0.00462  -0.00454  -0.00400
   D23       -0.00066   0.00008   0.00000   0.00353   0.00350   0.00284
   D24        3.14138   0.00012   0.00000   0.00519   0.00520  -3.13660
   D25        3.14116  -0.00003   0.00000  -0.00144  -0.00136   3.13980
   D26        0.00001   0.00001   0.00000   0.00022   0.00034   0.00036
   D27       -1.04940  -0.00017   0.00000  -0.00297  -0.00309  -1.05249
   D28        1.04499   0.00012   0.00000   0.00173   0.00180   1.04679
   D29        2.09197  -0.00006   0.00000   0.00200   0.00193   2.09391
   D30       -2.09682   0.00022   0.00000   0.00670   0.00682  -2.09000
         Item               Value     Threshold  Converged?
 Maximum Force            0.029982     0.000450     NO 
 RMS     Force            0.005734     0.000300     NO 
 Maximum Displacement     0.079461     0.001800     NO 
 RMS     Displacement     0.031872     0.001200     NO 
 Predicted change in Energy=-3.450103D-03
 GradGradGradGradGradGradGradGradGradGradGradGradGradGradGradGradGradGrad

                          Input orientation:                          
 ---------------------------------------------------------------------
 Center     Atomic      Atomic             Coordinates (Angstroms)
 Number     Number       Type             X           Y           Z
 ---------------------------------------------------------------------
      1          6           0       -1.942487   -1.230840    0.013276
      2          6           0       -0.761431   -1.974124    0.030648
      3          6           0        0.460283   -1.313159    0.017859
      4          6           0        0.502232    0.079387    0.006628
      5          6           0       -0.681018    0.824815    0.002018
      6          6           0       -1.903133    0.161738    0.003666
      7          1           0        1.371376   -1.898867    0.006782
      8          1           0        1.458840    0.589185   -0.002956
      9          1           0       -2.820543    0.735185   -0.004590
     10          7           0       -0.692012    2.274101   -0.010406
     11          1           0       -0.223478    2.641620    0.809884
     12          1           0       -0.221262    2.627417   -0.835637
     13          8           0       -0.792909   -3.364367   -0.029727
     14          1           0       -0.856116   -3.705362    0.868699
     15         17           0       -3.491531   -2.047545    0.016978
 ---------------------------------------------------------------------
                    Distance matrix (angstroms):
                    1          2          3          4          5
     1  C    0.000000
     2  C    1.395588   0.000000
     3  C    2.404185   1.389109   0.000000
     4  C    2.773696   2.411292   1.393223   0.000000
     5  C    2.411877   2.800240   2.423583   1.398487   0.000000
     6  C    1.393167   2.422006   2.785903   2.406776   1.390410
     7  H    3.380531   2.134267   1.083174   2.160764   3.410394
     8  H    3.857691   3.391355   2.148596   1.084013   2.152798
     9  H    2.153266   3.403166   3.867821   3.386891   2.141412
    10  N    3.721405   4.248990   3.767893   2.498656   1.449381
    11  H    4.311093   4.711867   4.090857   2.781531   2.040287
    12  H    4.309225   4.713429   4.089145   2.779445   2.040200
    13  O    2.423905   1.391909   2.404206   3.679422   4.190796
    14  H    2.834645   1.925742   2.859977   4.112493   4.615658
    15  Cl   1.751159   2.731121   4.019472   4.524830   4.018664
                    6          7          8          9         10
     6  C    0.000000
     7  H    3.868916   0.000000
     8  H    3.389044   2.489609   0.000000
     9  H    1.081920   4.950812   4.281873   0.000000
    10  N    2.434972   4.655269   2.732245   2.626583   0.000000
    11  H    3.101781   4.878992   2.775499   3.323042   1.013642
    12  H    3.100435   4.871696   2.769566   3.320759   1.013630
    13  O    3.696907   2.614029   4.549908   4.573648   5.639403
    14  H    4.098657   2.994669   4.956001   4.933566   6.045969
    15  Cl   2.721050   4.865189   5.608825   2.862565   5.149240
                   11         12         13         14         15
    11  H    0.000000
    12  H    1.645584   0.000000
    13  O    6.091065   6.072705   0.000000
    14  H    6.378705   6.588771   0.963039   0.000000
    15  Cl   5.770367   5.768612   3.003125   3.227879   0.000000
 Stoichiometry    C6H6ClNO
 Framework group  C1[X(C6H6ClNO)]
 Deg. of freedom    39
 Full point group                 C1      NOp   1
 Largest Abelian subgroup         C1      NOp   1
 Largest concise Abelian subgroup C1      NOp   1
                         Standard orientation:                         
 ---------------------------------------------------------------------
 Center     Atomic      Atomic             Coordinates (Angstroms)
 Number     Number       Type             X           Y           Z
 ---------------------------------------------------------------------
      1          6           0        0.610217   -0.364063   -0.005653
      2          6           0        0.660839    1.030606   -0.004048
      3          6           0       -0.523913    1.755794   -0.013471
      4          6           0       -1.749631    1.093506   -0.005738
      5          6           0       -1.800886   -0.303996    0.005457
      6          6           0       -0.614211   -1.028593    0.003713
      7          1           0       -0.474436    2.837584   -0.036877
      8          1           0       -2.670599    1.665218   -0.012793
      9          1           0       -0.650098   -2.109911    0.007650
     10          7           0       -3.049136   -1.040555    0.013026
     11          1           0       -3.594257   -0.810595    0.836088
     12          1           0       -3.598797   -0.819587   -0.809465
     13          8           0        1.878628    1.700012   -0.083397
     14          1           0        2.213881    1.826212    0.810540
     15         17           0        2.093809   -1.294392   -0.005925
 ---------------------------------------------------------------------
 Rotational constants (GHZ):      2.2831621      1.0672101      0.7317486
 Standard basis: 6-311+G(d,p) (5D, 7F)
 There are   251 symmetry adapted cartesian basis functions of A   symmetry.
 There are   242 symmetry adapted basis functions of A   symmetry.
   242 basis functions,   389 primitive gaussians,   251 cartesian basis functions
    37 alpha electrons       37 beta electrons
       nuclear repulsion energy       489.3114154794 Hartrees.
 NAtoms=   15 NActive=   15 NUniq=   15 SFac= 1.00D+00 NAtFMM=   60 NAOKFM=F Big=F
 Integral buffers will be    131072 words long.
 Raffenetti 2 integral format.
 Two-electron integral symmetry is turned on.
 One-electron integrals computed using PRISM.
 NBasis=   242 RedAO= T EigKep=  2.03D-06  NBF=   242
 NBsUse=   242 1.00D-06 EigRej= -1.00D+00 NBFU=   242
 Initial guess from the checkpoint file:  "Traceless2_Smith.chk"
 B after Tr=     0.000000    0.000000    0.000000
         Rot=    0.999996   -0.000370   -0.000088    0.002926 Ang=  -0.34 deg.
 ExpMin= 4.38D-02 ExpMax= 1.06D+05 ExpMxC= 3.62D+03 IAcc=2 IRadAn=         4 AccDes= 0.00D+00
 Harris functional with IExCor=  402 and IRadAn=       4 diagonalized for initial guess.
 HarFok:  IExCor=  402 AccDes= 0.00D+00 IRadAn=         4 IDoV= 1 UseB2=F ITyADJ=14
 ICtDFT=  3500011 ScaDFX=  1.000000  1.000000  1.000000  1.000000
 FoFCou: FMM=F IPFlag=           0 FMFlag=      100000 FMFlg1=           0
         NFxFlg=           0 DoJE=T BraDBF=F KetDBF=T FulRan=T
         wScrn=  0.000000 ICntrl=     500 IOpCl=  0 I1Cent=   200000004 NGrid=           0
         NMat0=    1 NMatS0=      1 NMatT0=    0 NMatD0=    1 NMtDS0=    0 NMtDT0=    0
 Petite list used in FoFCou.
 Keep R1 ints in memory in canonical form, NReq=440498720.
 Requested convergence on RMS density matrix=1.00D-08 within 128 cycles.
 Requested convergence on MAX density matrix=1.00D-06.
 Requested convergence on             energy=1.00D-06.
 No special actions if energy rises.
 SCF Done:  E(RB3LYP) =  -822.540260407     A.U. after   13 cycles
            NFock= 13  Conv=0.54D-08     -V/T= 2.0031
 Calling FoFJK, ICntrl=      2127 FMM=F ISym2X=0 I1Cent= 0 IOpClX= 0 NMat=1 NMatS=1 NMatT=0.
 ***** Axes restored to original set *****
 -------------------------------------------------------------------
 Center     Atomic                   Forces (Hartrees/Bohr)
 Number     Number              X              Y              Z
 -------------------------------------------------------------------
      1        6          -0.000545148    0.002688095    0.000232841
      2        6          -0.002090877   -0.012146579   -0.001904483
      3        6           0.001080555    0.005505566   -0.000673918
      4        6           0.000245247   -0.002161004    0.000301067
      5        6           0.003212307    0.006982515   -0.000344488
      6        6          -0.002308218   -0.002126779    0.000215427
      7        1          -0.000260439   -0.000628037    0.000042968
      8        1           0.000245657    0.000373506    0.000005401
      9        1           0.000221184    0.000263056   -0.000034605
     10        7          -0.002404541   -0.007353625    0.000104018
     11        1           0.000997545    0.001618190   -0.000313583
     12        1           0.000956602    0.001641646    0.000228769
     13        8           0.002415938    0.008203806    0.002138262
     14        1          -0.001792838   -0.002541895   -0.000274304
     15       17           0.000027027   -0.000318462    0.000276628
 -------------------------------------------------------------------
 Cartesian Forces:  Max     0.012146579 RMS     0.003071832

 GradGradGradGradGradGradGradGradGradGradGradGradGradGradGradGradGradGrad
 Berny optimization.
 Using GEDIIS/GDIIS optimizer.
 FormGI is forming the generalized inverse of G from B-inverse, IUseBI=4.
 Internal  Forces:  Max     0.005750134 RMS     0.001413110
 Search for a local minimum.
 Step number   2 out of a maximum of   77
 All quantities printed in internal units (Hartrees-Bohrs-Radians)
 Mixed Optimization -- RFO/linear search
 Update second derivatives using D2CorX and points    1    2
 DE= -3.83D-03 DEPred=-3.45D-03 R= 1.11D+00
 TightC=F SS=  1.41D+00  RLast= 2.03D-01 DXNew= 5.0454D-01 6.1048D-01
 Trust test= 1.11D+00 RLast= 2.03D-01 DXMaxT set to 5.05D-01
 ITU=  1  0
 Use linear search instead of GDIIS.
     Eigenvalues ---    0.00766   0.01238   0.01722   0.02084   0.02149
     Eigenvalues ---    0.02153   0.02154   0.02155   0.02155   0.02156
     Eigenvalues ---    0.02171   0.05212   0.14913   0.15999   0.16000
     Eigenvalues ---    0.16000   0.16000   0.16556   0.22071   0.23289
     Eigenvalues ---    0.23852   0.24931   0.24946   0.25281   0.29618
     Eigenvalues ---    0.33422   0.33719   0.33775   0.35043   0.38697
     Eigenvalues ---    0.42209   0.42695   0.46365   0.46425   0.46484
     Eigenvalues ---    0.46908   0.47688   0.49900   0.55438
 RFO step:  Lambda=-8.59382757D-04 EMin= 7.65777721D-03
 Quartic linear search produced a step of  0.15417.
 Iteration  1 RMS(Cart)=  0.02557393 RMS(Int)=  0.00161571
 Iteration  2 RMS(Cart)=  0.00151058 RMS(Int)=  0.00003893
 Iteration  3 RMS(Cart)=  0.00000458 RMS(Int)=  0.00003883
 Iteration  4 RMS(Cart)=  0.00000000 RMS(Int)=  0.00003883
 Variable       Old X    -DE/DX   Delta X   Delta X   Delta X     New X
                                 (Linear)    (Quad)   (Total)
    R1        2.63728   0.00154   0.00012   0.00393   0.00408   2.64136
    R2        2.63270   0.00007  -0.00048   0.00042  -0.00007   2.63264
    R3        3.30921   0.00013  -0.00258   0.00110  -0.00147   3.30774
    R4        2.62504   0.00349  -0.00163   0.00900   0.00739   2.63243
    R5        2.63033  -0.00575  -0.01110  -0.01365  -0.02475   2.60558
    R6        2.63281  -0.00080  -0.00064  -0.00198  -0.00262   2.63019
    R7        2.04690   0.00012  -0.00481   0.00152  -0.00329   2.04362
    R8        2.64276   0.00012   0.00107  -0.00009   0.00095   2.64371
    R9        2.04849   0.00039  -0.00456   0.00239  -0.00217   2.04632
   R10        2.62749   0.00295  -0.00138   0.00761   0.00621   2.63370
   R11        2.73893  -0.00409  -0.00601  -0.01179  -0.01780   2.72114
   R12        2.04453  -0.00005  -0.00515   0.00103  -0.00412   2.04041
   R13        1.91551   0.00080   0.00397   0.00106   0.00503   1.92054
   R14        1.91548   0.00083   0.00397   0.00114   0.00511   1.92060
   R15        1.81988   0.00076   0.00089   0.00139   0.00228   1.82216
    A1        2.10430   0.00051   0.00153   0.00219   0.00375   2.10805
    A2        2.09461  -0.00073   0.00004  -0.00352  -0.00351   2.09109
    A3        2.08425   0.00022  -0.00158   0.00127  -0.00034   2.08390
    A4        2.08376  -0.00240  -0.00166  -0.01042  -0.01215   2.07162
    A5        2.10863   0.00149   0.00221   0.00652   0.00856   2.11719
    A6        2.08833   0.00091  -0.00092   0.00461   0.00353   2.09186
    A7        2.09687   0.00200   0.00040   0.00971   0.01014   2.10701
    A8        2.07439  -0.00169  -0.00312  -0.00898  -0.01212   2.06226
    A9        2.11188  -0.00031   0.00271  -0.00071   0.00198   2.11386
   A10        2.10287  -0.00007   0.00132  -0.00158  -0.00026   2.10260
   A11        2.09059   0.00025  -0.00054   0.00227   0.00173   2.09232
   A12        2.08972  -0.00018  -0.00079  -0.00070  -0.00149   2.08823
   A13        2.08229  -0.00088  -0.00188  -0.00409  -0.00600   2.07629
   A14        2.14056   0.00184   0.00709   0.00697   0.01406   2.15463
[...]
 ! A3    A(6,1,15)             119.4516         -DE/DX =   -0.0001              !
 ! A4    A(1,2,3)              117.5181         -DE/DX =    0.0                 !
 ! A5    A(1,2,13)             123.7985         -DE/DX =    0.0001              !
 ! A6    A(3,2,13)             118.6834         -DE/DX =    0.0                 !
 ! A7    A(2,3,4)              121.087          -DE/DX =    0.0                 !
 ! A8    A(2,3,7)              118.1961         -DE/DX =    0.0                 !
 ! A9    A(4,3,7)              120.7169         -DE/DX =    0.0                 !
 ! A10   A(3,4,5)              121.0374         -DE/DX =    0.0                 !
 ! A11   A(3,4,8)              119.3273         -DE/DX =    0.0                 !
 ! A12   A(5,4,8)              119.6348         -DE/DX =    0.0                 !
 ! A13   A(4,5,6)              118.2466         -DE/DX =    0.0                 !
 ! A14   A(4,5,10)             120.9743         -DE/DX =    0.0                 !
 ! A15   A(6,5,10)             120.7009         -DE/DX =    0.0                 !
 ! A16   A(1,6,5)              119.9797         -DE/DX =    0.0                 !
 ! A17   A(1,6,9)              119.3619         -DE/DX =    0.0                 !
 ! A18   A(5,6,9)              120.6573         -DE/DX =    0.0                 !
 ! A19   A(5,10,11)            114.9011         -DE/DX =    0.0                 !
 ! A20   A(5,10,12)            115.202          -DE/DX =    0.0                 !
 ! A21   A(11,10,12)           111.3998         -DE/DX =    0.0                 !
 ! A22   A(2,13,14)            109.1049         -DE/DX =    0.0                 !
 ! D1    D(6,1,2,3)              0.0132         -DE/DX =    0.0                 !
 ! D2    D(6,1,2,13)          -179.9125         -DE/DX =    0.0                 !
 ! D3    D(15,1,2,3)           179.9349         -DE/DX =    0.0                 !
 ! D4    D(15,1,2,13)            0.0092         -DE/DX =    0.0                 !
 ! D5    D(2,1,6,5)              0.0713         -DE/DX =    0.0                 !
 ! D6    D(2,1,6,9)           -179.5512         -DE/DX =    0.0                 !
 ! D7    D(15,1,6,5)          -179.8496         -DE/DX =    0.0                 !
 ! D8    D(15,1,6,9)             0.5279         -DE/DX =    0.0                 !
 ! D9    D(1,2,3,4)              0.0167         -DE/DX =    0.0                 !
 ! D10   D(1,2,3,7)           -179.991          -DE/DX =    0.0                 !
 ! D11   D(13,2,3,4)           179.9463         -DE/DX =    0.0                 !
 ! D12   D(13,2,3,7)            -0.0614         -DE/DX =    0.0                 !
 ! D13   D(1,2,13,14)           -0.2726         -DE/DX =    0.0                 !
 ! D14   D(3,2,13,14)          179.8026         -DE/DX =    0.0                 !
 ! D15   D(2,3,4,5)             -0.1322         -DE/DX =    0.0                 !
 ! D16   D(2,3,4,8)            179.5877         -DE/DX =    0.0                 !
 ! D17   D(7,3,4,5)            179.8758         -DE/DX =    0.0                 !
 ! D18   D(7,3,4,8)             -0.4044         -DE/DX =    0.0                 !
 ! D19   D(3,4,5,6)              0.2122         -DE/DX =    0.0                 !
 ! D20   D(3,4,5,10)           177.0193         -DE/DX =    0.0                 !
 ! D21   D(8,4,5,6)           -179.5068         -DE/DX =    0.0                 !
 ! D22   D(8,4,5,10)            -2.6997         -DE/DX =    0.0                 !
 ! D23   D(4,5,6,1)             -0.1807         -DE/DX =    0.0                 !
 ! D24   D(4,5,6,9)            179.4368         -DE/DX =    0.0                 !
 ! D25   D(10,5,6,1)          -176.9968         -DE/DX =    0.0                 !
 ! D26   D(10,5,6,9)             2.6207         -DE/DX =    0.0                 !
 ! D27   D(4,5,10,11)           25.7695         -DE/DX =    0.0                 !
 ! D28   D(4,5,10,12)          157.3024         -DE/DX =    0.0                 !
 ! D29   D(6,5,10,11)         -157.5018         -DE/DX =    0.0                 !
 ! D30   D(6,5,10,12)          -25.9689         -DE/DX =    0.0                 !
 --------------------------------------------------------------------------------
 GradGradGradGradGradGradGradGradGradGradGradGradGradGradGradGradGradGrad

 1\1\GINC-COREV2-22-035\Freq\RB3LYP\6-311+G(d,p)\C6H6Cl1N1O1\ROOT\09-Ja
 n-2023\0\\#N Geom=AllCheck Guess=TCheck SCRF=Check GenChk RB3LYP/6-311
 +G(d,p) Freq\\Title Card Required\\0,1\C,-1.8261379766,-1.2363952818,0
 .0513670575\C,-0.6570897622,-1.9928240361,0.1485810592\C,0.5544054157,
 -1.3030069342,0.2026386307\C,0.5918933219,0.0837462381,0.1614040367\C,
 -0.5874773282,0.8364519583,0.0612444637\C,-1.8063665901,0.1529559638,0
 .0083197255\H,1.4686971902,-1.8793257648,0.2780345913\H,1.5493982577,0
 .5911429295,0.2121393328\H,-2.7415495144,0.6956791091,-0.0600440039\N,
 -0.5529686209,2.2384507318,0.0820327936\H,0.315377926,2.6470885097,-0.
 2320916663\H,-1.348780391,2.6944422017,-0.3402935036\O,-0.6367541599,-
 3.35635531,0.191576858\H,-1.5430614625,-3.6875497629,0.1486315767\Cl,-
 3.3727728556,-2.0853151922,-0.020417822\\Version=ES64L-G09RevD.01\Stat
 e=1-A\HF=-822.556049\RMSD=4.834e-09\RMSF=8.259e-05\ZeroPoint=0.11122\T
 hermal=0.1194813\Dipole=0.1162836,0.8914853,-0.4194262\DipoleDeriv=0.9
 248385,0.6356735,0.0409514,0.1397814,0.2299992,0.0009622,0.0572116,0.0
 377892,-0.0087102,-0.3577673,-0.0181895,-0.0269553,-0.1050124,1.308821
 6,-0.047955,-0.0230198,-0.0450147,0.0584573,0.1478346,-0.2082992,0.021
 208,0.3103871,0.0121512,0.0165954,0.0070676,-0.0149336,-0.1297271,0.12
 05865,0.2934682,0.0267378,-0.2493848,-0.2487801,-0.0159251,0.0386589,0
 .0374877,-0.1658815,-0.1556543,0.0661214,-0.0135404,0.0864946,1.503714
 9,0.0087251,-0.0120027,0.0141024,0.0393165,-0.0949444,-0.4050254,-0.00
 15766,0.1499182,-0.3150693,0.0125302,-0.0093253,-0.005767,-0.1569934,-
 0.0156382,0.0541347,-0.0114156,0.0464001,0.0355668,0.0072122,-0.011129
 5,0.0078979,0.144269,-0.0479266,-0.079561,-0.0090602,-0.0872912,0.0092
 984,0.0001967,-0.008575,-0.0015158,0.1392539,-0.0031738,0.0615519,-0.0
 112246,0.0545183,0.0283036,0.0086104,-0.011027,0.0055523,0.1419754,-0.
 1306048,-0.014629,0.0176699,-0.0965688,-1.4827548,-0.0826967,-0.008391
 3,-0.4200932,-0.4269503,0.1113288,0.0286353,0.042819,0.0468372,0.19770
 78,0.0332356,0.0676223,0.1809438,0.243656,0.1122609,-0.0462759,-0.0573
 118,-0.0407934,0.2052382,0.0301701,-0.0616429,0.183092,0.2289271,-0.22
 61118,-0.0695264,0.0095145,-0.0272019,-1.572422,0.0364039,0.0083437,0.
 0330489,-0.3533611,0.2452505,0.0059824,-0.003461,0.0190661,0.3800121,-
 0.0017827,-0.0041162,-0.0013623,0.3108562,-0.6302785,-0.3040612,-0.024
 3551,-0.2471505,-0.2917877,-0.0062823,-0.0296748,-0.0112277,-0.0650878
 \Polar=110.3857472,10.9928539,122.4069023,3.1313352,-1.5380656,54.8156
 49\PG=C01 [X(C6H6Cl1N1O1)]\NImag=0\\0.51339729,-0.06453305,0.63418547,
 0.02797017,-0.02051814,0.10319931,-0.23834295,0.04829255,-0.01268401,0
 .67482875,0.13073254,-0.16701125,0.01156161,0.01606323,0.69194344,-0.0
 1551241,0.00630922,-0.05821807,0.03333694,-0.01638196,0.13471147,-0.05
 496294,0.02947596,-0.00482486,-0.27630140,-0.11113916,-0.00991121,0.69
 853434,-0.02870703,0.05904166,-0.00354439,-0.03291815,-0.15827619,0.00
 082258,-0.03194778,0.71371338,-0.00265443,0.00005481,0.00418776,-0.012
 55371,-0.00395220,-0.06182999,0.03720070,-0.02027735,0.12497464,-0.018
 82331,0.02774611,-0.00206212,0.03399532,-0.03255720,0.00294491,-0.1243
 8575,-0.03496600,-0.00336005,0.69245130,0.02967646,-0.05103517,0.00357
 021,-0.08080051,-0.02192799,-0.00427681,0.02268612,-0.35234646,0.01072
 046,0.03660842,0.70381139,-0.00253279,0.00400711,-0.00061184,0.0056432
 8,-0.00127604,0.00200120,-0.00574981,0.00583466,-0.05172263,0.03634302
 ,-0.01393398,0.12339315,0.03352066,-0.08648230,0.00523607,-0.08045127,
 0.00275868,-0.00514440,0.04031492,0.07509189,-0.00040884,-0.25809324,0
 .03808593,-0.01361031,0.67564511,-0.03330412,-0.02348206,-0.00081457,0
 .00487736,-0.00155758,-0.00001287,0.03051837,-0.03037504,0.00340940,0.
 10537326,-0.16793201,0.01098532,0.00601925,0.68644907,0.00208740,-0.00
 403152,0.00099634,-0.00488741,-0.00041100,-0.00028315,0.00234346,0.005
 86404,0.00240929,-0.01709898,0.00541060,-0.06596066,0.03278751,-0.0226
 5568,0.15354781,-0.10685901,0.03901658,-0.00518453,0.03697619,0.026720
 94,0.00152636,-0.01934383,-0.02412838,-0.00045629,-0.05044437,0.021897
 02,-0.00428731,-0.27381608,-0.10513870,-0.00843351,0.70418555,-0.01989
 244,-0.33347918,0.00770991,0.07528585,-0.02434696,0.00568418,-0.027944
 08,-0.04488210,-0.00021234,-0.01819659,0.05658035,-0.00314699,-0.03592
 331,-0.16314061,0.00024739,-0.03250172,0.69246768,-0.00287684,0.010004
 64,-0.04732928,-0.00127801,0.00262696,0.00187617,-0.00000539,0.0005559
 8,0.00062759,-0.00285892,-0.00067748,0.00587262,-0.01183004,-0.0022525
 1,-0.06310605,0.03646708,-0.01799702,0.11483570,-0.00241739,-0.0028633
 8,-0.00037046,-0.01962269,0.01775708,-0.00213354,-0.26043170,0.1240130
 6,-0.01806695,0.00522604,-0.00242022,0.00023178,0.00191807,-0.00142281
 ,-0.00031091,0.00009762,-0.00106289,0.00012680,0.27366663,-0.00177472,
 -0.00094317,0.00007525,-0.01376796,0.01073132,-0.00104366,0.12535872,-
 0.13454675,0.01106597,0.02683054,-0.01087111,0.00206775,-0.00157105,-0
 .00483176,0.00015325,-0.00071770,-0.00067256,-0.00005448,-0.13512807,0
 .13945453,-0.00040510,-0.00000582,0.00490540,-0.00120417,0.00092529,0.
 00558728,-0.01810976,0.01097195,-0.03582924,-0.00070016,0.00033289,0.0
 0252733,-0.00020372,0.00036691,0.00676792,0.00002801,-0.00011736,-0.00
 115810,0.01989216,-0.01211736,0.02563645,0.00029888,0.00124167,0.00002
 226,0.00217705,0.00091349,-0.00039946,0.00246091,0.00124895,-0.0000032
 7,-0.27353576,-0.11184958,-0.01328891,-0.01870039,-0.01647074,-0.00098
 021,-0.00307638,0.00393775,-0.00064659,0.00073822,-0.00023953,0.000373
 61,0.28902197,0.00082657,-0.00104485,0.00007606,0.00152300,-0.00430334
 ,0.00040596,-0.02912358,-0.01083125,-0.00157202,-0.11182519,-0.1169335
 6,-0.00497516,0.01450883,0.00965263,0.00081303,0.00315011,-0.00105500,
 0.00032925,0.00030918,0.00104171,-0.00011927,0.12168150,0.12227541,0.0
 0000454,0.00016921,-0.00046058,-0.00034895,0.00044977,0.00692811,0.001
 01872,0.00061921,0.00232320,-0.01357244,-0.00534813,-0.03358128,-0.001
 73743,-0.00139271,0.00393153,-0.00061162,0.00041394,0.00497164,0.00031
 981,-0.00018585,-0.00438177,0.01487995,0.00515957,0.02366947,0.0018220
 5,-0.00265651,0.00007204,0.00150880,-0.00093264,-0.00014519,0.00009191
 ,-0.00116151,0.00010553,-0.00322165,-0.00373115,-0.00041371,-0.0174757
 0,0.01684516,-0.00182493,-0.26559214,0.12218906,-0.01670015,-0.0000271
 9,0.00008332,0.00001199,-0.00098049,0.00076335,-0.00009096,0.28079013,
 0.02809527,-0.01247117,0.00204417,-0.00253385,-0.00424783,0.00008855,-
 0.00063954,-0.00067402,-0.00004378,-0.00311810,-0.00097482,-0.00005417
 ,-0.01277631,0.01043205,-0.00091266,0.11967355,-0.12681795,0.00979441,
 0.00005484,0.00001839,0.00000137,-0.00072401,0.00054973,-0.00008156,-0
 .13008055,0.13287605,-0.00094625,0.00039460,0.00132018,-0.00008819,0.0
 0028117,0.00489772,0.00012723,-0.00004979,-0.00117187,-0.00045073,-0.0
 0003685,0.00525411,-0.00118922,0.00058983,0.00455133,-0.01630451,0.009
 56244,-0.03182378,0.00000316,-0.00000042,-0.00012150,-0.00002238,0.000
 01053,-0.00008477,0.01819058,-0.01088097,0.02258876,-0.00730622,0.0075
 5592,-0.00195464,0.00731732,-0.00053890,0.00058294,-0.00891049,-0.0053
 7365,0.00029740,0.00295559,0.04436384,-0.00034602,-0.11733287,-0.00688
 246,-0.00560553,-0.00066097,-0.04730252,-0.00024658,0.00006272,0.00141
 112,-0.00007847,0.00177038,0.00051255,-0.00055467,0.00167865,-0.000380
 29,0.00115394,0.77140508,0.00510895,0.00085661,0.00101888,-0.00252812,
 0.00427684,-0.00009465,-0.00139211,0.00351433,0.00042402,0.01051762,-0
 .03636532,0.00051227,-0.00377979,-0.28518080,-0.01249773,-0.01348443,-
 0.03198207,-0.00121499,0.00006405,-0.00040771,-0.00007063,-0.00087654,
 0.00185675,-0.00055500,0.00110853,0.00155858,-0.00045611,0.00615881,0.
 59881116,0.00162459,0.00076778,0.00448265,-0.00024818,0.00141030,-0.00
 161500,-0.00243907,0.00082596,0.00425543,0.00289296,0.00330490,0.00637
 040,-0.00463038,0.03314305,-0.03689882,-0.00365803,-0.00199582,0.00632
 075,0.00004047,0.00031273,0.00032662,0.00059729,-0.00038100,-0.0028107
 8,0.00005961,-0.00046718,-0.00309337,0.03527782,-0.17290609,0.15862631
 ,-0.00031680,0.00014668,-0.00018555,0.00044315,-0.00029573,-0.00018267
 ,-0.00028557,-0.00051541,-0.00079748,0.00175006,0.00301099,-0.00046958
 ,0.00206124,-0.00144530,0.00015261,0.00137065,0.00076949,0.00057584,-0
 .00001781,0.00004788,0.00005612,-0.00039249,-0.00030799,0.00069347,0.0
 0026656,0.00015152,0.00017384,-0.34867845,-0.12688204,0.09606973,0.364
 38092,-0.00155995,0.00033139,-0.00050400,0.00045318,0.00008218,0.00023
 815,-0.00000112,-0.00066293,-0.00062629,-0.00172587,0.00248665,-0.0007
 9992,-0.03555968,-0.01578533,0.01112818,0.00223672,-0.00595262,0.00101
 203,-0.00000907,0.00007065,-0.00000610,0.00140603,-0.00009340,0.000637
 81,-0.00008885,0.00010986,0.00011948,-0.11907600,-0.11605169,0.0584707
 1,0.13789931,0.12692762,-0.00062510,-0.00092558,0.00158649,-0.00050114
 ,-0.00056389,-0.00005478,0.00043826,0.00039408,-0.00076541,-0.00027903
 ,0.00052558,0.00017774,-0.00452118,-0.01067844,-0.00467491,0.00100899,
 0.00006887,0.00142164,-0.00000574,0.00001756,-0.00000181,-0.00051346,0
 .00035376,0.00030283,0.00011618,-0.00001092,-0.00072126,0.13055419,0.0
 8046569,-0.05141501,-0.10918888,-0.06209153,0.05189374,-0.00001127,0.0
 0012873,0.00089689,-0.00007188,0.00039378,0.00018608,-0.00009007,0.000
 10605,-0.00006286,0.00130293,-0.00119425,-0.00053618,0.00324829,0.0016
 3637,0.00154773,0.00135343,-0.00264374,0.00048470,0.00003095,-0.000015
 38,0.00000262,0.00032899,-0.00014917,-0.00006739,-0.00036675,0.0001504
 8,-0.00073999,-0.30119711,0.12626000,-0.12558922,-0.02049700,0.0160208
 5,-0.01641500,0.31604158,-0.00008514,-0.00094267,-0.00071681,-0.000392
 28,0.00024029,0.00013079,0.00189423,-0.00000166,-0.00024099,-0.0030714
 0,-0.00564301,0.00072825,0.03263585,-0.01726098,0.01538395,0.00185902,
 0.00262693,-0.00057914,-0.00007077,-0.00044466,-0.00004845,0.00009240,
 0.00012846,0.00010661,-0.00138900,-0.00011979,0.00057294,0.12161545,-0
 .13058249,0.08052906,-0.01327257,0.00875803,-0.00859282,-0.13985860,0.
 14285291,-0.00072574,0.00076164,-0.00061615,0.00106340,-0.00057366,0.0
 0022835,0.00015156,-0.00117477,0.00156214,-0.00103394,0.00009070,0.001
 36293,0.00510723,-0.01087060,-0.00420375,0.00068132,-0.00000299,0.0003
 9042,-0.00000768,-0.00008972,-0.00008043,-0.00002214,-0.00003223,-0.00
 061780,0.00038198,0.00041439,0.00033054,-0.15903505,0.10526855,-0.0850
 0102,0.01291706,-0.00752125,0.00227444,0.14049811,-0.08725806,0.084571
 28,-0.00233177,0.03696884,-0.00161301,-0.10329396,-0.01823056,-0.00352
 676,0.00277443,-0.05124629,0.00138933,-0.00808543,0.00538060,-0.001043
 36,0.00620801,0.00002966,0.00055306,-0.00736718,-0.00532143,-0.0005289
 7,0.00207849,0.00088391,0.00032622,-0.00011575,-0.00170744,0.00004494,
 0.00015560,0.00126663,-0.00009843,-0.00014217,-0.00068111,-0.00020966,
 -0.00002276,0.00012124,0.00011405,-0.00010388,-0.00009704,0.00002794,0
 .56386230,0.00146303,-0.04130587,0.00150037,0.03196442,-0.29651549,0.0
 0989392,-0.01148899,-0.03751470,0.00068346,0.00173888,0.00094799,0.000
 21707,0.00201356,0.00665032,0.00117414,-0.00084453,-0.00242318,0.00025
 689,0.00088101,0.00134738,-0.00008341,-0.00024986,-0.00089208,0.000027
 95,-0.00030218,-0.00144375,0.00005742,-0.00019505,-0.01060389,-0.00331
 672,0.00070384,0.00019956,0.00119863,-0.00084979,0.00025677,0.00105059
 ,0.13571635,0.46654137,-0.00051709,0.00375598,0.00437586,-0.00504645,0
 .00700120,-0.03571674,0.00011116,-0.00181710,0.00635321,-0.00078372,0.
 00044384,0.00397396,0.00043260,-0.00014352,-0.00157603,-0.00085328,-0.
 00010507,0.00582095,0.00030879,-0.00008667,-0.00338844,-0.00002827,-0.
 00005985,0.00033553,-0.00000747,0.00016136,0.00065575,0.00007852,0.000
 17234,0.00009105,0.00012216,-0.00001685,-0.00005800,-0.00019117,-0.000
 01151,-0.00011139,0.02768786,-0.00577831,0.02514171,0.00344859,0.00664
 844,-0.00004833,-0.00078893,-0.00673926,0.00028534,0.00191729,0.002483
 91,-0.00000732,-0.00030999,-0.00033382,-0.00010492,-0.00047309,-0.0008
 4907,-0.00017022,-0.00094879,0.00044540,-0.00006061,0.00010920,0.00007
 945,0.00004498,0.00008489,0.00007111,0.00000373,0.00014556,0.00045501,
 -0.00000322,-0.00006777,0.00122269,0.00041681,-0.00007939,-0.00003999,
 -0.00015408,0.00012723,0.00000338,-0.00013121,-0.45203025,-0.16005745,
 -0.02135718,0.44947253,-0.00215389,-0.00059520,-0.00008617,-0.04553729
 ,-0.02264444,-0.00204880,0.00219095,-0.00734018,0.00038871,-0.00195441
 ,0.00069424,-0.00011266,0.00056571,-0.00041822,0.00000762,-0.00089792,
 -0.00046508,-0.00004841,-0.00000068,0.00008511,-0.00002199,0.00005831,
 -0.00042308,0.00002124,0.00001888,0.00021534,-0.00001144,0.00006672,0.
 00046773,0.00014073,-0.00002994,0.00000513,-0.00005058,0.00001063,-0.0
 0006805,-0.00004910,-0.11165607,-0.09138949,-0.00384037,0.15855794,0.1
 2036364,0.00022502,0.00046369,0.00117032,0.00145256,0.00014969,-0.0023
 1410,0.00001547,0.00039933,0.00073836,-0.00007141,0.00000494,0.0017787
 6,-0.00003459,-0.00004254,-0.00009176,0.00000796,0.00002636,-0.0005480
 9,0.00004976,-0.00001905,-0.00067865,0.00000394,0.00001976,-0.00004082
 ,0.00000900,0.00001604,-0.00001693,-0.00008633,0.00004021,-0.00005056,
 0.00005082,0.00001116,0.00004749,0.00002687,0.00001242,-0.00004032,-0.
 02283268,-0.00662226,-0.00444258,0.02117718,0.00575309,0.00569449,-0.1
 2111580,-0.04068624,-0.00526992,-0.03837351,-0.02490629,-0.00190695,-0
 .00138207,0.00802034,-0.00062177,-0.00078174,-0.00137983,0.00016479,0.
 00342634,0.00021377,-0.00016007,-0.01587469,-0.01183883,-0.00062233,-0
 .00141116,-0.00148053,-0.00003434,-0.00008005,-0.00023284,0.00001830,0
 .00120465,0.00040534,0.00019418,-0.00089369,-0.00081653,-0.00020474,0.
 00001769,-0.00007678,-0.00002806,-0.00009544,0.00013648,0.00012716,-0.
 00158567,-0.00049323,0.00004353,-0.00060710,0.00076106,0.00000644,0.17
 755223,-0.04389249,-0.06210456,-0.00137239,0.00001857,-0.00644301,0.00
 028539,0.00155200,0.00118190,0.00017813,-0.00140008,-0.00049117,-0.000
 05352,0.00441273,-0.00321967,0.00032639,-0.03684054,-0.01645765,-0.001
 75615,-0.00010134,-0.00003137,-0.00000800,-0.00016983,0.00007187,-0.00
 004206,-0.00066592,0.00098933,-0.00015283,-0.00193553,-0.00016802,0.00
 016161,0.00001928,-0.00042510,-0.00011041,0.00000404,0.00019990,-0.000
 01348,0.00857272,0.00614506,0.00032454,-0.00194773,0.00151256,-0.00021
 283,0.07237412,0.07923993,-0.00511596,-0.00120761,-0.01898838,-0.00265
 596,-0.00124723,0.00380152,-0.00036648,0.00057561,0.00388752,0.0000906
 2,-0.00013085,-0.00083582,-0.00025330,0.00036891,0.00459089,0.00006937
 ,-0.00013550,0.00182784,-0.00007747,-0.00009530,-0.00011106,0.00002764
 ,-0.00002839,-0.00048451,0.00023549,-0.00006903,-0.00256492,-0.0000375
 2,-0.00010677,0.00041136,0.00001250,-0.00005158,-0.00001318,-0.0000412
 0,-0.00001624,-0.00004925,-0.00029054,-0.00025973,-0.00145484,0.000109
 05,-0.00004188,-0.00120560,0.00829377,0.00244559,0.01118842\\-0.000202
 55,0.00014628,-0.00000933,0.00024431,0.00006185,0.00001375,-0.00011389
 ,-0.00016627,-0.00000354,-0.00012441,0.00017539,-0.00000069,0.00021165
 ,0.00000512,-0.00002243,-0.00004056,-0.00018668,0.00000129,0.00001107,
 0.00000872,-0.00000066,0.00001920,-0.00002392,-0.00000134,0.00000438,0
 .00003553,0.00000871,-0.00002597,0.00002578,-0.00001743,-0.00000917,-0
 .00001979,0.00001198,0.00001459,-0.00002612,0.00001960,-0.00003078,-0.
 00005143,-0.00000416,-0.00000474,0.00000919,0.00000447,0.00004685,0.00
 000635,-0.00000022\\\@


 HICKORY, DICKORY, DOCK
 TWO MICE RAN UP THE CLOCK
 THE CLOCK STRUCK ONE...
 THE OTHER ESCAPED WITH MINOR INJURIES.
 Job cpu time:       0 days  0 hours 26 minutes  1.9 seconds.
 File lengths (MBytes):  RWF=    157 Int=      0 D2E=      0 Chk=      6 Scr=      1
 Normal termination of Gaussian 09 at Mon Jan  9 17:52:30 2023.
