 Entering Gaussian System, Link 0=g09
 Initial command:
 /cm/shared/apps/gaussian/g09revD.01/g09/l1.exe "//home/sweav003/CHB/Weird_totest/hartwig/G09-guaiazulene.com.o9723327.tmp/Gau-127007.inp" -scrdir="//home/sweav003/CHB/Weird_totest/hartwig/G09-guaiazulene.com.o9723327.tmp/"
 Entering Link 1 = /cm/shared/apps/gaussian/g09revD.01/g09/l1.exe PID=    127008.
  
 Copyright (c) 1988,1990,1992,1993,1995,1998,2003,2009,2013,
            Gaussian, Inc.  All Rights Reserved.
  
 This is part of the Gaussian(R) 09 program.  It is based on
 the Gaussian(R) 03 system (copyright 2003, Gaussian, Inc.),
 the Gaussian(R) 98 system (copyright 1998, Gaussian, Inc.),
 the Gaussian(R) 94 system (copyright 1995, Gaussian, Inc.),
 the Gaussian 92(TM) system (copyright 1992, Gaussian, Inc.),
 the Gaussian 90(TM) system (copyright 1990, Gaussian, Inc.),
 the Gaussian 88(TM) system (copyright 1988, Gaussian, Inc.),
 the Gaussian 86(TM) system (copyright 1986, Carnegie Mellon
 University), and the Gaussian 82(TM) system (copyright 1983,
 Carnegie Mellon University). Gaussian is a federally registered
 trademark of Gaussian, Inc.
  
 This software contains proprietary and confidential information,
 including trade secrets, belonging to Gaussian, Inc.
  
 This software is provided under written license and may be
 used, copied, transmitted, or stored only in accord with that
 written license.
  
 The following legend is applicable only to US Government
 contracts under FAR:
  
                    RESTRICTED RIGHTS LEGEND
  
 Use, reproduction and disclosure by the US Government is
 subject to restrictions as set forth in subparagraphs (a)
 and (c) of the Commercial Computer Software - Restricted
 Rights clause in FAR 52.227-19.
  
 Gaussian, Inc.
 340 Quinnipiac St., Bldg. 40, Wallingford CT 06492
  
  
 ---------------------------------------------------------------
 Warning -- This program may not be used in any manner that
 competes with the business of Gaussian, Inc. or will provide
 assistance to any competitor of Gaussian, Inc.  The licensee
 of this program is prohibited from giving any competitor of
 Gaussian, Inc. access to this program.  By using this program,
 the user acknowledges that Gaussian, Inc. is engaged in the
 business of creating and licensing software in the field of
 computational chemistry and represents and warrants to the
 licensee that it is not a competitor of Gaussian, Inc. and that
 it will not use this program in any manner prohibited above.
 ---------------------------------------------------------------
  

 Cite this work as:
 Gaussian 09, Revision D.01,
 M. J. Frisch, G. W. Trucks, H. B. Schlegel, G. E. Scuseria, 
 M. A. Robb, J. R. Cheeseman, G. Scalmani, V. Barone, B. Mennucci, 
 G. A. Petersson, H. Nakatsuji, M. Caricato, X. Li, H. P. Hratchian, 
 A. F. Izmaylov, J. Bloino, G. Zheng, J. L. Sonnenberg, M. Hada, 
 M. Ehara, K. Toyota, R. Fukuda, J. Hasegawa, M. Ishida, T. Nakajima, 
 Y. Honda, O. Kitao, H. Nakai, T. Vreven, J. A. Montgomery, Jr., 
 J. E. Peralta, F. Ogliaro, M. Bearpark, J. J. Heyd, E. Brothers, 
 K. N. Kudin, V. N. Staroverov, T. Keith, R. Kobayashi, J. Normand, 
 K. Raghavachari, A. Rendell, J. C. Burant, S. S. Iyengar, J. Tomasi, 
 M. Cossi, N. Rega, J. M. Millam, M. Klene, J. E. Knox, J. B. Cross, 
 V. Bakken, C. Adamo, J. Jaramillo, R. Gomperts, R. E. Stratmann, 
 O. Yazyev, A. J. Austin, R. Cammi, C. Pomelli, J. W. Ochterski, 
 R. L. Martin, K. Morokuma, V. G. Zakrzewski, G. A. Voth, 
 P. Salvador, J. J. Dannenberg, S. Dapprich, A. D. Daniels, 
 O. Farkas, J. B. Foresman, J. V. Ortiz, J. Cioslowski, 
 and D. J. Fox, Gaussian, Inc., Wallingford CT, 2013.
 
 ******************************************
 Gaussian 09:  ES64L-G09RevD.01 24-Apr-2013
                 7-Mar-2022 
 ******************************************
 %nprocshared=21
 Will use up to   21 processors via shared memory.
 %mem=100MW
 %chk=guaiazulene.chk
 ----------------------------------------------------------------------
 # opt freq b3lyp/6-311+g(d,p) geom=connectivity pop=(hirshfeld,npa,mbs
 ,chelpg)
 ----------------------------------------------------------------------
 1/14=-1,18=20,19=15,26=3,38=1,57=2/1,3;
 2/9=110,12=2,17=6,18=5,40=1/2;
 3/5=4,6=6,7=111,11=2,16=1,25=1,30=1,71=1,74=-5/1,2,3;
 4//1;
 5/5=2,38=5/2;
 6/7=2,8=2,9=2,10=2,15=8,20=3,27=100,28=1,40=-1,79=1/1,2,7;
 7//1,2,3,16;
 1/14=-1,18=20,19=15,26=3/3(2);
 2/9=110/2;
 99//99;
 2/9=110/2;
 3/5=4,6=6,7=111,11=2,16=1,25=1,30=1,71=1,74=-5/1,2,3;
 4/5=5,16=3,69=1/1;
 5/5=2,38=5/2;
 7//1,2,3,16;
 1/14=-1,18=20,19=15,26=3/3(-5);
 2/9=110/2;
 6/7=2,8=2,9=2,10=2,15=8,19=2,20=3,27=100,28=1,40=-1,79=1/1,2,7;
 99/9=1/99;
 ---
 tit
 ---
 Symbolic Z-matrix:
 Charge =  0 Multiplicity = 1
 C                    -0.08147  -1.82718   0.81703 
 C                     1.32384  -1.56495   0.49901 
 C                     2.10184  -0.41165   0.19047 
 C                    -1.05616  -1.03481   1.0258 
 C                     1.45855   0.87009   0.21313 
 C                    -1.29698   0.41477   0.9638 
 C                    -0.14631   1.24504   0.58203 
 H                    -0.31616  -2.85868   0.97775 
 H                    -2.25386   0.84014   1.18363 
 H                    -0.36789   2.29049   0.52881 
 C                     1.98449  -2.72483   0.46979 
 C                     3.44794  -2.32121   0.07222 
 H                     4.2666   -2.99908  -0.05101 
 C                     3.51116  -0.94141  -0.0944 
 H                     4.3712   -0.36577  -0.36621 
 C                    -2.40854  -1.62717   1.46372 
 H                    -3.12504  -0.82199   1.56382 
 C                    -2.25315  -2.3353    2.81472 
 H                    -3.19657  -2.73852   3.11849 
 H                    -1.54208  -3.12846   2.7139 
 H                    -1.90906  -1.63926   3.55095 
 C                    -2.9092   -2.61693   0.40338 
 H                    -3.85262  -3.02016   0.70715 
 H                    -3.02095  -2.11658  -0.5358 
 H                    -2.19814  -3.4101    0.30256 
 C                     1.43626  -4.13461   0.7589 
 H                     0.63586  -4.06798   1.46588 
 H                     1.07468  -4.56985  -0.14925 
 H                     2.21732  -4.74551   1.16093 
 C                     2.35504   2.06955  -0.14632 
 H                     3.36369   1.86034   0.14311 
 H                     2.3151    2.24105  -1.20173 
 H                     2.00923   2.94065   0.36992 
 

 GradGradGradGradGradGradGradGradGradGradGradGradGradGradGradGradGradGrad
 Berny optimization.
 Initialization pass.
                           ----------------------------
                           !    Initial Parameters    !
                           ! (Angstroms and Degrees)  !
 --------------------------                            --------------------------
 ! Name  Definition              Value          Derivative Info.                !
 --------------------------------------------------------------------------------
 ! R1    R(1,2)                  1.4645         estimate D2E/DX2                !
 ! R2    R(1,4)                  1.2734         estimate D2E/DX2                !
 ! R3    R(1,8)                  1.07           estimate D2E/DX2                !
 ! R4    R(2,3)                  1.425          estimate D2E/DX2                !
 ! R5    R(2,11)                 1.3352         estimate D2E/DX2                !
 ! R6    R(3,5)                  1.4343         estimate D2E/DX2                !
 ! R7    R(3,14)                 1.5323         estimate D2E/DX2                !
 ! R8    R(4,6)                  1.4708         estimate D2E/DX2                !
 ! R9    R(4,16)                 1.54           estimate D2E/DX2                !
 ! R10   R(5,7)                  1.6889         estimate D2E/DX2                !
 ! R11   R(5,30)                 1.54           estimate D2E/DX2                !
 ! R12   R(6,7)                  1.4694         estimate D2E/DX2                !
 ! R13   R(6,9)                  1.07           estimate D2E/DX2                !
 ! R14   R(7,10)                 1.07           estimate D2E/DX2                !
 ! R15   R(11,12)                1.5693         estimate D2E/DX2                !
 ! R16   R(11,26)                1.54           estimate D2E/DX2                !
 ! R17   R(12,13)                1.07           estimate D2E/DX2                !
 ! R18   R(12,14)                1.3913         estimate D2E/DX2                !
 ! R19   R(14,15)                1.07           estimate D2E/DX2                !
 ! R20   R(16,17)                1.0825         estimate D2E/DX2                !
 ! R21   R(16,18)                1.5332         estimate D2E/DX2                !
 ! R22   R(16,22)                1.5345         estimate D2E/DX2                !
 ! R23   R(18,19)                1.07           estimate D2E/DX2                !
 ! R24   R(18,20)                1.07           estimate D2E/DX2                !
 ! R25   R(18,21)                1.07           estimate D2E/DX2                !
 ! R26   R(22,23)                1.07           estimate D2E/DX2                !
 ! R27   R(22,24)                1.07           estimate D2E/DX2                !
 ! R28   R(22,25)                1.07           estimate D2E/DX2                !
 ! R29   R(26,27)                1.07           estimate D2E/DX2                !
 ! R30   R(26,28)                1.07           estimate D2E/DX2                !
 ! R31   R(26,29)                1.07           estimate D2E/DX2                !
 ! R32   R(30,31)                1.07           estimate D2E/DX2                !
 ! R33   R(30,32)                1.07           estimate D2E/DX2                !
 ! R34   R(30,33)                1.07           estimate D2E/DX2                !
 ! A1    A(2,1,4)              131.2            estimate D2E/DX2                !
 ! A2    A(2,1,8)              114.5631         estimate D2E/DX2                !
 ! A3    A(4,1,8)              114.0389         estimate D2E/DX2                !
 ! A4    A(1,2,3)              135.7115         estimate D2E/DX2                !
 ! A5    A(1,2,11)             108.9062         estimate D2E/DX2                !
 ! A6    A(3,2,11)             115.3533         estimate D2E/DX2                !
 ! A7    A(2,3,5)              118.3575         estimate D2E/DX2                !
 ! A8    A(2,3,14)             105.2241         estimate D2E/DX2                !
 ! A9    A(5,3,14)             136.4183         estimate D2E/DX2                !
 ! A10   A(1,4,6)              137.0312         estimate D2E/DX2                !
 ! A11   A(1,4,16)             118.6503         estimate D2E/DX2                !
 ! A12   A(6,4,16)             104.3184         estimate D2E/DX2                !
 ! A13   A(3,5,7)              128.9059         estimate D2E/DX2                !
 ! A14   A(3,5,30)             115.5471         estimate D2E/DX2                !
 ! A15   A(7,5,30)             115.547          estimate D2E/DX2                !
 ! A16   A(4,6,7)              116.0809         estimate D2E/DX2                !
 ! A17   A(4,6,9)              121.9778         estimate D2E/DX2                !
 ! A18   A(7,6,9)              121.9412         estimate D2E/DX2                !
 ! A19   A(5,7,6)              132.4887         estimate D2E/DX2                !
 ! A20   A(5,7,10)             113.7555         estimate D2E/DX2                !
 ! A21   A(6,7,10)             113.7557         estimate D2E/DX2                !
 ! A22   A(2,11,12)            104.0963         estimate D2E/DX2                !
 ! A23   A(2,11,26)            127.9519         estimate D2E/DX2                !
 ! A24   A(12,11,26)           127.9518         estimate D2E/DX2                !
 ! A25   A(11,12,13)           125.4323         estimate D2E/DX2                !
 ! A26   A(11,12,14)           109.1354         estimate D2E/DX2                !
 ! A27   A(13,12,14)           125.4323         estimate D2E/DX2                !
 ! A28   A(3,14,12)            106.1894         estimate D2E/DX2                !
 ! A29   A(3,14,15)            126.9053         estimate D2E/DX2                !
 ! A30   A(12,14,15)           126.9053         estimate D2E/DX2                !
 ! A31   A(4,16,17)            108.7509         estimate D2E/DX2                !
 ! A32   A(4,16,18)            109.829          estimate D2E/DX2                !
 ! A33   A(4,16,22)            109.7631         estimate D2E/DX2                !
 ! A34   A(17,16,18)           109.217          estimate D2E/DX2                !
 ! A35   A(17,16,22)           109.1311         estimate D2E/DX2                !
 ! A36   A(18,16,22)           110.1238         estimate D2E/DX2                !
 ! A37   A(16,18,19)           109.563          estimate D2E/DX2                !
 ! A38   A(16,18,20)           109.0678         estimate D2E/DX2                !
 ! A39   A(16,18,21)           109.782          estimate D2E/DX2                !
 ! A40   A(19,18,20)           109.4712         estimate D2E/DX2                !
 ! A41   A(19,18,21)           109.4712         estimate D2E/DX2                !
 ! A42   A(20,18,21)           109.4712         estimate D2E/DX2                !
 ! A43   A(16,22,23)           109.5465         estimate D2E/DX2                !
 ! A44   A(16,22,24)           109.8145         estimate D2E/DX2                !
 ! A45   A(16,22,25)           109.0517         estimate D2E/DX2                !
 ! A46   A(23,22,24)           109.4712         estimate D2E/DX2                !
 ! A47   A(23,22,25)           109.4712         estimate D2E/DX2                !
 ! A48   A(24,22,25)           109.4712         estimate D2E/DX2                !
 ! A49   A(11,26,27)           109.4712         estimate D2E/DX2                !
 ! A50   A(11,26,28)           109.4712         estimate D2E/DX2                !
 ! A51   A(11,26,29)           109.4712         estimate D2E/DX2                !
 ! A52   A(27,26,28)           109.4712         estimate D2E/DX2                !
 ! A53   A(27,26,29)           109.4712         estimate D2E/DX2                !
 ! A54   A(28,26,29)           109.4712         estimate D2E/DX2                !
 ! A55   A(5,30,31)            109.4712         estimate D2E/DX2                !
 ! A56   A(5,30,32)            109.4712         estimate D2E/DX2                !
 ! A57   A(5,30,33)            109.4712         estimate D2E/DX2                !
 ! A58   A(31,30,32)           109.4712         estimate D2E/DX2                !
 ! A59   A(31,30,33)           109.4712         estimate D2E/DX2                !
 ! A60   A(32,30,33)           109.4712         estimate D2E/DX2                !
 ! D1    D(4,1,2,3)             -6.7727         estimate D2E/DX2                !
 ! D2    D(4,1,2,11)           175.3599         estimate D2E/DX2                !
 ! D3    D(8,1,2,3)            178.7294         estimate D2E/DX2                !
 ! D4    D(8,1,2,11)             0.8619         estimate D2E/DX2                !
 ! D5    D(2,1,4,6)              5.4946         estimate D2E/DX2                !
 ! D6    D(2,1,4,16)          -174.7075         estimate D2E/DX2                !
 ! D7    D(8,1,4,6)           -179.9847         estimate D2E/DX2                !
 ! D8    D(8,1,4,16)            -0.1868         estimate D2E/DX2                !
 ! D9    D(1,2,3,5)              2.7062         estimate D2E/DX2                !
 ! D10   D(1,2,3,14)          -177.3572         estimate D2E/DX2                !
 ! D11   D(11,2,3,5)          -179.5264         estimate D2E/DX2                !
 ! D12   D(11,2,3,14)            0.4103         estimate D2E/DX2                !
 ! D13   D(1,2,11,12)          178.0125         estimate D2E/DX2                !
 ! D14   D(1,2,11,26)           -1.9547         estimate D2E/DX2                !
 ! D15   D(3,2,11,12)           -0.3399         estimate D2E/DX2                !
 ! D16   D(3,2,11,26)          179.693          estimate D2E/DX2                !
 ! D17   D(2,3,5,7)              0.7935         estimate D2E/DX2                !
 ! D18   D(2,3,5,30)          -179.3068         estimate D2E/DX2                !
 ! D19   D(14,3,5,7)          -179.1178         estimate D2E/DX2                !
 ! D20   D(14,3,5,30)            0.7819         estimate D2E/DX2                !
 ! D21   D(2,3,14,12)           -0.2895         estimate D2E/DX2                !
 ! D22   D(2,3,14,15)          179.7476         estimate D2E/DX2                !
 ! D23   D(5,3,14,12)          179.6296         estimate D2E/DX2                !
 ! D24   D(5,3,14,15)           -0.3333         estimate D2E/DX2                !
 ! D25   D(1,4,6,7)             -1.0231         estimate D2E/DX2                !
 ! D26   D(1,4,6,9)            178.9692         estimate D2E/DX2                !
 ! D27   D(16,4,6,7)           179.1599         estimate D2E/DX2                !
 ! D28   D(16,4,6,9)            -0.8478         estimate D2E/DX2                !
 ! D29   D(1,4,16,17)         -178.1871         estimate D2E/DX2                !
 ! D30   D(1,4,16,18)           62.3463         estimate D2E/DX2                !
 ! D31   D(1,4,16,22)          -58.8642         estimate D2E/DX2                !
 ! D32   D(6,4,16,17)            1.6707         estimate D2E/DX2                !
 ! D33   D(6,4,16,18)         -117.7958         estimate D2E/DX2                !
 ! D34   D(6,4,16,22)          120.9936         estimate D2E/DX2                !
 ! D35   D(3,5,7,6)             -0.2212         estimate D2E/DX2                !
 ! D36   D(3,5,7,10)           179.6725         estimate D2E/DX2                !
 ! D37   D(30,5,7,6)           179.8791         estimate D2E/DX2                !
 ! D38   D(30,5,7,10)           -0.2272         estimate D2E/DX2                !
 ! D39   D(3,5,30,31)          -29.9568         estimate D2E/DX2                !
 ! D40   D(3,5,30,32)           90.0432         estimate D2E/DX2                !
 ! D41   D(3,5,30,33)         -149.9568         estimate D2E/DX2                !
 ! D42   D(7,5,30,31)          149.9568         estimate D2E/DX2                !
 ! D43   D(7,5,30,32)          -90.0432         estimate D2E/DX2                !
 ! D44   D(7,5,30,33)           29.9568         estimate D2E/DX2                !
 ! D45   D(4,6,7,5)             -1.31           estimate D2E/DX2                !
 ! D46   D(4,6,7,10)           178.7963         estimate D2E/DX2                !
 ! D47   D(9,6,7,5)            178.6977         estimate D2E/DX2                !
 ! D48   D(9,6,7,10)            -1.196          estimate D2E/DX2                !
 ! D49   D(2,11,12,13)        -179.8731         estimate D2E/DX2                !
 ! D50   D(2,11,12,14)           0.1292         estimate D2E/DX2                !
 ! D51   D(26,11,12,13)          0.094          estimate D2E/DX2                !
 ! D52   D(26,11,12,14)       -179.9036         estimate D2E/DX2                !
 ! D53   D(2,11,26,27)         -30.0202         estimate D2E/DX2                !
 ! D54   D(2,11,26,28)          89.9798         estimate D2E/DX2                !
 ! D55   D(2,11,26,29)        -150.0202         estimate D2E/DX2                !
 ! D56   D(12,11,26,27)        150.0202         estimate D2E/DX2                !
 ! D57   D(12,11,26,28)        -89.9798         estimate D2E/DX2                !
 ! D58   D(12,11,26,29)         30.0202         estimate D2E/DX2                !
 ! D59   D(11,12,14,3)           0.1042         estimate D2E/DX2                !
 ! D60   D(11,12,14,15)       -179.9329         estimate D2E/DX2                !
 ! D61   D(13,12,14,3)        -179.8935         estimate D2E/DX2                !
 ! D62   D(13,12,14,15)          0.0695         estimate D2E/DX2                !
 ! D63   D(4,16,18,19)         179.5613         estimate D2E/DX2                !
 ! D64   D(4,16,18,20)         -60.6291         estimate D2E/DX2                !
 ! D65   D(4,16,18,21)          59.3129         estimate D2E/DX2                !
 ! D66   D(17,16,18,19)         60.3802         estimate D2E/DX2                !
 ! D67   D(17,16,18,20)       -179.8102         estimate D2E/DX2                !
 ! D68   D(17,16,18,21)        -59.8682         estimate D2E/DX2                !
 ! D69   D(22,16,18,19)        -59.4451         estimate D2E/DX2                !
 ! D70   D(22,16,18,20)         60.3645         estimate D2E/DX2                !
 ! D71   D(22,16,18,21)       -179.6935         estimate D2E/DX2                !
 ! D72   D(4,16,22,23)        -179.5317         estimate D2E/DX2                !
 ! D73   D(4,16,22,24)         -59.2735         estimate D2E/DX2                !
 ! D74   D(4,16,22,25)          60.6783         estimate D2E/DX2                !
 ! D75   D(17,16,22,23)        -60.4422         estimate D2E/DX2                !
 ! D76   D(17,16,22,24)         59.8161         estimate D2E/DX2                !
 ! D77   D(17,16,22,25)        179.7679         estimate D2E/DX2                !
 ! D78   D(18,16,22,23)         59.4352         estimate D2E/DX2                !
 ! D79   D(18,16,22,24)        179.6935         estimate D2E/DX2                !
 ! D80   D(18,16,22,25)        -60.3548         estimate D2E/DX2                !
 --------------------------------------------------------------------------------
 Trust Radius=3.00D-01 FncErr=1.00D-07 GrdErr=1.00D-06
 Number of steps in this run=    184 maximum allowed number of steps=    198.
 GradGradGradGradGradGradGradGradGradGradGradGradGradGradGradGradGradGrad

                          Input orientation:                          
 ---------------------------------------------------------------------
 Center     Atomic      Atomic             Coordinates (Angstroms)
 Number     Number       Type             X           Y           Z
 ---------------------------------------------------------------------
      1          6           0       -0.081472   -1.827177    0.817035
      2          6           0        1.323836   -1.564954    0.499015
      3          6           0        2.101838   -0.411652    0.190473
      4          6           0       -1.056162   -1.034813    1.025798
      5          6           0        1.458554    0.870093    0.213133
      6          6           0       -1.296976    0.414766    0.963805
      7          6           0       -0.146313    1.245037    0.582029
      8          1           0       -0.316162   -2.858677    0.977746
      9          1           0       -2.253863    0.840142    1.183630
     10          1           0       -0.367891    2.290489    0.528812
     11          6           0        1.984491   -2.724835    0.469786
     12          6           0        3.447936   -2.321214    0.072220
     13          1           0        4.266599   -2.999081   -0.051015
     14          6           0        3.511158   -0.941405   -0.094405
     15          1           0        4.371196   -0.365769   -0.366209
     16          6           0       -2.408544   -1.627172    1.463718
     17          1           0       -3.125044   -0.821988    1.563821
     18          6           0       -2.253152   -2.335295    2.814716
     19          1           0       -3.196567   -2.738521    3.118487
     20          1           0       -1.542083   -3.128464    2.713895
     21          1           0       -1.909064   -1.639257    3.550946
     22          6           0       -2.909204   -2.616932    0.403380
     23          1           0       -3.852620   -3.020157    0.707151
     24          1           0       -3.020945   -2.116576   -0.535799
     25          1           0       -2.198136   -3.410101    0.302559
     26          6           0        1.436260   -4.134607    0.758896
     27          1           0        0.635863   -4.067978    1.465879
     28          1           0        1.074679   -4.569848   -0.149247
     29          1           0        2.217324   -4.745512    1.160932
     30          6           0        2.355044    2.069551   -0.146319
     31          1           0        3.363688    1.860341    0.143108
     32          1           0        2.315100    2.241051   -1.201730
     33          1           0        2.009231    2.940650    0.369916
 ---------------------------------------------------------------------
                    Distance matrix (angstroms):
                    1          2          3          4          5
     1  C    0.000000
     2  C    1.464509   0.000000
     3  C    2.676402   1.424988   0.000000
     4  C    1.273359   2.494583   3.325517   0.000000
     5  C    3.164118   2.455470   1.434294   3.257743   0.000000
     6  C    2.554467   3.317224   3.582310   1.470753   2.892019
     7  C    3.081871   3.172425   2.819950   2.494488   1.688865
     8  H    1.070000   2.143012   3.529087   1.968854   4.199759
     9  H    3.459518   4.364987   4.639556   2.230438   3.837291
    10  H    4.137667   4.210377   3.676357   3.431960   2.335183
    11  C    2.279161   1.335156   2.332938   3.522910   3.642250
    12  C    3.640816   2.294751   2.339314   4.780276   3.763235
    13  H    4.586130   3.319504   3.382203   5.774916   4.788048
    14  C    3.810814   2.350603   1.532311   4.703615   2.754867
    15  H    4.833428   3.387190   2.337089   5.642829   3.216594
    16  C    2.423524   3.855540   4.841713   1.540000   4.770193
    17  H    3.291113   4.634473   5.419847   2.148263   5.069207
    18  C    2.994179   4.330213   5.436266   2.514809   5.551532
    19  H    3.978825   5.354712   6.485420   3.444314   6.567597
    20  H    2.724851   3.945092   5.198739   2.732978   5.589821
    21  H    3.293885   4.446509   5.374674   2.732978   5.364576
    22  C    2.964944   4.362847   5.478972   2.514809   5.592213
    23  H    3.956872   5.381137   6.521259   3.444314   6.602020
    24  H    3.248756   4.500250   5.447673   2.732978   5.435715
    25  H    2.692694   3.980886   5.243380   2.732978   5.630225
    26  C    2.762448   2.585207   3.824460   3.986493   5.034419
    27  H    2.440646   2.770065   4.140587   3.500958   5.160498
    28  H    3.129317   3.084106   4.296633   4.291583   5.465495
    29  H    3.730872   3.369334   4.442688   4.950077   5.745353
    30  C    4.695652   3.832684   2.516726   4.758914   1.540000
    31  H    5.091276   4.002538   2.599320   5.356878   2.148263
    32  H    5.135119   4.284951   3.003421   5.201786   2.148263
    33  H    5.225240   4.559265   3.358379   5.062719   2.148263
                    6          7          8          9         10
     6  C    0.000000
     7  C    1.469397   0.000000
     8  H    3.417253   4.126246   0.000000
     9  H    1.070000   2.228818   4.180710   0.000000
    10  H    2.137933   1.070000   5.168959   2.467627   0.000000
    11  C    4.568279   4.506973   2.359861   5.584109   5.539915
    12  C    5.549297   5.088878   3.908616   6.613616   6.003067
    13  H    6.605875   6.155248   4.698911   7.666838   7.056504
    14  C    5.106580   4.314532   4.412915   6.167880   5.087294
    15  H    5.874210   4.888940   5.476507   6.909966   5.505971
    16  C    2.378026   3.760937   2.476052   2.487974   4.515129
    17  H    2.287227   3.756240   3.518721   1.914726   4.284933
    18  C    3.450070   4.716189   2.720352   3.569852   5.493401
    19  H    4.265480   5.621957   3.590814   4.176026   6.324458
    20  H    3.959466   5.061673   2.142401   4.312560   5.959729
    21  H    3.359607   4.498989   3.262772   3.445358   5.191475
    22  C    3.479158   4.751871   2.666871   3.604111   5.527820
    23  H    4.289042   5.651924   3.550469   4.205349   6.354377
    24  H    3.410069   4.562180   3.187065   3.505286   5.253029
    25  H    3.984838   5.094937   2.074071   4.340962   5.991470
    26  C    5.311248   5.610382   2.178733   6.208505   6.677557
    27  H    4.907437   5.442528   1.614631   5.702615   6.505053
    28  H    5.631164   5.986524   2.476420   6.490280   7.043082
    29  H    6.246410   6.465956   3.164216   7.154828   7.522515
    30  C    4.160282   2.732600   5.717193   4.951993   2.814070
    31  H    4.948235   3.590455   6.042107   5.803480   3.776040
    32  H    4.590420   3.198812   6.138475   5.341153   3.193065
    33  H    4.202833   2.750721   6.277668   4.821642   2.469548
                   11         12         13         14         15
    11  C    0.000000
    12  C    1.569280   0.000000
    13  H    2.356790   1.070000   0.000000
    14  C    2.414465   1.391270   2.192397   0.000000
    15  H    3.458386   2.206443   2.654171   1.070000   0.000000
    16  C    4.635895   6.059399   6.980980   6.159618   7.134749
    17  H    5.561033   6.904825   7.872979   6.841282   7.754144
    18  C    4.858812   6.326443   7.152634   6.605541   7.607844
    19  H    5.818863   7.321428   8.112489   7.651527   8.662799
    20  H    4.199485   5.703542   6.434458   6.181021   7.217090
    21  H    5.082499   6.423710   7.277503   6.569199   7.510495
    22  C    4.895335   6.372625   7.200324   6.654039   7.659258
    23  H    5.849395   7.361370   8.154567   7.693434   8.707986
    24  H    5.141554   6.500615   7.356775   6.651633   7.598542
    25  H    4.241689   5.754725   6.487430   6.232822   7.271267
    26  C    1.540000   2.794058   3.155343   3.902545   4.907530
    27  H    2.148263   3.591828   4.077468   4.525181   5.569166
    28  H    2.148263   3.276851   3.558835   4.370930   5.346810
    29  H    2.148263   2.928638   2.952687   4.209644   5.114047
    30  C    4.847992   4.530009   5.417948   3.225702   3.169227
    31  H    4.799243   4.183004   4.946404   2.815660   2.496005
    32  H    5.250074   4.870372   5.708894   3.575577   3.423614
    33  H    5.666419   5.463123   6.368148   4.188286   4.129548
                   16         17         18         19         20
    16  C    0.000000
    17  H    1.082457   0.000000
    18  C    1.533226   2.148263   0.000000
    19  H    2.143440   2.468846   1.070000   0.000000
    20  H    2.137189   3.024610   1.070000   1.747303   0.000000
    21  H    2.146194   2.468846   1.070000   1.747303   1.747303
    22  C    1.534471   2.148263   2.514809   2.732978   2.732978
    23  H    2.144331   2.468846   2.732978   2.514809   3.062243
    24  H    2.147701   2.468846   3.444314   3.710993   3.710993
    25  H    2.138082   3.024610   2.732978   3.062243   2.514809
    26  C    4.643977   5.694457   4.590825   5.383290   3.702009
    27  H    3.902044   4.968949   3.628768   4.380193   2.680239
    28  H    4.836718   5.883768   4.985254   5.681143   4.137948
    29  H    5.586984   6.640577   5.341283   6.096741   4.377178
    30  C    6.240974   6.427825   7.028931   8.037220   7.098436
    31  H    6.872076   7.163585   7.502649   8.546307   7.454108
    32  H    6.661875   6.828297   7.612076   8.592955   7.683858
    33  H    6.448111   6.476390   7.209754   8.179729   7.412167
                   21         22         23         24         25
    21  H    0.000000
    22  C    3.444314   0.000000
    23  H    3.710993   1.070000   0.000000
    24  H    4.262112   1.070000   1.747303   0.000000
    25  H    3.710993   1.070000   1.747303   1.747303   0.000000
    26  C    5.021305   4.616578   5.405268   5.061162   3.733897
    27  H    4.089357   3.975165   4.671196   4.602926   3.133315
    28  H    5.584131   4.471085   5.235765   4.789792   3.501494
    29  H    5.691052   5.602324   6.326689   6.101612   4.692166
    30  C    6.753343   7.069484   8.072709   6.824706   7.138594
    31  H    7.187660   7.711219   8.729978   7.552505   7.663998
    32  H    7.449045   7.312300   8.328559   6.921398   7.386995
    33  H    6.815243   7.421512   8.366973   7.190169   7.618301
                   26         27         28         29         30
    26  C    0.000000
    27  H    1.070000   0.000000
    28  H    1.070000   1.747303   0.000000
    29  H    1.070000   1.747303   1.747303   0.000000
    30  C    6.336809   6.574498   6.761727   6.940674   0.000000
    31  H    6.327209   6.658507   6.831717   6.781402   1.070000
    32  H    6.727958   7.052646   7.002478   7.375893   1.070000
    33  H    7.109069   7.225520   7.586204   7.729561   1.070000
                   31         32         33
    31  H    0.000000
    32  H    1.747303   0.000000
    33  H    1.747303   1.747303   0.000000
 Stoichiometry    C15H18
 Framework group  C1[X(C15H18)]
 Deg. of freedom    93
 Full point group                 C1      NOp   1
 Largest Abelian subgroup         C1      NOp   1
 Largest concise Abelian subgroup C1      NOp   1
                         Standard orientation:                         
 ---------------------------------------------------------------------
 Center     Atomic      Atomic             Coordinates (Angstroms)
 Number     Number       Type             X           Y           Z
 ---------------------------------------------------------------------
      1          6           0        0.685027    0.429402   -0.071198
      2          6           0       -0.756200    0.682279   -0.010313
      3          6           0       -1.933221   -0.120904   -0.000005
      4          6           0        1.348841   -0.656214   -0.023928
      5          6           0       -1.784534   -1.547470   -0.001281
      6          6           0        1.054796   -2.096918    0.008035
      7          6           0       -0.367437   -2.466201    0.004542
      8          1           0        1.291327    1.311006   -0.079853
      9          1           0        1.830777   -2.833237    0.032286
     10          1           0       -0.538527   -3.522429    0.007782
     11          6           0       -0.963904    2.001128    0.001455
     12          6           0       -2.526813    2.141801    0.014335
     13          1           0       -3.066428    3.065721    0.023622
     14          6           0       -3.098900    0.873597    0.011808
     15          1           0       -4.143007    0.639703    0.017611
     16          6           0        2.886617   -0.580529    0.009486
     17          1           0        3.284488   -1.587193    0.015825
     18          6           0        3.343922    0.150850    1.277058
     19          1           0        4.412800    0.194286    1.299744
     20          1           0        2.946659    1.144344    1.269956
     21          1           0        2.989624   -0.368765    2.142722
     22          6           0        3.397150    0.154159   -1.237186
     23          1           0        4.466027    0.197595   -1.214500
     24          1           0        3.079834   -0.363157   -2.118432
     25          1           0        2.999886    1.147653   -1.244288
     26          6           0        0.088269    3.125642    0.001517
     27          1           0        0.973822    2.785479    0.496475
     28          1           0        0.324031    3.393551   -1.007216
     29          1           0       -0.301992    3.979216    0.515334
     30          6           0       -3.097629   -2.352052   -0.006594
     31          1           0       -3.860045   -1.793762    0.495336
     32          1           0       -3.398029   -2.537796   -1.016623
     33          1           0       -2.947159   -3.283627    0.497814
 ---------------------------------------------------------------------
 Rotational constants (GHZ):      0.8179054      0.4880120      0.3281186
 Standard basis: 6-311+G(d,p) (5D, 7F)
 There are   453 symmetry adapted cartesian basis functions of A   symmetry.
 There are   438 symmetry adapted basis functions of A   symmetry.
   438 basis functions,   684 primitive gaussians,   453 cartesian basis functions
    54 alpha electrons       54 beta electrons
       nuclear repulsion energy       941.3205815648 Hartrees.
 NAtoms=   33 NActive=   33 NUniq=   33 SFac= 1.00D+00 NAtFMM=   60 NAOKFM=F Big=F
 Integral buffers will be    131072 words long.
 Raffenetti 2 integral format.
 Two-electron integral symmetry is turned on.
 One-electron integrals computed using PRISM.
 NBasis=   438 RedAO= T EigKep=  2.03D-06  NBF=   438
 NBsUse=   433 1.00D-06 EigRej=  9.93D-07 NBFU=   433
 ExpMin= 4.38D-02 ExpMax= 4.56D+03 ExpMxC= 6.82D+02 IAcc=2 IRadAn=         4 AccDes= 0.00D+00
 Harris functional with IExCor=  402 and IRadAn=       4 diagonalized for initial guess.
 HarFok:  IExCor=  402 AccDes= 0.00D+00 IRadAn=         4 IDoV= 1 UseB2=F ITyADJ=14
 ICtDFT=  3500011 ScaDFX=  1.000000  1.000000  1.000000  1.000000
 FoFCou: FMM=F IPFlag=           0 FMFlag=      100000 FMFlg1=           0
         NFxFlg=           0 DoJE=T BraDBF=F KetDBF=T FulRan=T
         wScrn=  0.000000 ICntrl=     500 IOpCl=  0 I1Cent=   200000004 NGrid=           0
         NMat0=    1 NMatS0=      1 NMatT0=    0 NMatD0=    1 NMtDS0=    0 NMtDT0=    0
 Petite list used in FoFCou.
 Requested convergence on RMS density matrix=1.00D-08 within 128 cycles.
 Requested convergence on MAX density matrix=1.00D-06.
 Requested convergence on             energy=1.00D-06.
 No special actions if energy rises.
 SCF Done:  E(RB3LYP) =  -582.430407322     A.U. after   16 cycles
            NFock= 16  Conv=0.66D-08     -V/T= 2.0050

 **********************************************************************

            Population analysis using the SCF density.

 **********************************************************************

 Orbital symmetries:
       Occupied  (A) (A) (A) (A) (A) (A) (A) (A) (A) (A) (A) (A)
                 (A) (A) (A) (A) (A) (A) (A) (A) (A) (A) (A) (A)
                 (A) (A) (A) (A) (A) (A) (A) (A) (A) (A) (A) (A)
                 (A) (A) (A) (A) (A) (A) (A) (A) (A) (A) (A) (A)
                 (A) (A) (A) (A) (A) (A)
       Virtual   (A) (A) (A) (A) (A) (A) (A) (A) (A) (A) (A) (A)
                 (A) (A) (A) (A) (A) (A) (A) (A) (A) (A) (A) (A)
                 (A) (A) (A) (A) (A) (A) (A) (A) (A) (A) (A) (A)
                 (A) (A) (A) (A) (A) (A) (A) (A) (A) (A) (A) (A)
                 (A) (A) (A) (A) (A) (A) (A) (A) (A) (A) (A) (A)
                 (A) (A) (A) (A) (A) (A) (A) (A) (A) (A) (A) (A)
                 (A) (A) (A) (A) (A) (A) (A) (A) (A) (A) (A) (A)
                 (A) (A) (A) (A) (A) (A) (A) (A) (A) (A) (A) (A)
                 (A) (A) (A) (A) (A) (A) (A) (A) (A) (A) (A) (A)
                 (A) (A) (A) (A) (A) (A) (A) (A) (A) (A) (A) (A)
                 (A) (A) (A) (A) (A) (A) (A) (A) (A) (A) (A) (A)
                 (A) (A) (A) (A) (A) (A) (A) (A) (A) (A) (A) (A)
                 (A) (A) (A) (A) (A) (A) (A) (A) (A) (A) (A) (A)
                 (A) (A) (A) (A) (A) (A) (A) (A) (A) (A) (A) (A)
                 (A) (A) (A) (A) (A) (A) (A) (A) (A) (A) (A) (A)
                 (A) (A) (A) (A) (A) (A) (A) (A) (A) (A) (A) (A)
                 (A) (A) (A) (A) (A) (A) (A) (A) (A) (A) (A) (A)
                 (A) (A) (A) (A) (A) (A) (A) (A) (A) (A) (A) (A)
                 (A) (A) (A) (A) (A) (A) (A) (A) (A) (A) (A) (A)
                 (A) (A) (A) (A) (A) (A) (A) (A) (A) (A) (A) (A)
                 (A) (A) (A) (A) (A) (A) (A) (A) (A) (A) (A) (A)
                 (A) (A) (A) (A) (A) (A) (A) (A) (A) (A) (A) (A)
                 (A) (A) (A) (A) (A) (A) (A) (A) (A) (A) (A) (A)
                 (A) (A) (A) (A) (A) (A) (A) (A) (A) (A) (A) (A)
                 (A) (A) (A) (A) (A) (A) (A) (A) (A) (A) (A) (A)
                 (A) (A) (A) (A) (A) (A) (A) (A) (A) (A) (A) (A)
                 (A) (A) (A) (A) (A) (A) (A) (A) (A) (A) (A) (A)
                 (A) (A) (A) (A) (A) (A) (A) (A) (A) (A) (A) (A)
                 (A) (A) (A) (A) (A) (A) (A) (A) (A) (A) (A) (A)
                 (A) (A) (A) (A) (A) (A) (A) (A) (A) (A) (A) (A)
                 (A) (A) (A) (A) (A) (A) (A) (A) (A) (A) (A) (A)
                 (A) (A) (A) (A) (A) (A) (A)
 The electronic state is 1-A.
 Alpha  occ. eigenvalues --  -10.23515 -10.21361 -10.20451 -10.19792 -10.18171
 Alpha  occ. eigenvalues --  -10.17575 -10.17029 -10.17027 -10.16732 -10.16682
 Alpha  occ. eigenvalues --  -10.16400 -10.16386 -10.16260 -10.15068 -10.14987
 Alpha  occ. eigenvalues --   -0.87097  -0.83868  -0.79286  -0.77026  -0.74647
 Alpha  occ. eigenvalues --   -0.73256  -0.69923  -0.69109  -0.66576  -0.64346
 Alpha  occ. eigenvalues --   -0.59555  -0.56876  -0.54743  -0.52377  -0.50933
 Alpha  occ. eigenvalues --   -0.47935  -0.46095  -0.45325  -0.44083  -0.43375
 Alpha  occ. eigenvalues --   -0.42629  -0.41843  -0.41694  -0.41082  -0.40006
 Alpha  occ. eigenvalues --   -0.39683  -0.38945  -0.38412  -0.36522  -0.36486
 Alpha  occ. eigenvalues --   -0.35069  -0.34624  -0.33787  -0.32987  -0.30842
 Alpha  occ. eigenvalues --   -0.29509  -0.27057  -0.23480  -0.19118
 Alpha virt. eigenvalues --   -0.08081  -0.04368  -0.00081   0.00846   0.01124
 Alpha virt. eigenvalues --    0.02528   0.02697   0.02720   0.03903   0.04355
 Alpha virt. eigenvalues --    0.04638   0.04856   0.05109   0.05713   0.06066
 Alpha virt. eigenvalues --    0.06189   0.06546   0.07191   0.07519   0.07823
 Alpha virt. eigenvalues --    0.08291   0.08459   0.09012   0.09465   0.09559
 Alpha virt. eigenvalues --    0.10876   0.10966   0.11296   0.11652   0.12254
 Alpha virt. eigenvalues --    0.12430   0.12550   0.13256   0.13783   0.13837
 Alpha virt. eigenvalues --    0.14433   0.14982   0.15853   0.16027   0.16387
 Alpha virt. eigenvalues --    0.16974   0.17214   0.17675   0.17857   0.18297
 Alpha virt. eigenvalues --    0.18791   0.19221   0.19430   0.19676   0.20187
 Alpha virt. eigenvalues --    0.20562   0.20987   0.21349   0.21669   0.21750
 Alpha virt. eigenvalues --    0.22173   0.22638   0.22794   0.22947   0.23301
 Alpha virt. eigenvalues --    0.23532   0.23788   0.24359   0.24475   0.25012
 Alpha virt. eigenvalues --    0.25426   0.26269   0.26360   0.26968   0.27331
 Alpha virt. eigenvalues --    0.27566   0.28045   0.28290   0.28769   0.29254
 Alpha virt. eigenvalues --    0.29745   0.29849   0.30327   0.30689   0.31965
 Alpha virt. eigenvalues --    0.32594   0.33074   0.33250   0.33695   0.35710
 Alpha virt. eigenvalues --    0.36554   0.37624   0.39744   0.40066   0.41830
 Alpha virt. eigenvalues --    0.42342   0.42619   0.42904   0.44531   0.45243
 Alpha virt. eigenvalues --    0.46344   0.47808   0.48681   0.49248   0.49753
 Alpha virt. eigenvalues --    0.50550   0.51091   0.51323   0.54317   0.55077
 Alpha virt. eigenvalues --    0.55614   0.56469   0.57219   0.57886   0.58072
 Alpha virt. eigenvalues --    0.58569   0.59886   0.60092   0.60374   0.61091
 Alpha virt. eigenvalues --    0.61582   0.62450   0.63025   0.63580   0.64376
 Alpha virt. eigenvalues --    0.65276   0.65723   0.66050   0.66701   0.67178
 Alpha virt. eigenvalues --    0.68423   0.68947   0.69713   0.70100   0.70478
 Alpha virt. eigenvalues --    0.70897   0.71321   0.71912   0.72587   0.72800
 Alpha virt. eigenvalues --    0.73063   0.73451   0.74069   0.74355   0.75050
 Alpha virt. eigenvalues --    0.75994   0.77360   0.77951   0.79675   0.80192
 Alpha virt. eigenvalues --    0.81856   0.82719   0.83535   0.84429   0.86693
 Alpha virt. eigenvalues --    0.86872   0.87310   0.89329   0.90247   0.92815
 Alpha virt. eigenvalues --    0.93073   0.94162   0.94705   0.95608   0.96581
 Alpha virt. eigenvalues --    0.97415   0.98930   0.98954   1.00798   1.02461
 Alpha virt. eigenvalues --    1.03112   1.04295   1.05297   1.06069   1.07050
 Alpha virt. eigenvalues --    1.09296   1.10114   1.10921   1.12785   1.13381
 Alpha virt. eigenvalues --    1.15659   1.17367   1.19061   1.21665   1.23465
 Alpha virt. eigenvalues --    1.24510   1.27720   1.28157   1.32497   1.35264
 Alpha virt. eigenvalues --    1.37452   1.38192   1.39006   1.40488   1.42065
 Alpha virt. eigenvalues --    1.42576   1.45347   1.46365   1.46783   1.48132
 Alpha virt. eigenvalues --    1.49480   1.50279   1.51056   1.52033   1.52742
 Alpha virt. eigenvalues --    1.53472   1.54043   1.54947   1.55690   1.55863
 Alpha virt. eigenvalues --    1.57187   1.58106   1.58164   1.59646   1.60134
 Alpha virt. eigenvalues --    1.60878   1.61559   1.62529   1.64020   1.64818
 Alpha virt. eigenvalues --    1.65570   1.67325   1.67611   1.68820   1.69774
 Alpha virt. eigenvalues --    1.70267   1.72248   1.73381   1.74292   1.75222
 Alpha virt. eigenvalues --    1.75666   1.76611   1.77261   1.78833   1.79946
 Alpha virt. eigenvalues --    1.81004   1.82220   1.82776   1.82910   1.85020
 Alpha virt. eigenvalues --    1.87059   1.88954   1.89843   1.91597   1.91825
 Alpha virt. eigenvalues --    1.92767   1.93249   1.94348   1.96215   1.97687
 Alpha virt. eigenvalues --    1.98189   1.99378   2.00443   2.02387   2.03236
 Alpha virt. eigenvalues --    2.04825   2.06151   2.08869   2.10917   2.11039
 Alpha virt. eigenvalues --    2.12077   2.13000   2.14620   2.15520   2.16812
 Alpha virt. eigenvalues --    2.18404   2.19283   2.21859   2.26317   2.27451
 Alpha virt. eigenvalues --    2.28976   2.31126   2.31726   2.33663   2.34773
 Alpha virt. eigenvalues --    2.36663   2.38478   2.40932   2.42454   2.43428
 Alpha virt. eigenvalues --    2.45906   2.48180   2.48795   2.50157   2.51339
 Alpha virt. eigenvalues --    2.53542   2.54476   2.55309   2.55755   2.56433
 Alpha virt. eigenvalues --    2.56771   2.57297   2.57588   2.58241   2.59157
 Alpha virt. eigenvalues --    2.59747   2.60890   2.61695   2.63911   2.65452
 Alpha virt. eigenvalues --    2.66162   2.67176   2.68468   2.68879   2.69856
 Alpha virt. eigenvalues --    2.70984   2.71250   2.72958   2.73427   2.74315
 Alpha virt. eigenvalues --    2.74683   2.75168   2.77485   2.79758   2.82073
 Alpha virt. eigenvalues --    2.82503   2.83220   2.85537   2.86552   2.87099
 Alpha virt. eigenvalues --    2.89670   2.92304   2.93134   2.94264   2.96279
 Alpha virt. eigenvalues --    2.96411   2.98373   2.99827   3.02039   3.02486
 Alpha virt. eigenvalues --    3.06598   3.07054   3.09121   3.10666   3.14411
 Alpha virt. eigenvalues --    3.16339   3.16604   3.19301   3.24211   3.28700
 Alpha virt. eigenvalues --    3.30139   3.34986   3.43607   3.46255   3.47393
 Alpha virt. eigenvalues --    3.50572   3.54330   3.67380   3.78470   3.84600
 Alpha virt. eigenvalues --    3.85174   3.85350   3.85585   3.86209   3.86979
 Alpha virt. eigenvalues --    3.90077   3.91878   3.93728   4.04075   4.08326
 Alpha virt. eigenvalues --    4.12400   4.16722   4.21807   4.30019   4.31012
 Alpha virt. eigenvalues --    4.33383   4.39834   4.55198   4.67881  23.50415
 Alpha virt. eigenvalues --   23.68425  23.76052  23.79015  23.79729  23.89396
 Alpha virt. eigenvalues --   23.91345  23.94142  24.01451  24.02081  24.03292
 Alpha virt. eigenvalues --   24.05461  24.10568  24.26598  24.55904
          Condensed to atoms (all electrons):
               1          2          3          4          5          6
     1  C    6.609282  -0.670356   0.613384   1.118541   0.908551   0.012437
     2  C   -0.670356   7.479201  -0.075024   0.338775  -1.204790  -1.524285
     3  C    0.613384  -0.075024   6.628293   0.110069   0.679895   0.196523
     4  C    1.118541   0.338775   0.110069   8.463157   0.061412  -2.575691
     5  C    0.908551  -1.204790   0.679895   0.061412   8.125471   0.007424
     6  C    0.012437  -1.524285   0.196523  -2.575691   0.007424  10.637792
     7  C   -0.664366   1.442296  -0.175744   0.414037  -1.486650  -1.439818
     8  H    0.347177  -0.067961   0.022232  -0.123655  -0.031351   0.078289
     9  H   -0.003715  -0.003297  -0.002428  -0.019325   0.008218   0.312723
    10  H    0.000969  -0.041233  -0.007750   0.003085  -0.007593   0.048297
    11  C   -0.815202   1.019008  -0.374717  -0.128355  -0.626843  -0.617633
    12  C   -0.069887  -0.455080   0.599131   0.140549  -0.600756  -0.160291
    13  H   -0.018265   0.031478  -0.027807  -0.000009   0.002267   0.000340
    14  C   -1.312402   0.642490  -2.113951  -0.487309  -0.320991   0.195693
    15  H    0.008202   0.010217   0.015275   0.001660  -0.006771   0.000715
    16  C   -0.417032  -0.849220   0.049936  -1.174106   0.162698   0.642382
    17  H    0.010614  -0.000056   0.001642  -0.153153  -0.008775   0.032563
    18  C   -0.008290   0.014922   0.018929  -0.104176  -0.020543   0.191218
    19  H    0.010125  -0.000687   0.000388   0.038119   0.000736   0.009821
    20  H   -0.008064   0.018568   0.000500  -0.038811  -0.004341  -0.020596
    21  H   -0.024911  -0.017449   0.000490  -0.071401   0.003578   0.051439
    22  C   -0.017549  -0.014096   0.004296  -0.102111  -0.008053   0.128937
    23  H    0.019776   0.003358   0.000203   0.057021   0.000110   0.000477
    24  H   -0.027896  -0.016489   0.000178  -0.058123   0.002930   0.044257
    25  H    0.000234   0.010759  -0.002444  -0.051780  -0.002744  -0.024417
    26  C    0.260523  -0.084644  -0.211447  -0.055563   0.321771   0.226068
    27  H   -0.036024   0.080615   0.006475   0.004230  -0.002735   0.002444
    28  H   -0.038558  -0.004727  -0.003915  -0.000484   0.000400  -0.000715
    29  H    0.021482  -0.018520  -0.000145  -0.004161  -0.001949  -0.002163
    30  C    0.194359  -0.298347  -0.259006  -0.004116  -0.297408  -0.025620
    31  H    0.004230  -0.006191  -0.015550   0.000552   0.023814   0.003587
    32  H   -0.002886   0.003237   0.000754   0.002278   0.073679  -0.009538
    33  H    0.000350  -0.003200   0.000056   0.001780  -0.202415   0.034177
               7          8          9         10         11         12
     1  C   -0.664366   0.347177  -0.003715   0.000969  -0.815202  -0.069887
     2  C    1.442296  -0.067961  -0.003297  -0.041233   1.019008  -0.455080
     3  C   -0.175744   0.022232  -0.002428  -0.007750  -0.374717   0.599131
     4  C    0.414037  -0.123655  -0.019325   0.003085  -0.128355   0.140549
     5  C   -1.486650  -0.031351   0.008218  -0.007593  -0.626843  -0.600756
     6  C   -1.439818   0.078289   0.312723   0.048297  -0.617633  -0.160291
     7  C    8.350029  -0.007465   0.029775   0.259923   0.470530   0.208959
     8  H   -0.007465   0.629005  -0.000357   0.000051  -0.042140   0.014887
     9  H    0.029775  -0.000357   0.523214  -0.005515   0.003137   0.000738
    10  H    0.259923   0.000051  -0.005515   0.546596  -0.003781  -0.001442
    11  C    0.470530  -0.042140   0.003137  -0.003781   7.465256   0.352936
    12  C    0.208959   0.014887   0.000738  -0.001442   0.352936   7.969733
    13  H    0.000097  -0.000083   0.000000   0.000000  -0.015499   0.324445
    14  C    0.300888   0.006801  -0.001371   0.000873   0.565545  -0.599312
    15  H   -0.001485   0.000028   0.000000   0.000006  -0.011632   0.001444
    16  C   -0.427168   0.031536   0.015744   0.014452  -0.056376   0.051853
    17  H    0.006193   0.002358   0.004160  -0.000089   0.000796  -0.000160
    18  C   -0.028349   0.005599   0.001203  -0.000310  -0.008831  -0.001615
    19  H    0.003683  -0.001049  -0.000106  -0.000002  -0.001282  -0.000129
    20  H   -0.006917   0.007275  -0.000002   0.000001   0.002112  -0.000872
    21  H    0.005564   0.000482   0.000534   0.000023  -0.000831   0.000296
    22  C   -0.025606   0.018812   0.000959   0.000247  -0.027554  -0.000737
    23  H    0.002941  -0.001260  -0.000090  -0.000002  -0.000525  -0.000097
    24  H    0.006160   0.000422   0.000539   0.000017  -0.000015   0.000371
    25  H   -0.006307   0.006229  -0.000003   0.000000  -0.003524  -0.000306
    26  C   -0.128660   0.024355  -0.001071   0.000314  -1.140209  -1.034080
    27  H    0.000179  -0.001028   0.000002   0.000000  -0.009803  -0.061616
    28  H    0.000536  -0.001382   0.000000   0.000000  -0.027398   0.034594
    29  H   -0.000079   0.001967   0.000000   0.000000  -0.021898   0.027090
    30  C   -0.435137  -0.003341  -0.003266   0.052947  -0.008563  -0.189912
    31  H   -0.052027   0.000001   0.000006   0.000067  -0.010530   0.018204
    32  H   -0.045368  -0.000003   0.000001   0.000127   0.000793  -0.001536
    33  H    0.095954   0.000001  -0.000006   0.001267   0.005814  -0.002951
              13         14         15         16         17         18
     1  C   -0.018265  -1.312402   0.008202  -0.417032   0.010614  -0.008290
     2  C    0.031478   0.642490   0.010217  -0.849220  -0.000056   0.014922
     3  C   -0.027807  -2.113951   0.015275   0.049936   0.001642   0.018929
     4  C   -0.000009  -0.487309   0.001660  -1.174106  -0.153153  -0.104176
     5  C    0.002267  -0.320991  -0.006771   0.162698  -0.008775  -0.020543
     6  C    0.000340   0.195693   0.000715   0.642382   0.032563   0.191218
     7  C    0.000097   0.300888  -0.001485  -0.427168   0.006193  -0.028349
     8  H   -0.000083   0.006801   0.000028   0.031536   0.002358   0.005599
     9  H    0.000000  -0.001371   0.000000   0.015744   0.004160   0.001203
    10  H    0.000000   0.000873   0.000006   0.014452  -0.000089  -0.000310
    11  C   -0.015499   0.565545  -0.011632  -0.056376   0.000796  -0.008831
    12  C    0.324445  -0.599312   0.001444   0.051853  -0.000160  -0.001615
    13  H    0.542685   0.033169  -0.005061  -0.000001   0.000000  -0.000016
    14  C    0.033169   9.459906   0.321568  -0.098825   0.000408   0.008346
    15  H   -0.005061   0.321568   0.538844   0.000111   0.000000  -0.000007
    16  C   -0.000001  -0.098825   0.000111   7.429279   0.385060   0.080007
    17  H    0.000000   0.000408   0.000000   0.385060   0.615882   0.006230
    18  C   -0.000016   0.008346  -0.000007   0.080007   0.006230   5.419622
    19  H    0.000000   0.000016   0.000000  -0.099436  -0.004936   0.414113
    20  H    0.000000   0.001387   0.000000  -0.029250   0.009669   0.429399
    21  H    0.000000  -0.000336   0.000000   0.046419  -0.006366   0.383255
    22  C   -0.000009  -0.000495   0.000016   0.201316   0.006304  -0.262205
    23  H    0.000000   0.000046   0.000000  -0.124774  -0.005434   0.001388
    24  H    0.000000  -0.000392   0.000000   0.036341  -0.006246   0.005545
    25  H    0.000000   0.000364   0.000000  -0.011475   0.009175   0.007723
    26  C    0.008233   0.071409  -0.000563  -0.070647   0.000634   0.005039
    27  H   -0.000085   0.014750   0.000008  -0.021155  -0.000014   0.000903
    28  H   -0.000069   0.007035   0.000010  -0.002684  -0.000001   0.001299
    29  H    0.001134  -0.004470  -0.000009   0.003418   0.000000  -0.000574
    30  C    0.000378  -0.302512   0.004480  -0.031121  -0.001084  -0.003934
    31  H    0.000011   0.039020  -0.000054   0.000192   0.000000   0.000010
    32  H    0.000001   0.018279  -0.000229   0.000490   0.000000   0.000008
    33  H    0.000000  -0.016094   0.000082  -0.000111   0.000000   0.000007
              19         20         21         22         23         24
     1  C    0.010125  -0.008064  -0.024911  -0.017549   0.019776  -0.027896
     2  C   -0.000687   0.018568  -0.017449  -0.014096   0.003358  -0.016489
     3  C    0.000388   0.000500   0.000490   0.004296   0.000203   0.000178
     4  C    0.038119  -0.038811  -0.071401  -0.102111   0.057021  -0.058123
     5  C    0.000736  -0.004341   0.003578  -0.008053   0.000110   0.002930
     6  C    0.009821  -0.020596   0.051439   0.128937   0.000477   0.044257
     7  C    0.003683  -0.006917   0.005564  -0.025606   0.002941   0.006160
     8  H   -0.001049   0.007275   0.000482   0.018812  -0.001260   0.000422
     9  H   -0.000106  -0.000002   0.000534   0.000959  -0.000090   0.000539
    10  H   -0.000002   0.000001   0.000023   0.000247  -0.000002   0.000017
    11  C   -0.001282   0.002112  -0.000831  -0.027554  -0.000525  -0.000015
    12  C   -0.000129  -0.000872   0.000296  -0.000737  -0.000097   0.000371
    13  H    0.000000   0.000000   0.000000  -0.000009   0.000000   0.000000
    14  C    0.000016   0.001387  -0.000336  -0.000495   0.000046  -0.000392
    15  H    0.000000   0.000000   0.000000   0.000016   0.000000   0.000000
    16  C   -0.099436  -0.029250   0.046419   0.201316  -0.124774   0.036341
    17  H   -0.004936   0.009669  -0.006366   0.006304  -0.005434  -0.006246
    18  C    0.414113   0.429399   0.383255  -0.262205   0.001388   0.005545
    19  H    0.557541  -0.030413  -0.026603  -0.001994   0.003071   0.000075
    20  H   -0.030413   0.561615  -0.029192   0.007880  -0.001391  -0.000181
    21  H   -0.026603  -0.029192   0.543003   0.007340   0.000056  -0.000497
    22  C   -0.001994   0.007880   0.007340   5.404092   0.413329   0.391810
    23  H    0.003071  -0.001391   0.000056   0.413329   0.560265  -0.027221
    24  H    0.000075  -0.000181  -0.000497   0.391810  -0.027221   0.540013
    25  H   -0.001010   0.002278  -0.000152   0.432007  -0.030132  -0.027956
    26  C   -0.000126   0.002527  -0.000894   0.013365   0.000097  -0.001144
    27  H    0.000112   0.003106  -0.000110   0.002218  -0.000044  -0.000033
    28  H   -0.000009  -0.000124  -0.000001  -0.000078   0.000030  -0.000010
    29  H    0.000001  -0.000037   0.000005  -0.000149  -0.000001   0.000002
    30  C    0.000014  -0.000162  -0.000036  -0.001318   0.000024   0.000012
    31  H    0.000000   0.000000   0.000000   0.000004   0.000000   0.000000
    32  H    0.000000   0.000000   0.000000  -0.000044   0.000000   0.000000
    33  H    0.000000   0.000000   0.000000   0.000028   0.000000   0.000000
              25         26         27         28         29         30
     1  C    0.000234   0.260523  -0.036024  -0.038558   0.021482   0.194359
     2  C    0.010759  -0.084644   0.080615  -0.004727  -0.018520  -0.298347
     3  C   -0.002444  -0.211447   0.006475  -0.003915  -0.000145  -0.259006
     4  C   -0.051780  -0.055563   0.004230  -0.000484  -0.004161  -0.004116
     5  C   -0.002744   0.321771  -0.002735   0.000400  -0.001949  -0.297408
     6  C   -0.024417   0.226068   0.002444  -0.000715  -0.002163  -0.025620
     7  C   -0.006307  -0.128660   0.000179   0.000536  -0.000079  -0.435137
     8  H    0.006229   0.024355  -0.001028  -0.001382   0.001967  -0.003341
     9  H   -0.000003  -0.001071   0.000002   0.000000   0.000000  -0.003266
    10  H    0.000000   0.000314   0.000000   0.000000   0.000000   0.052947
    11  C   -0.003524  -1.140209  -0.009803  -0.027398  -0.021898  -0.008563
    12  C   -0.000306  -1.034080  -0.061616   0.034594   0.027090  -0.189912
    13  H    0.000000   0.008233  -0.000085  -0.000069   0.001134   0.000378
    14  C    0.000364   0.071409   0.014750   0.007035  -0.004470  -0.302512
    15  H    0.000000  -0.000563   0.000008   0.000010  -0.000009   0.004480
    16  C   -0.011475  -0.070647  -0.021155  -0.002684   0.003418  -0.031121
    17  H    0.009175   0.000634  -0.000014  -0.000001   0.000000  -0.001084
    18  C    0.007723   0.005039   0.000903   0.001299  -0.000574  -0.003934
    19  H   -0.001010  -0.000126   0.000112  -0.000009   0.000001   0.000014
    20  H    0.002278   0.002527   0.003106  -0.000124  -0.000037  -0.000162
    21  H   -0.000152  -0.000894  -0.000110  -0.000001   0.000005  -0.000036
    22  C    0.432007   0.013365   0.002218  -0.000078  -0.000149  -0.001318
    23  H   -0.030132   0.000097  -0.000044   0.000030  -0.000001   0.000024
    24  H   -0.027956  -0.001144  -0.000033  -0.000010   0.000002   0.000012
    25  H    0.551395   0.009940  -0.001003   0.000206  -0.000024  -0.000135
    26  C    0.009940   7.151970   0.364505   0.391553   0.370017   0.030861
    27  H   -0.001003   0.364505   0.577790  -0.031955  -0.028605  -0.000322
    28  H    0.000206   0.391553  -0.031955   0.524918  -0.024423   0.000283
    29  H   -0.000024   0.370017  -0.028605  -0.024423   0.531340  -0.000226
    30  C   -0.000135   0.030861  -0.000322   0.000283  -0.000226   6.872142
    31  H    0.000000  -0.000895   0.000001  -0.000001   0.000000   0.362041
    32  H    0.000000   0.000055   0.000000  -0.000001   0.000000   0.314575
    33  H    0.000000   0.000530   0.000000   0.000000   0.000000   0.449945
              31         32         33
     1  C    0.004230  -0.002886   0.000350
     2  C   -0.006191   0.003237  -0.003200
     3  C   -0.015550   0.000754   0.000056
     4  C    0.000552   0.002278   0.001780
     5  C    0.023814   0.073679  -0.202415
     6  C    0.003587  -0.009538   0.034177
     7  C   -0.052027  -0.045368   0.095954
     8  H    0.000001  -0.000003   0.000001
     9  H    0.000006   0.000001  -0.000006
    10  H    0.000067   0.000127   0.001267
    11  C   -0.010530   0.000793   0.005814
    12  C    0.018204  -0.001536  -0.002951
    13  H    0.000011   0.000001   0.000000
    14  C    0.039020   0.018279  -0.016094
    15  H   -0.000054  -0.000229   0.000082
    16  C    0.000192   0.000490  -0.000111
    17  H    0.000000   0.000000   0.000000
    18  C    0.000010   0.000008   0.000007
    19  H    0.000000   0.000000   0.000000
    20  H    0.000000   0.000000   0.000000
    21  H    0.000000   0.000000   0.000000
    22  C    0.000004  -0.000044   0.000028
    23  H    0.000000   0.000000   0.000000
    24  H    0.000000   0.000000   0.000000
    25  H    0.000000   0.000000   0.000000
    26  C   -0.000895   0.000055   0.000530
    27  H    0.000001   0.000000   0.000000
    28  H   -0.000001  -0.000001   0.000000
    29  H    0.000000   0.000000   0.000000
    30  C    0.362041   0.314575   0.449945
    31  H    0.535070  -0.022186  -0.030600
    32  H   -0.022186   0.514087  -0.025695
    33  H   -0.030600  -0.025695   0.547764
 Mulliken charges:
               1
     1  C   -0.004834
     2  C    0.260724
     3  C    0.321280
     4  C    0.397063
     5  C    0.451750
     6  C   -0.456836
     7  C   -0.666599
     8  H    0.083570
     9  H    0.139599
    10  H    0.138452
    11  C    0.067215
    12  C   -0.564453
    13  H    0.122663
    14  C   -0.429535
    15  H    0.123146
    16  C    0.262148
    17  H    0.094626
    18  C   -0.555916
    19  H    0.129966
    20  H    0.124037
    21  H    0.136292
    22  C   -0.570962
    23  H    0.128779
    24  H    0.137533
    25  H    0.133102
    26  C   -0.523820
    27  H    0.137194
    28  H    0.175670
    29  H    0.150980
    30  C   -0.416497
    31  H    0.151222
    32  H    0.179122
    33  H    0.143316
 Sum of Mulliken charges =   0.00000
 Mulliken charges with hydrogens summed into heavy atoms:
               1
     1  C    0.078736
     2  C    0.260724
     3  C    0.321280
     4  C    0.397063
     5  C    0.451750
     6  C   -0.317236
     7  C   -0.528147
    11  C    0.067215
    12  C   -0.441789
    14  C   -0.306388
    16  C    0.356775
    18  C   -0.165621
    22  C   -0.171548
    26  C   -0.059976
    30  C    0.057163
 Electronic spatial extent (au):  <R**2>=           3522.9604
 Charge=              0.0000 electrons
 Dipole moment (field-independent basis, Debye):
    X=              0.5589    Y=             -0.9427    Z=             -0.0170  Tot=              1.0961
 Quadrupole moment (field-independent basis, Debye-Ang):
   XX=            -86.1643   YY=            -83.9779   ZZ=            -98.3721
   XY=              0.8268   XZ=              0.1921   YZ=             -0.0277
 Traceless Quadrupole moment (field-independent basis, Debye-Ang):
   XX=              3.3405   YY=              5.5268   ZZ=             -8.8673
   XY=              0.8268   XZ=              0.1921   YZ=             -0.0277
 Octapole moment (field-independent basis, Debye-Ang**2):
  XXX=            -10.5425  YYY=             -4.3013  ZZZ=             -1.3118  XYY=             -2.8450
  XXY=            -12.8397  XXZ=              0.7596  XZZ=              5.1114  YZZ=             -0.0704
  YYZ=              0.7792  XYZ=             -0.9615
 Hexadecapole moment (field-independent basis, Debye-Ang**3):
 XXXX=          -2853.5887 YYYY=          -1644.4970 ZZZZ=           -304.8978 XXXY=             -8.3062
 XXXZ=              0.7211 YYYX=            -23.9475 YYYZ=             -0.2499 ZZZX=              2.4049
 ZZZY=             -0.3595 XXYY=           -746.9010 XXZZ=           -577.8687 YYZZ=           -358.1106
 XXYZ=              2.8068 YYXZ=             -1.1892 ZZXY=             10.4214
 N-N= 9.413205815648D+02 E-N=-3.232166649701D+03  KE= 5.795439552516D+02
 There are a total of      272240 grid points.
 ElSum from          density=      107.9998405931
 ElSum from atomic densities=      108.0006565200

 Hirshfeld populations at iteration   1 (CX, CA, CB, DipXYZ):
               1          2          3          4          5          6
     1  C    0.000000   3.018009   3.018009  -0.037389   0.078047  -0.009634
     2  C    0.000000   3.015275   3.015275   0.025776  -0.117213   0.001372
     3  C    0.000000   3.005022   3.005022  -0.032300   0.024956  -0.001366
     4  C    0.000000   3.008928   3.008928   0.034709  -0.048922   0.004071
     5  C    0.000000   2.979865   2.979865   0.008782  -0.076236  -0.003214
     6  C    0.000000   3.012593   3.012593   0.109039  -0.016877   0.001391
     7  C    0.000000   3.024530   3.024530  -0.074384   0.018078  -0.002910
     8  H    0.000000   0.478034   0.478034   0.080902   0.100081  -0.003251
     9  H    0.000001   0.470777   0.470777   0.118935  -0.120108   0.004030
    10  H    0.000003   0.483536   0.483536  -0.016823  -0.162646   0.000210
    11  C    0.000000   3.013206   3.013206   0.039757   0.124982  -0.003902
    12  C    0.000000   3.024654   3.024654   0.009822   0.102211  -0.000951
    13  H    0.000003   0.477627   0.477627  -0.081061   0.143307   0.001298
    14  C    0.000001   3.040158   3.040158  -0.054318  -0.070222   0.000377
    15  H    0.000003   0.477957   0.477957  -0.165500  -0.032180   0.000814
    16  C    0.000000   3.009237   3.009237   0.006083   0.010580   0.001037
    17  H    0.000000   0.484619   0.484619   0.062950  -0.127584   0.000943
    18  C    0.000000   3.051845   3.051845   0.005018  -0.006259  -0.005396
    19  H    0.000000   0.483697   0.483697   0.145177   0.000240   0.000115
    20  H    0.000000   0.483594   0.483594  -0.047896   0.132789   0.001823
    21  H    0.000001   0.482851   0.482851  -0.043978  -0.073993   0.119302
    22  C    0.000000   3.052206   3.052206   0.004138  -0.006146   0.006029
    23  H    0.000000   0.483994   0.483994   0.144752   0.000102   0.006117
    24  H    0.000001   0.482973   0.482973  -0.038593  -0.073986  -0.121370
    25  H    0.000000   0.483429   0.483429  -0.047187   0.133672  -0.003488
    26  C    0.000000   3.047450   3.047450  -0.001569   0.000238  -0.000247
    27  H    0.000000   0.479917   0.479917   0.120374  -0.031933   0.073410
    28  H    0.000001   0.479527   0.479527   0.033129   0.040533  -0.143604
    29  H    0.000001   0.479697   0.479697  -0.053868   0.122760   0.074001
    30  C    0.000000   3.050308   3.050308  -0.015942  -0.002286  -0.001218
    31  H    0.000001   0.477446   0.477446  -0.114866   0.068742   0.072107
    32  H    0.000001   0.476879   0.476879  -0.050109  -0.029106  -0.146540
    33  H    0.000001   0.480080   0.480080   0.014603  -0.131904   0.073081
       Tot   0.000019  53.999920  53.999920   0.088165  -0.026283  -0.005562

 Dip from Atomic Chgs              0.131964  -0.344629  -0.001389
         Total Dipole              0.220129  -0.370912  -0.006950

 Hirshfeld charges, spin densities, dipoles, and CM5 charges using IRadAn=      4:
              Q-H        S-H        Dx         Dy         Dz        Q-CM5   
     1  C   -0.036017   0.000000  -0.037389   0.078047  -0.009634  -0.090925
     2  C   -0.030551   0.000000   0.025776  -0.117213   0.001372  -0.035906
     3  C   -0.010044   0.000000  -0.032300   0.024956  -0.001366  -0.014392
     4  C   -0.017856   0.000000   0.034709  -0.048922   0.004071  -0.033475
     5  C    0.040271   0.000000   0.008782  -0.076236  -0.003214   0.027284
     6  C   -0.025186   0.000000   0.109039  -0.016877   0.001391  -0.082061
     7  C   -0.049061   0.000000  -0.074384   0.018078  -0.002910  -0.103381
     8  H    0.043932   0.000000   0.080902   0.100081  -0.003251   0.112123
     9  H    0.058447   0.000000   0.118935  -0.120108   0.004030   0.116263
    10  H    0.032929   0.000000  -0.016823  -0.162646   0.000210   0.089856
    11  C   -0.026412   0.000000   0.039757   0.124982  -0.003902  -0.041203
    12  C   -0.049309   0.000000   0.009822   0.102211  -0.000951  -0.103417
    13  H    0.044746   0.000000  -0.081061   0.143307   0.001298   0.100811
    14  C   -0.080315   0.000000  -0.054318  -0.070222   0.000377  -0.134494
    15  H    0.044086   0.000000  -0.165500  -0.032180   0.000814   0.100326
    16  C   -0.018475   0.000000   0.006083   0.010580   0.001037  -0.091457
    17  H    0.030761   0.000000   0.062950  -0.127584   0.000943   0.092647
    18  C   -0.103690   0.000000   0.005018  -0.006259  -0.005396  -0.260601
    19  H    0.032605   0.000000   0.145177   0.000240   0.000115   0.087353
    20  H    0.032811   0.000000  -0.047896   0.132789   0.001823   0.089253
    21  H    0.034298   0.000000  -0.043978  -0.073993   0.119302   0.089370
    22  C   -0.104413   0.000000   0.004138  -0.006146   0.006029  -0.261391
    23  H    0.032012   0.000000   0.144752   0.000102   0.006117   0.086753
    24  H    0.034055   0.000000  -0.038593  -0.073986  -0.121370   0.089114
    25  H    0.033141   0.000000  -0.047187   0.133672  -0.003488   0.089630
    26  C   -0.094900   0.000000  -0.001569   0.000238  -0.000247  -0.249176
    27  H    0.040166   0.000000   0.120374  -0.031933   0.073410   0.096725
    28  H    0.040947   0.000000   0.033129   0.040533  -0.143604   0.095566
    29  H    0.040607   0.000000  -0.053868   0.122760   0.074001   0.095077
    30  C   -0.100616   0.000000  -0.015942  -0.002286  -0.001218  -0.252171
    31  H    0.045108   0.000000  -0.114866   0.068742   0.072107   0.100771
    32  H    0.046243   0.000000  -0.050109  -0.029106  -0.146540   0.100744
    33  H    0.039840   0.000000   0.014603  -0.131904   0.073081   0.094544
       Tot   0.000159   0.000000   0.088165  -0.026283  -0.005562   0.000159
 Hirshfeld charges with hydrogens summed into heavy atoms:
              Q-H       Q-CM5   
     1  C    0.007915   0.021197
     2  C   -0.030551  -0.035906
     3  C   -0.010044  -0.014392
     4  C   -0.017856  -0.033475
     5  C    0.040271   0.027284
     6  C    0.033261   0.034202
     7  C   -0.016132  -0.013524
    11  C   -0.026412  -0.041203
    12  C   -0.004563  -0.002607
    14  C   -0.036229  -0.034167
    16  C    0.012287   0.001190
    18  C   -0.003976   0.005376
    22  C   -0.005205   0.004106
    26  C    0.026820   0.038191
    30  C    0.030575   0.043888
 
 EQQ= 0.000000000000E+00 EQD= 0.000000000000E+00 EDD= 0.392953417666E-02
 EQQ+QD+DD= 0.392953417666E-02
 
          MBS Condensed to atoms (all electrons):
               1          2          3          4          5          6
     1  C    4.819792   0.433088  -0.014618   0.586657  -0.001703  -0.019769
     2  C    0.433088   4.810443   0.430373  -0.025986  -0.029814  -0.002080
     3  C   -0.014618   0.430373   4.827096  -0.000710   0.509641  -0.000177
     4  C    0.586657  -0.025986  -0.000710   4.821927  -0.001396   0.434732
     5  C   -0.001703  -0.029814   0.509641  -0.001396   4.879103  -0.010946
     6  C   -0.019769  -0.002080  -0.000177   0.434732  -0.010946   4.887609
     7  C   -0.002937  -0.001211  -0.013986  -0.031864   0.364975   0.499519
     8  H    0.399805  -0.026619   0.001006  -0.037676  -0.000010   0.001909
     9  H    0.001014  -0.000004  -0.000007  -0.023150   0.000525   0.393915
    10  H    0.000016  -0.000003   0.000584   0.001467  -0.021188  -0.028868
    11  C   -0.047792   0.551191  -0.048440   0.001303   0.001022   0.000007
    12  C    0.001436  -0.052385  -0.047640  -0.000018   0.000611   0.000000
    13  H   -0.000023   0.001462   0.001694   0.000000  -0.000014   0.000000
    14  C    0.000831  -0.050064   0.419342   0.000000  -0.012978  -0.000002
    15  H   -0.000011   0.001191  -0.018552   0.000000  -0.000416   0.000000
    16  C   -0.031713   0.001084  -0.000005   0.367913   0.000002  -0.045609
    17  H    0.001472  -0.000025   0.000000  -0.027065   0.000000  -0.011428
    18  C   -0.004903   0.000010   0.000000  -0.024912   0.000000   0.000453
    19  H    0.000101   0.000001   0.000000   0.001678   0.000000  -0.000020
    20  H   -0.000730  -0.000031   0.000000  -0.002991   0.000000   0.000008
    21  H    0.000153  -0.000010   0.000000  -0.001715   0.000000   0.000305
    22  C   -0.005461   0.000016   0.000000  -0.024758   0.000000   0.000569
    23  H    0.000110   0.000000   0.000000   0.001676   0.000000  -0.000021
    24  H    0.000198  -0.000009   0.000000  -0.001775   0.000000   0.000252
    25  H   -0.001176  -0.000023   0.000000  -0.003133   0.000000   0.000009
    26  C   -0.014515  -0.022332   0.000857   0.000208  -0.000006  -0.000001
    27  H   -0.007837  -0.003265  -0.000006   0.000107   0.000000  -0.000003
    28  H    0.000100  -0.000560  -0.000012   0.000008   0.000000   0.000000
    29  H    0.000392   0.001087  -0.000012  -0.000003   0.000000   0.000000
    30  C    0.000006   0.000947  -0.031524  -0.000002   0.368330   0.000266
    31  H    0.000000   0.000047  -0.004249   0.000000  -0.020589  -0.000008
    32  H    0.000000  -0.000029  -0.000818   0.000000  -0.020845  -0.000009
    33  H    0.000000  -0.000030   0.001256   0.000001  -0.022373   0.000025
               7          8          9         10         11         12
     1  C   -0.002937   0.399805   0.001014   0.000016  -0.047792   0.001436
     2  C   -0.001211  -0.026619  -0.000004  -0.000003   0.551191  -0.052385
     3  C   -0.013986   0.001006  -0.000007   0.000584  -0.048440  -0.047640
     4  C   -0.031864  -0.037676  -0.023150   0.001467   0.001303  -0.000018
     5  C    0.364975  -0.000010   0.000525  -0.021188   0.001022   0.000611
     6  C    0.499519   0.001909   0.393915  -0.028868   0.000007   0.000000
     7  C    4.999410  -0.000029  -0.021061   0.377988   0.000019  -0.000003
     8  H   -0.000029   0.579905  -0.000046   0.000001  -0.010517   0.000142
     9  H   -0.021061  -0.000046   0.527635  -0.002684   0.000000   0.000000
    10  H    0.377988   0.000001  -0.002684   0.559216   0.000000   0.000000
    11  C    0.000019  -0.010517   0.000000   0.000000   4.937888   0.402384
    12  C   -0.000003   0.000142   0.000000   0.000000   0.402384   4.926462
    13  H    0.000000  -0.000003   0.000000   0.000000  -0.018452   0.384619
    14  C    0.000203  -0.000028   0.000000  -0.000005  -0.039856   0.546373
    15  H   -0.000003   0.000001   0.000000   0.000000   0.001320  -0.020437
    16  C    0.001269  -0.009998  -0.007533  -0.000035  -0.000017   0.000000
    17  H    0.000234   0.000189   0.000523  -0.000009   0.000000   0.000000
    18  C   -0.000017  -0.000618   0.000127   0.000000   0.000004   0.000000
    19  H    0.000000  -0.000088  -0.000015   0.000000   0.000000   0.000000
    20  H    0.000001   0.001211   0.000000   0.000000  -0.000001   0.000000
    21  H   -0.000008   0.000062   0.000047   0.000000   0.000000   0.000000
    22  C   -0.000016  -0.000802   0.000126   0.000000   0.000003   0.000000
    23  H    0.000000  -0.000101  -0.000015   0.000000   0.000000   0.000000
    24  H   -0.000006   0.000058   0.000040   0.000000   0.000000   0.000000
    25  H    0.000001   0.001706   0.000000   0.000000   0.000000   0.000000
    26  C    0.000000  -0.007515   0.000000   0.000000   0.383264  -0.016185
    27  H    0.000000   0.000883   0.000000   0.000000  -0.020917   0.000865
    28  H    0.000000  -0.000332   0.000000   0.000000  -0.023131   0.000131
    29  H    0.000000   0.000141   0.000000   0.000000  -0.021826  -0.002099
    30  C   -0.020012   0.000000  -0.000006  -0.001532  -0.000012   0.000014
    31  H    0.000852   0.000000   0.000000   0.000001   0.000000   0.000005
    32  H    0.000067   0.000000   0.000000   0.000063   0.000001   0.000002
    33  H   -0.002871   0.000000  -0.000001   0.000990   0.000000   0.000000
              13         14         15         16         17         18
     1  C   -0.000023   0.000831  -0.000011  -0.031713   0.001472  -0.004903
     2  C    0.001462  -0.050064   0.001191   0.001084  -0.000025   0.000010
     3  C    0.001694   0.419342  -0.018552  -0.000005   0.000000   0.000000
     4  C    0.000000   0.000000   0.000000   0.367913  -0.027065  -0.024912
     5  C   -0.000014  -0.012978  -0.000416   0.000002   0.000000   0.000000
     6  C    0.000000  -0.000002   0.000000  -0.045609  -0.011428   0.000453
     7  C    0.000000   0.000203  -0.000003   0.001269   0.000234  -0.000017
     8  H   -0.000003  -0.000028   0.000001  -0.009998   0.000189  -0.000618
     9  H    0.000000   0.000000   0.000000  -0.007533   0.000523   0.000127
    10  H    0.000000  -0.000005   0.000000  -0.000035  -0.000009   0.000000
    11  C   -0.018452  -0.039856   0.001320  -0.000017   0.000000   0.000004
    12  C    0.384619   0.546373  -0.020437   0.000000   0.000000   0.000000
    13  H    0.540684  -0.022248  -0.001758   0.000000   0.000000   0.000000
    14  C   -0.022248   4.941211   0.389349   0.000000   0.000000   0.000000
    15  H   -0.001758   0.389349   0.530839   0.000000   0.000000   0.000000
    16  C    0.000000   0.000000   0.000000   4.789130   0.384616   0.364822
    17  H    0.000000   0.000000   0.000000   0.384616   0.635490  -0.025060
    18  C    0.000000   0.000000   0.000000   0.364822  -0.025060   4.849146
    19  H    0.000000   0.000000   0.000000  -0.021881  -0.002340   0.378510
    20  H    0.000000   0.000000   0.000000  -0.023887   0.002410   0.381202
    21  H    0.000000   0.000000   0.000000  -0.022439  -0.002395   0.381543
    22  C    0.000000   0.000000   0.000000   0.364306  -0.024759  -0.026994
    23  H    0.000000   0.000000   0.000000  -0.021874  -0.002382  -0.002362
    24  H    0.000000   0.000000   0.000000  -0.022335  -0.002399   0.001681
    25  H    0.000000   0.000000   0.000000  -0.023773   0.002396  -0.002810
    26  C   -0.000358   0.000508  -0.000009   0.000012   0.000000  -0.000016
    27  H   -0.000013  -0.000019   0.000000   0.000014   0.000000  -0.000054
    28  H    0.000017  -0.000003   0.000000   0.000000   0.000000   0.000002
    29  H    0.000397   0.000016   0.000000   0.000000   0.000000   0.000000
    30  C    0.000000  -0.002340  -0.000043   0.000000   0.000000   0.000000
    31  H    0.000001   0.000070   0.000316   0.000000   0.000000   0.000000
    32  H    0.000000   0.000061  -0.000016   0.000000   0.000000   0.000000
    33  H    0.000000   0.000036  -0.000006   0.000000   0.000000   0.000000
              19         20         21         22         23         24
     1  C    0.000101  -0.000730   0.000153  -0.005461   0.000110   0.000198
     2  C    0.000001  -0.000031  -0.000010   0.000016   0.000000  -0.000009
     3  C    0.000000   0.000000   0.000000   0.000000   0.000000   0.000000
     4  C    0.001678  -0.002991  -0.001715  -0.024758   0.001676  -0.001775
     5  C    0.000000   0.000000   0.000000   0.000000   0.000000   0.000000
     6  C   -0.000020   0.000008   0.000305   0.000569  -0.000021   0.000252
     7  C    0.000000   0.000001  -0.000008  -0.000016   0.000000  -0.000006
     8  H   -0.000088   0.001211   0.000062  -0.000802  -0.000101   0.000058
     9  H   -0.000015   0.000000   0.000047   0.000126  -0.000015   0.000040
    10  H    0.000000   0.000000   0.000000   0.000000   0.000000   0.000000
    11  C    0.000000  -0.000001   0.000000   0.000003   0.000000   0.000000
    12  C    0.000000   0.000000   0.000000   0.000000   0.000000   0.000000
    13  H    0.000000   0.000000   0.000000   0.000000   0.000000   0.000000
    14  C    0.000000   0.000000   0.000000   0.000000   0.000000   0.000000
    15  H    0.000000   0.000000   0.000000   0.000000   0.000000   0.000000
    16  C   -0.021881  -0.023887  -0.022439   0.364306  -0.021874  -0.022335
    17  H   -0.002340   0.002410  -0.002395  -0.024759  -0.002382  -0.002399
    18  C    0.378510   0.381202   0.381543  -0.026994  -0.002362   0.001681
    19  H    0.604727  -0.022916  -0.022764  -0.002402   0.000873   0.000011
    20  H   -0.022916   0.605002  -0.022955  -0.002804  -0.000051   0.000017
[...]
 .00004448,0.00000879,0.00002059,0.00000522,0.00000386,-0.00001840,-0.0
 0000168,-0.00001927,0.00002458,0.00000577,-0.16852067,-0.05815463,-0.1
 1130814,0.00745339,0.00408782,0.00610917,0.18267479,-0.00047726,-0.000
 41858,-0.00012540,-0.00005824,0.00214457,0.00038344,-0.00128117,-0.001
 55592,0.00088507,0.00042974,0.00012701,-0.00004883,-0.00042789,0.00073
 547,0.00035918,-0.00024369,0.00002149,-0.00005717,0.00041088,-0.000254
 33,-0.00006048,0.00060405,-0.00020952,-0.00055794,0.00001709,0.0000142
 1,-0.00000976,0.00001624,-0.00000421,-0.00000544,-0.02401382,-0.013978
 86,-0.01755228,0.00169672,-0.00156294,-0.00131985,-0.00019453,0.000034
 64,-0.00027357,0.00039051,-0.00165097,0.00091371,0.00015498,-0.0002268
 3,0.00033328,-0.00010768,0.00001337,0.00005753,0.00000847,0.00002184,0
 .00001390,0.00011660,-0.00002202,0.00002325,0.00001477,0.00003207,-0.0
 0003971,-0.00001251,0.00002276,-0.00001433,-0.00001108,0.00000115,0.00
 002545,0.00010684,-0.00010572,-0.00007168,-0.00000073,0.00007438,0.000
 03930,0.00000077,-0.00002028,-0.00000500,0.00002414,0.00008753,-0.0000
 2176,-0.06060053,-0.07467238,-0.05617209,0.00430219,0.00152432,0.00265
 340,0.06830430,0.08406026,-0.00039977,-0.00051775,0.00029817,-0.000181
 37,0.00013297,0.00087820,-0.00020824,-0.00050867,-0.00016998,0.0000832
 1,0.00026807,-0.00010348,-0.00017800,0.00018250,0.00001879,-0.00012548
 ,-0.00003228,0.00011843,0.00016380,-0.00004524,-0.00003996,0.00034422,
 0.00001318,-0.00035752,0.00000272,0.00002524,-0.00000106,0.00000525,0.
 00000290,-0.00001518,0.00602274,0.00153368,0.00573959,0.00046325,0.001
 23325,-0.00049921,0.00003799,0.00001677,0.00017905,0.00028796,-0.00013
 815,-0.00052889,0.00001220,0.00005022,0.00000805,-0.00004080,0.0000333
 7,-0.00004974,-0.00000576,0.00002211,0.00001483,0.00009047,-0.00003601
 ,0.00000460,0.00000931,0.00001242,-0.00001457,-0.00002856,0.00000027,-
 0.00004067,-0.00001680,0.00003388,0.00002089,0.00007138,-0.00014864,-0
 .00004158,-0.00001562,0.00003802,0.00001100,-0.00001846,0.00002860,-0.
 00000563,0.00001025,0.00005729,0.00003162,-0.11131237,-0.05475330,-0.1
 4476715,-0.02228501,-0.00981407,-0.02032378,0.12284250,0.05922058,0.15
 599360,-0.00014982,-0.00045853,0.00011521,0.00007258,-0.00141671,0.000
 35743,0.00015779,-0.00041394,0.00007321,0.00009412,0.00027976,-0.00003
 344,-0.00010010,-0.00004662,0.00004725,-0.00011580,-0.00009165,0.00004
 037,0.00010471,0.00004266,-0.00002964,0.00031325,0.00020567,-0.0002023
 6,-0.00001186,0.00003254,-0.00000434,0.00000259,0.00001566,-0.00000284
 ,0.00561286,-0.00391046,-0.00139975,0.00093219,-0.00131110,-0.00008529
 ,0.00029124,0.00041194,-0.00005656,0.00017971,0.00024845,-0.00014046,0
 .00000318,0.00004154,-0.00001412,0.00003588,0.00002254,-0.00002217,-0.
 00002010,0.00001561,0.00000790,0.00001767,-0.00004465,-0.00000493,-0.0
 0002600,0.00000434,0.00000666,0.00000900,0.00002450,-0.00002248,0.0000
 0024,0.00001355,0.00000256,0.00002313,-0.00006421,0.00000618,-0.000032
 18,0.00001007,0.00000812,0.00000061,0.00001257,-0.00000299,0.00002380,
 0.00003757,0.00000373,-0.23442816,0.11518926,0.03589886,-0.00785708,0.
 00373907,0.00117816,-0.01873192,0.01083231,0.00434986,0.25359021,-0.00
 144413,0.00000729,0.00037743,-0.00238091,-0.00442483,0.00115520,0.0010
 0368,-0.00064477,-0.00015833,0.00040014,-0.00034256,-0.00005789,-0.000
 23779,-0.00047666,0.00011649,0.00015429,0.00042867,-0.00008294,-0.0003
 7995,-0.00006645,0.00010367,-0.00001154,0.00027255,-0.00006702,0.00001
 728,0.00000572,-0.00000655,0.00000354,-0.00001890,0.00000093,0.0287010
 7,-0.01863141,-0.00549685,0.00148776,0.00271713,-0.00065268,-0.0011028
 0,-0.00011935,0.00031633,0.00022318,-0.00052669,-0.00003037,-0.0000563
 0,0.00007206,0.00000312,-0.00003427,-0.00004939,0.00000935,0.00001673,
 0.00000878,-0.00000334,0.00003426,-0.00000655,0.00000726,0.00000638,0.
 00001158,-0.00001190,-0.00000362,0.00000544,-0.00000671,-0.00000397,0.
 00000090,0.00000706,0.00002841,-0.00001799,-0.00002052,0.00000818,0.00
 001567,0.00000603,-0.00000594,-0.00000040,-0.00000358,0.00000230,0.000
 01087,0.00000372,0.11202436,-0.11459979,-0.02123620,-0.00555366,0.0027
 5869,-0.00003762,-0.00954056,0.00585210,0.00309301,-0.12342749,0.12791
 631,0.00021739,0.00012763,0.00004927,0.00045717,0.00091178,0.00069157,
 -0.00007388,0.00020051,0.00027526,-0.00004575,-0.00002738,0.00009118,0
 .00006698,0.00006836,0.00004259,0.00001488,-0.00002063,0.00000421,0.00
 001398,-0.00000339,0.00000204,-0.00017981,-0.00012202,-0.00034316,-0.0
 0000272,-0.00001044,-0.00001376,-0.00000152,-0.00000220,-0.00000129,-0
 .00478206,0.00276717,-0.00058500,-0.00037570,0.00005658,0.00014858,0.0
 0010052,-0.00006747,0.00021768,-0.00013778,-0.00003664,-0.00023434,-0.
 00000395,-0.00002169,-0.00003231,-0.00001633,-0.00000511,-0.00003784,0
 .00000781,-0.00000304,0.00001582,-0.00001446,0.00005577,-0.00000190,0.
 00002019,-0.00001392,0.00000042,-0.00001955,-0.00002907,0.00000472,-0.
 00000198,-0.00000204,0.00000434,-0.00000215,-0.00002563,0.00000398,-0.
 00000534,0.00000813,0.00000251,0.00000526,-0.00000361,0.00000524,0.000
 00737,0.00001007,-0.00001539,0.03622732,-0.02203861,-0.05252399,0.0263
 5902,-0.01598088,-0.00415641,-0.01775405,0.01151836,0.00362598,-0.0400
 7090,0.02267473,0.05276088,-0.00053492,-0.00006673,0.00020480,-0.00071
 315,0.00695555,0.00105008,0.01269135,-0.00093622,-0.00168265,-0.000105
 90,-0.00053160,0.00008070,-0.12399626,-0.04302014,0.01757100,-0.000367
 81,0.00279455,0.00178934,-0.02806692,-0.02426570,0.01181144,0.00006937
 ,-0.00001004,-0.00012505,-0.00074168,-0.00033988,0.00002238,-0.0007315
 8,-0.00275782,-0.00065683,0.00330886,0.00004996,-0.00123867,-0.0010403
 7,-0.00322893,0.00056647,-0.00002132,0.00004114,0.00011916,-0.00359812
 ,0.00493786,-0.00038489,0.00024476,0.00075785,0.00003480,-0.00003797,-
 0.00016325,-0.00020117,0.00004698,-0.00001411,-0.00000292,0.00000377,-
 0.00000115,-0.00001417,-0.00000939,-0.00000743,0.00000261,0.00000714,-
 0.00000539,0.00000650,0.00000795,0.00000071,-0.00000014,-0.00005995,-0
 .00003952,0.00005744,-0.00002831,-0.00002114,-0.00001642,0.00000584,0.
 00000570,0.00000063,0.00000676,-0.00000335,-0.00000476,-0.00027166,0.0
 0009054,-0.00000376,0.00000392,-0.00000898,-0.00000298,0.00001120,-0.0
 0002928,0.00000584,0.00000080,0.00011352,-0.00001122,0.52900696,0.0016
 4471,-0.00115638,-0.00027137,0.00240697,-0.00055241,0.00009876,-0.0158
 5322,-0.03191421,0.00791046,-0.00058834,0.00112161,0.00003231,-0.05558
 244,-0.15016254,0.02215655,0.00194871,-0.00134601,0.00045787,-0.001588
 58,0.00460520,0.00081989,-0.00014580,-0.00004458,-0.00000290,0.0005658
 7,0.00018412,-0.00024459,0.00300061,0.00043120,-0.00126626,0.00013547,
 -0.00214813,0.00002686,-0.00178586,-0.00155522,0.00060056,0.00005720,0
 .00001570,0.00003209,-0.00237562,0.00098286,0.00017885,-0.00032712,-0.
 00140151,0.00030011,-0.00004238,0.00015445,-0.00009843,-0.00000901,0.0
 0001718,0.00000361,0.00013611,-0.00001845,0.00004069,0.00001253,0.0000
 3522,-0.00004690,-0.00001221,0.00001382,-0.00000067,-0.00001276,-0.000
 00541,0.00000909,0.00007288,-0.00004948,-0.00007636,0.00002358,0.00003
 729,0.00001942,-0.00001569,-0.00000423,0.00000093,-0.00000979,0.000015
 86,0.00000499,0.00020724,-0.00013822,-0.00006385,0.00000055,-0.0000433
 2,0.00001728,-0.00000315,-0.00005431,-0.00000546,-0.00000346,-0.000114
 36,0.00001298,-0.05653234,0.53160253,0.00002803,0.00016204,0.00022220,
 0.00152177,-0.00105233,0.00600379,-0.00013554,0.00413148,0.00527168,0.
 00008578,0.00001896,-0.00002872,0.01886956,0.01897404,-0.07898304,0.00
 187690,0.00024314,0.00733760,0.00946460,0.00656562,0.00555376,-0.00011
 107,-0.00003746,-0.00039630,-0.00007139,-0.00001534,-0.00077309,-0.001
 25387,0.00019221,-0.00415560,-0.00124626,0.00004760,-0.00124953,0.0004
 1647,0.00096526,-0.00033233,0.00011741,0.00003629,0.00043242,0.0003719
 7,-0.00167301,-0.00301788,0.00014761,0.00002486,0.00065239,-0.00021373
 ,-0.00006765,-0.00083767,-0.00000329,0.00000475,0.00003010,0.00015855,
 0.00009937,-0.00000196,0.00001528,0.00001669,-0.00005728,-0.00000319,-
 0.00000584,0.00000891,0.00000640,-0.00000911,0.00000810,-0.00014108,-0
 .00007186,0.00009270,-0.00003577,-0.00002780,-0.00004037,-0.00000233,0
 .00001045,0.00000899,0.00000621,0.00000682,0.00000750,-0.00001577,-0.0
 0003455,-0.00024148,-0.00001087,0.00005209,0.00000252,0.00001002,-0.00
 003119,0.00000624,0.00000077,-0.00001649,0.00000442,0.00549054,0.01389
 890,0.52472663,-0.00072837,0.00049662,0.00021606,0.00056525,-0.0003783
 9,0.00048101,-0.00121271,0.00206636,0.00084651,0.00014044,-0.00054772,
 0.00001568,-0.01714931,-0.00304077,-0.01046560,0.00019431,0.00033918,0
 .00123286,-0.00159457,-0.00250421,0.00071809,-0.00000282,-0.00002582,-
 0.00003162,-0.00018282,-0.00003754,-0.00002570,-0.00014538,-0.00035576
 ,-0.00075377,-0.00058494,0.00052313,0.00006514,0.00058319,0.00081562,-
 0.00005654,0.00001402,0.00002521,0.00000555,0.00133408,-0.00070184,-0.
 00048418,0.00019523,0.00043653,-0.00003908,0.00001341,-0.00010850,-0.0
 0016935,-0.00000643,0.00000074,0.00000587,-0.00005103,0.00000982,-0.00
 003497,-0.00001471,-0.00001642,0.00002439,0.00000797,-0.00000267,-0.00
 000352,0.00000717,0.00000991,0.00000264,-0.00008394,-0.00000235,0.0000
 7798,-0.00003392,-0.00003270,-0.00002212,0.00001086,0.00000834,0.00000
 576,0.00001218,-0.00000199,-0.00000098,0.00001540,-0.00000331,-0.00010
 732,-0.00000995,0.00003136,-0.00000040,-0.00000686,-0.00000229,0.00001
 018,0.00000851,-0.00001023,-0.00000284,-0.19633678,-0.00550816,-0.1299
 5255,0.21638860,-0.00026462,0.00012489,0.00009490,0.00049143,0.0019041
 8,0.00069728,-0.00055607,-0.00128059,0.00098531,0.00018227,-0.00003550
 ,0.00005351,-0.01900204,-0.00019284,-0.01638614,-0.00025528,0.00033940
 ,0.00073738,-0.00001881,-0.00226851,0.00038252,-0.00002527,-0.00001502
 ,-0.00007508,-0.00019612,-0.00007463,-0.00008347,-0.00028700,0.0003004
 4,0.00001017,0.00128631,-0.00015983,-0.00071586,-0.00030345,-0.0013676
 3,0.00032644,-0.00000514,0.00000299,0.00003513,-0.00068629,0.00057614,
 0.00007635,0.00053005,-0.00081318,-0.00059203,-0.00002848,-0.00003604,
 -0.00003714,-0.00000176,-0.00000131,0.00000662,-0.00001945,0.00001077,
 -0.00001065,0.00000038,-0.00000388,0.00000550,0.00000206,-0.00000053,-
 0.00000227,0.00000096,0.00000230,0.00000078,-0.00001110,-0.00000412,0.
 00002568,-0.00000710,-0.00000543,-0.00000574,0.00000219,0.00000145,-0.
 00000132,0.00000312,0.00000174,-0.00000121,-0.00000605,-0.00001223,-0.
 00000381,-0.00000245,-0.00000082,-0.00000132,0.00000519,-0.00000508,0.
 00000111,0.00000068,0.00000300,-0.00000146,-0.00717167,-0.04754972,-0.
 00590524,0.00892205,0.04900925,-0.00034395,0.00019227,0.00004297,0.000
 36408,-0.00016348,-0.00038480,-0.00059313,0.00005063,0.00087317,0.0001
 2650,-0.00029502,-0.00000474,0.00848102,0.00012340,0.00637201,0.000265
 47,0.00013204,-0.00069930,0.00051633,0.00058508,-0.00073964,0.00000852
 ,0.00000634,0.00002206,0.00008679,0.00002509,0.00008387,0.00014423,0.0
 0002118,0.00019054,-0.00018990,0.00021670,0.00016576,0.00045896,0.0003
 2386,-0.00010335,-0.00001467,-0.00000231,-0.00002674,-0.00049391,-0.00
 037712,0.00027302,0.00043259,-0.00002531,-0.00027074,0.00001750,-0.000
 00248,0.00005730,-0.00000439,0.00000153,-0.00000141,-0.00001811,0.0000
 0361,0.00000341,-0.00000285,-0.00000297,0.00000549,0.00000189,0.000000
 21,-0.00000274,0.00000164,-0.00000148,-0.00000246,0.00000240,0.0000146
 6,-0.00000461,0.00000101,-0.00000003,0.00000240,0.00000186,-0.00000178
 ,0.00000015,0.00000093,-0.00000071,0.00000072,0.00003339,-0.00000250,-
 0.00003224,0.00000587,0.00001594,-0.00000246,0.00000116,0.00000490,-0.
 00000045,0.00000046,-0.00000995,0.00000090,-0.12851105,-0.00577632,-0.
 14918311,0.14027216,0.00460980,0.16213888,-0.00050537,0.00032468,0.000
 01190,0.00001422,-0.00046748,-0.00056623,-0.00089601,0.00180351,-0.000
 24561,0.00005873,-0.00034006,0.00002843,-0.01048696,0.00041779,0.01891
 754,-0.00060977,-0.00005320,-0.00125676,-0.00178796,-0.00242841,0.0004
 0529,0.00001288,-0.00001753,0.00003701,-0.00013997,-0.00001983,0.00014
 862,0.00021178,-0.00017690,0.00079992,-0.00045444,0.00038003,0.0001472
 2,0.00025204,0.00060816,-0.00025463,0.00000864,0.00001866,-0.00002722,
 0.00155515,-0.00042184,-0.00010828,-0.00012985,0.00040683,-0.00016177,
 0.00009109,-0.00005708,0.00016549,-0.00000572,-0.00000095,-0.00000307,
 -0.00009791,-0.00001824,-0.00002305,-0.00001554,-0.00002262,0.00003715
 ,0.00000957,-0.00000184,-0.00000351,0.00000478,0.00000656,-0.00000997,
 -0.00001649,0.00001424,0.00004280,-0.00001846,-0.00001570,-0.00000801,
 0.00000279,0.00000819,-0.00000735,0.00000624,-0.00000235,-0.00000090,0
 .00003573,0.00001420,0.00006927,-0.00001020,-0.00000546,-0.00000376,-0
 .00001149,0.00002016,0.00000073,0.00000787,-0.00000413,-0.00000011,-0.
 07796445,0.01411718,0.09047269,0.01002388,-0.00346686,-0.02368267,0.08
 695359,-0.00017665,0.00005326,-0.00000148,-0.00010165,0.00171708,-0.00
 118208,-0.00061642,-0.00146543,-0.00021228,0.00010269,0.00003038,-0.00
 012414,-0.00919174,0.00412176,0.02360353,-0.00066375,0.00014656,-0.000
 59561,-0.00015552,-0.00226094,0.00003077,0.00001355,0.00000161,0.00008
 085,-0.00012681,-0.00004621,0.00019221,-0.00028572,0.00031446,0.000074
 29,0.00152535,-0.00014203,0.00005219,-0.00045564,-0.00145926,0.0001789
 6,-0.00002120,-0.00000532,-0.00003287,-0.00062005,0.00068029,0.0001338
 8,0.00066339,-0.00071661,0.00040850,-0.00000822,-0.00001988,0.00005451
 ,-0.00000344,-0.00000280,-0.00000500,-0.00001651,-0.00001059,-0.000014
 42,-0.00000230,-0.00000240,0.00000761,0.00000250,0.00000207,-0.0000003
 5,0.00000178,0.00000157,0.00000052,-0.00000758,0.00001162,0.00001246,0
 .00000011,-0.00000305,-0.00000302,-0.00000038,0.00000179,-0.00000149,0
 .00000186,-0.00000019,0.00000080,-0.00001466,-0.00001198,0.00000164,0.
 00000456,-0.00000604,-0.00000194,-0.00000204,-0.00000502,0.00000316,0.
 00000058,0.00000553,0.00000015,0.01246823,-0.05130655,-0.02941314,0.00
 049532,-0.00058348,-0.00045715,-0.01187684,0.05366333,0.00070278,-0.00
 041854,-0.00010849,-0.00057758,-0.00000826,0.00035325,0.00171675,-0.00
 055446,0.00074160,-0.00020361,0.00052138,0.00001067,0.00262124,0.00061
 645,-0.00460518,-0.00016443,-0.00029576,0.00029738,0.00011318,0.001033
 82,-0.00055417,-0.00000638,0.00000746,-0.00001037,0.00006360,0.0000164
 3,0.00001264,-0.00009402,0.00005319,-0.00018031,0.00020399,-0.00039643
 ,0.00001816,-0.00054387,-0.00037201,0.00031992,0.00000025,-0.00001321,
 -0.00001304,-0.00007901,0.00054105,-0.00005332,-0.00066986,-0.00006934
 ,-0.00004199,-0.00003476,0.00005210,-0.00003649,0.00000770,-0.00000108
 ,-0.00000067,0.00005302,-0.00000527,0.00001582,0.00000943,0.00001365,-
 0.00001910,-0.00000636,0.00000152,0.00000309,-0.00000499,-0.00000178,0
 .00000609,0.00003140,-0.00001492,-0.00003187,0.00001582,0.00001373,0.0
 0000829,-0.00000455,-0.00000369,0.00000244,-0.00000730,0.00000072,-0.0
 0000137,-0.00006821,-0.00000749,-0.00005262,0.00000343,-0.00000134,0.0
 0000373,0.00000035,-0.00002822,0.00000319,-0.00000492,0.00001251,-0.00
 000112,0.08937511,-0.03038066,-0.26379813,0.00769983,-0.00325790,-0.01
 991855,-0.09943626,0.03352443,0.28691958,0.00013442,-0.00004329,-0.000
 03083,0.00068289,-0.00023810,0.00003956,-0.00291608,-0.00273137,0.0013
 1129,-0.00005281,0.00021858,0.00000697,0.00903630,-0.01817770,-0.00096
 575,0.00015413,-0.00032704,-0.00005300,0.00023363,-0.00252161,0.000124
 99,-0.00003496,-0.00000543,0.00000493,0.00004872,0.00005788,-0.0000242
 8,-0.00087408,-0.00028070,0.00039292,0.00010203,-0.00014641,-0.0000291
 0,0.00021700,-0.00036291,0.00009372,-0.00001278,-0.00000461,-0.0000006
 9,-0.00091789,0.00032721,0.00018598,0.00047797,0.00020529,-0.00025965,
 -0.00002576,0.00001095,0.00001354,-0.00000363,0.00000180,0.00000111,0.
 00001703,0.00000699,0.00000673,0.00001086,0.00000654,-0.00000988,-0.00
 000321,-0.00000106,-0.00000034,-0.00000441,-0.00000298,0.00000290,0.00
 001495,0.00000430,-0.00001429,0.00001428,0.00000831,0.00000243,-0.0000
 0559,-0.00000323,-0.00000198,-0.00000297,-0.00000061,0.00000151,0.0000
 9029,-0.00006232,-0.00006249,0.00000789,0.00002617,-0.00000918,0.00001
 000,0.00000994,0.00000238,-0.00000891,-0.00002778,0.00000421,-0.110789
 14,0.11606632,0.00413614,-0.01136995,0.02088829,0.00262988,-0.00609841
 ,0.00906723,-0.00071179,0.12186819,0.00043818,-0.00019663,-0.00009104,
 0.00071580,-0.00022718,-0.00008082,-0.00387145,-0.00256462,0.00136490,
 0.00007256,0.00045005,-0.00005834,0.01259023,-0.02163304,-0.00117628,-
 0.00045863,0.00047307,0.00004738,0.00331481,0.00032238,-0.00090478,-0.
 00007523,-0.00002472,0.00001971,-0.00007447,-0.00004086,0.00002073,-0.
 00105335,0.00139941,0.00018015,-0.00003747,-0.00057063,0.00006132,-0.0
 0004590,-0.00025039,0.00008280,0.00002058,-0.00005547,-0.00000129,-0.0
 0088040,0.00048372,0.00016750,-0.00003764,0.00015649,-0.00005461,0.000
 03178,0.00006395,-0.00001140,-0.00003190,0.00000603,0.00000761,-0.0000
 2238,-0.00001057,-0.00001099,-0.00001257,-0.00000886,0.00001006,0.0000
 0231,0.00001170,-0.00000361,0.00000542,0.00000333,-0.00000327,-0.00001
 254,-0.00000743,0.00002234,-0.00001525,-0.00000983,-0.00000086,0.00000
 597,0.00000362,-0.00000124,0.00000296,0.00001227,-0.00000043,0.0001118
 0,-0.00002244,-0.00004475,-0.00000758,-0.00001165,0.00001187,-0.000011
 62,-0.00002019,-0.00000303,0.00000797,-0.00005218,0.00000297,0.1109390
 7,-0.24965198,-0.00708954,-0.00089956,0.00213382,0.00079137,0.00125712
 ,-0.00270357,-0.00057810,-0.12196865,0.27254240,-0.00008073,0.00003084
 ,0.00001242,-0.00005927,0.00016064,0.00073998,0.00142943,0.00107641,0.
 00066949,0.00002200,-0.00009534,0.00006849,-0.00415515,0.00661633,-0.0
 0184953,-0.00003946,0.00001421,-0.00018032,-0.00047989,0.00057385,-0.0
 0024316,0.00001214,0.00000209,-0.00002110,-0.00001054,-0.00001287,-0.0
 0001939,0.00047315,-0.00001561,0.00044410,-0.00004026,0.00008860,-0.00
 007159,0.00006088,0.00016345,0.00040588,-0.00000331,0.00000511,-0.0000
 1712,0.00031102,-0.00013833,-0.00011518,-0.00023446,-0.00011615,-0.000
 39100,0.00001139,-0.00000596,0.00002984,0.00000460,-0.00000095,0.00000
 043,-0.00000769,0.00000099,0.00000432,-0.00000178,-0.00000167,0.000002
 63,0.00000079,-0.00000169,-0.00000074,-0.00000067,-0.00000056,-0.00000
 477,0.00000493,-0.00000121,0.00000308,-0.00000129,-0.00000001,0.000000
 19,-0.00000022,0.00000050,-0.00000390,-0.00000033,-0.00000065,-0.00000
 140,-0.00008052,-0.00000079,-0.00016138,0.00000021,0.00003140,0.000000
 11,-0.00000129,-0.00003662,0.00000663,0.00000047,0.00001208,-0.0000050
 6,0.00466787,-0.00838843,-0.04727349,-0.00952919,0.01903216,0.00114468
 ,0.01451512,-0.02631549,0.00071092,-0.00678794,0.00732368,0.04611595\\
 -0.00000228,0.00000795,0.00000406,-0.00001180,-0.00002999,-0.00001427,
 0.00001047,0.00002028,0.00000206,0.00000866,-0.00000187,-0.00000145,-0
 .00000181,-0.00000306,-0.00001494,-0.00000940,0.00000098,-0.00000513,0
 .00000114,-0.00000117,0.00001196,-0.00000105,-0.00000122,0.00000085,0.
 00000258,-0.00000057,0.00000251,-0.00000008,0.00000112,-0.00000211,0.0
 0000181,0.00000779,0.00001157,0.00000236,0.00000223,-0.00000534,-0.000
 00043,-0.00000027,-0.00000547,0.00000004,-0.00000126,0.00001139,0.0000
 0071,-0.00000147,-0.00000224,-0.00000083,0.00000306,-0.00000203,0.0000
 0049,-0.00000062,0.,0.00000048,-0.00000214,0.00000324,0.00000004,0.000
 00020,-0.00000077,0.00000027,-0.00000001,-0.00000031,0.00000005,0.0000
 0012,-0.00000049,-0.00000099,-0.00000196,-0.00000133,0.00000044,0.0000
 0042,0.00000042,0.00000018,0.00000014,0.00000018,-0.00000006,-0.000000
 04,0.00000039,-0.00000419,-0.00000238,0.00000396,0.00000040,-0.0000003
 3,-0.00000033,0.00000143,0.00000254,-0.00000018,0.00000119,-0.00000053
 ,-0.00000048,0.00000022,-0.00000004,0.00000440,0.00000008,0.00000100,-
 0.00000039,-0.00000037,-0.00000039,0.00000004,0.00000027,0.00000150,0.
 00000021\\\@


 One man practicing sportsmanship is far better than 50 preaching it.
 -- Knute K. Rockne
 Job cpu time:       0 days  5 hours 47 minutes 39.8 seconds.
 File lengths (MBytes):  RWF=    551 Int=      0 D2E=      0 Chk=     16 Scr=      1
 Normal termination of Gaussian 09 at Mon Mar  7 11:36:45 2022.
