 Entering Gaussian System, Link 0=g09
 Initial command:
 /cm/shared/apps/gaussian/g09revD.01/g09/l1.exe "//home/sweav003/CHB/CHActivation_Mkhalid/OtherCharges/G09-Chart4_8.com.o9447078.tmp/Gau-71141.inp" -scrdir="//home/sweav003/CHB/CHActivation_Mkhalid/OtherCharges/G09-Chart4_8.com.o9447078.tmp/"
 Entering Link 1 = /cm/shared/apps/gaussian/g09revD.01/g09/l1.exe PID=     71142.
  
 Copyright (c) 1988,1990,1992,1993,1995,1998,2003,2009,2013,
            Gaussian, Inc.  All Rights Reserved.
  
 This is part of the Gaussian(R) 09 program.  It is based on
 the Gaussian(R) 03 system (copyright 2003, Gaussian, Inc.),
 the Gaussian(R) 98 system (copyright 1998, Gaussian, Inc.),
 the Gaussian(R) 94 system (copyright 1995, Gaussian, Inc.),
 the Gaussian 92(TM) system (copyright 1992, Gaussian, Inc.),
 the Gaussian 90(TM) system (copyright 1990, Gaussian, Inc.),
 the Gaussian 88(TM) system (copyright 1988, Gaussian, Inc.),
 the Gaussian 86(TM) system (copyright 1986, Carnegie Mellon
 University), and the Gaussian 82(TM) system (copyright 1983,
 Carnegie Mellon University). Gaussian is a federally registered
 trademark of Gaussian, Inc.
  
 This software contains proprietary and confidential information,
 including trade secrets, belonging to Gaussian, Inc.
  
 This software is provided under written license and may be
 used, copied, transmitted, or stored only in accord with that
 written license.
  
 The following legend is applicable only to US Government
 contracts under FAR:
  
                    RESTRICTED RIGHTS LEGEND
  
 Use, reproduction and disclosure by the US Government is
 subject to restrictions as set forth in subparagraphs (a)
 and (c) of the Commercial Computer Software - Restricted
 Rights clause in FAR 52.227-19.
  
 Gaussian, Inc.
 340 Quinnipiac St., Bldg. 40, Wallingford CT 06492
  
  
 ---------------------------------------------------------------
 Warning -- This program may not be used in any manner that
 competes with the business of Gaussian, Inc. or will provide
 assistance to any competitor of Gaussian, Inc.  The licensee
 of this program is prohibited from giving any competitor of
 Gaussian, Inc. access to this program.  By using this program,
 the user acknowledges that Gaussian, Inc. is engaged in the
 business of creating and licensing software in the field of
 computational chemistry and represents and warrants to the
 licensee that it is not a competitor of Gaussian, Inc. and that
 it will not use this program in any manner prohibited above.
 ---------------------------------------------------------------
  

 Cite this work as:
 Gaussian 09, Revision D.01,
 M. J. Frisch, G. W. Trucks, H. B. Schlegel, G. E. Scuseria, 
 M. A. Robb, J. R. Cheeseman, G. Scalmani, V. Barone, B. Mennucci, 
 G. A. Petersson, H. Nakatsuji, M. Caricato, X. Li, H. P. Hratchian, 
 A. F. Izmaylov, J. Bloino, G. Zheng, J. L. Sonnenberg, M. Hada, 
 M. Ehara, K. Toyota, R. Fukuda, J. Hasegawa, M. Ishida, T. Nakajima, 
 Y. Honda, O. Kitao, H. Nakai, T. Vreven, J. A. Montgomery, Jr., 
 J. E. Peralta, F. Ogliaro, M. Bearpark, J. J. Heyd, E. Brothers, 
 K. N. Kudin, V. N. Staroverov, T. Keith, R. Kobayashi, J. Normand, 
 K. Raghavachari, A. Rendell, J. C. Burant, S. S. Iyengar, J. Tomasi, 
 M. Cossi, N. Rega, J. M. Millam, M. Klene, J. E. Knox, J. B. Cross, 
 V. Bakken, C. Adamo, J. Jaramillo, R. Gomperts, R. E. Stratmann, 
 O. Yazyev, A. J. Austin, R. Cammi, C. Pomelli, J. W. Ochterski, 
 R. L. Martin, K. Morokuma, V. G. Zakrzewski, G. A. Voth, 
 P. Salvador, J. J. Dannenberg, S. Dapprich, A. D. Daniels, 
 O. Farkas, J. B. Foresman, J. V. Ortiz, J. Cioslowski, 
 and D. J. Fox, Gaussian, Inc., Wallingford CT, 2013.
 
 ******************************************
 Gaussian 09:  ES64L-G09RevD.01 24-Apr-2013
                23-Jul-2021 
 ******************************************
 %mem=100MW
 %nprocshared=20
 Will use up to   20 processors via shared memory.
 ---------------------------------------------------------------------
 # b3lyp/6-311+g(d,p) geom=connectivity pop=(hirshfeld,chelpg,mbs,npa)
 ---------------------------------------------------------------------
 1/38=1,57=2/1;
 2/12=2,17=6,18=5,40=1/2;
 3/5=4,6=6,7=111,11=2,16=1,25=1,30=1,74=-5/1,2,3;
 4//1;
 5/5=2,38=5/2;
 6/7=2,8=2,9=2,10=2,15=8,20=3,27=100,28=1,40=-1,79=1/1,2,7;
 99/5=1,9=1/99;
 --------
 Chart4_8
 --------
 Symbolic Z-matrix:
 Charge =  0 Multiplicity = 1
 6                     1.2019    0.30962   0.02986 
 6                     1.20624   1.70458   0.02843 
 6                     0.        2.39813   0. 
 6                    -1.20624   1.70456  -0.02842 
 6                    -1.20189   0.30961  -0.02984 
 6                     0.00002  -0.39435   0.00001 
 1                     2.1458    2.24182   0.05492 
 1                    -0.00001   3.48127  -0.00001 
 1                    -2.1458    2.24182  -0.05491 
 1                     0.00001  -1.47636   0.00004 
 6                    -2.50777  -0.44203  -0.00428 
 6                     2.50777  -0.44204   0.00426 
 9                    -3.4936    0.23532  -0.63259 
 9                    -2.41163  -1.65227  -0.59452 
 9                    -2.93305  -0.65954   1.26516 
 9                     2.41166  -1.65221   0.59468 
 9                     3.49368   0.2354    0.63241 
 9                     2.93292  -0.6597   -1.26516 
 
                          Input orientation:                          
 ---------------------------------------------------------------------
 Center     Atomic      Atomic             Coordinates (Angstroms)
 Number     Number       Type             X           Y           Z
 ---------------------------------------------------------------------
      1          6           0        1.201901    0.309617    0.029861
      2          6           0        1.206236    1.704578    0.028430
      3          6           0        0.000001    2.398132    0.000000
      4          6           0       -1.206237    1.704558   -0.028421
      5          6           0       -1.201888    0.309608   -0.029835
      6          6           0        0.000017   -0.394353    0.000011
      7          1           0        2.145801    2.241824    0.054923
      8          1           0       -0.000014    3.481271   -0.000007
      9          1           0       -2.145795    2.241818   -0.054911
     10          1           0        0.000010   -1.476357    0.000043
     11          6           0       -2.507768   -0.442031   -0.004279
     12          6           0        2.507773   -0.442036    0.004259
     13          9           0       -3.493604    0.235320   -0.632592
     14          9           0       -2.411635   -1.652269   -0.594520
     15          9           0       -2.933049   -0.659537    1.265162
     16          9           0        2.411660   -1.652209    0.594677
     17          9           0        3.493683    0.235399    0.632407
     18          9           0        2.932922   -0.659704   -1.265157
 ---------------------------------------------------------------------
                    Distance matrix (angstroms):
                    1          2          3          4          5
     1  C    0.000000
     2  C    1.394968   0.000000
     3  C    2.409844   1.391700   0.000000
     4  C    2.783592   2.413143   1.391712   0.000000
     5  C    2.404530   2.783594   2.409846   1.394957   0.000000
     6  C    1.393194   2.421009   2.792485   2.421009   1.393208
     7  H    2.150581   1.082644   2.152186   3.395844   3.866221
     8  H    3.391885   2.147670   1.083139   2.147671   3.391878
     9  H    3.866220   3.395833   2.152183   1.082645   2.150587
    10  H    2.152936   3.402078   3.874489   3.402067   2.152933
    11  C    3.785206   4.289851   3.788859   2.510460   1.506963
    12  C    1.506964   2.510485   3.788864   4.289849   3.785197
    13  F    4.742587   4.968316   4.157307   2.784911   2.370822
    14  F    4.158905   4.974483   4.751336   3.611335   2.373040
    15  F    4.423012   4.924655   4.421850   3.200653   2.369215
    16  F    2.373035   3.611330   4.751316   4.974466   4.158903
    17  F    2.370830   2.784904   4.157303   4.968337   4.742621
    18  F    2.369196   3.200725   4.421878   4.924621   4.422922
                    6          7          8          9         10
     6  C    0.000000
     7  H    3.399534   0.000000
     8  H    3.875624   2.478663   0.000000
     9  H    3.399547   4.293001   2.478636   0.000000
    10  H    1.082004   4.293286   4.957628   4.293288   0.000000
    11  C    2.508242   5.372363   4.656302   2.708622   2.712711
    12  C    2.508213   2.708633   4.656324   5.372362   2.712695
    13  F    3.605837   6.025083   4.810565   2.485224   3.941498
    14  F    2.784221   6.029590   5.702858   3.940274   2.490077
    15  F    3.205278   5.973047   5.229688   3.283325   3.297053
    16  F    2.784215   3.940242   5.702845   6.029578   2.490094
    17  F    3.605858   2.485159   4.810567   6.025100   3.941541
    18  F    3.205151   3.283449   5.229760   5.973014   3.296912
                   11         12         13         14         15
    11  C    0.000000
    12  C    5.015548   0.000000
    13  F    1.351094   6.072966   0.000000
    14  F    1.349927   5.101350   2.176028   0.000000
    15  F    1.356338   5.589251   2.171742   2.171591   0.000000
    16  F    5.101377   1.349944   6.319897   4.967732   5.477304
    17  F    6.073030   1.351113   7.100873   6.319923   6.519522
    18  F    5.589124   1.356299   6.519313   5.477155   6.388437
                   16         17         18
    16  F    0.000000
    17  F    2.176066   0.000000
    18  F    2.171581   2.171730   0.000000
 Stoichiometry    C8H4F6
 Framework group  C1[X(C8H4F6)]
 Deg. of freedom    48
 Full point group                 C1      NOp   1
 Largest Abelian subgroup         C1      NOp   1
 Largest concise Abelian subgroup C1      NOp   1
                         Standard orientation:                         
 ---------------------------------------------------------------------
 Center     Atomic      Atomic             Coordinates (Angstroms)
 Number     Number       Type             X           Y           Z
 ---------------------------------------------------------------------
      1          6           0       -1.201901    0.309617   -0.029861
      2          6           0       -1.206236    1.704578   -0.028430
      3          6           0       -0.000001    2.398132    0.000000
      4          6           0        1.206237    1.704558    0.028421
      5          6           0        1.201888    0.309608    0.029835
      6          6           0       -0.000017   -0.394353   -0.000011
      7          1           0       -2.145801    2.241824   -0.054923
      8          1           0        0.000014    3.481271    0.000007
      9          1           0        2.145795    2.241818    0.054911
     10          1           0       -0.000010   -1.476357   -0.000043
     11          6           0        2.507768   -0.442031    0.004279
     12          6           0       -2.507773   -0.442036   -0.004259
     13          9           0        3.493604    0.235320    0.632592
     14          9           0        2.411635   -1.652269    0.594520
     15          9           0        2.933049   -0.659537   -1.265162
     16          9           0       -2.411660   -1.652209   -0.594677
     17          9           0       -3.493683    0.235399   -0.632407
     18          9           0       -2.932922   -0.659704    1.265157
 ---------------------------------------------------------------------
 Rotational constants (GHZ):      1.3178609      0.3797183      0.3291482
 Standard basis: 6-311+G(d,p) (5D, 7F)
 There are   346 symmetry adapted cartesian basis functions of A   symmetry.
 There are   332 symmetry adapted basis functions of A   symmetry.
   332 basis functions,   536 primitive gaussians,   346 cartesian basis functions
    53 alpha electrons       53 beta electrons
       nuclear repulsion energy       941.7376291686 Hartrees.
 NAtoms=   18 NActive=   18 NUniq=   18 SFac= 1.00D+00 NAtFMM=   60 NAOKFM=F Big=F
 Integral buffers will be    131072 words long.
 Raffenetti 2 integral format.
 Two-electron integral symmetry is turned on.
 One-electron integrals computed using PRISM.
 NBasis=   332 RedAO= T EigKep=  1.34D-06  NBF=   332
 NBsUse=   332 1.00D-06 EigRej= -1.00D+00 NBFU=   332
 ExpMin= 4.38D-02 ExpMax= 1.14D+04 ExpMxC= 1.72D+03 IAcc=2 IRadAn=         4 AccDes= 0.00D+00
 Harris functional with IExCor=  402 and IRadAn=       4 diagonalized for initial guess.
 HarFok:  IExCor=  402 AccDes= 0.00D+00 IRadAn=         4 IDoV= 1 UseB2=F ITyADJ=14
 ICtDFT=  3500011 ScaDFX=  1.000000  1.000000  1.000000  1.000000
 FoFCou: FMM=F IPFlag=           0 FMFlag=      100000 FMFlg1=           0
         NFxFlg=           0 DoJE=T BraDBF=F KetDBF=T FulRan=T
         wScrn=  0.000000 ICntrl=     500 IOpCl=  0 I1Cent=   200000004 NGrid=           0
         NMat0=    1 NMatS0=      1 NMatT0=    0 NMatD0=    1 NMtDS0=    0 NMtDT0=    0
 Petite list used in FoFCou.
 Requested convergence on RMS density matrix=1.00D-08 within 128 cycles.
 Requested convergence on MAX density matrix=1.00D-06.
 Requested convergence on             energy=1.00D-06.
 No special actions if energy rises.
 SCF Done:  E(RB3LYP) =  -906.607822133     A.U. after   13 cycles
            NFock= 13  Conv=0.89D-08     -V/T= 2.0031

 **********************************************************************

            Population analysis using the SCF density.

 **********************************************************************

 Orbital symmetries:
       Occupied  (A) (A) (A) (A) (A) (A) (A) (A) (A) (A) (A) (A)
                 (A) (A) (A) (A) (A) (A) (A) (A) (A) (A) (A) (A)
                 (A) (A) (A) (A) (A) (A) (A) (A) (A) (A) (A) (A)
                 (A) (A) (A) (A) (A) (A) (A) (A) (A) (A) (A) (A)
                 (A) (A) (A) (A) (A)
       Virtual   (A) (A) (A) (A) (A) (A) (A) (A) (A) (A) (A) (A)
                 (A) (A) (A) (A) (A) (A) (A) (A) (A) (A) (A) (A)
                 (A) (A) (A) (A) (A) (A) (A) (A) (A) (A) (A) (A)
                 (A) (A) (A) (A) (A) (A) (A) (A) (A) (A) (A) (A)
                 (A) (A) (A) (A) (A) (A) (A) (A) (A) (A) (A) (A)
                 (A) (A) (A) (A) (A) (A) (A) (A) (A) (A) (A) (A)
                 (A) (A) (A) (A) (A) (A) (A) (A) (A) (A) (A) (A)
                 (A) (A) (A) (A) (A) (A) (A) (A) (A) (A) (A) (A)
                 (A) (A) (A) (A) (A) (A) (A) (A) (A) (A) (A) (A)
                 (A) (A) (A) (A) (A) (A) (A) (A) (A) (A) (A) (A)
                 (A) (A) (A) (A) (A) (A) (A) (A) (A) (A) (A) (A)
                 (A) (A) (A) (A) (A) (A) (A) (A) (A) (A) (A) (A)
                 (A) (A) (A) (A) (A) (A) (A) (A) (A) (A) (A) (A)
                 (A) (A) (A) (A) (A) (A) (A) (A) (A) (A) (A) (A)
                 (A) (A) (A) (A) (A) (A) (A) (A) (A) (A) (A) (A)
                 (A) (A) (A) (A) (A) (A) (A) (A) (A) (A) (A) (A)
                 (A) (A) (A) (A) (A) (A) (A) (A) (A) (A) (A) (A)
                 (A) (A) (A) (A) (A) (A) (A) (A) (A) (A) (A) (A)
                 (A) (A) (A) (A) (A) (A) (A) (A) (A) (A) (A) (A)
                 (A) (A) (A) (A) (A) (A) (A) (A) (A) (A) (A) (A)
                 (A) (A) (A) (A) (A) (A) (A) (A) (A) (A) (A) (A)
                 (A) (A) (A) (A) (A) (A) (A) (A) (A) (A) (A) (A)
                 (A) (A) (A) (A) (A) (A) (A) (A) (A) (A) (A) (A)
                 (A) (A) (A)
 The electronic state is 1-A.
 Alpha  occ. eigenvalues --  -24.72941 -24.72940 -24.72940 -24.72939 -24.72464
 Alpha  occ. eigenvalues --  -24.72463 -10.44831 -10.44831 -10.23572 -10.23571
 Alpha  occ. eigenvalues --  -10.22798 -10.22444 -10.22442 -10.21920  -1.33479
 Alpha  occ. eigenvalues --   -1.33476  -1.24856  -1.24854  -1.24334  -1.24332
 Alpha  occ. eigenvalues --   -0.91708  -0.83416  -0.81039  -0.73718  -0.72870
 Alpha  occ. eigenvalues --   -0.66524  -0.66319  -0.62303  -0.61592  -0.61270
 Alpha  occ. eigenvalues --   -0.61225  -0.60434  -0.55594  -0.53912  -0.51018
 Alpha  occ. eigenvalues --   -0.49183  -0.49172  -0.48949  -0.48579  -0.48105
 Alpha  occ. eigenvalues --   -0.45658  -0.45257  -0.45075  -0.44853  -0.43809
 Alpha  occ. eigenvalues --   -0.43538  -0.43024  -0.43023  -0.41209  -0.39419
 Alpha  occ. eigenvalues --   -0.39222  -0.30653  -0.30400
 Alpha virt. eigenvalues --   -0.07140  -0.06275  -0.00803   0.01548   0.01602
 Alpha virt. eigenvalues --    0.03450   0.03695   0.04036   0.04185   0.05916
 Alpha virt. eigenvalues --    0.06303   0.06689   0.07109   0.07349   0.09274
 Alpha virt. eigenvalues --    0.09615   0.10312   0.10786   0.11057   0.11317
 Alpha virt. eigenvalues --    0.11829   0.12230   0.13529   0.13627   0.14355
 Alpha virt. eigenvalues --    0.14598   0.15240   0.15670   0.16840   0.16958
 Alpha virt. eigenvalues --    0.17549   0.18557   0.19079   0.19701   0.19715
 Alpha virt. eigenvalues --    0.20084   0.20750   0.21181   0.21368   0.22570
 Alpha virt. eigenvalues --    0.22822   0.23511   0.24073   0.25023   0.25102
 Alpha virt. eigenvalues --    0.26041   0.26535   0.26933   0.27202   0.28417
 Alpha virt. eigenvalues --    0.28906   0.31168   0.31361   0.32677   0.33590
 Alpha virt. eigenvalues --    0.34280   0.34591   0.35047   0.35294   0.36508
 Alpha virt. eigenvalues --    0.37139   0.37332   0.38097   0.38890   0.39279
 Alpha virt. eigenvalues --    0.40720   0.41767   0.41927   0.43107   0.43359
 Alpha virt. eigenvalues --    0.44108   0.44542   0.45777   0.46658   0.47645
 Alpha virt. eigenvalues --    0.48875   0.50165   0.50414   0.51806   0.52883
 Alpha virt. eigenvalues --    0.53847   0.57593   0.57866   0.57989   0.59451
 Alpha virt. eigenvalues --    0.60139   0.62580   0.63704   0.64370   0.64829
 Alpha virt. eigenvalues --    0.65931   0.67157   0.67797   0.69870   0.70237
 Alpha virt. eigenvalues --    0.71913   0.75089   0.76036   0.76976   0.77601
 Alpha virt. eigenvalues --    0.81286   0.81539   0.84595   0.88592   0.89682
 Alpha virt. eigenvalues --    0.91287   0.91535   0.93078   1.00044   1.00463
 Alpha virt. eigenvalues --    1.00958   1.01824   1.02874   1.05733   1.05992
 Alpha virt. eigenvalues --    1.07752   1.10288   1.11811   1.25482   1.29805
 Alpha virt. eigenvalues --    1.31106   1.33640   1.34248   1.35818   1.38287
 Alpha virt. eigenvalues --    1.39501   1.40348   1.40784   1.41038   1.41673
 Alpha virt. eigenvalues --    1.42772   1.43753   1.44793   1.46337   1.46917
 Alpha virt. eigenvalues --    1.46977   1.47566   1.49125   1.49390   1.50506
 Alpha virt. eigenvalues --    1.50615   1.50896   1.51815   1.53209   1.53980
 Alpha virt. eigenvalues --    1.55374   1.57581   1.61281   1.63197   1.67272
 Alpha virt. eigenvalues --    1.67740   1.68350   1.70496   1.72717   1.73972
 Alpha virt. eigenvalues --    1.76007   1.78152   1.80243   1.81398   1.85825
 Alpha virt. eigenvalues --    1.88320   1.89690   1.91700   1.93530   1.95072
 Alpha virt. eigenvalues --    1.96994   1.97536   2.00008   2.02301   2.03849
 Alpha virt. eigenvalues --    2.04493   2.07891   2.09159   2.10325   2.13198
 Alpha virt. eigenvalues --    2.16261   2.16563   2.26490   2.31417   2.35973
 Alpha virt. eigenvalues --    2.37395   2.38279   2.51348   2.55410   2.61668
 Alpha virt. eigenvalues --    2.62913   2.67149   2.70817   2.72156   2.72442
 Alpha virt. eigenvalues --    2.75808   2.75858   2.77273   2.77509   2.81816
 Alpha virt. eigenvalues --    2.84287   2.86135   2.89857   2.91927   2.93964
 Alpha virt. eigenvalues --    2.99497   3.00933   3.02966   3.06442   3.14775
 Alpha virt. eigenvalues --    3.31199   3.33567   3.44662   3.48078   3.48791
 Alpha virt. eigenvalues --    3.57020   3.70167   3.70509   3.72958   3.73605
 Alpha virt. eigenvalues --    3.73734   3.73926   3.74794   3.75227   3.75471
 Alpha virt. eigenvalues --    3.76560   3.76635   3.77397   3.77467   3.77776
 Alpha virt. eigenvalues --    3.90440   3.91115   3.91235   3.91677   3.93020
 Alpha virt. eigenvalues --    3.94494   3.99561   4.09016   4.09626   4.13047
 Alpha virt. eigenvalues --    4.13994   4.16319   4.16381   4.17968   4.20504
 Alpha virt. eigenvalues --    4.66125   4.70322   4.81286   4.89712   4.89844
 Alpha virt. eigenvalues --    4.91978   4.93210   6.30251   6.31389   6.32221
 Alpha virt. eigenvalues --    6.33039   6.34872   6.35426   6.36718   6.37311
 Alpha virt. eigenvalues --    6.38126   6.38479   6.39803   6.40579   6.44176
 Alpha virt. eigenvalues --    6.46225   6.71987   6.72160   6.72781   6.74088
 Alpha virt. eigenvalues --   23.44823  23.52275  23.60163  23.91173  23.91465
 Alpha virt. eigenvalues --   24.03580  24.05443  24.14877  66.73831  66.74492
 Alpha virt. eigenvalues --   66.75168  66.75529  66.79974  66.80728
          Condensed to atoms (all electrons):
               1          2          3          4          5          6
     1  C   29.865329  -1.321595  -0.166992  -2.740595  -1.053284 -12.600350
     2  C   -1.321595  26.963282  -1.115113   0.806092  -2.740554 -17.326707
     3  C   -0.166992  -1.115113  12.188913  -1.114839  -0.166927  -3.052529
     4  C   -2.740595   0.806092  -1.114839  26.963364  -1.319812 -17.328281
     5  C   -1.053284  -2.740554  -0.166927  -1.319812  29.866900 -12.602663
     6  C  -12.600350 -17.326707  -3.052529 -17.328281 -12.602663  66.230097
     7  H   -0.053912   0.378652  -0.024635  -0.007006  -0.016233   0.015505
     8  H   -0.026859   0.047756   0.309089   0.047754  -0.026864  -0.017872
     9  H   -0.016240  -0.006997  -0.024649   0.378683  -0.053938   0.015495
    10  H   -0.016939   0.033596  -0.025882   0.033605  -0.016904   0.285714
    11  C   -3.149406   0.568408  -0.415983   0.039145  -2.398822   1.318012
    12  C   -2.398318   0.039442  -0.415550   0.567972  -3.149971   1.317602
    13  F    0.068333  -0.002335   0.095396  -0.083957  -0.064144  -0.009984
    14  F    0.192683   0.000202   0.019757  -0.002138  -0.140477  -0.083933
    15  F    0.036255  -0.008473   0.001745  -0.192194   0.520383  -0.297823
    16  F   -0.140382  -0.002103   0.019760   0.000199   0.192690  -0.084084
    17  F   -0.064154  -0.084048   0.095399  -0.002335   0.068346  -0.009874
    18  F    0.520348  -0.192106   0.001742  -0.008471   0.036248  -0.297871
               7          8          9         10         11         12
     1  C   -0.053912  -0.026859  -0.016240  -0.016939  -3.149406  -2.398318
     2  C    0.378652   0.047756  -0.006997   0.033596   0.568408   0.039442
     3  C   -0.024635   0.309089  -0.024649  -0.025882  -0.415983  -0.415550
     4  C   -0.007006   0.047754   0.378683   0.033605   0.039145   0.567972
     5  C   -0.016233  -0.026864  -0.053938  -0.016904  -2.398822  -3.149971
     6  C    0.015505  -0.017872   0.015495   0.285714   1.318012   1.317602
     7  H    0.500545  -0.007134  -0.000176  -0.000185  -0.001338   0.056238
     8  H   -0.007134   0.521769  -0.007135   0.000059   0.007547   0.007546
     9  H   -0.000176  -0.007135   0.500548  -0.000185   0.056253  -0.001338
    10  H   -0.000185   0.000059  -0.000185   0.478260   0.026566   0.026560
    11  C   -0.001338   0.007547   0.056253   0.026566   9.397534  -0.697237
    12  C    0.056238   0.007546  -0.001338   0.026560  -0.697237   9.397787
    13  F    0.000000   0.000066   0.004586   0.000750   0.149601   0.001371
    14  F    0.000000   0.000016   0.000491   0.005875   0.164529   0.012550
    15  F   -0.000003   0.000025   0.000040   0.000000   0.142308  -0.006313
    16  F    0.000491   0.000016   0.000000   0.005875   0.012547   0.164550
    17  F    0.004588   0.000066   0.000000   0.000750   0.001371   0.149571
    18  F    0.000040   0.000025  -0.000003  -0.000001  -0.006312   0.142305
              13         14         15         16         17         18
     1  C    0.068333   0.192683   0.036255  -0.140382  -0.064154   0.520348
     2  C   -0.002335   0.000202  -0.008473  -0.002103  -0.084048  -0.192106
     3  C    0.095396   0.019757   0.001745   0.019760   0.095399   0.001742
     4  C   -0.083957  -0.002138  -0.192194   0.000199  -0.002335  -0.008471
     5  C   -0.064144  -0.140477   0.520383   0.192690   0.068346   0.036248
     6  C   -0.009984  -0.083933  -0.297823  -0.084084  -0.009874  -0.297871
     7  H    0.000000   0.000000  -0.000003   0.000491   0.004588   0.000040
     8  H    0.000066   0.000016   0.000025   0.000016   0.000066   0.000025
     9  H    0.004586   0.000491   0.000040   0.000000   0.000000  -0.000003
    10  H    0.000750   0.005875   0.000000   0.005875   0.000750  -0.000001
    11  C    0.149601   0.164529   0.142308   0.012547   0.001371  -0.006312
    12  C    0.001371   0.012550  -0.006313   0.164550   0.149571   0.142305
    13  F    9.023414  -0.024253  -0.048029  -0.000003  -0.000002  -0.000001
    14  F   -0.024253   9.009058  -0.046565   0.000145  -0.000003  -0.000032
    15  F   -0.048029  -0.046565   8.962278  -0.000032  -0.000001  -0.000004
    16  F   -0.000003   0.000145  -0.000032   9.009045  -0.024249  -0.046567
    17  F   -0.000002  -0.000003  -0.000001  -0.024249   9.023436  -0.048026
    18  F   -0.000001  -0.000032  -0.000004  -0.046567  -0.048026   8.962253
 Mulliken charges:
               1
     1  C   -0.933922
     2  C   -0.037400
     3  C   -0.208701
     4  C   -0.037186
     5  C   -0.933975
     6  C    0.529545
     7  H    0.154564
     8  H    0.144132
     9  H    0.154564
    10  H    0.162484
    11  C    0.785274
    12  C    0.785232
    13  F   -0.110810
    14  F   -0.107906
    15  F   -0.063595
    16  F   -0.107899
    17  F   -0.110835
    18  F   -0.063566
 Sum of Mulliken charges =   0.00000
 Mulliken charges with hydrogens summed into heavy atoms:
               1
     1  C   -0.933922
     2  C    0.117164
     3  C   -0.064570
     4  C    0.117378
     5  C   -0.933975
     6  C    0.692029
    11  C    0.785274
    12  C    0.785232
    13  F   -0.110810
    14  F   -0.107906
    15  F   -0.063595
    16  F   -0.107899
    17  F   -0.110835
    18  F   -0.063566
 Electronic spatial extent (au):  <R**2>=           3024.6978
 Charge=              0.0000 electrons
 Dipole moment (field-independent basis, Debye):
    X=             -0.0001    Y=              2.9642    Z=              0.0002  Tot=              2.9642
 Quadrupole moment (field-independent basis, Debye-Ang):
   XX=            -88.0475   YY=            -70.1540   ZZ=            -80.8928
   XY=              0.0001   XZ=              0.4214   YZ=             -0.0001
 Traceless Quadrupole moment (field-independent basis, Debye-Ang):
   XX=             -8.3494   YY=              9.5441   ZZ=             -1.1947
   XY=              0.0001   XZ=              0.4214   YZ=             -0.0001
 Octapole moment (field-independent basis, Debye-Ang**2):
  XXX=             -0.0003  YYY=             -4.0342  ZZZ=              0.0008  XYY=              0.0007
  XXY=              5.9070  XXZ=              0.0026  XZZ=             -0.0009  YZZ=            -11.7428
  YYZ=              0.0003  XYZ=             -0.9205
 Hexadecapole moment (field-independent basis, Debye-Ang**3):
 XXXX=          -2484.2986 YYYY=           -672.8635 ZZZZ=           -216.3444 XXXY=              0.0033
 XXXZ=             -4.2316 YYYX=              0.0009 YYYZ=              0.0000 ZZZX=              7.0070
 ZZZY=             -0.0002 XXYY=           -503.6902 XXZZ=           -450.4470 YYZZ=           -170.4902
 XXYZ=             -0.0015 YYXZ=             -3.5476 ZZXY=             -0.0009
 N-N= 9.417376291686D+02 E-N=-4.025723092567D+03  KE= 9.038011288339D+02
 There are a total of      148820 grid points.
 ElSum from          density=      106.0003612655
 ElSum from atomic densities=      106.0005635113

 Hirshfeld populations at iteration   1 (CX, CA, CB, DipXYZ):
               1          2          3          4          5          6
     1  C    0.000000   3.010642   3.010642  -0.042428  -0.024878   0.001263
     2  C    0.000000   3.012348   3.012348  -0.047596   0.045893   0.001660
     3  C    0.000000   3.013663   3.013663   0.000003   0.072290   0.000000
     4  C    0.000000   3.012347   3.012347   0.047595   0.045897  -0.001662
     5  C    0.000000   3.010641   3.010641   0.042422  -0.024889  -0.001270
     6  C    0.000000   3.014802   3.014802   0.000003  -0.052956   0.000002
     7  H    0.000001   0.470055   0.470055  -0.130950   0.101696  -0.000869
     8  H    0.000002   0.469576   0.469576   0.000003   0.168381   0.000001
     9  H    0.000001   0.470054   0.470054   0.130950   0.101698   0.000867
    10  H    0.000001   0.470546   0.470546   0.000001  -0.160800  -0.000006
    11  C    0.000000   2.883322   2.883322   0.043199  -0.025845   0.001632
    12  C    0.000000   2.883322   2.883322  -0.043202  -0.025846  -0.001622
    13  F    0.000007   4.544972   4.544972  -0.088545  -0.034710  -0.050029
    14  F    0.000008   4.544084   4.544084  -0.014502   0.093814  -0.046830
    15  F    0.000010   4.550376   4.550376  -0.038074   0.019167   0.098616
    16  F    0.000008   4.544089   4.544089   0.014504   0.093812   0.046845
    17  F    0.000007   4.544976   4.544976   0.088557  -0.034714   0.050019
    18  F    0.000010   4.550365   4.550365   0.038061   0.019178  -0.098606
       Tot   0.000056  53.000181  53.000181   0.000001   0.377190   0.000011

 Dip from Atomic Chgs             -0.000029   0.789509   0.000075
         Total Dipole             -0.000027   1.166699   0.000086

 Hirshfeld charges, spin densities, dipoles, and CM5 charges using IRadAn=      4:
              Q-H        S-H        Dx         Dy         Dz        Q-CM5   
     1  C   -0.021283   0.000000  -0.042428  -0.024878   0.001263  -0.032825
     2  C   -0.024696   0.000000  -0.047596   0.045893   0.001660  -0.077944
     3  C   -0.027326   0.000000   0.000003   0.072290   0.000000  -0.082933
     4  C   -0.024695   0.000000   0.047595   0.045897  -0.001662  -0.077943
     5  C   -0.021283   0.000000   0.042422  -0.024889  -0.001270  -0.032824
     6  C   -0.029604   0.000000   0.000003  -0.052956   0.000002  -0.080262
     7  H    0.059890   0.000000  -0.130950   0.101696  -0.000869   0.115036
     8  H    0.060849   0.000000   0.000003   0.168381   0.000001   0.116794
     9  H    0.059892   0.000000   0.130950   0.101698   0.000867   0.115037
    10  H    0.058908   0.000000   0.000001  -0.160800  -0.000006   0.113338
    11  C    0.233356   0.000000   0.043199  -0.025845   0.001632   0.177042
    12  C    0.233356   0.000000  -0.043202  -0.025846  -0.001622   0.177043
    13  F   -0.089944   0.000000  -0.088545  -0.034710  -0.050029  -0.068141
    14  F   -0.088168   0.000000  -0.014502   0.093814  -0.046830  -0.066340
    15  F   -0.100752   0.000000  -0.038074   0.019167   0.098616  -0.080481
    16  F   -0.088178   0.000000   0.014504   0.093812   0.046845  -0.066350
    17  F   -0.089952   0.000000   0.088557  -0.034714   0.050019  -0.068150
    18  F   -0.100730   0.000000   0.038061   0.019178  -0.098606  -0.080456
       Tot  -0.000361   0.000000   0.000001   0.377190   0.000011  -0.000361
 Hirshfeld charges with hydrogens summed into heavy atoms:
              Q-H       Q-CM5   
     1  C   -0.021283  -0.032825
     2  C    0.035195   0.037092
     3  C    0.033523   0.033860
     4  C    0.035197   0.037094
     5  C   -0.021283  -0.032824
     6  C    0.029304   0.033077
    11  C    0.233356   0.177042
    12  C    0.233356   0.177043
    13  F   -0.089944  -0.068141
    14  F   -0.088168  -0.066340
    15  F   -0.100752  -0.080481
    16  F   -0.088178  -0.066350
    17  F   -0.089952  -0.068150
    18  F   -0.100730  -0.080456
 
 EQQ= 0.000000000000E+00 EQD= 0.000000000000E+00 EDD= 0.448567451196E-02
 EQQ+QD+DD= 0.448567451196E-02
 
          MBS Condensed to atoms (all electrons):
               1          2          3          4          5          6
     1  C    4.821414   0.499695  -0.030350  -0.012239  -0.029619   0.502294
     2  C    0.499695   4.806603   0.506654  -0.030260  -0.012238  -0.029211
     3  C   -0.030350   0.506654   4.804972   0.506645  -0.030350  -0.011745
     4  C   -0.012239  -0.030260   0.506645   4.806604   0.499702  -0.029211
     5  C   -0.029619  -0.012238  -0.030350   0.499702   4.821413   0.502286
     6  C    0.502294  -0.029211  -0.011745  -0.029211   0.502286   4.811741
     7  H   -0.025823   0.388761  -0.023938   0.001485   0.000057   0.001441
     8  H    0.001498  -0.025614   0.391891  -0.025614   0.001497   0.000048
     9  H    0.000057   0.001485  -0.023939   0.388762  -0.025822   0.001441
    10  H   -0.024247   0.001394   0.000051   0.001394  -0.024248   0.386581
    11  C    0.000868   0.000012   0.000870  -0.025370   0.370251  -0.025648
    12  C    0.370251  -0.025368   0.000870   0.000012   0.000868  -0.025650
    13  F   -0.000001   0.000000   0.000005  -0.001382  -0.019664   0.000180
    14  F    0.000005   0.000000  -0.000001   0.000178  -0.019595  -0.001342
    15  F   -0.000001   0.000000  -0.000002  -0.000167  -0.019766  -0.000160
    16  F   -0.019595   0.000178  -0.000001   0.000000   0.000005  -0.001342
    17  F   -0.019664  -0.001382   0.000005   0.000000  -0.000001   0.000180
    18  F   -0.019767  -0.000167  -0.000002   0.000000  -0.000001  -0.000160
               7          8          9         10         11         12
     1  C   -0.025823   0.001498   0.000057  -0.024247   0.000868   0.370251
     2  C    0.388761  -0.025614   0.001485   0.001394   0.000012  -0.025368
     3  C   -0.023938   0.391891  -0.023939   0.000051   0.000870   0.000870
     4  C    0.001485  -0.025614   0.388762   0.001394  -0.025370   0.000012
     5  C    0.000057   0.001497  -0.025822  -0.024248   0.370251   0.000868
     6  C    0.001441   0.000048   0.001441   0.386581  -0.025648  -0.025650
     7  H    0.528627  -0.003779  -0.000037  -0.000040   0.000001  -0.003759
     8  H   -0.003779   0.538745  -0.003779   0.000002  -0.000017  -0.000017
     9  H   -0.000037  -0.003779   0.528629  -0.000040  -0.003759   0.000001
    10  H   -0.000040   0.000002  -0.000040   0.516523  -0.003787  -0.003787
    11  C    0.000001  -0.000017  -0.003759  -0.003787   4.324005  -0.000005
    12  C   -0.003759  -0.000017   0.000001  -0.003787  -0.000005   4.324005
    13  F    0.000000   0.000000   0.001393   0.000013   0.225520   0.000000
    14  F    0.000000   0.000000   0.000012   0.001391   0.226106   0.000000
    15  F    0.000000   0.000000   0.000074   0.000072   0.220307   0.000000
    16  F    0.000012   0.000000   0.000000   0.001391   0.000000   0.226100
    17  F    0.001394   0.000000   0.000000   0.000013   0.000000   0.225514
    18  F    0.000074   0.000000   0.000000   0.000072   0.000000   0.220319
              13         14         15         16         17         18
     1  C   -0.000001   0.000005  -0.000001  -0.019595  -0.019664  -0.019767
     2  C    0.000000   0.000000   0.000000   0.000178  -0.001382  -0.000167
     3  C    0.000005  -0.000001  -0.000002  -0.000001   0.000005  -0.000002
     4  C   -0.001382   0.000178  -0.000167   0.000000   0.000000   0.000000
     5  C   -0.019664  -0.019595  -0.019766   0.000005  -0.000001  -0.000001
     6  C    0.000180  -0.001342  -0.000160  -0.001342   0.000180  -0.000160
     7  H    0.000000   0.000000   0.000000   0.000012   0.001394   0.000074
     8  H    0.000000   0.000000   0.000000   0.000000   0.000000   0.000000
     9  H    0.001393   0.000012   0.000074   0.000000   0.000000   0.000000
    10  H    0.000013   0.001391   0.000072   0.001391   0.000013   0.000072
    11  C    0.225520   0.226106   0.220307   0.000000   0.000000   0.000000
    12  C    0.000000   0.000000   0.000000   0.226100   0.225514   0.220319
    13  F    9.078042  -0.011755  -0.012266   0.000000   0.000000   0.000000
    14  F   -0.011755   9.075748  -0.012273   0.000000   0.000000   0.000000
    15  F   -0.012266  -0.012273   9.085991   0.000000   0.000000   0.000000
    16  F    0.000000   0.000000   0.000000   9.075761  -0.011753  -0.012273
    17  F    0.000000   0.000000   0.000000  -0.011753   9.078054  -0.012266
    18  F    0.000000   0.000000   0.000000  -0.012273  -0.012266   9.085963
 MBS Mulliken charges:
               1
     1  C   -0.014776
     2  C   -0.080541
     3  C   -0.091636
     4  C   -0.080539
     5  C   -0.014776
     6  C   -0.081723
     7  H    0.135523
     8  H    0.125139
     9  H    0.135522
    10  H    0.147254
    11  C    0.690647
    12  C    0.690648
    13  F   -0.260085
    14  F   -0.258477
    15  F   -0.261810
    16  F   -0.258484
    17  F   -0.260094
    18  F   -0.261792
 Sum of MBS Mulliken charges =   0.00000
 MBS Mulliken charges with hydrogens summed into heavy atoms:
               1
     1  C   -0.014776
     2  C    0.054982
     3  C    0.033502
     4  C    0.054983
     5  C   -0.014776
     6  C    0.065531
    11  C    0.690647
    12  C    0.690648
    13  F   -0.260085
    14  F   -0.258477
    15  F   -0.261810
    16  F   -0.258484
    17  F   -0.260094
    18  F   -0.261792
 Breneman (CHELPG) radii used.
 Generate Potential Derived Charges using the Breneman model, NDens= 1.
 Grid spacing= 0.300 Box extension= 2.800
 NStep X,Y,Z=   43     37     29   Total possible points=       46139
 Number of Points to Fit=   12329

 **********************************************************************

            Electrostatic Properties Using The SCF Density

 **********************************************************************

       Atomic Center    1 is at  -1.201901  0.309617 -0.029861
       Atomic Center    2 is at  -1.206236  1.704578 -0.028430
       Atomic Center    3 is at  -0.000001  2.398132  0.000000
       Atomic Center    4 is at   1.206237  1.704558  0.028421
       Atomic Center    5 is at   1.201888  0.309608  0.029835
       Atomic Center    6 is at  -0.000017 -0.394353 -0.000011
       Atomic Center    7 is at  -2.145801  2.241824 -0.054923
       Atomic Center    8 is at   0.000014  3.481271  0.000007
       Atomic Center    9 is at   2.145795  2.241818  0.054911
       Atomic Center   10 is at  -0.000010 -1.476357 -0.000043
       Atomic Center   11 is at   2.507768 -0.442031  0.004279
       Atomic Center   12 is at  -2.507773 -0.442036 -0.004259
       Atomic Center   13 is at   3.493604  0.235320  0.632592
       Atomic Center   14 is at   2.411635 -1.652269  0.594520
       Atomic Center   15 is at   2.933049 -0.659537 -1.265162
       Atomic Center   16 is at  -2.411660 -1.652209 -0.594677
       Atomic Center   17 is at  -3.493683  0.235399 -0.632407
       Atomic Center   18 is at  -2.932922 -0.659704  1.265157
   12329 points will be used for fitting atomic charges
 Fitting point charges to electrostatic potential
 Charges from ESP fit, RMS=   0.00364 RRMS=   0.26872:
 ESP charges:
               1
     1  C   -0.061689
     2  C   -0.073670
     3  C   -0.065595
     4  C   -0.073667
     5  C   -0.061711
     6  C   -0.054771
     7  H    0.115194
     8  H    0.100301
     9  H    0.115199
    10  H    0.112218
    11  C    0.672417
    12  C    0.672391
    13  F   -0.231953
    14  F   -0.226028
    15  F   -0.240337
    16  F   -0.226036
    17  F   -0.231953
    18  F   -0.240310
 Sum of ESP charges =   0.00000
 ESP charges with hydrogens summed into heavy atoms:
               1
     1  C   -0.061689
     2  C    0.041524
     3  C    0.034707
     4  C    0.041532
     5  C   -0.061711
     6  C    0.057447
    11  C    0.672417
    12  C    0.672391
    13  F   -0.231953
    14  F   -0.226028
    15  F   -0.240337
    16  F   -0.226036
    17  F   -0.231953
    18  F   -0.240310
 Charge=   0.00000 Dipole=    -0.0001     3.0513     0.0002 Tot=     3.0513
 -----------------------------------------------------------------

              Electrostatic Properties (Atomic Units)

 -----------------------------------------------------------------
    Center     Electric         -------- Electric Field --------
               Potential          X             Y             Z
 -----------------------------------------------------------------
    1 Atom    -14.715410
    2 Atom    -14.727393
    3 Atom    -14.732222
    4 Atom    -14.727392
    5 Atom    -14.715409
    6 Atom    -14.723653
    7 Atom     -1.066421
    8 Atom     -1.070638
    9 Atom     -1.066420
   10 Atom     -1.062335
   11 Atom    -14.493469
   12 Atom    -14.493468
   13 Atom    -26.554050
   14 Atom    -26.554065
   15 Atom    -26.559193
   16 Atom    -26.554070
   17 Atom    -26.554054
   18 Atom    -26.559180
 -----------------------------------------------------------------
 ******************************Gaussian NBO Version 3.1******************************
             N A T U R A L   A T O M I C   O R B I T A L   A N D
          N A T U R A L   B O N D   O R B I T A L   A N A L Y S I S
 ******************************Gaussian NBO Version 3.1******************************
       /RESON  / : Allow strongly delocalized NBO set

 Analyzing the SCF density

 Job title: Chart4_8                                                        

 Storage needed:    332120 in NPA ( 104855800 available)


 NATURAL POPULATIONS:  Natural atomic orbital occupancies 
                                                          
   NAO  Atom  No  lang   Type(AO)    Occupancy      Energy
 ----------------------------------------------------------
     1    C    1  S      Cor( 1S)     1.99890     -10.09282
     2    C    1  S      Val( 2S)     0.90578      -0.19803
     3    C    1  S      Ryd( 3S)     0.00109       0.76935
     4    C    1  S      Ryd( 4S)     0.00012       1.05429
     5    C    1  S      Ryd( 5S)     0.00001      22.93326
     6    C    1  px     Val( 2p)     1.06217      -0.12773
     7    C    1  px     Ryd( 4p)     0.00536       1.12218
     8    C    1  px     Ryd( 3p)     0.00034       0.57560
     9    C    1  px     Ryd( 5p)     0.00017       3.26076
    10    C    1  py     Val( 2p)     1.09803      -0.12071
    11    C    1  py     Ryd( 4p)     0.00455       1.04945
    12    C    1  py     Ryd( 3p)     0.00046       0.56956
    13    C    1  py     Ryd( 5p)     0.00018       3.25694
    14    C    1  pz     Val( 2p)     1.05553      -0.15904
    15    C    1  pz     Ryd( 4p)     0.00212       0.54967
    16    C    1  pz     Ryd( 3p)     0.00033       0.44875
    17    C    1  pz     Ryd( 5p)     0.00002       2.69947
    18    C    1  dxy    Ryd( 3d)     0.00095       2.51290
    19    C    1  dxz    Ryd( 3d)     0.00051       1.64599
    20    C    1  dyz    Ryd( 3d)     0.00059       1.63686
    21    C    1  dx2y2  Ryd( 3d)     0.00072       2.54814
    22    C    1  dz2    Ryd( 3d)     0.00054       2.04031

    23    C    2  S      Cor( 1S)     1.99908     -10.07536
    24    C    2  S      Val( 2S)     0.94776      -0.20012
    25    C    2  S      Ryd( 3S)     0.00160       0.70705
    26    C    2  S      Ryd( 4S)     0.00008       1.09389
    27    C    2  S      Ryd( 5S)     0.00001      22.75695
    28    C    2  px     Val( 2p)     1.16299      -0.09973
    29    C    2  px     Ryd( 4p)     0.00615       1.01461
    30    C    2  px     Ryd( 3p)     0.00037       0.36140
    31    C    2  px     Ryd( 5p)     0.00009       3.14958
    32    C    2  py     Val( 2p)     1.08098      -0.08854
    33    C    2  py     Ryd( 4p)     0.00430       0.79258
    34    C    2  py     Ryd( 3p)     0.00046       0.38356
    35    C    2  py     Ryd( 5p)     0.00018       3.12130
    36    C    2  pz     Val( 2p)     0.95071      -0.14825
    37    C    2  pz     Ryd( 4p)     0.00082       0.50114
    38    C    2  pz     Ryd( 3p)     0.00031       0.30252
    39    C    2  pz     Ryd( 5p)     0.00002       2.66435
    40    C    2  dxy    Ryd( 3d)     0.00069       2.49061
    41    C    2  dxz    Ryd( 3d)     0.00046       1.59363
    42    C    2  dyz    Ryd( 3d)     0.00051       1.63143
    43    C    2  dx2y2  Ryd( 3d)     0.00072       2.54899
    44    C    2  dz2    Ryd( 3d)     0.00042       2.02941

    45    C    3  S      Cor( 1S)     1.99917     -10.07289
    46    C    3  S      Val( 2S)     0.95293      -0.20213
    47    C    3  S      Ryd( 3S)     0.00142       0.85678
    48    C    3  S      Ryd( 4S)     0.00011       1.41955
    49    C    3  S      Ryd( 5S)     0.00001      22.30018
    50    C    3  px     Val( 2p)     1.05632      -0.08394
    51    C    3  px     Ryd( 4p)     0.00426       0.76577
    52    C    3  px     Ryd( 3p)     0.00044       0.39851
    53    C    3  px     Ryd( 5p)     0.00017       3.01593
    54    C    3  py     Val( 2p)     1.17898      -0.09496
    55    C    3  py     Ryd( 4p)     0.00671       1.05436
    56    C    3  py     Ryd( 3p)     0.00023       0.27317
    57    C    3  py     Ryd( 5p)     0.00007       3.14263
    58    C    3  pz     Val( 2p)     0.98407      -0.14715
    59    C    3  pz     Ryd( 4p)     0.00084       0.50111
    60    C    3  pz     Ryd( 3p)     0.00020       0.31251
    61    C    3  pz     Ryd( 5p)     0.00002       2.62372
    62    C    3  dxy    Ryd( 3d)     0.00067       2.56253
    63    C    3  dxz    Ryd( 3d)     0.00044       1.64433
    64    C    3  dyz    Ryd( 3d)     0.00045       1.57291
    65    C    3  dx2y2  Ryd( 3d)     0.00080       2.45925
    66    C    3  dz2    Ryd( 3d)     0.00041       2.01696

    67    C    4  S      Cor( 1S)     1.99908     -10.07536
    68    C    4  S      Val( 2S)     0.94776      -0.20012
    69    C    4  S      Ryd( 3S)     0.00160       0.70705
    70    C    4  S      Ryd( 4S)     0.00008       1.09383
    71    C    4  S      Ryd( 5S)     0.00001      22.75702
    72    C    4  px     Val( 2p)     1.16298      -0.09973
    73    C    4  px     Ryd( 4p)     0.00615       1.01460
    74    C    4  px     Ryd( 3p)     0.00037       0.36140
    75    C    4  px     Ryd( 5p)     0.00009       3.14958
    76    C    4  py     Val( 2p)     1.08098      -0.08854
    77    C    4  py     Ryd( 4p)     0.00430       0.79258
    78    C    4  py     Ryd( 3p)     0.00046       0.38356
    79    C    4  py     Ryd( 5p)     0.00018       3.12131
    80    C    4  pz     Val( 2p)     0.95071      -0.14825
    81    C    4  pz     Ryd( 4p)     0.00082       0.50113
    82    C    4  pz     Ryd( 3p)     0.00031       0.30253
    83    C    4  pz     Ryd( 5p)     0.00002       2.66435
    84    C    4  dxy    Ryd( 3d)     0.00069       2.49061
    85    C    4  dxz    Ryd( 3d)     0.00046       1.59363
    86    C    4  dyz    Ryd( 3d)     0.00051       1.63144
    87    C    4  dx2y2  Ryd( 3d)     0.00072       2.54898
    88    C    4  dz2    Ryd( 3d)     0.00042       2.02940

    89    C    5  S      Cor( 1S)     1.99890     -10.09282
    90    C    5  S      Val( 2S)     0.90578      -0.19803
    91    C    5  S      Ryd( 3S)     0.00109       0.76935
    92    C    5  S      Ryd( 4S)     0.00012       1.05428
    93    C    5  S      Ryd( 5S)     0.00001      22.93328
    94    C    5  px     Val( 2p)     1.06217      -0.12773
    95    C    5  px     Ryd( 4p)     0.00536       1.12221
    96    C    5  px     Ryd( 3p)     0.00034       0.57561
    97    C    5  px     Ryd( 5p)     0.00017       3.26076
    98    C    5  py     Val( 2p)     1.09803      -0.12072
    99    C    5  py     Ryd( 4p)     0.00455       1.04943
   100    C    5  py     Ryd( 3p)     0.00046       0.56956
   101    C    5  py     Ryd( 5p)     0.00018       3.25694
   102    C    5  pz     Val( 2p)     1.05553      -0.15904
   103    C    5  pz     Ryd( 4p)     0.00212       0.54967
   104    C    5  pz     Ryd( 3p)     0.00033       0.44875
   105    C    5  pz     Ryd( 5p)     0.00002       2.69947
   106    C    5  dxy    Ryd( 3d)     0.00095       2.51288
   107    C    5  dxz    Ryd( 3d)     0.00051       1.64598
   108    C    5  dyz    Ryd( 3d)     0.00059       1.63686
   109    C    5  dx2y2  Ryd( 3d)     0.00072       2.54816
   110    C    5  dz2    Ryd( 3d)     0.00054       2.04031

   111    C    6  S      Cor( 1S)     1.99900     -10.07650
   112    C    6  S      Val( 2S)     0.93767      -0.19477
   113    C    6  S      Ryd( 3S)     0.00164       0.73744
   114    C    6  S      Ryd( 4S)     0.00008       0.83243
   115    C    6  S      Ryd( 5S)     0.00001      23.09997
   116    C    6  px     Val( 2p)     1.05399      -0.09061
   117    C    6  px     Ryd( 4p)     0.00356       0.81435
   118    C    6  px     Ryd( 3p)     0.00042       0.58447
   119    C    6  px     Ryd( 5p)     0.00022       3.19833
   120    C    6  py     Val( 2p)     1.19713      -0.11073
   121    C    6  py     Ryd( 4p)     0.00666       0.97096
   122    C    6  py     Ryd( 3p)     0.00048       0.36014
   123    C    6  py     Ryd( 5p)     0.00008       3.18791
   124    C    6  pz     Val( 2p)     0.94701      -0.15039
   125    C    6  pz     Ryd( 4p)     0.00098       0.49419
   126    C    6  pz     Ryd( 3p)     0.00045       0.34796
   127    C    6  pz     Ryd( 5p)     0.00002       2.71609
   128    C    6  dxy    Ryd( 3d)     0.00064       2.59753
   129    C    6  dxz    Ryd( 3d)     0.00059       1.64218
   130    C    6  dyz    Ryd( 3d)     0.00044       1.59626
   131    C    6  dx2y2  Ryd( 3d)     0.00069       2.46680
   132    C    6  dz2    Ryd( 3d)     0.00045       2.05068

   133    H    7  S      Val( 1S)     0.76869       0.02140
   134    H    7  S      Ryd( 2S)     0.00064       0.80104
   135    H    7  S      Ryd( 3S)     0.00017       1.81384
   136    H    7  px     Ryd( 2p)     0.00037       2.51710
   137    H    7  py     Ryd( 2p)     0.00023       2.15502
   138    H    7  pz     Ryd( 2p)     0.00017       1.57832

   139    H    8  S      Val( 1S)     0.77947       0.01743
   140    H    8  S      Ryd( 2S)     0.00048       0.59059
   141    H    8  S      Ryd( 3S)     0.00017       2.11844
   142    H    8  px     Ryd( 2p)     0.00011       1.96124
   143    H    8  py     Ryd( 2p)     0.00043       2.67337
   144    H    8  pz     Ryd( 2p)     0.00018       1.56765

   145    H    9  S      Val( 1S)     0.76869       0.02140
   146    H    9  S      Ryd( 2S)     0.00064       0.80104
   147    H    9  S      Ryd( 3S)     0.00017       1.81384
   148    H    9  px     Ryd( 2p)     0.00037       2.51709
   149    H    9  py     Ryd( 2p)     0.00023       2.15503
   150    H    9  pz     Ryd( 2p)     0.00017       1.57831

   151    H   10  S      Val( 1S)     0.75470       0.02514
   152    H   10  S      Ryd( 2S)     0.00099       0.81262
   153    H   10  S      Ryd( 3S)     0.00016       1.77729
   154    H   10  px     Ryd( 2p)     0.00020       2.02014
   155    H   10  py     Ryd( 2p)     0.00045       2.71424
   156    H   10  pz     Ryd( 2p)     0.00017       1.58889

   157    C   11  S      Cor( 1S)     1.99912     -10.35792
   158    C   11  S      Val( 2S)     0.78383      -0.28020
   159    C   11  S      Ryd( 4S)     0.00388       1.05712
   160    C   11  S      Ryd( 3S)     0.00045       0.59513
   161    C   11  S      Ryd( 5S)     0.00003      22.75850
   162    C   11  px     Val( 2p)     0.82077      -0.16225
   163    C   11  px     Ryd( 4p)     0.00964       1.21402
   164    C   11  px     Ryd( 3p)     0.00072       0.43770
   165    C   11  px     Ryd( 5p)     0.00018       1.90109
   166    C   11  py     Val( 2p)     0.66506      -0.15346
   167    C   11  py     Ryd( 4p)     0.01163       1.19697
   168    C   11  py     Ryd( 3p)     0.00078       0.46117
   169    C   11  py     Ryd( 5p)     0.00013       2.07564
   170    C   11  pz     Val( 2p)     0.60230      -0.14504
   171    C   11  pz     Ryd( 4p)     0.01042       1.05574
   172    C   11  pz     Ryd( 3p)     0.00086       0.47520
   173    C   11  pz     Ryd( 5p)     0.00008       2.28366
   174    C   11  dxy    Ryd( 3d)     0.00382       2.09652
   175    C   11  dxz    Ryd( 3d)     0.00430       1.83407
   176    C   11  dyz    Ryd( 3d)     0.00490       1.86575
   177    C   11  dx2y2  Ryd( 3d)     0.00365       1.99743
   178    C   11  dz2    Ryd( 3d)     0.00490       1.98857

   179    C   12  S      Cor( 1S)     1.99912     -10.35793
   180    C   12  S      Val( 2S)     0.78383      -0.28020
   181    C   12  S      Ryd( 4S)     0.00388       1.05713
   182    C   12  S      Ryd( 3S)     0.00045       0.59513
   183    C   12  S      Ryd( 5S)     0.00003      22.75850
   184    C   12  px     Val( 2p)     0.82077      -0.16225
   185    C   12  px     Ryd( 4p)     0.00964       1.21402
   186    C   12  px     Ryd( 3p)     0.00072       0.43770
   187    C   12  px     Ryd( 5p)     0.00018       1.90111
   188    C   12  py     Val( 2p)     0.66507      -0.15347
   189    C   12  py     Ryd( 4p)     0.01163       1.19697
   190    C   12  py     Ryd( 3p)     0.00078       0.46117
   191    C   12  py     Ryd( 5p)     0.00013       2.07561
   192    C   12  pz     Val( 2p)     0.60230      -0.14504
   193    C   12  pz     Ryd( 4p)     0.01042       1.05574
   194    C   12  pz     Ryd( 3p)     0.00086       0.47520
   195    C   12  pz     Ryd( 5p)     0.00008       2.28368
   196    C   12  dxy    Ryd( 3d)     0.00382       2.09655
   197    C   12  dxz    Ryd( 3d)     0.00430       1.83396
   198    C   12  dyz    Ryd( 3d)     0.00490       1.86585
   199    C   12  dx2y2  Ryd( 3d)     0.00365       1.99735
   200    C   12  dz2    Ryd( 3d)     0.00490       1.98864

   201    F   13  S      Cor( 1S)     1.99992     -24.46566
   202    F   13  S      Val( 2S)     1.85127      -1.32781
   203    F   13  S      Ryd( 3S)     0.00047       1.01351
   204    F   13  S      Ryd( 4S)     0.00030       2.03700
   205    F   13  S      Ryd( 5S)     0.00000      66.56881
   206    F   13  px     Val( 2p)     1.76492      -0.46558
   207    F   13  px     Ryd( 3p)     0.00109       0.44947
   208    F   13  px     Ryd( 4p)     0.00013       1.41133
   209    F   13  px     Ryd( 5p)     0.00004       6.24991
   210    F   13  py     Val( 2p)     1.86490      -0.46303
   211    F   13  py     Ryd( 3p)     0.00079       0.53208
   212    F   13  py     Ryd( 4p)     0.00014       1.37215
   213    F   13  py     Ryd( 5p)     0.00002       6.21437
   214    F   13  pz     Val( 2p)     1.86732      -0.46151
   215    F   13  pz     Ryd( 3p)     0.00067       0.45882
   216    F   13  pz     Ryd( 4p)     0.00008       1.37154
   217    F   13  pz     Ryd( 5p)     0.00002       6.18004
   218    F   13  dxy    Ryd( 3d)     0.00074       3.98153
   219    F   13  dxz    Ryd( 3d)     0.00071       3.95387
   220    F   13  dyz    Ryd( 3d)     0.00039       3.86421
   221    F   13  dx2y2  Ryd( 3d)     0.00052       3.86374
   222    F   13  dz2    Ryd( 3d)     0.00037       3.83419

   223    F   14  S      Cor( 1S)     1.99992     -24.46523
   224    F   14  S      Val( 2S)     1.85078      -1.32766
   225    F   14  S      Ryd( 3S)     0.00046       1.03977
   226    F   14  S      Ryd( 4S)     0.00030       2.02914
   227    F   14  S      Ryd( 5S)     0.00000      66.56988
   228    F   14  px     Val( 2p)     1.95090      -0.45960
   229    F   14  px     Ryd( 3p)     0.00107       0.56126
   230    F   14  px     Ryd( 4p)     0.00011       1.36089
   231    F   14  px     Ryd( 5p)     0.00000       6.22094
   232    F   14  py     Val( 2p)     1.66997      -0.46913
   233    F   14  py     Ryd( 3p)     0.00081       0.41934
   234    F   14  py     Ryd( 4p)     0.00018       1.41737
   235    F   14  py     Ryd( 5p)     0.00006       6.27147
   236    F   14  pz     Val( 2p)     1.87516      -0.46102
   237    F   14  pz     Ryd( 3p)     0.00067       0.45954
   238    F   14  pz     Ryd( 4p)     0.00007       1.36341
   239    F   14  pz     Ryd( 5p)     0.00002       6.18587
   240    F   14  dxy    Ryd( 3d)     0.00050       3.85181
   241    F   14  dxz    Ryd( 3d)     0.00013       3.77252
   242    F   14  dyz    Ryd( 3d)     0.00093       4.02762
   243    F   14  dx2y2  Ryd( 3d)     0.00082       4.01217
   244    F   14  dz2    Ryd( 3d)     0.00037       3.83729

   245    F   15  S      Cor( 1S)     1.99992     -24.46215
   246    F   15  S      Val( 2S)     1.85522      -1.32400
   247    F   15  S      Ryd( 3S)     0.00044       0.99847
   248    F   15  S      Ryd( 4S)     0.00039       2.08503
   249    F   15  S      Ryd( 5S)     0.00000      66.58184
   250    F   15  px     Val( 2p)     1.91236      -0.45491
   251    F   15  px     Ryd( 3p)     0.00101       0.50933
   252    F   15  px     Ryd( 4p)     0.00005       1.45721
   253    F   15  px     Ryd( 5p)     0.00001       6.11456
   254    F   15  py     Val( 2p)     1.93177      -0.45407
   255    F   15  py     Ryd( 3p)     0.00073       0.51080
   256    F   15  py     Ryd( 4p)     0.00004       1.44049
   257    F   15  py     Ryd( 5p)     0.00001       6.09421
   258    F   15  pz     Val( 2p)     1.64820      -0.46476
   259    F   15  pz     Ryd( 3p)     0.00079       0.45143
   260    F   15  pz     Ryd( 4p)     0.00018       1.49930
   261    F   15  pz     Ryd( 5p)     0.00006       6.15200
   262    F   15  dxy    Ryd( 3d)     0.00010       3.77431
   263    F   15  dxz    Ryd( 3d)     0.00075       3.96048
   264    F   15  dyz    Ryd( 3d)     0.00061       3.88792
   265    F   15  dx2y2  Ryd( 3d)     0.00010       3.76695
   266    F   15  dz2    Ryd( 3d)     0.00115       4.12516

   267    F   16  S      Cor( 1S)     1.99992     -24.46523
   268    F   16  S      Val( 2S)     1.85078      -1.32766
   269    F   16  S      Ryd( 3S)     0.00046       1.03963
   270    F   16  S      Ryd( 4S)     0.00030       2.02924
   271    F   16  S      Ryd( 5S)     0.00000      66.56988
   272    F   16  px     Val( 2p)     1.95090      -0.45960
   273    F   16  px     Ryd( 3p)     0.00107       0.56124
   274    F   16  px     Ryd( 4p)     0.00011       1.36095
   275    F   16  px     Ryd( 5p)     0.00000       6.22090
   276    F   16  py     Val( 2p)     1.67000      -0.46912
   277    F   16  py     Ryd( 3p)     0.00081       0.41934
   278    F   16  py     Ryd( 4p)     0.00018       1.41742
   279    F   16  py     Ryd( 5p)     0.00006       6.27140
   280    F   16  pz     Val( 2p)     1.87513      -0.46101
   281    F   16  pz     Ryd( 3p)     0.00067       0.45953
   282    F   16  pz     Ryd( 4p)     0.00007       1.36348
   283    F   16  pz     Ryd( 5p)     0.00002       6.18583
   284    F   16  dxy    Ryd( 3d)     0.00050       3.85180
   285    F   16  dxz    Ryd( 3d)     0.00013       3.77253
   286    F   16  dyz    Ryd( 3d)     0.00093       4.02769
   287    F   16  dx2y2  Ryd( 3d)     0.00082       4.01211
   288    F   16  dz2    Ryd( 3d)     0.00037       3.83728

   289    F   17  S      Cor( 1S)     1.99992     -24.46566
   290    F   17  S      Val( 2S)     1.85128      -1.32781
   291    F   17  S      Ryd( 3S)     0.00047       1.01365
   292    F   17  S      Ryd( 4S)     0.00030       2.03691
   293    F   17  S      Ryd( 5S)     0.00000      66.56882
   294    F   17  px     Val( 2p)     1.76489      -0.46557
   295    F   17  px     Ryd( 3p)     0.00109       0.44945
   296    F   17  px     Ryd( 4p)     0.00013       1.41142
   297    F   17  px     Ryd( 5p)     0.00004       6.24984
   298    F   17  py     Val( 2p)     1.86488      -0.46303
   299    F   17  py     Ryd( 3p)     0.00079       0.53207
   300    F   17  py     Ryd( 4p)     0.00014       1.37224
   301    F   17  py     Ryd( 5p)     0.00002       6.21431
   302    F   17  pz     Val( 2p)     1.86736      -0.46150
   303    F   17  pz     Ryd( 3p)     0.00067       0.45880
   304    F   17  pz     Ryd( 4p)     0.00008       1.37162
   305    F   17  pz     Ryd( 5p)     0.00002       6.17995
   306    F   17  dxy    Ryd( 3d)     0.00074       3.98158
   307    F   17  dxz    Ryd( 3d)     0.00071       3.95380
   308    F   17  dyz    Ryd( 3d)     0.00039       3.86418
   309    F   17  dx2y2  Ryd( 3d)     0.00052       3.86375
   310    F   17  dz2    Ryd( 3d)     0.00037       3.83420

   311    F   18  S      Cor( 1S)     1.99992     -24.46215
   312    F   18  S      Val( 2S)     1.85520      -1.32401
   313    F   18  S      Ryd( 3S)     0.00044       0.99850
   314    F   18  S      Ryd( 4S)     0.00039       2.08501
   315    F   18  S      Ryd( 5S)     0.00000      66.58184
   316    F   18  px     Val( 2p)     1.91238      -0.45492
   317    F   18  px     Ryd( 3p)     0.00101       0.50935
   318    F   18  px     Ryd( 4p)     0.00005       1.45698
   319    F   18  px     Ryd( 5p)     0.00001       6.11475
   320    F   18  py     Val( 2p)     1.93174      -0.45408
   321    F   18  py     Ryd( 3p)     0.00073       0.51082
   322    F   18  py     Ryd( 4p)     0.00004       1.44027
   323    F   18  py     Ryd( 5p)     0.00001       6.09441
   324    F   18  pz     Val( 2p)     1.64820      -0.46478
   325    F   18  pz     Ryd( 3p)     0.00079       0.45144
   326    F   18  pz     Ryd( 4p)     0.00018       1.49906
   327    F   18  pz     Ryd( 5p)     0.00006       6.15224
   328    F   18  dxy    Ryd( 3d)     0.00010       3.77430
   329    F   18  dxz    Ryd( 3d)     0.00075       3.96043
   330    F   18  dyz    Ryd( 3d)     0.00061       3.88797
   331    F   18  dx2y2  Ryd( 3d)     0.00010       3.76693
   332    F   18  dz2    Ryd( 3d)     0.00115       4.12520

 WARNING:  1 low occupancy (<1.9990e) core orbital  found on  C    1
           1 low occupancy (<1.9990e) core orbital  found on  C    5
           1 low occupancy (<1.9990e) core orbital  found on  C    6

 WARNING:  Population inversion found on atom  C    1
           Population inversion found on atom  C    2
           Population inversion found on atom  C    3
           Population inversion found on atom  C    4
           Population inversion found on atom  C    5
           Population inversion found on atom  C    6
           Population inversion found on atom  C   11
           Population inversion found on atom  C   12


 Summary of Natural Population Analysis:                  
                                                          
                                       Natural Population 
                Natural  -----------------------------------------------
    Atom  No    Charge         Core      Valence    Rydberg      Total
 -----------------------------------------------------------------------
      C    1   -0.13849      1.99890     4.12152    0.01807     6.13849
      C    2   -0.15871      1.99908     4.14244    0.01719     6.15871
      C    3   -0.18871      1.99917     4.17231    0.01724     6.18871
      C    4   -0.15871      1.99908     4.14244    0.01719     6.15871
      C    5   -0.13849      1.99890     4.12152    0.01807     6.13849
      C    6   -0.15221      1.99900     4.13580    0.01741     6.15221
      H    7    0.22973      0.00000     0.76869    0.00158     0.77027
      H    8    0.21916      0.00000     0.77947    0.00137     0.78084
      H    9    0.22973      0.00000     0.76869    0.00158     0.77027
      H   10    0.24333      0.00000     0.75470    0.00197     0.75667
      C   11    1.06856      1.99912     2.87197    0.06035     4.93144
      C   12    1.06856      1.99912     2.87197    0.06035     4.93144
      F   13   -0.35479      1.99992     7.34840    0.00647     9.35479
      F   14   -0.35322      1.99992     7.34680    0.00649     9.35322
      F   15   -0.35387      1.99992     7.34754    0.00641     9.35387
      F   16   -0.35322      1.99992     7.34681    0.00649     9.35322
      F   17   -0.35480      1.99992     7.34841    0.00647     9.35480
      F   18   -0.35385      1.99992     7.34752    0.00641     9.35385
 =======================================================================
   * Total *    0.00000     27.99186    77.73700    0.27114   106.00000

                                 Natural Population      
 --------------------------------------------------------
   Core                      27.99186 ( 99.9709% of  28)
   Valence                   77.73700 ( 99.6628% of  78)
   Natural Minimal Basis    105.72886 ( 99.7442% of 106)
   Natural Rydberg Basis      0.27114 (  0.2558% of 106)
 --------------------------------------------------------

    Atom  No          Natural Electron Configuration
 ----------------------------------------------------------------------------
      C    1      [core]2S( 0.91)2p( 3.22)4p( 0.01)
      C    2      [core]2S( 0.95)2p( 3.19)4p( 0.01)
      C    3      [core]2S( 0.95)2p( 3.22)4p( 0.01)
      C    4      [core]2S( 0.95)2p( 3.19)4p( 0.01)
      C    5      [core]2S( 0.91)2p( 3.22)4p( 0.01)
      C    6      [core]2S( 0.94)2p( 3.20)4p( 0.01)
      H    7            1S( 0.77)
      H    8            1S( 0.78)
      H    9            1S( 0.77)
      H   10            1S( 0.75)
      C   11      [core]2S( 0.78)2p( 2.09)3d( 0.02)4p( 0.03)
      C   12      [core]2S( 0.78)2p( 2.09)3d( 0.02)4p( 0.03)
      F   13      [core]2S( 1.85)2p( 5.50)
      F   14      [core]2S( 1.85)2p( 5.50)
      F   15      [core]2S( 1.86)2p( 5.49)
      F   16      [core]2S( 1.85)2p( 5.50)
      F   17      [core]2S( 1.85)2p( 5.50)
      F   18      [core]2S( 1.86)2p( 5.49)


 NBO analysis skipped by request.
 1\1\GINC-COREV2-25-047\SP\RB3LYP\6-311+G(d,p)\C8H4F6\ROOT\23-Jul-2021\
 0\\# b3lyp/6-311+g(d,p) geom=connectivity pop=(hirshfeld,chelpg,mbs,np
 a)\\Chart4_8\\0,1\C,0,1.201901,0.309617,0.029861\C,0,1.206236,1.704578
 ,0.02843\C,0,0.000001,2.398132,0.\C,0,-1.206237,1.704558,-0.028421\C,0
 ,-1.201888,0.309608,-0.029835\C,0,0.000017,-0.394353,0.000011\H,0,2.14
 5801,2.241824,0.054923\H,0,-0.000014,3.481271,-0.000007\H,0,-2.145795,
 2.241818,-0.054911\H,0,0.00001,-1.476357,0.000043\C,0,-2.507768,-0.442
 031,-0.004279\C,0,2.507773,-0.442036,0.004259\F,0,-3.493604,0.23532,-0
 .632592\F,0,-2.411635,-1.652269,-0.59452\F,0,-2.933049,-0.659537,1.265
 162\F,0,2.41166,-1.652209,0.594677\F,0,3.493683,0.235399,0.632407\F,0,
 2.932922,-0.659704,-1.265157\\Version=ES64L-G09RevD.01\State=1-A\HF=-9
 06.6078221\RMSD=8.918e-09\Dipole=0.0000278,1.1662089,-0.0000855\Quadru
 pole=-6.2075758,7.0957867,-0.8882109,-0.000096,0.313314,0.0000925\PG=C
 01 [X(C8H4F6)]\\@


 Once you get people laughing, they're
 listening and you can tell them almost anything.
                                 -- Herb Gardner
 Job cpu time:       0 days  0 hours  8 minutes  5.3 seconds.
 File lengths (MBytes):  RWF=    113 Int=      0 D2E=      0 Chk=      5 Scr=      1
 Normal termination of Gaussian 09 at Fri Jul 23 17:24:37 2021.
