 Entering Gaussian System, Link 0=g09
 Initial command:
 /cm/shared/apps/gaussian/g09revD.01/g09/l1.exe "//home/sweav003/HartwigDocs/Regioselective_Alkylamines_AlkylEthers/G09-Table1_2.com.o9624905.tmp/Gau-88753.inp" -scrdir="//home/sweav003/HartwigDocs/Regioselective_Alkylamines_AlkylEthers/G09-Table1_2.com.o9624905.tmp/"
 Entering Link 1 = /cm/shared/apps/gaussian/g09revD.01/g09/l1.exe PID=     88754.
  
 Copyright (c) 1988,1990,1992,1993,1995,1998,2003,2009,2013,
            Gaussian, Inc.  All Rights Reserved.
  
 This is part of the Gaussian(R) 09 program.  It is based on
 the Gaussian(R) 03 system (copyright 2003, Gaussian, Inc.),
 the Gaussian(R) 98 system (copyright 1998, Gaussian, Inc.),
 the Gaussian(R) 94 system (copyright 1995, Gaussian, Inc.),
 the Gaussian 92(TM) system (copyright 1992, Gaussian, Inc.),
 the Gaussian 90(TM) system (copyright 1990, Gaussian, Inc.),
 the Gaussian 88(TM) system (copyright 1988, Gaussian, Inc.),
 the Gaussian 86(TM) system (copyright 1986, Carnegie Mellon
 University), and the Gaussian 82(TM) system (copyright 1983,
 Carnegie Mellon University). Gaussian is a federally registered
 trademark of Gaussian, Inc.
  
 This software contains proprietary and confidential information,
 including trade secrets, belonging to Gaussian, Inc.
  
 This software is provided under written license and may be
 used, copied, transmitted, or stored only in accord with that
 written license.
  
 The following legend is applicable only to US Government
 contracts under FAR:
  
                    RESTRICTED RIGHTS LEGEND
  
 Use, reproduction and disclosure by the US Government is
 subject to restrictions as set forth in subparagraphs (a)
 and (c) of the Commercial Computer Software - Restricted
 Rights clause in FAR 52.227-19.
  
 Gaussian, Inc.
 340 Quinnipiac St., Bldg. 40, Wallingford CT 06492
  
  
 ---------------------------------------------------------------
 Warning -- This program may not be used in any manner that
 competes with the business of Gaussian, Inc. or will provide
 assistance to any competitor of Gaussian, Inc.  The licensee
 of this program is prohibited from giving any competitor of
 Gaussian, Inc. access to this program.  By using this program,
 the user acknowledges that Gaussian, Inc. is engaged in the
 business of creating and licensing software in the field of
 computational chemistry and represents and warrants to the
 licensee that it is not a competitor of Gaussian, Inc. and that
 it will not use this program in any manner prohibited above.
 ---------------------------------------------------------------
  

 Cite this work as:
 Gaussian 09, Revision D.01,
 M. J. Frisch, G. W. Trucks, H. B. Schlegel, G. E. Scuseria, 
 M. A. Robb, J. R. Cheeseman, G. Scalmani, V. Barone, B. Mennucci, 
 G. A. Petersson, H. Nakatsuji, M. Caricato, X. Li, H. P. Hratchian, 
 A. F. Izmaylov, J. Bloino, G. Zheng, J. L. Sonnenberg, M. Hada, 
 M. Ehara, K. Toyota, R. Fukuda, J. Hasegawa, M. Ishida, T. Nakajima, 
 Y. Honda, O. Kitao, H. Nakai, T. Vreven, J. A. Montgomery, Jr., 
 J. E. Peralta, F. Ogliaro, M. Bearpark, J. J. Heyd, E. Brothers, 
 K. N. Kudin, V. N. Staroverov, T. Keith, R. Kobayashi, J. Normand, 
 K. Raghavachari, A. Rendell, J. C. Burant, S. S. Iyengar, J. Tomasi, 
 M. Cossi, N. Rega, J. M. Millam, M. Klene, J. E. Knox, J. B. Cross, 
 V. Bakken, C. Adamo, J. Jaramillo, R. Gomperts, R. E. Stratmann, 
 O. Yazyev, A. J. Austin, R. Cammi, C. Pomelli, J. W. Ochterski, 
 R. L. Martin, K. Morokuma, V. G. Zakrzewski, G. A. Voth, 
 P. Salvador, J. J. Dannenberg, S. Dapprich, A. D. Daniels, 
 O. Farkas, J. B. Foresman, J. V. Ortiz, J. Cioslowski, 
 and D. J. Fox, Gaussian, Inc., Wallingford CT, 2013.
 
 ******************************************
 Gaussian 09:  ES64L-G09RevD.01 24-Apr-2013
                 2-Nov-2021 
 ******************************************
 %mem=100MW
 %nprocshared=20
 Will use up to   20 processors via shared memory.
 %chk=Table1_2.chk
 ----------------------------------------------------------------------
 # opt freq b3lyp/6-311+g(d,p) geom=connectivity pop=(hirshfeld,chelpg,
 mbs,npa)
 ----------------------------------------------------------------------
 1/14=-1,18=20,19=15,26=3,38=1,57=2/1,3;
 2/9=110,12=2,17=6,18=5,40=1/2;
 3/5=4,6=6,7=111,11=2,16=1,25=1,30=1,71=1,74=-5/1,2,3;
 4//1;
 5/5=2,38=5/2;
 6/7=2,8=2,9=2,10=2,15=8,20=3,27=100,28=1,40=-1,79=1/1,2,7;
 7//1,2,3,16;
 1/14=-1,18=20,19=15,26=3/3(2);
 2/9=110/2;
 99//99;
 2/9=110/2;
 3/5=4,6=6,7=111,11=2,16=1,25=1,30=1,71=1,74=-5/1,2,3;
 4/5=5,16=3,69=1/1;
 5/5=2,38=5/2;
 7//1,2,3,16;
 1/14=-1,18=20,19=15,26=3/3(-5);
 2/9=110/2;
 6/7=2,8=2,9=2,10=2,15=8,19=2,20=3,27=100,28=1,40=-1,79=1/1,2,7;
 99/9=1/99;
 -------------------
 Title Card Required
 -------------------
 Symbolic Z-matrix:
 Charge =  0 Multiplicity = 1
 C                     1.00803   3.41211  -0.38372 
 H                     0.25559   4.17108  -0.43568 
 H                     1.81396   3.75052   0.23342 
 H                     1.37461   3.20535  -1.36747 
 C                    -0.59109   1.58921  -0.70704 
 H                    -0.01036   1.14674  -1.48927 
 H                    -1.28095   2.29477  -1.12077 
 C                    -1.39925   0.49746   0.02411 
 H                    -1.63043  -0.27467  -0.67964 
 H                    -2.30646   0.88833   0.43531 
 C                     0.90047  -0.12317   1.01152 
 H                     1.32344  -0.09129   1.99385 
 H                     1.18626  -1.03482   0.52974 
 C                     1.3911    1.05427   0.14403 
 H                     2.38422   1.30564   0.45292 
 H                     1.39231   0.76819  -0.88702 
 N                     0.43091   2.18854   0.19135 
 C                    -0.59375   0.05167   1.23469 
 H                    -1.01457  -0.8373    1.65604 
 H                    -0.67086   0.86509   1.92556 
 

 GradGradGradGradGradGradGradGradGradGradGradGradGradGradGradGradGradGrad
 Berny optimization.
 Initialization pass.
                           ----------------------------
                           !    Initial Parameters    !
                           ! (Angstroms and Degrees)  !
 --------------------------                            --------------------------
 ! Name  Definition              Value          Derivative Info.                !
 --------------------------------------------------------------------------------
 ! R1    R(1,2)                  1.07           estimate D2E/DX2                !
 ! R2    R(1,3)                  1.07           estimate D2E/DX2                !
 ! R3    R(1,4)                  1.07           estimate D2E/DX2                !
 ! R4    R(1,17)                 1.47           estimate D2E/DX2                !
 ! R5    R(5,6)                  1.07           estimate D2E/DX2                !
 ! R6    R(5,7)                  1.07           estimate D2E/DX2                !
 ! R7    R(5,8)                  1.5426         estimate D2E/DX2                !
 ! R8    R(5,17)                 1.4869         estimate D2E/DX2                !
 ! R9    R(8,9)                  1.07           estimate D2E/DX2                !
 ! R10   R(8,10)                 1.07           estimate D2E/DX2                !
 ! R11   R(8,18)                 1.5209         estimate D2E/DX2                !
 ! R12   R(11,12)                1.07           estimate D2E/DX2                !
 ! R13   R(11,13)                1.07           estimate D2E/DX2                !
 ! R14   R(11,14)                1.5426         estimate D2E/DX2                !
 ! R15   R(11,18)                1.5209         estimate D2E/DX2                !
 ! R16   R(14,15)                1.07           estimate D2E/DX2                !
 ! R17   R(14,16)                1.07           estimate D2E/DX2                !
 ! R18   R(14,17)                1.4869         estimate D2E/DX2                !
 ! R19   R(18,19)                1.07           estimate D2E/DX2                !
 ! R20   R(18,20)                1.07           estimate D2E/DX2                !
 ! A1    A(2,1,3)              109.4712         estimate D2E/DX2                !
 ! A2    A(2,1,4)              109.4712         estimate D2E/DX2                !
 ! A3    A(2,1,17)             109.4712         estimate D2E/DX2                !
 ! A4    A(3,1,4)              109.4712         estimate D2E/DX2                !
 ! A5    A(3,1,17)             109.4712         estimate D2E/DX2                !
 ! A6    A(4,1,17)             109.4712         estimate D2E/DX2                !
 ! A7    A(6,5,7)              109.8726         estimate D2E/DX2                !
 ! A8    A(6,5,8)              109.7657         estimate D2E/DX2                !
 ! A9    A(6,5,17)             103.6123         estimate D2E/DX2                !
 ! A10   A(7,5,8)              108.1906         estimate D2E/DX2                !
 ! A11   A(7,5,17)             114.2665         estimate D2E/DX2                !
 ! A12   A(8,5,17)             111.038          estimate D2E/DX2                !
 ! A13   A(5,8,9)              108.1895         estimate D2E/DX2                !
 ! A14   A(5,8,10)             111.5806         estimate D2E/DX2                !
 ! A15   A(5,8,18)             107.8934         estimate D2E/DX2                !
 ! A16   A(9,8,10)             109.4615         estimate D2E/DX2                !
 ! A17   A(9,8,18)             115.2416         estimate D2E/DX2                !
 ! A18   A(10,8,18)            104.4916         estimate D2E/DX2                !
 ! A19   A(12,11,13)           109.4615         estimate D2E/DX2                !
 ! A20   A(12,11,14)           111.5806         estimate D2E/DX2                !
 ! A21   A(12,11,18)           104.4916         estimate D2E/DX2                !
 ! A22   A(13,11,14)           108.1895         estimate D2E/DX2                !
 ! A23   A(13,11,18)           115.2416         estimate D2E/DX2                !
 ! A24   A(14,11,18)           107.8934         estimate D2E/DX2                !
 ! A25   A(11,14,15)           108.1906         estimate D2E/DX2                !
 ! A26   A(11,14,16)           109.7657         estimate D2E/DX2                !
 ! A27   A(11,14,17)           111.038          estimate D2E/DX2                !
 ! A28   A(15,14,16)           109.8726         estimate D2E/DX2                !
 ! A29   A(15,14,17)           114.2665         estimate D2E/DX2                !
 ! A30   A(16,14,17)           103.6123         estimate D2E/DX2                !
 ! A31   A(1,17,5)             111.6536         estimate D2E/DX2                !
 ! A32   A(1,17,14)            111.6536         estimate D2E/DX2                !
 ! A33   A(5,17,14)             96.7279         estimate D2E/DX2                !
 ! A34   A(8,18,11)            115.9285         estimate D2E/DX2                !
 ! A35   A(8,18,19)            110.4059         estimate D2E/DX2                !
 ! A36   A(8,18,20)            104.6517         estimate D2E/DX2                !
 ! A37   A(11,18,19)           110.4059         estimate D2E/DX2                !
 ! A38   A(11,18,20)           104.6517         estimate D2E/DX2                !
 ! A39   A(19,18,20)           110.4253         estimate D2E/DX2                !
 ! D1    D(2,1,17,5)            66.4741         estimate D2E/DX2                !
 ! D2    D(2,1,17,14)          173.5259         estimate D2E/DX2                !
 ! D3    D(3,1,17,5)          -173.5259         estimate D2E/DX2                !
 ! D4    D(3,1,17,14)          -66.4741         estimate D2E/DX2                !
 ! D5    D(4,1,17,5)           -53.5259         estimate D2E/DX2                !
 ! D6    D(4,1,17,14)           53.5259         estimate D2E/DX2                !
 ! D7    D(6,5,8,9)            -30.8534         estimate D2E/DX2                !
 ! D8    D(6,5,8,10)          -151.3243         estimate D2E/DX2                !
 ! D9    D(6,5,8,18)            94.4404         estimate D2E/DX2                !
 ! D10   D(7,5,8,9)             89.0339         estimate D2E/DX2                !
 ! D11   D(7,5,8,10)           -31.437          estimate D2E/DX2                !
 ! D12   D(7,5,8,18)          -145.6723         estimate D2E/DX2                !
 ! D13   D(17,5,8,9)          -144.8172         estimate D2E/DX2                !
 ! D14   D(17,5,8,10)           94.7119         estimate D2E/DX2                !
 ! D15   D(17,5,8,18)          -19.5234         estimate D2E/DX2                !
 ! D16   D(6,5,17,1)            74.4801         estimate D2E/DX2                !
 ! D17   D(6,5,17,14)          -42.0455         estimate D2E/DX2                !
 ! D18   D(7,5,17,1)           -45.046          estimate D2E/DX2                !
 ! D19   D(7,5,17,14)         -161.5715         estimate D2E/DX2                !
 ! D20   D(8,5,17,1)          -167.7491         estimate D2E/DX2                !
 ! D21   D(8,5,17,14)           75.7253         estimate D2E/DX2                !
 ! D22   D(5,8,18,11)          -41.8768         estimate D2E/DX2                !
 ! D23   D(5,8,18,19)         -168.3553         estimate D2E/DX2                !
 ! D24   D(5,8,18,20)           72.8201         estimate D2E/DX2                !
 ! D25   D(9,8,18,11)           79.112          estimate D2E/DX2                !
 ! D26   D(9,8,18,19)          -47.3665         estimate D2E/DX2                !
 ! D27   D(9,8,18,20)         -166.191          estimate D2E/DX2                !
 ! D28   D(10,8,18,11)        -160.7357         estimate D2E/DX2                !
 ! D29   D(10,8,18,19)          72.7858         estimate D2E/DX2                !
 ! D30   D(10,8,18,20)         -46.0388         estimate D2E/DX2                !
 ! D31   D(12,11,14,15)         31.437          estimate D2E/DX2                !
 ! D32   D(12,11,14,16)        151.3243         estimate D2E/DX2                !
 ! D33   D(12,11,14,17)        -94.7119         estimate D2E/DX2                !
 ! D34   D(13,11,14,15)        -89.0339         estimate D2E/DX2                !
 ! D35   D(13,11,14,16)         30.8534         estimate D2E/DX2                !
 ! D36   D(13,11,14,17)        144.8172         estimate D2E/DX2                !
 ! D37   D(18,11,14,15)        145.6723         estimate D2E/DX2                !
 ! D38   D(18,11,14,16)        -94.4404         estimate D2E/DX2                !
 ! D39   D(18,11,14,17)         19.5234         estimate D2E/DX2                !
 ! D40   D(12,11,18,8)         160.7357         estimate D2E/DX2                !
 ! D41   D(12,11,18,19)        -72.7858         estimate D2E/DX2                !
 ! D42   D(12,11,18,20)         46.0388         estimate D2E/DX2                !
 ! D43   D(13,11,18,8)         -79.112          estimate D2E/DX2                !
 ! D44   D(13,11,18,19)         47.3665         estimate D2E/DX2                !
 ! D45   D(13,11,18,20)        166.191          estimate D2E/DX2                !
 ! D46   D(14,11,18,8)          41.8768         estimate D2E/DX2                !
 ! D47   D(14,11,18,19)        168.3553         estimate D2E/DX2                !
 ! D48   D(14,11,18,20)        -72.8201         estimate D2E/DX2                !
 ! D49   D(11,14,17,1)         167.7491         estimate D2E/DX2                !
 ! D50   D(11,14,17,5)         -75.7253         estimate D2E/DX2                !
 ! D51   D(15,14,17,1)          45.046          estimate D2E/DX2                !
 ! D52   D(15,14,17,5)         161.5715         estimate D2E/DX2                !
 ! D53   D(16,14,17,1)         -74.4801         estimate D2E/DX2                !
 ! D54   D(16,14,17,5)          42.0455         estimate D2E/DX2                !
 --------------------------------------------------------------------------------
 Trust Radius=3.00D-01 FncErr=1.00D-07 GrdErr=1.00D-06
 Number of steps in this run=    120 maximum allowed number of steps=    120.
 GradGradGradGradGradGradGradGradGradGradGradGradGradGradGradGradGradGrad

                          Input orientation:                          
 ---------------------------------------------------------------------
 Center     Atomic      Atomic             Coordinates (Angstroms)
 Number     Number       Type             X           Y           Z
 ---------------------------------------------------------------------
      1          6           0        1.008028    3.412110   -0.383717
      2          1           0        0.255593    4.171084   -0.435683
      3          1           0        1.813957    3.750523    0.233418
      4          1           0        1.374614    3.205353   -1.367468
      5          6           0       -0.591086    1.589206   -0.707043
      6          1           0       -0.010360    1.146737   -1.489269
      7          1           0       -1.280947    2.294774   -1.120766
      8          6           0       -1.399248    0.497460    0.024115
      9          1           0       -1.630430   -0.274671   -0.679638
     10          1           0       -2.306464    0.888326    0.435314
     11          6           0        0.900466   -0.123173    1.011523
     12          1           0        1.323442   -0.091291    1.993855
     13          1           0        1.186262   -1.034823    0.529741
     14          6           0        1.391097    1.054267    0.144030
     15          1           0        2.384224    1.305640    0.452916
     16          1           0        1.392306    0.768194   -0.887018
     17          7           0        0.430907    2.188536    0.191346
     18          6           0       -0.593748    0.051670    1.234688
     19          1           0       -1.014570   -0.837301    1.656040
     20          1           0       -0.670861    0.865089    1.925560
 ---------------------------------------------------------------------
                    Distance matrix (angstroms):
                    1          2          3          4          5
     1  C    0.000000
     2  H    1.070000   0.000000
     3  H    1.070000   1.747303   0.000000
     4  H    1.070000   1.747303   1.747303   0.000000
     5  C    2.446361   2.730677   3.367490   2.629082   0.000000
     6  H    2.718690   3.213635   3.616004   2.484127   1.070000
     7  H    2.651620   2.520086   3.678512   2.818159   1.070000
     8  C    3.802169   4.055297   4.577217   4.118677   1.542604
     9  H    4.543279   4.835426   5.375840   4.649083   2.134251
    10  H    4.245722   4.254324   5.021036   4.708394   2.176863
    11  C    3.802169   4.577217   4.055297   4.118677   2.847883
    12  H    4.245722   5.021036   4.254324   4.708394   3.712726
    13  H    4.543279   5.375840   4.835426   4.649083   3.402078
    14  C    2.446361   3.367490   2.730677   2.629082   2.222507
    15  H    2.651620   3.678512   2.520086   2.818159   3.205992
    16  H    2.718690   3.616004   3.213635   2.484127   2.154135
    17  N    1.470000   2.086720   2.086720   2.086720   1.486865
    18  C    4.059246   4.525604   4.525604   4.537772   2.476760
    19  H    5.129231   5.574276   5.574276   5.585057   3.413421
    20  H    3.826061   4.166941   4.166941   4.528227   2.731539
                    6          7          8          9         10
     6  H    0.000000
     7  H    1.751620   0.000000
     8  C    2.154275   2.134265   0.000000
     9  H    2.302288   2.630358   1.070000   0.000000
    10  H    3.007139   2.334773   1.070000   1.747198   0.000000
    11  C    2.948938   3.892517   2.578536   3.047690   3.411677
    12  H    3.929872   4.709247   3.411677   3.988302   4.070001
    13  H    3.204296   4.460662   3.047690   3.158193   3.988302
    14  C    2.154135   3.205992   2.847883   3.402078   3.712726
    15  H    3.087291   4.109542   3.892517   4.460662   4.709247
    16  H    1.572728   3.087291   2.948938   3.204296   3.929872
    17  N    2.025963   2.159484   2.497433   3.327929   3.040274
    18  C    2.993235   3.324443   1.520870   2.201330   2.066975
    19  H    3.851989   4.194223   2.143069   2.480167   2.477287
    20  H    3.489505   3.419986   2.069104   3.001147   2.212819
                   11         12         13         14         15
    11  C    0.000000
    12  H    1.070000   0.000000
    13  H    1.070000   1.747198   0.000000
    14  C    1.542604   2.176863   2.134251   0.000000
    15  H    2.134265   2.334773   2.630358   1.070000   0.000000
    16  H    2.154275   3.007139   2.302288   1.070000   1.751620
    17  N    2.497433   3.040274   3.327929   1.486865   2.159484
    18  C    1.520870   2.066975   2.201330   2.476761   3.324443
    19  H    2.143069   2.477287   2.480167   3.413421   4.194223
    20  H    2.069104   2.212819   3.001147   2.731539   3.419986
                   16         17         18         19         20
    16  H    0.000000
    17  N    2.025963   0.000000
    18  C    2.993235   2.589339   0.000000
    19  H    3.851989   3.659293   1.070000   0.000000
    20  H    3.489505   2.443952   1.070000   1.757529   0.000000
 Stoichiometry    C6H13N
 Framework group  CS[SG(C2H3N),X(C4H10)]
 Deg. of freedom    30
 Full point group                 CS      NOp   2
 Largest Abelian subgroup         CS      NOp   2
 Largest concise Abelian subgroup CS      NOp   2
                         Standard orientation:                         
 ---------------------------------------------------------------------
 Center     Atomic      Atomic             Coordinates (Angstroms)
 Number     Number       Type             X           Y           Z
 ---------------------------------------------------------------------
      1          6           0        0.786129    2.244901    0.000000
      2          1           0        1.341667    2.515107    0.873651
      3          1           0        1.341667    2.515107   -0.873651
      4          1           0       -0.151538    2.760343    0.000000
      5          6           0       -0.351667    0.386078    1.111253
      6          1           0       -1.317441    0.712616    0.786364
      7          1           0       -0.115330    0.831970    2.054771
      8          6           0       -0.351667   -1.146220    1.289268
      9          1           0       -1.336217   -1.448808    1.579097
     10          1           0        0.350437   -1.455788    2.035001
     11          6           0       -0.351667   -1.146220   -1.289268
     12          1           0        0.350437   -1.455788   -2.035001
     13          1           0       -1.336217   -1.448808   -1.579097
     14          6           0       -0.351667    0.386078   -1.111253
     15          1           0       -0.115330    0.831970   -2.054771
     16          1           0       -1.317441    0.712616   -0.786364
     17          7           0        0.547895    0.794334    0.000000
     18          6           0        0.164258   -1.766427    0.000000
     19          1           0       -0.005881   -2.822814    0.000000
     20          1           0        1.213604   -1.557205    0.000000
 ---------------------------------------------------------------------
 Rotational constants (GHZ):      4.3285310      2.3609375      1.7689093
 Standard basis: 6-311+G(d,p) (5D, 7F)
 There are   142 symmetry adapted cartesian basis functions of A'  symmetry.
 There are    97 symmetry adapted cartesian basis functions of A"  symmetry.
 There are   137 symmetry adapted basis functions of A'  symmetry.
 There are    95 symmetry adapted basis functions of A"  symmetry.
   232 basis functions,   356 primitive gaussians,   239 cartesian basis functions
    28 alpha electrons       28 beta electrons
       nuclear repulsion energy       338.3493973934 Hartrees.
 NAtoms=   20 NActive=   20 NUniq=   13 SFac= 2.37D+00 NAtFMM=   60 NAOKFM=F Big=F
 Integral buffers will be    131072 words long.
 Raffenetti 2 integral format.
 Two-electron integral symmetry is turned on.
 One-electron integrals computed using PRISM.
 NBasis=   232 RedAO= T EigKep=  1.29D-05  NBF=   137    95
 NBsUse=   232 1.00D-06 EigRej= -1.00D+00 NBFU=   137    95
 ExpMin= 4.38D-02 ExpMax= 6.29D+03 ExpMxC= 9.49D+02 IAcc=2 IRadAn=         4 AccDes= 0.00D+00
 Harris functional with IExCor=  402 and IRadAn=       4 diagonalized for initial guess.
 HarFok:  IExCor=  402 AccDes= 0.00D+00 IRadAn=         4 IDoV= 1 UseB2=F ITyADJ=14
 ICtDFT=  3500011 ScaDFX=  1.000000  1.000000  1.000000  1.000000
 FoFCou: FMM=F IPFlag=           0 FMFlag=      100000 FMFlg1=           0
         NFxFlg=           0 DoJE=T BraDBF=F KetDBF=T FulRan=T
         wScrn=  0.000000 ICntrl=     500 IOpCl=  0 I1Cent=   200000004 NGrid=           0
         NMat0=    1 NMatS0=      1 NMatT0=    0 NMatD0=    1 NMtDS0=    0 NMtDT0=    0
 Petite list used in FoFCou.
 Initial guess orbital symmetries:
       Occupied  (A') (A') (A') (A") (A') (A") (A') (A') (A') (A")
                 (A') (A') (A") (A') (A') (A') (A") (A') (A") (A')
                 (A') (A") (A") (A') (A") (A') (A") (A')
       Virtual   (A') (A') (A') (A') (A") (A") (A') (A') (A") (A')
                 (A') (A") (A") (A') (A') (A") (A') (A") (A') (A')
                 (A") (A') (A') (A") (A') (A") (A') (A") (A') (A")
                 (A') (A') (A") (A') (A") (A") (A') (A') (A") (A')
                 (A') (A') (A") (A') (A") (A") (A') (A') (A") (A')
                 (A') (A") (A') (A') (A") (A') (A") (A') (A') (A")
                 (A') (A") (A') (A") (A') (A") (A') (A') (A") (A")
                 (A') (A') (A") (A') (A") (A') (A') (A") (A') (A')
                 (A') (A") (A') (A') (A") (A") (A') (A') (A") (A')
                 (A") (A') (A') (A") (A") (A') (A") (A') (A') (A")
                 (A') (A") (A') (A") (A") (A') (A') (A") (A') (A")
                 (A') (A") (A') (A') (A") (A') (A") (A') (A') (A")
                 (A') (A") (A') (A") (A') (A") (A') (A') (A") (A")
                 (A') (A") (A') (A') (A") (A') (A") (A') (A') (A')
                 (A") (A") (A") (A') (A") (A') (A') (A') (A") (A')
                 (A') (A") (A') (A') (A") (A') (A") (A') (A") (A")
                 (A') (A') (A") (A') (A') (A") (A') (A") (A') (A")
                 (A") (A') (A") (A') (A') (A') (A") (A') (A") (A')
                 (A") (A') (A') (A') (A") (A') (A") (A') (A') (A")
                 (A') (A") (A') (A") (A') (A") (A') (A') (A") (A')
                 (A') (A') (A") (A')
 The electronic state of the initial guess is 1-A'.
 Requested convergence on RMS density matrix=1.00D-08 within 128 cycles.
 Requested convergence on MAX density matrix=1.00D-06.
 Requested convergence on             energy=1.00D-06.
 No special actions if energy rises.
 SCF Done:  E(RB3LYP) =  -291.256328574     A.U. after   12 cycles
            NFock= 12  Conv=0.47D-08     -V/T= 2.0028

 **********************************************************************

            Population analysis using the SCF density.

 **********************************************************************

 Orbital symmetries:
       Occupied  (A') (A") (A') (A') (A") (A') (A') (A') (A') (A")
                 (A') (A') (A") (A') (A') (A') (A") (A') (A") (A')
                 (A') (A") (A") (A") (A') (A') (A") (A')
       Virtual   (A') (A') (A') (A") (A') (A") (A') (A') (A") (A')
                 (A") (A') (A') (A") (A') (A") (A') (A") (A') (A")
                 (A') (A') (A") (A') (A") (A') (A') (A") (A') (A")
                 (A') (A") (A') (A') (A") (A') (A') (A") (A') (A')
                 (A") (A') (A") (A') (A") (A") (A') (A') (A") (A')
                 (A') (A") (A') (A") (A') (A') (A") (A') (A') (A")
                 (A') (A") (A') (A') (A") (A") (A') (A") (A') (A")
                 (A') (A') (A") (A') (A") (A') (A") (A') (A') (A')
                 (A') (A") (A') (A') (A") (A") (A') (A') (A') (A")
                 (A') (A') (A") (A") (A") (A') (A") (A') (A') (A")
                 (A") (A') (A') (A") (A") (A') (A') (A") (A') (A")
                 (A') (A') (A") (A') (A") (A') (A") (A') (A') (A")
                 (A') (A") (A') (A") (A') (A") (A') (A') (A") (A")
                 (A') (A') (A") (A') (A") (A') (A") (A') (A') (A')
                 (A") (A") (A") (A') (A") (A') (A') (A') (A") (A')
                 (A') (A") (A') (A') (A") (A') (A") (A') (A") (A')
                 (A") (A') (A") (A') (A") (A') (A") (A') (A') (A")
                 (A') (A") (A') (A") (A') (A') (A") (A') (A") (A')
                 (A") (A') (A') (A') (A") (A') (A") (A') (A') (A")
                 (A') (A") (A') (A") (A') (A") (A') (A') (A") (A')
                 (A') (A") (A') (A')
 The electronic state is 1-A'.
 Alpha  occ. eigenvalues --  -14.30268 -10.17909 -10.17908 -10.17791 -10.15423
 Alpha  occ. eigenvalues --  -10.15423 -10.14762  -0.92786  -0.79630  -0.74575
 Alpha  occ. eigenvalues --   -0.70173  -0.62314  -0.61835  -0.54391  -0.49686
 Alpha  occ. eigenvalues --   -0.48816  -0.46260  -0.43519  -0.41783  -0.40254
 Alpha  occ. eigenvalues --   -0.39265  -0.38232  -0.35899  -0.34630  -0.33061
 Alpha  occ. eigenvalues --   -0.31112  -0.30148  -0.22567
 Alpha virt. eigenvalues --    0.00728   0.01880   0.02442   0.02537   0.04439
 Alpha virt. eigenvalues --    0.04575   0.05304   0.05599   0.05752   0.07411
 Alpha virt. eigenvalues --    0.08560   0.08586   0.09140   0.09953   0.10817
 Alpha virt. eigenvalues --    0.11124   0.13407   0.13471   0.14035   0.14091
 Alpha virt. eigenvalues --    0.14964   0.16353   0.16564   0.18114   0.18397
 Alpha virt. eigenvalues --    0.18903   0.19827   0.20322   0.20855   0.21992
 Alpha virt. eigenvalues --    0.22349   0.23186   0.23446   0.24417   0.25293
 Alpha virt. eigenvalues --    0.25622   0.26733   0.27138   0.27636   0.28788
 Alpha virt. eigenvalues --    0.29289   0.30127   0.30812   0.32226   0.32997
 Alpha virt. eigenvalues --    0.34630   0.35273   0.39962   0.41680   0.42369
 Alpha virt. eigenvalues --    0.45691   0.46499   0.47895   0.49671   0.50660
 Alpha virt. eigenvalues --    0.53342   0.53384   0.54589   0.56558   0.59311
 Alpha virt. eigenvalues --    0.60496   0.61321   0.63098   0.63504   0.63679
 Alpha virt. eigenvalues --    0.67140   0.67961   0.69096   0.70450   0.71018
 Alpha virt. eigenvalues --    0.71747   0.72459   0.72622   0.74184   0.75021
 Alpha virt. eigenvalues --    0.75543   0.76439   0.77408   0.79669   0.81666
 Alpha virt. eigenvalues --    0.88054   0.89124   0.94279   0.98239   1.00074
 Alpha virt. eigenvalues --    1.04787   1.05585   1.08277   1.12202   1.13498
 Alpha virt. eigenvalues --    1.23886   1.25062   1.25163   1.30006   1.31851
 Alpha virt. eigenvalues --    1.36411   1.40712   1.45161   1.47622   1.47721
 Alpha virt. eigenvalues --    1.51458   1.51713   1.54446   1.55515   1.56236
 Alpha virt. eigenvalues --    1.57550   1.58242   1.58309   1.60349   1.61479
 Alpha virt. eigenvalues --    1.63026   1.66058   1.66715   1.69006   1.70638
 Alpha virt. eigenvalues --    1.71720   1.73006   1.73819   1.75065   1.75133
 Alpha virt. eigenvalues --    1.77507   1.78964   1.83288   1.84711   1.87135
 Alpha virt. eigenvalues --    1.91376   1.92192   1.95652   1.97209   2.01598
 Alpha virt. eigenvalues --    2.05354   2.09611   2.10953   2.11824   2.14842
 Alpha virt. eigenvalues --    2.16204   2.18812   2.22361   2.23274   2.26067
 Alpha virt. eigenvalues --    2.27455   2.31640   2.34678   2.40886   2.42237
 Alpha virt. eigenvalues --    2.44304   2.47550   2.49648   2.51016   2.52711
 Alpha virt. eigenvalues --    2.56305   2.56877   2.57923   2.58596   2.60574
 Alpha virt. eigenvalues --    2.60848   2.64141   2.65015   2.65028   2.70967
 Alpha virt. eigenvalues --    2.70992   2.75006   2.75389   2.76708   2.77561
 Alpha virt. eigenvalues --    2.79105   2.84145   2.84153   2.86145   2.88097
 Alpha virt. eigenvalues --    2.91493   2.92046   2.96979   2.97654   2.99177
 Alpha virt. eigenvalues --    3.02140   3.15457   3.17035   3.29204   3.40614
 Alpha virt. eigenvalues --    3.54724   3.57205   3.69455   3.75045   3.77143
 Alpha virt. eigenvalues --    3.84683   3.86797   3.95277   3.99230   4.00800
 Alpha virt. eigenvalues --    4.16829   4.18638   4.24343   4.35776   4.41534
 Alpha virt. eigenvalues --    4.80521   4.91041  23.89025  23.96266  23.96425
 Alpha virt. eigenvalues --   24.00066  24.00589  24.02000  35.57543
          Condensed to atoms (all electrons):
               1          2          3          4          5          6
     1  C    5.052792   0.421718   0.421718   0.390349  -0.161722   0.007588
     2  H    0.421718   0.545143  -0.020879  -0.042703   0.005984  -0.002723
     3  H    0.421718  -0.020879   0.545143  -0.042703   0.013142  -0.001288
     4  H    0.390349  -0.042703  -0.042703   0.620607  -0.003210   0.019136
     5  C   -0.161722   0.005984   0.013142  -0.003210   6.301651   0.427937
     6  H    0.007588  -0.002723  -0.001288   0.019136   0.427937   0.625352
     7  H   -0.011191   0.004072   0.000416  -0.001356   0.389278  -0.032815
     8  C   -0.003431  -0.007249  -0.006226   0.010112  -0.322173  -0.061193
     9  H    0.000094  -0.000027   0.000035   0.000023  -0.038053  -0.012599
    10  H    0.001622  -0.000085   0.000004   0.000053  -0.038314   0.007671
    11  C   -0.003431  -0.006226  -0.007249   0.010112   0.128784  -0.013943
    12  H    0.001622   0.000004  -0.000085   0.000053  -0.012312  -0.000219
    13  H    0.000094   0.000035  -0.000027   0.000023   0.005420   0.000048
    14  C   -0.161722   0.013142   0.005984  -0.003210  -0.589615  -0.004677
    15  H   -0.011191   0.000416   0.004072  -0.001356   0.021031   0.002331
    16  H    0.007588  -0.001288  -0.002723   0.019136  -0.004677   0.029246
    17  N    0.306974  -0.049493  -0.049493  -0.080309   0.169354  -0.100285
    18  C   -0.025120   0.004206   0.004206  -0.008732   0.064850  -0.009114
    19  H   -0.000029  -0.000011  -0.000011   0.000039   0.025276   0.000202
    20  H   -0.001374   0.000059   0.000059  -0.000101   0.011014  -0.001341
               7          8          9         10         11         12
     1  C   -0.011191  -0.003431   0.000094   0.001622  -0.003431   0.001622
     2  H    0.004072  -0.007249  -0.000027  -0.000085  -0.006226   0.000004
     3  H    0.000416  -0.006226   0.000035   0.000004  -0.007249  -0.000085
     4  H   -0.001356   0.010112   0.000023   0.000053   0.010112   0.000053
     5  C    0.389278  -0.322173  -0.038053  -0.038314   0.128784  -0.012312
     6  H   -0.032815  -0.061193  -0.012599   0.007671  -0.013943  -0.000219
     7  H    0.543245  -0.006242   0.001344  -0.012714  -0.002118   0.000156
     8  C   -0.006242   5.734742   0.418400   0.427517  -0.030878   0.029729
     9  H    0.001344   0.418400   0.551044  -0.031025  -0.015884  -0.000363
    10  H   -0.012714   0.427517  -0.031025   0.553564   0.029729  -0.000827
    11  C   -0.002118  -0.030878  -0.015884   0.029729   5.734742   0.427517
    12  H    0.000156   0.029729  -0.000363  -0.000827   0.427517   0.553564
    13  H   -0.000041  -0.015884   0.003077  -0.000363   0.418400  -0.031025
    14  C    0.021031   0.128784   0.005420  -0.012312  -0.322173  -0.038314
    15  H   -0.000692  -0.002118  -0.000041   0.000156  -0.006242  -0.012714
    16  H    0.002331  -0.013943   0.000048  -0.000219  -0.061193   0.007671
    17  N   -0.045833  -0.035165   0.013398   0.007466  -0.035165   0.007466
    18  C    0.008805   0.103934  -0.035633  -0.057900   0.103934  -0.057900
    19  H   -0.000299  -0.038542  -0.007779  -0.001835  -0.038542  -0.001835
    20  H   -0.000228  -0.099661   0.008179  -0.014867  -0.099661  -0.014867
              13         14         15         16         17         18
     1  C    0.000094  -0.161722  -0.011191   0.007588   0.306974  -0.025120
     2  H    0.000035   0.013142   0.000416  -0.001288  -0.049493   0.004206
     3  H   -0.000027   0.005984   0.004072  -0.002723  -0.049493   0.004206
     4  H    0.000023  -0.003210  -0.001356   0.019136  -0.080309  -0.008732
     5  C    0.005420  -0.589615   0.021031  -0.004677   0.169354   0.064850
     6  H    0.000048  -0.004677   0.002331   0.029246  -0.100285  -0.009114
     7  H   -0.000041   0.021031  -0.000692   0.002331  -0.045833   0.008805
     8  C   -0.015884   0.128784  -0.002118  -0.013943  -0.035165   0.103934
     9  H    0.003077   0.005420  -0.000041   0.000048   0.013398  -0.035633
    10  H   -0.000363  -0.012312   0.000156  -0.000219   0.007466  -0.057900
    11  C    0.418400  -0.322173  -0.006242  -0.061193  -0.035165   0.103934
    12  H   -0.031025  -0.038314  -0.012714   0.007671   0.007466  -0.057900
    13  H    0.551044  -0.038053   0.001344  -0.012599   0.013398  -0.035633
    14  C   -0.038053   6.301651   0.389278   0.427937   0.169354   0.064850
    15  H    0.001344   0.389278   0.543245  -0.032815  -0.045833   0.008805
    16  H   -0.012599   0.427937  -0.032815   0.625352  -0.100285  -0.009114
    17  N    0.013398   0.169354  -0.045833  -0.100285   6.941617  -0.108702
    18  C   -0.035633   0.064850   0.008805  -0.009114  -0.108702   5.438139
    19  H   -0.007779   0.025276  -0.000299   0.000202  -0.002126   0.380773
    20  H    0.008179   0.011014  -0.000228  -0.001341  -0.003148   0.534266
              19         20
     1  C   -0.000029  -0.001374
     2  H   -0.000011   0.000059
     3  H   -0.000011   0.000059
     4  H    0.000039  -0.000101
     5  C    0.025276   0.011014
     6  H    0.000202  -0.001341
     7  H   -0.000299  -0.000228
     8  C   -0.038542  -0.099661
     9  H   -0.007779   0.008179
    10  H   -0.001835  -0.014867
    11  C   -0.038542  -0.099661
    12  H   -0.001835  -0.014867
    13  H   -0.007779   0.008179
    14  C    0.025276   0.011014
    15  H   -0.000299  -0.000228
    16  H    0.000202  -0.001341
    17  N   -0.002126  -0.003148
    18  C    0.380773   0.534266
    19  H    0.556139  -0.028105
    20  H   -0.028105   0.527020
 Mulliken charges:
               1
     1  C   -0.232949
     2  H    0.135905
     3  H    0.135905
     4  H    0.114036
     5  C   -0.393646
     6  H    0.120686
     7  H    0.142852
     8  C   -0.210513
     9  H    0.140342
    10  H    0.142677
    11  C   -0.210513
    12  H    0.142677
    13  H    0.140342
    14  C   -0.393646
    15  H    0.142852
    16  H    0.120686
    17  N    0.026811
    18  C   -0.368920
    19  H    0.139281
    20  H    0.165134
 Sum of Mulliken charges =   0.00000
 Mulliken charges with hydrogens summed into heavy atoms:
               1
     1  C    0.152897
     5  C   -0.130108
     8  C    0.072507
    11  C    0.072507
    14  C   -0.130108
    17  N    0.026811
    18  C   -0.064505
 Electronic spatial extent (au):  <R**2>=            791.8890
 Charge=              0.0000 electrons
 Dipole moment (field-independent basis, Debye):
    X=             -0.6217    Y=              0.3458    Z=              0.0000  Tot=              0.7114
 Quadrupole moment (field-independent basis, Debye-Ang):
   XX=            -47.4558   YY=            -45.5076   ZZ=            -45.0249
   XY=              0.8805   XZ=              0.0000   YZ=              0.0000
 Traceless Quadrupole moment (field-independent basis, Debye-Ang):
   XX=             -1.4597   YY=              0.4885   ZZ=              0.9712
   XY=              0.8805   XZ=              0.0000   YZ=              0.0000
 Octapole moment (field-independent basis, Debye-Ang**2):
  XXX=             -0.5670  YYY=              2.9295  ZZZ=              0.0000  XYY=              3.2861
  XXY=              0.0510  XXZ=              0.0000  XZZ=              2.9799  YZZ=              1.8069
  YYZ=              0.0000  XYZ=              0.0000
 Hexadecapole moment (field-independent basis, Debye-Ang**3):
 XXXX=           -158.8947 YYYY=           -616.6283 ZZZZ=           -340.8199 XXXY=            -46.8043
 XXXZ=              0.0000 YYYX=            -40.5408 YYYZ=              0.0000 ZZZX=              0.0000
 ZZZY=              0.0000 XXYY=           -125.2660 XXZZ=            -81.9666 YYZZ=           -159.1202
 XXYZ=              0.0000 YYXZ=              0.0000 ZZXY=            -14.5698
 N-N= 3.383493973934D+02 E-N=-1.352493994768D+03  KE= 2.904291085933D+02
 Symmetry A'   KE= 2.059505288740D+02
 Symmetry A"   KE= 8.447857971921D+01
 There are a total of      164258 grid points.
 ElSum from          density=       56.0000798765
 ElSum from atomic densities=       56.0001575997

 Hirshfeld populations at iteration   1 (CX, CA, CB, DipXYZ):
               1          2          3          4          5          6
     1  C    0.000000   3.024090   3.024090   0.006026  -0.021443   0.000000
     2  H    0.000000   0.479123   0.479123   0.080030   0.040097   0.119479
     3  H    0.000000   0.479123   0.479123   0.080030   0.040097  -0.119479
     4  H    0.000001   0.488455   0.488455  -0.107205   0.060874   0.000000
     5  C    0.000000   3.006512   3.006512   0.039855  -0.013856   0.000171
     6  H    0.000000   0.491075   0.491075  -0.111361   0.031462  -0.028463
     7  H    0.000000   0.482724   0.482724   0.030700   0.048766   0.133010
     8  C    0.000000   3.030016   3.030016  -0.004789   0.007294  -0.002531
     9  H    0.000000   0.483938   0.483938  -0.134222  -0.038825   0.039909
    10  H    0.000000   0.482828   0.482828   0.102270  -0.045495   0.096269
    11  C    0.000000   3.030016   3.030016  -0.004789   0.007294   0.002531
    12  H    0.000000   0.482828   0.482828   0.102270  -0.045495  -0.096269
    13  H    0.000000   0.483938   0.483938  -0.134222  -0.038825  -0.039909
    14  C    0.000000   3.006512   3.006512   0.039855  -0.013856  -0.000171
    15  H    0.000000   0.482724   0.482724   0.030700   0.048766  -0.133010
    16  H    0.000000   0.491075   0.491075  -0.111361   0.031462   0.028463
    17  N    0.000000   3.573107   3.573107  -0.133341   0.073232   0.000000
    18  C    0.000000   3.032095   3.032095  -0.030259   0.001344   0.000000
    19  H    0.000000   0.485092   0.485092  -0.029863  -0.141300   0.000000
    20  H    0.000000   0.484769   0.484769   0.136597   0.012202   0.000000
       Tot   0.000005  28.000040  28.000040  -0.153079   0.043794   0.000000

 Dip from Atomic Chgs             -0.091831   0.091966   0.000000
         Total Dipole             -0.244911   0.135761   0.000000

 Hirshfeld charges, spin densities, dipoles, and CM5 charges using IRadAn=      4:
              Q-H        S-H        Dx         Dy         Dz        Q-CM5   
     1  C   -0.048181   0.000000   0.006026  -0.021443   0.000000  -0.148359
     2  H    0.041755   0.000000   0.080030   0.040097   0.119479   0.105791
     3  H    0.041755   0.000000   0.080030   0.040097  -0.119479   0.105791
     4  H    0.023090   0.000000  -0.107205   0.060874   0.000000   0.088265
     5  C   -0.013025   0.000000   0.039855  -0.013856   0.000171  -0.075205
     6  H    0.017850   0.000000  -0.111361   0.031462  -0.028463   0.091545
     7  H    0.034552   0.000000   0.030700   0.048766   0.133010   0.100537
     8  C   -0.060031   0.000000  -0.004789   0.007294  -0.002531  -0.172094
     9  H    0.032124   0.000000  -0.134222  -0.038825   0.039909   0.090124
    10  H    0.034344   0.000000   0.102270  -0.045495   0.096269   0.093505
    11  C   -0.060031   0.000000  -0.004789   0.007294   0.002531  -0.172094
    12  H    0.034344   0.000000   0.102270  -0.045495  -0.096269   0.093505
    13  H    0.032124   0.000000  -0.134222  -0.038825  -0.039909   0.090124
    14  C   -0.013025   0.000000   0.039855  -0.013856  -0.000171  -0.075205
    15  H    0.034552   0.000000   0.030700   0.048766  -0.133010   0.100537
    16  H    0.017850   0.000000  -0.111361   0.031462   0.028463   0.091545
    17  N   -0.146215   0.000000  -0.133341   0.073232   0.000000  -0.415070
    18  C   -0.064190   0.000000  -0.030259   0.001344   0.000000  -0.177092
    19  H    0.029817   0.000000  -0.029863  -0.141300   0.000000   0.087645
    20  H    0.030461   0.000000   0.136597   0.012202   0.000000   0.096125
       Tot  -0.000080   0.000000  -0.153079   0.043794   0.000000  -0.000080
 Hirshfeld charges with hydrogens summed into heavy atoms:
              Q-H       Q-CM5   
     1  C    0.058419   0.151487
     5  C    0.039377   0.116878
     8  C    0.006437   0.011535
    11  C    0.006437   0.011535
    14  C    0.039377   0.116878
    17  N   -0.146215  -0.415070
    18  C   -0.003911   0.006678
 
 EQQ= 0.000000000000E+00 EQD= 0.000000000000E+00 EDD=-0.204450572037E-02
 EQQ+QD+DD=-0.204450572037E-02
 
          MBS Condensed to atoms (all electrons):
               1          2          3          4          5          6
     1  C    4.757557   0.383792   0.383792   0.367849  -0.029739  -0.002231
     2  H    0.383792   0.582505  -0.022457  -0.025769  -0.002577  -0.000213
     3  H    0.383792  -0.022457   0.582505  -0.025769   0.002056  -0.000085
     4  H    0.367849  -0.025769  -0.025769   0.637616  -0.004601   0.003465
     5  C   -0.029739  -0.002577   0.002056  -0.004601   4.808315   0.374179
     6  H   -0.002231  -0.000213  -0.000085   0.003465   0.374179   0.653808
     7  H   -0.003547   0.001184   0.000047  -0.000149   0.377539  -0.025242
     8  C    0.001048   0.000024  -0.000034  -0.000037   0.361177  -0.026825
     9  H   -0.000029  -0.000001   0.000001   0.000003  -0.024297  -0.005117
    10  H   -0.000015  -0.000002   0.000001   0.000002  -0.020817   0.002184
    11  C    0.001048  -0.000034   0.000024  -0.000037  -0.004325  -0.000595
    12  H   -0.000015   0.000001  -0.000002   0.000002   0.000022   0.000006
    13  H   -0.000029   0.000001  -0.000001   0.000003  -0.000039   0.000100
    14  C   -0.029739   0.002056  -0.002577  -0.004601  -0.054021  -0.024856
    15  H   -0.003547   0.000047   0.001184  -0.000149   0.002885   0.000656
    16  H   -0.002231  -0.000085  -0.000213   0.003465  -0.024856   0.011351
    17  N    0.327700  -0.021559  -0.021559  -0.024773   0.324217  -0.031566
    18  C    0.000116   0.000004   0.000004   0.000000  -0.025812   0.000251
    19  H   -0.000001   0.000000   0.000000   0.000000   0.001665  -0.000036
    20  H   -0.000065  -0.000001  -0.000001   0.000004  -0.002959   0.000085
               7          8          9         10         11         12
     1  C   -0.003547   0.001048  -0.000029  -0.000015   0.001048  -0.000015
     2  H    0.001184   0.000024  -0.000001  -0.000002  -0.000034   0.000001
     3  H    0.000047  -0.000034   0.000001   0.000001   0.000024  -0.000002
     4  H   -0.000149  -0.000037   0.000003   0.000002  -0.000037   0.000002
     5  C    0.377539   0.361177  -0.024297  -0.020817  -0.004325   0.000022
     6  H   -0.025242  -0.026825  -0.005117   0.002184  -0.000595   0.000006
     7  H    0.604378  -0.024046   0.000919  -0.005973   0.000042   0.000003
     8  C   -0.024046   4.823065   0.380750   0.383590  -0.021945   0.001692
     9  H    0.000919   0.380750   0.609725  -0.025259  -0.000630  -0.000022
    10  H   -0.005973   0.383590  -0.025259   0.610458   0.001692  -0.000079
    11  C    0.000042  -0.021945  -0.000630   0.001692   4.823065   0.383590
    12  H    0.000003   0.001692  -0.000022  -0.000079   0.383590   0.610458
    13  H    0.000001  -0.000630   0.000418  -0.000022   0.380750  -0.025259
    14  C    0.002885  -0.004325  -0.000039   0.000022   0.361177  -0.020817
    15  H   -0.000116   0.000042   0.000001   0.000003  -0.024046  -0.005973
    16  H    0.000656  -0.000595   0.000100   0.000006  -0.026825   0.002184
    17  N   -0.017595  -0.022111   0.001074   0.000401  -0.022111   0.000401
    18  C    0.001499   0.365896  -0.019532  -0.027784   0.365896  -0.027784
    19  H   -0.000043  -0.022973  -0.003315  -0.000790  -0.022973  -0.000790
    20  H    0.000011  -0.028592   0.002520  -0.006566  -0.028592  -0.006566
              13         14         15         16         17         18
     1  C   -0.000029  -0.029739  -0.003547  -0.002231   0.327700   0.000116
     2  H    0.000001   0.002056   0.000047  -0.000085  -0.021559   0.000004
     3  H   -0.000001  -0.002577   0.001184  -0.000213  -0.021559   0.000004
     4  H    0.000003  -0.004601  -0.000149   0.003465  -0.024773   0.000000
     5  C   -0.000039  -0.054021   0.002885  -0.024856   0.324217  -0.025812
     6  H    0.000100  -0.024856   0.000656   0.011351  -0.031566   0.000251
     7  H    0.000001   0.002885  -0.000116   0.000656  -0.017595   0.001499
     8  C   -0.000630  -0.004325   0.000042  -0.000595  -0.022111   0.365896
     9  H    0.000418  -0.000039   0.000001   0.000100   0.001074  -0.019532
    10  H   -0.000022   0.000022   0.000003   0.000006   0.000401  -0.027784
    11  C    0.380750   0.361177  -0.024046  -0.026825  -0.022111   0.365896
    12  H   -0.025259  -0.020817  -0.005973   0.002184   0.000401  -0.027784
    13  H    0.609725  -0.024297   0.000919  -0.005117   0.001074  -0.019532
    14  C   -0.024297   4.808315   0.377539   0.374179   0.324217  -0.025812
    15  H    0.000919   0.377539   0.604378  -0.025242  -0.017595   0.001499
    16  H   -0.005117   0.374179  -0.025242   0.653808  -0.031566   0.000251
    17  N    0.001074   0.324217  -0.017595  -0.031566   6.605418  -0.011421
    18  C   -0.019532  -0.025812   0.001499   0.000251  -0.011421   4.817887
    19  H   -0.003315   0.001665  -0.000043  -0.000036   0.000202   0.380199
    20  H    0.002520  -0.002959   0.000011   0.000085   0.004221   0.383750
              19         20
     1  C   -0.000001  -0.000065
     2  H    0.000000  -0.000001
     3  H    0.000000  -0.000001
     4  H    0.000000   0.000004
     5  C    0.001665  -0.002959
     6  H   -0.000036   0.000085
     7  H   -0.000043   0.000011
     8  C   -0.022973  -0.028592
     9  H   -0.003315   0.002520
    10  H   -0.000790  -0.006566
    11  C   -0.022973  -0.028592
    12  H   -0.000790  -0.006566
    13  H   -0.003315   0.002520
    14  C    0.001665  -0.002959
    15  H   -0.000043   0.000011
    16  H   -0.000036   0.000085
    17  N    0.000202   0.004221
    18  C    0.380199   0.383750
    19  H    0.612814  -0.022063
    20  H   -0.022063   0.599726
 MBS Mulliken charges:
               1
     1  C   -0.151715
     2  H    0.103085
     3  H    0.103085
     4  H    0.073477
     5  C   -0.058011
     6  H    0.070679
     7  H    0.087548
     8  C   -0.165170
     9  H    0.082729
    10  H    0.088949
    11  C   -0.165170
    12  H    0.088949
    13  H    0.082729
    14  C   -0.058011
    15  H    0.087548
    16  H    0.070679
    17  N   -0.367070
    18  C   -0.159577
    19  H    0.079835
    20  H    0.105432
 Sum of MBS Mulliken charges =   0.00000
 MBS Mulliken charges with hydrogens summed into heavy atoms:
               1
     1  C    0.127931
     5  C    0.100216
     8  C    0.006508
    11  C    0.006508
    14  C    0.100216
    17  N   -0.367070
    18  C    0.025690
 Breneman (CHELPG) radii used.
 Generate Potential Derived Charges using the Breneman model, NDens= 1.
 Grid spacing= 0.300 Box extension= 2.800
 NStep X,Y,Z=   29     39     34   Total possible points=       38454
 Number of Points to Fit=   11816

 **********************************************************************

            Electrostatic Properties Using The SCF Density

 **********************************************************************

       Atomic Center    1 is at   0.786129  2.244901  0.000000
       Atomic Center    2 is at   1.341667  2.515107  0.873651
       Atomic Center    3 is at   1.341667  2.515107 -0.873651
       Atomic Center    4 is at  -0.151538  2.760343  0.000000
       Atomic Center    5 is at  -0.351667  0.386078  1.111253
       Atomic Center    6 is at  -1.317441  0.712616  0.786364
       Atomic Center    7 is at  -0.115330  0.831970  2.054771
       Atomic Center    8 is at  -0.351667 -1.146220  1.289268
       Atomic Center    9 is at  -1.336217 -1.448808  1.579097
       Atomic Center   10 is at   0.350437 -1.455788  2.035001
       Atomic Center   11 is at  -0.351667 -1.146220 -1.289268
       Atomic Center   12 is at   0.350437 -1.455788 -2.035001
       Atomic Center   13 is at  -1.336217 -1.448808 -1.579097
       Atomic Center   14 is at  -0.351667  0.386078 -1.111253
       Atomic Center   15 is at  -0.115330  0.831970 -2.054771
       Atomic Center   16 is at  -1.317441  0.712616 -0.786364
       Atomic Center   17 is at   0.547895  0.794334  0.000000
       Atomic Center   18 is at   0.164258 -1.766427  0.000000
       Atomic Center   19 is at  -0.005881 -2.822814  0.000000
       Atomic Center   20 is at   1.213604 -1.557205  0.000000
   11816 points will be used for fitting atomic charges
 Fitting point charges to electrostatic potential
 Charges from ESP fit, RMS=   0.00260 RRMS=   0.39779:
 ESP charges:
               1
     1  C   -0.233347
     2  H    0.119541
     3  H    0.119541
     4  H    0.053102
     5  C    0.269220
     6  H   -0.037675
     7  H   -0.008235
     8  C   -0.147929
     9  H    0.000005
    10  H    0.025105
    11  C   -0.147929
    12  H    0.025105
    13  H    0.000005
    14  C    0.269220
    15  H   -0.008235
    16  H   -0.037675
    17  N   -0.416806
    18  C    0.351102
    19  H   -0.088955
    20  H   -0.105163
 Sum of ESP charges =   0.00000
 ESP charges with hydrogens summed into heavy atoms:
               1
     1  C    0.058836
     5  C    0.223311
     8  C   -0.122818
    11  C   -0.122818
    14  C    0.223311
    17  N   -0.416806
    18  C    0.156985
 Charge=   0.00000 Dipole=    -0.6488     0.4521     0.0000 Tot=     0.7908
 -----------------------------------------------------------------

              Electrostatic Properties (Atomic Units)

 -----------------------------------------------------------------
    Center     Electric         -------- Electric Field --------
               Potential          X             Y             Z
 -----------------------------------------------------------------
    1 Atom    -14.769413
    2 Atom     -1.125348
    3 Atom     -1.125348
    4 Atom     -1.131837
    5 Atom    -14.768768
    6 Atom     -1.137938
    7 Atom     -1.132770
    8 Atom    -14.792444
    9 Atom     -1.136394
   10 Atom     -1.140699
   11 Atom    -14.792444
   12 Atom     -1.140699
   13 Atom     -1.136394
   14 Atom    -14.768768
   15 Atom     -1.132770
   16 Atom     -1.137938
   17 Atom    -18.411041
   18 Atom    -14.798904
   19 Atom     -1.143808
   20 Atom     -1.151573
 -----------------------------------------------------------------
 ******************************Gaussian NBO Version 3.1******************************
             N A T U R A L   A T O M I C   O R B I T A L   A N D
          N A T U R A L   B O N D   O R B I T A L   A N A L Y S I S
 ******************************Gaussian NBO Version 3.1******************************
       /RESON  / : Allow strongly delocalized NBO set

 Analyzing the SCF density

 Job title: Title Card Required                                             

 Storage needed:    162924 in NPA ( 104855400 available)


 NATURAL POPULATIONS:  Natural atomic orbital occupancies 
                                                          
   NAO  Atom  No  lang   Type(AO)    Occupancy      Energy
 ----------------------------------------------------------
     1    C    1  S      Cor( 1S)     1.99931     -10.03482
     2    C    1  S      Val( 2S)     1.05200      -0.21845
     3    C    1  S      Ryd( 3S)     0.00086       0.98588
     4    C    1  S      Ryd( 4S)     0.00010       1.17296
     5    C    1  S      Ryd( 5S)     0.00001      22.87686
     6    C    1  px     Val( 2p)     1.18809      -0.08440
     7    C    1  px     Ryd( 3p)     0.00153       0.61591
     8    C    1  px     Ryd( 4p)     0.00047       0.84387
     9    C    1  px     Ryd( 5p)     0.00002       2.48035
    10    C    1  py     Val( 2p)     0.88288      -0.06067
    11    C    1  py     Ryd( 3p)     0.00196       0.57162
    12    C    1  py     Ryd( 4p)     0.00028       0.82624
    13    C    1  py     Ryd( 5p)     0.00010       2.45311
    14    C    1  pz     Val( 2p)     1.20944      -0.08723
    15    C    1  pz     Ryd( 3p)     0.00271       0.66201
    16    C    1  pz     Ryd( 4p)     0.00008       0.87050
    17    C    1  pz     Ryd( 5p)     0.00005       2.45358
    18    C    1  dxy    Ryd( 3d)     0.00153       2.09078
    19    C    1  dxz    Ryd( 3d)     0.00078       2.19110
    20    C    1  dyz    Ryd( 3d)     0.00076       1.89848
    21    C    1  dx2y2  Ryd( 3d)     0.00116       2.11571
    22    C    1  dz2    Ryd( 3d)     0.00085       2.17938

    23    H    2  S      Val( 1S)     0.80756       0.04578
    24    H    2  S      Ryd( 2S)     0.00062       0.47758
    25    H    2  S      Ryd( 3S)     0.00022       2.22031
    26    H    2  px     Ryd( 2p)     0.00017       2.09620
    27    H    2  py     Ryd( 2p)     0.00008       1.80316
    28    H    2  pz     Ryd( 2p)     0.00031       2.42872

    29    H    3  S      Val( 1S)     0.80756       0.04578
    30    H    3  S      Ryd( 2S)     0.00062       0.47758
    31    H    3  S      Ryd( 3S)     0.00022       2.22031
    32    H    3  px     Ryd( 2p)     0.00017       2.09620
    33    H    3  py     Ryd( 2p)     0.00008       1.80316
    34    H    3  pz     Ryd( 2p)     0.00031       2.42872

    35    H    4  S      Val( 1S)     0.83711       0.03429
    36    H    4  S      Ryd( 2S)     0.00213       0.80358
    37    H    4  S      Ryd( 3S)     0.00024       1.86248
    38    H    4  px     Ryd( 2p)     0.00035       2.50943
    39    H    4  py     Ryd( 2p)     0.00016       1.99253
    40    H    4  pz     Ryd( 2p)     0.00012       1.81895

    41    C    5  S      Cor( 1S)     1.99922     -10.03905
    42    C    5  S      Val( 2S)     0.99797      -0.20179
    43    C    5  S      Ryd( 4S)     0.00220       1.11683
    44    C    5  S      Ryd( 3S)     0.00025       1.10509
    45    C    5  S      Ryd( 5S)     0.00001      23.00282
    46    C    5  px     Val( 2p)     1.04081      -0.06664
    47    C    5  px     Ryd( 4p)     0.00283       0.58624
    48    C    5  px     Ryd( 3p)     0.00036       0.28432
    49    C    5  px     Ryd( 5p)     0.00019       3.12346
    50    C    5  py     Val( 2p)     1.06631      -0.07763
    51    C    5  py     Ryd( 4p)     0.00171       0.65994
    52    C    5  py     Ryd( 3p)     0.00056       0.35002
    53    C    5  py     Ryd( 5p)     0.00014       3.09170
    54    C    5  pz     Val( 2p)     1.04478      -0.05897
    55    C    5  pz     Ryd( 4p)     0.00444       0.76211
    56    C    5  pz     Ryd( 3p)     0.00044       0.26966
    57    C    5  pz     Ryd( 5p)     0.00012       3.20155
    58    C    5  dxy    Ryd( 3d)     0.00071       1.93898
    59    C    5  dxz    Ryd( 3d)     0.00122       2.13590
    60    C    5  dyz    Ryd( 3d)     0.00120       2.08278
    61    C    5  dx2y2  Ryd( 3d)     0.00109       2.24241
    62    C    5  dz2    Ryd( 3d)     0.00122       2.17037

    63    H    6  S      Val( 1S)     0.84390       0.04340
    64    H    6  S      Ryd( 2S)     0.00257       1.17824
    65    H    6  S      Ryd( 3S)     0.00026       1.61325
    66    H    6  px     Ryd( 2p)     0.00030       2.66278
    67    H    6  py     Ryd( 2p)     0.00020       1.96936
    68    H    6  pz     Ryd( 2p)     0.00028       1.98176

    69    H    7  S      Val( 1S)     0.80759       0.05971
    70    H    7  S      Ryd( 2S)     0.00067       0.62654
    71    H    7  S      Ryd( 3S)     0.00036       2.13764
    72    H    7  px     Ryd( 2p)     0.00011       1.87106
    73    H    7  py     Ryd( 2p)     0.00029       1.97674
    74    H    7  pz     Ryd( 2p)     0.00032       2.58212

    75    C    8  S      Cor( 1S)     1.99928     -10.00823
    76    C    8  S      Val( 2S)     1.01380      -0.20056
    77    C    8  S      Ryd( 3S)     0.00092       0.87457
    78    C    8  S      Ryd( 4S)     0.00042       0.95122
    79    C    8  S      Ryd( 5S)     0.00000      23.21368
    80    C    8  px     Val( 2p)     1.19102      -0.06241
    81    C    8  px     Ryd( 4p)     0.00351       0.66859
    82    C    8  px     Ryd( 3p)     0.00023       0.24564
    83    C    8  px     Ryd( 5p)     0.00005       3.19711
    84    C    8  py     Val( 2p)     1.04382      -0.06835
    85    C    8  py     Ryd( 4p)     0.00145       0.53986
    86    C    8  py     Ryd( 3p)     0.00049       0.29149
    87    C    8  py     Ryd( 5p)     0.00014       3.11039
    88    C    8  pz     Val( 2p)     1.11984      -0.07239
    89    C    8  pz     Ryd( 4p)     0.00253       0.52835
    90    C    8  pz     Ryd( 3p)     0.00035       0.25684
    91    C    8  pz     Ryd( 5p)     0.00007       3.12843
    92    C    8  dxy    Ryd( 3d)     0.00043       1.99128
    93    C    8  dxz    Ryd( 3d)     0.00086       2.23059
    94    C    8  dyz    Ryd( 3d)     0.00049       2.08343
    95    C    8  dx2y2  Ryd( 3d)     0.00094       2.29530
    96    C    8  dz2    Ryd( 3d)     0.00060       2.11616

    97    H    9  S      Val( 1S)     0.80782       0.05452
    98    H    9  S      Ryd( 2S)     0.00115       0.81171
    99    H    9  S      Ryd( 3S)     0.00015       2.04011
   100    H    9  px     Ryd( 2p)     0.00028       2.60200
   101    H    9  py     Ryd( 2p)     0.00021       1.87506
   102    H    9  pz     Ryd( 2p)     0.00013       1.98275

   103    H   10  S      Val( 1S)     0.80433       0.05730
   104    H   10  S      Ryd( 2S)     0.00128       0.87360
   105    H   10  S      Ryd( 3S)     0.00022       1.98137
   106    H   10  px     Ryd( 2p)     0.00021       2.22714
   107    H   10  py     Ryd( 2p)     0.00018       1.90265
   108    H   10  pz     Ryd( 2p)     0.00022       2.31627

   109    C   11  S      Cor( 1S)     1.99928     -10.00823
   110    C   11  S      Val( 2S)     1.01380      -0.20056
   111    C   11  S      Ryd( 3S)     0.00092       0.87457
   112    C   11  S      Ryd( 4S)     0.00042       0.95122
   113    C   11  S      Ryd( 5S)     0.00000      23.21368
   114    C   11  px     Val( 2p)     1.19102      -0.06241
   115    C   11  px     Ryd( 4p)     0.00351       0.66859
   116    C   11  px     Ryd( 3p)     0.00023       0.24564
   117    C   11  px     Ryd( 5p)     0.00005       3.19711
   118    C   11  py     Val( 2p)     1.04382      -0.06835
   119    C   11  py     Ryd( 4p)     0.00145       0.53986
   120    C   11  py     Ryd( 3p)     0.00049       0.29149
   121    C   11  py     Ryd( 5p)     0.00014       3.11039
   122    C   11  pz     Val( 2p)     1.11984      -0.07239
   123    C   11  pz     Ryd( 4p)     0.00253       0.52835
   124    C   11  pz     Ryd( 3p)     0.00035       0.25684
   125    C   11  pz     Ryd( 5p)     0.00007       3.12843
   126    C   11  dxy    Ryd( 3d)     0.00043       1.99128
   127    C   11  dxz    Ryd( 3d)     0.00086       2.23059
   128    C   11  dyz    Ryd( 3d)     0.00049       2.08343
   129    C   11  dx2y2  Ryd( 3d)     0.00094       2.29530
   130    C   11  dz2    Ryd( 3d)     0.00060       2.11616

   131    H   12  S      Val( 1S)     0.80433       0.05730
   132    H   12  S      Ryd( 2S)     0.00128       0.87360
   133    H   12  S      Ryd( 3S)     0.00022       1.98137
   134    H   12  px     Ryd( 2p)     0.00021       2.22714
   135    H   12  py     Ryd( 2p)     0.00018       1.90265
   136    H   12  pz     Ryd( 2p)     0.00022       2.31627

   137    H   13  S      Val( 1S)     0.80782       0.05452
   138    H   13  S      Ryd( 2S)     0.00115       0.81171
   139    H   13  S      Ryd( 3S)     0.00015       2.04011
   140    H   13  px     Ryd( 2p)     0.00028       2.60200
   141    H   13  py     Ryd( 2p)     0.00021       1.87506
   142    H   13  pz     Ryd( 2p)     0.00013       1.98275

   143    C   14  S      Cor( 1S)     1.99922     -10.03905
   144    C   14  S      Val( 2S)     0.99797      -0.20179
   145    C   14  S      Ryd( 4S)     0.00220       1.11683
   146    C   14  S      Ryd( 3S)     0.00025       1.10509
   147    C   14  S      Ryd( 5S)     0.00001      23.00282
   148    C   14  px     Val( 2p)     1.04081      -0.06664
   149    C   14  px     Ryd( 4p)     0.00283       0.58624
   150    C   14  px     Ryd( 3p)     0.00036       0.28432
   151    C   14  px     Ryd( 5p)     0.00019       3.12346
   152    C   14  py     Val( 2p)     1.06631      -0.07763
   153    C   14  py     Ryd( 4p)     0.00171       0.65994
   154    C   14  py     Ryd( 3p)     0.00056       0.35002
   155    C   14  py     Ryd( 5p)     0.00014       3.09170
   156    C   14  pz     Val( 2p)     1.04478      -0.05897
   157    C   14  pz     Ryd( 4p)     0.00444       0.76211
   158    C   14  pz     Ryd( 3p)     0.00044       0.26966
   159    C   14  pz     Ryd( 5p)     0.00012       3.20155
   160    C   14  dxy    Ryd( 3d)     0.00071       1.93898
   161    C   14  dxz    Ryd( 3d)     0.00122       2.13590
   162    C   14  dyz    Ryd( 3d)     0.00120       2.08278
   163    C   14  dx2y2  Ryd( 3d)     0.00109       2.24241
   164    C   14  dz2    Ryd( 3d)     0.00122       2.17037

   165    H   15  S      Val( 1S)     0.80759       0.05971
   166    H   15  S      Ryd( 2S)     0.00067       0.62654
   167    H   15  S      Ryd( 3S)     0.00036       2.13764
   168    H   15  px     Ryd( 2p)     0.00011       1.87106
   169    H   15  py     Ryd( 2p)     0.00029       1.97674
   170    H   15  pz     Ryd( 2p)     0.00032       2.58212

   171    H   16  S      Val( 1S)     0.84390       0.04340
   172    H   16  S      Ryd( 2S)     0.00257       1.17824
   173    H   16  S      Ryd( 3S)     0.00026       1.61325
   174    H   16  px     Ryd( 2p)     0.00030       2.66278
   175    H   16  py     Ryd( 2p)     0.00020       1.96936
   176    H   16  pz     Ryd( 2p)     0.00028       1.98176

   177    N   17  S      Cor( 1S)     1.99947     -14.13928
   178    N   17  S      Val( 2S)     1.33516      -0.52547
   179    N   17  S      Ryd( 3S)     0.01329       0.70079
   180    N   17  S      Ryd( 4S)     0.00053       1.70032
   181    N   17  S      Ryd( 5S)     0.00000      35.16664
   182    N   17  px     Val( 2p)     1.60713      -0.20762
   183    N   17  px     Ryd( 4p)     0.00605       0.78618
   184    N   17  px     Ryd( 3p)     0.00049       0.56070
   185    N   17  px     Ryd( 5p)     0.00003       4.09760
   186    N   17  py     Val( 2p)     1.35805      -0.19232
   187    N   17  py     Ryd( 4p)     0.00310       1.06160
   188    N   17  py     Ryd( 3p)     0.00160       0.68844
   189    N   17  py     Ryd( 5p)     0.00001       4.28315
   190    N   17  pz     Val( 2p)     1.23916      -0.17808
   191    N   17  pz     Ryd( 4p)     0.00249       0.78581
   192    N   17  pz     Ryd( 3p)     0.00122       0.53083
   193    N   17  pz     Ryd( 5p)     0.00001       4.16909
   194    N   17  dxy    Ryd( 3d)     0.00093       2.46592
   195    N   17  dxz    Ryd( 3d)     0.00142       2.75941
   196    N   17  dyz    Ryd( 3d)     0.00034       2.40398
   197    N   17  dx2y2  Ryd( 3d)     0.00130       2.71482
   198    N   17  dz2    Ryd( 3d)     0.00068       2.51886

   199    C   18  S      Cor( 1S)     1.99926     -10.00114
   200    C   18  S      Val( 2S)     1.00635      -0.18886
   201    C   18  S      Ryd( 4S)     0.00122       1.09726
   202    C   18  S      Ryd( 3S)     0.00049       0.71649
   203    C   18  S      Ryd( 5S)     0.00000      23.39545
   204    C   18  px     Val( 2p)     1.17180      -0.06818
   205    C   18  px     Ryd( 4p)     0.00137       0.53688
   206    C   18  px     Ryd( 3p)     0.00032       0.31782
   207    C   18  px     Ryd( 5p)     0.00004       3.07290
   208    C   18  py     Val( 2p)     1.16773      -0.06345
   209    C   18  py     Ryd( 4p)     0.00543       0.83524
   210    C   18  py     Ryd( 3p)     0.00035       0.24679
   211    C   18  py     Ryd( 5p)     0.00007       3.21823
   212    C   18  pz     Val( 2p)     1.02102      -0.05454
   213    C   18  pz     Ryd( 4p)     0.00173       0.57026
   214    C   18  pz     Ryd( 3p)     0.00092       0.39496
   215    C   18  pz     Ryd( 5p)     0.00016       3.10124
   216    C   18  dxy    Ryd( 3d)     0.00037       1.91847
   217    C   18  dxz    Ryd( 3d)     0.00049       2.03837
   218    C   18  dyz    Ryd( 3d)     0.00048       2.13598
   219    C   18  dx2y2  Ryd( 3d)     0.00121       2.33559
   220    C   18  dz2    Ryd( 3d)     0.00092       2.32344

   221    H   19  S      Val( 1S)     0.80257       0.06699
   222    H   19  S      Ryd( 2S)     0.00093       0.71322
   223    H   19  S      Ryd( 3S)     0.00014       2.12799
   224    H   19  px     Ryd( 2p)     0.00008       1.86192
   225    H   19  py     Ryd( 2p)     0.00034       2.76976
   226    H   19  pz     Ryd( 2p)     0.00018       1.82091

   227    H   20  S      Val( 1S)     0.79207       0.07565
   228    H   20  S      Ryd( 3S)     0.00166       1.68802
   229    H   20  S      Ryd( 2S)     0.00024       1.15726
   230    H   20  px     Ryd( 2p)     0.00026       2.80260
   231    H   20  py     Ryd( 2p)     0.00011       1.93956
   232    H   20  pz     Ryd( 2p)     0.00016       1.84570

 WARNING:  Population inversion found on atom  C    5
           Population inversion found on atom  C    8
           Population inversion found on atom  C   11
           Population inversion found on atom  C   14
           Population inversion found on atom  N   17
           Population inversion found on atom  C   18
           Population inversion found on atom  H   20


 Summary of Natural Population Analysis:                  
                                                          
                                       Natural Population 
                Natural  -----------------------------------------------
    Atom  No    Charge         Core      Valence    Rydberg      Total
 -----------------------------------------------------------------------
      C    1   -0.34496      1.99931     4.33241    0.01325     6.34496
      H    2    0.19104      0.00000     0.80756    0.00140     0.80896
      H    3    0.19104      0.00000     0.80756    0.00140     0.80896
      H    4    0.15989      0.00000     0.83711    0.00300     0.84011
      C    5   -0.16777      1.99922     4.14987    0.01868     6.16777
      H    6    0.15249      0.00000     0.84390    0.00361     0.84751
      H    7    0.19066      0.00000     0.80759    0.00175     0.80934
      C    8   -0.38125      1.99928     4.36848    0.01349     6.38125
      H    9    0.19027      0.00000     0.80782    0.00191     0.80973
      H   10    0.19357      0.00000     0.80433    0.00210     0.80643
      C   11   -0.38125      1.99928     4.36848    0.01349     6.38125
      H   12    0.19357      0.00000     0.80433    0.00210     0.80643
      H   13    0.19027      0.00000     0.80782    0.00191     0.80973
      C   14   -0.16777      1.99922     4.14987    0.01868     6.16777
      H   15    0.19066      0.00000     0.80759    0.00175     0.80934
      H   16    0.15249      0.00000     0.84390    0.00361     0.84751
      N   17   -0.57244      1.99947     5.53949    0.03348     7.57244
      C   18   -0.38173      1.99926     4.36690    0.01557     6.38173
      H   19    0.19576      0.00000     0.80257    0.00167     0.80424
      H   20    0.20550      0.00000     0.79207    0.00243     0.79450
 =======================================================================
   * Total *    0.00000     13.99504    41.84966    0.15529    56.00000

                                 Natural Population      
 --------------------------------------------------------
   Core                      13.99504 ( 99.9646% of  14)
   Valence                   41.84966 ( 99.6421% of  42)
   Natural Minimal Basis     55.84471 ( 99.7227% of  56)
   Natural Rydberg Basis      0.15529 (  0.2773% of  56)
 --------------------------------------------------------

    Atom  No          Natural Electron Configuration
 ----------------------------------------------------------------------------
      C    1      [core]2S( 1.05)2p( 3.28)3p( 0.01)3d( 0.01)
      H    2            1S( 0.81)
      H    3            1S( 0.81)
      H    4            1S( 0.84)
      C    5      [core]2S( 1.00)2p( 3.15)3d( 0.01)4p( 0.01)
      H    6            1S( 0.84)
      H    7            1S( 0.81)
      C    8      [core]2S( 1.01)2p( 3.35)4p( 0.01)
      H    9            1S( 0.81)
      H   10            1S( 0.80)
      C   11      [core]2S( 1.01)2p( 3.35)4p( 0.01)
      H   12            1S( 0.80)
      H   13            1S( 0.81)
      C   14      [core]2S( 1.00)2p( 3.15)3d( 0.01)4p( 0.01)
      H   15            1S( 0.81)
      H   16            1S( 0.84)
      N   17      [core]2S( 1.34)2p( 4.20)3S( 0.01)4p( 0.01)
      C   18      [core]2S( 1.01)2p( 3.36)4p( 0.01)
      H   19            1S( 0.80)
      H   20            1S( 0.79)


 NBO analysis skipped by request.
 Calling FoFJK, ICntrl=      2127 FMM=F ISym2X=1 I1Cent= 0 IOpClX= 0 NMat=1 NMatS=1 NMatT=0.
 ***** Axes restored to original set *****
 -------------------------------------------------------------------
 Center     Atomic                   Forces (Hartrees/Bohr)
 Number     Number              X              Y              Z
 -------------------------------------------------------------------
      1        6          -0.010073444   -0.022360998    0.009406518
      2        1          -0.010054275    0.010967346   -0.000533117
      3        1           0.011013421    0.005281725    0.008512537
      4        1           0.009689428    0.001705257   -0.021495240
      5        6          -0.017872585    0.011736380    0.019473521
      6        1          -0.006086096   -0.005688657   -0.024968386
      7        1          -0.005496410    0.016816909   -0.004545942
      8        6           0.022231994    0.010365931    0.003918800
      9        1          -0.004380656   -0.014618087   -0.007019589
     10        1          -0.016870126    0.007158036   -0.002005628
     11        6          -0.011362288    0.019432150   -0.010505285
     12        1           0.014410970   -0.001283915    0.011425264
     13        1           0.001107099   -0.016099089   -0.004663359
     14        6           0.002297511    0.006292998    0.028133779
     15        1           0.013572740    0.011670643    0.003641613
     16        1           0.018208434   -0.012245116   -0.014537255
     17        7           0.000642742   -0.012173676   -0.009148704
     18        6           0.001138935   -0.011059116   -0.009603803
     19        1          -0.007546655   -0.011725646    0.010206345
     20        1          -0.004570737    0.005826924    0.014307931
 -------------------------------------------------------------------
 Cartesian Forces:  Max     0.028133779 RMS     0.012180860

 GradGradGradGradGradGradGradGradGradGradGradGradGradGradGradGradGradGrad
 Berny optimization.
 FormGI is forming the generalized inverse of G from B-inverse, IUseBI=4.
 Internal  Forces:  Max     0.024518353 RMS     0.008435121
 Search for a local minimum.
 Step number   1 out of a maximum of  120
 All quantities printed in internal units (Hartrees-Bohrs-Radians)
 Mixed Optimization -- RFO/linear search
 Second derivative matrix not updated -- first step.
 ITU=  0
     Eigenvalues ---    0.00360   0.00521   0.00766   0.01266   0.02386
     Eigenvalues ---    0.02468   0.03766   0.03980   0.04000   0.04619
     Eigenvalues ---    0.05004   0.05078   0.05618   0.05674   0.06288
     Eigenvalues ---    0.06290   0.07454   0.07459   0.07537   0.07537
     Eigenvalues ---    0.08671   0.08791   0.08968   0.09083   0.09261
     Eigenvalues ---    0.12180   0.12369   0.12860   0.16000   0.16000
     Eigenvalues ---    0.16000   0.17306   0.18759   0.20748   0.26326
     Eigenvalues ---    0.28161   0.28643   0.29412   0.31840   0.32890
     Eigenvalues ---    0.35740   0.37230   0.37230   0.37230   0.37230
     Eigenvalues ---    0.37230   0.37230   0.37230   0.37230   0.37230
     Eigenvalues ---    0.37230   0.37230   0.37230   0.37230
 RFO step:  Lambda=-4.36302378D-02 EMin= 3.60417007D-03
 Linear search not attempted -- first point.
 Maximum step size (   0.300) exceeded in Quadratic search.
    -- Step size scaled by   0.957
 Iteration  1 RMS(Cart)=  0.09398792 RMS(Int)=  0.00454764
 Iteration  2 RMS(Cart)=  0.00525575 RMS(Int)=  0.00082532
 Iteration  3 RMS(Cart)=  0.00001630 RMS(Int)=  0.00082518
 Iteration  4 RMS(Cart)=  0.00000001 RMS(Int)=  0.00082518
 ClnCor:  largest displacement from symmetrization is 3.95D-13 for atom     3.
 Variable       Old X    -DE/DX   Delta X   Delta X   Delta X     New X
                                 (Linear)    (Quad)   (Total)
    R1        2.02201   0.01488   0.00000   0.03423   0.03423   2.05624
    R2        2.02201   0.01488   0.00000   0.03423   0.03423   2.05624
    R3        2.02201   0.02274   0.00000   0.05233   0.05233   2.07433
    R4        2.77790  -0.00184   0.00000  -0.00440  -0.00440   2.77350
    R5        2.02201   0.01730   0.00000   0.03981   0.03981   2.06181
    R6        2.02201   0.01639   0.00000   0.03771   0.03771   2.05972
    R7        2.91510   0.00623   0.00000   0.01738   0.01737   2.93247
    R8        2.80977   0.01333   0.00000   0.02857   0.02853   2.83830
    R9        2.02201   0.01612   0.00000   0.03708   0.03708   2.05909
   R10        2.02201   0.01614   0.00000   0.03714   0.03714   2.05915
   R11        2.87403   0.01425   0.00000   0.04543   0.04547   2.91949
   R12        2.02201   0.01614   0.00000   0.03714   0.03714   2.05915
   R13        2.02201   0.01612   0.00000   0.03708   0.03708   2.05909
   R14        2.91510   0.00623   0.00000   0.01738   0.01737   2.93247
   R15        2.87403   0.01425   0.00000   0.04543   0.04547   2.91949
   R16        2.02201   0.01639   0.00000   0.03771   0.03771   2.05972
   R17        2.02201   0.01730   0.00000   0.03981   0.03981   2.06181
   R18        2.80977   0.01333   0.00000   0.02857   0.02853   2.83830
   R19        2.02201   0.01673   0.00000   0.03849   0.03849   2.06050
   R20        2.02201   0.01399   0.00000   0.03219   0.03219   2.05419
    A1        1.91063  -0.00097   0.00000  -0.01029  -0.01040   1.90023
    A2        1.91063  -0.00322   0.00000  -0.01226  -0.01238   1.89825
    A3        1.91063  -0.00118   0.00000  -0.00698  -0.00710   1.90353
    A4        1.91063  -0.00322   0.00000  -0.01226  -0.01238   1.89825
    A5        1.91063  -0.00118   0.00000  -0.00698  -0.00710   1.90353
    A6        1.91063   0.00976   0.00000   0.04876   0.04863   1.95926
    A7        1.91764  -0.00568   0.00000  -0.04139  -0.04121   1.87643
    A8        1.91577  -0.00410   0.00000  -0.02841  -0.02790   1.88787
    A9        1.80838   0.00810   0.00000   0.06245   0.06312   1.87150
   A10        1.88828   0.00955   0.00000   0.04531   0.04643   1.93471
   A11        1.99433  -0.00013   0.00000  -0.02095  -0.01998   1.97435
   A12        1.93798  -0.00845   0.00000  -0.02029  -0.02241   1.91557
   A13        1.88826  -0.00197   0.00000  -0.00369  -0.00340   1.88487
   A14        1.94745  -0.00051   0.00000  -0.01992  -0.01932   1.92813
   A15        1.88310   0.00337   0.00000   0.04308   0.04047   1.92357
   A16        1.91046  -0.00088   0.00000  -0.01667  -0.01727   1.89320
   A17        2.01135   0.00239   0.00000  -0.00260  -0.00209   2.00926
   A18        1.82372  -0.00235   0.00000  -0.00062   0.00028   1.82400
   A19        1.91046  -0.00088   0.00000  -0.01667  -0.01727   1.89320
   A20        1.94745  -0.00051   0.00000  -0.01992  -0.01932   1.92813
   A21        1.82372  -0.00235   0.00000  -0.00062   0.00028   1.82400
   A22        1.88826  -0.00197   0.00000  -0.00369  -0.00340   1.88487
   A23        2.01135   0.00239   0.00000  -0.00260  -0.00209   2.00926
   A24        1.88310   0.00337   0.00000   0.04308   0.04047   1.92357
   A25        1.88828   0.00955   0.00000   0.04531   0.04643   1.93471
   A26        1.91577  -0.00410   0.00000  -0.02841  -0.02790   1.88787
   A27        1.93798  -0.00845   0.00000  -0.02029  -0.02241   1.91557
[...]
 27,-0.00017799,-0.00261570,0.00045659,-0.00025461,-0.00006375,-0.00011
 573,-0.00111970,0.00047515,0.00008865,0.00021274,-0.00020584,-0.094074
 61,-0.02707766,0.01773225,-0.00314678,-0.00836749,0.00605429,0.0083766
 2,0.01156565,-0.00849598,0.55302026,-0.00133630,0.00070335,-0.00031259
 ,-0.00002396,0.00036883,-0.00012884,-0.00011876,0.00009727,0.00055777,
 -0.00028159,-0.00021775,0.00024744,-0.02764212,-0.12684974,0.03304566,
 0.00181950,0.00296281,-0.00371322,-0.01248668,-0.01691262,0.01219621,-
 0.02423186,0.50123490,-0.00334055,-0.00100696,-0.00165545,-0.00006873,
 0.00016418,-0.00024752,-0.00094640,-0.00088746,0.00042051,-0.00034609,
 -0.00008469,0.00022238,0.01707085,0.03260955,-0.09684025,0.01110459,0.
 02306297,-0.01191862,0.00323370,0.00205473,-0.00145898,-0.01872810,0.0
 7114116,0.47943629,-0.00064663,-0.00003562,-0.00027662,0.00000593,0.00
 006833,-0.00002339,-0.00018019,-0.00016290,0.00007890,-0.00006763,-0.0
 0006585,0.00006603,-0.00116013,-0.01180594,-0.00942748,0.00097521,-0.0
 0004311,-0.00032437,-0.00025436,-0.00096894,0.00023117,-0.05003110,-0.
 00310291,-0.00277528,0.05064565,-0.00079877,0.00002009,-0.00055406,0.0
 0001791,0.00016258,-0.00004281,-0.00029024,-0.00021480,0.00010914,-0.0
 0011774,-0.00005004,0.00011205,-0.00008515,-0.01834043,-0.01457889,-0.
 00057360,0.00169686,0.00034927,-0.00160554,-0.00188125,0.00129461,-0.0
 0477278,-0.20110050,-0.12376133,0.00716886,0.21956921,0.00037037,0.000
 25999,0.00030731,0.00000979,-0.00006755,0.00001517,0.00015968,0.000100
 74,-0.00007046,-0.00001785,-0.00004464,0.00001941,0.00220394,0.0138926
 8,0.00725095,0.00021253,0.00059039,0.00194499,0.00017272,0.00172640,-0
 .00056981,-0.00463562,-0.12533603,-0.14370223,0.00397344,0.13196638,0.
 16313393,-0.00040159,0.00025846,-0.00034548,0.00005756,-0.00007986,0.0
 0004125,-0.00008890,-0.00015931,0.00001198,0.00002752,0.00002366,0.000
 05989,-0.01075757,0.00385691,0.00306963,-0.00054470,-0.00152300,0.0002
 4079,0.00198211,-0.00029038,-0.00044380,-0.27549584,0.05776850,0.05708
 504,0.00127022,0.00061795,0.00046366,0.29842003,-0.00075214,-0.0000539
 2,-0.00052742,0.00005738,-0.00003042,0.00002486,-0.00010307,-0.0003076
 8,0.00000239,0.00007643,0.00006132,-0.00003639,-0.02439027,0.00386833,
 0.00677819,-0.00143075,-0.00141453,0.00186598,-0.00084665,0.00151013,-
 0.00021299,0.05999236,-0.06267679,-0.01648914,0.02443194,-0.00681390,-
 0.00553268,-0.06397256,0.06964904,0.00036353,-0.00007099,0.00023017,-0
 .00002532,-0.00002237,0.00002456,0.00004730,0.00013849,0.00002081,-0.0
 0004527,-0.00003410,0.00001549,0.01211763,-0.00213310,-0.00482326,0.00
 087179,0.00186068,-0.00098348,0.00014534,0.00016914,0.00145675,0.05824
 527,-0.01673618,-0.06094415,0.02032142,-0.00559763,-0.00470735,-0.0609
 2004,0.01315580,0.06650384,-0.00351738,0.00307238,-0.00060399,0.000394
 38,0.00138225,-0.00044420,0.00011874,0.00010169,0.00030249,-0.00015845
 ,-0.00010154,-0.00001918,0.00072848,-0.00103801,-0.00023012,-0.0003412
 7,-0.00000681,0.00007211,0.00005310,-0.00011555,0.00034468,-0.02317149
 ,0.00617062,-0.00328384,0.00120875,-0.00055539,0.00121945,-0.00030574,
 0.00050009,-0.00224214,0.46459548,0.00328308,-0.00142340,0.00113251,-0
 .00057435,-0.00049214,0.00066937,0.00013791,0.00025359,-0.00019733,-0.
 00000491,-0.00018961,0.00028723,-0.00006216,0.00001837,-0.00014714,0.0
 0030976,0.00011435,-0.00036468,-0.00051200,0.00003316,-0.00044616,0.01
 023062,-0.00015927,-0.00148643,-0.00127075,0.00040235,-0.00025072,0.00
 086472,-0.00004083,0.00149849,-0.03200044,0.51186812,-0.00047476,-0.00
 038016,0.00043140,0.00037667,-0.00011117,0.00049981,0.00047522,0.00013
 121,0.00020556,-0.00012889,-0.00030688,0.00044134,0.00004323,0.0007158
 7,0.00090942,0.00002588,0.00001966,-0.00015946,0.00036685,-0.00019962,
 0.00005302,-0.02971142,0.00390247,0.00671489,-0.00012991,0.00006286,0.
 00107773,-0.00413478,0.00236953,-0.00526499,0.05287868,0.03823476,0.55
 722785,0.00026525,-0.00028908,0.00007775,-0.00002887,-0.00013125,-0.00
 002234,0.00003735,0.00004146,-0.00001783,0.00002932,0.00004054,-0.0000
 6938,-0.00031161,-0.00068957,0.00067336,0.00010081,0.00006836,-0.00004
 719,0.00008124,0.00002861,0.00002308,-0.00662489,0.00075588,0.00338487
 ,0.00020878,-0.00024496,0.00021762,-0.00118666,0.00072200,-0.00183499,
 -0.10974986,0.02015223,-0.11017063,0.12361580,0.00086760,-0.00039185,0
 .00013108,-0.00007153,-0.00032813,0.00003215,-0.00010006,-0.00001920,-
 0.00002914,-0.00001458,0.00008119,-0.00004037,-0.00052352,0.00001729,-
 0.00056342,-0.00004751,0.00001492,0.00007796,0.00006137,0.00000621,-0.
 00002798,0.00076750,0.00037661,-0.00027723,0.00023782,0.00009608,0.000
 27343,0.00012171,0.00025410,0.00036097,0.01862571,-0.05343296,0.030093
 11,-0.01841310,0.05778975,-0.00053945,0.00001487,-0.00009875,0.0000152
 3,0.00016615,-0.00001876,0.00004604,0.00000813,0.00003355,0.00003430,-
 0.00004812,-0.00000618,0.00041866,-0.00022461,0.00006512,-0.00002037,-
 0.00003110,0.00003915,-0.00005673,0.00006128,0.00002688,0.00127033,-0.
 00022839,0.00063672,0.00022918,0.00004202,0.00023754,0.00032860,0.0000
 3482,0.00025471,-0.11089255,0.03196428,-0.23593397,0.11892634,-0.03607
 373,0.25316735,0.00025707,-0.00027501,-0.00008214,0.00001431,-0.000102
 97,0.00010914,0.00004412,0.00006299,0.00000509,0.00002247,0.00004228,0
 .00000480,-0.00000666,0.00013854,0.00000376,0.00000291,0.00004401,-0.0
 0005457,0.00001541,-0.00003654,0.00002681,0.00195704,0.00008479,0.0009
 7454,-0.00016064,-0.00036845,-0.00075217,0.00029105,-0.00046638,0.0000
 0729,-0.04952415,0.02275045,0.01222550,0.00228933,-0.01441636,-0.00986
 768,0.05643552,0.00093964,-0.00045028,0.00024457,-0.00000383,-0.000322
 43,0.00024649,0.00008783,0.00014237,-0.00001605,-0.00004353,-0.0001058
 1,0.00017088,-0.00042330,-0.00050981,-0.00070177,0.00000310,0.00004963
 ,0.00035236,0.00007031,0.00005781,0.00013733,-0.00038623,-0.00006363,-
 0.00007586,0.00044843,-0.00000242,0.00039145,0.00003076,0.00020573,0.0
 0022982,0.02251205,-0.21547803,-0.11603586,-0.00120263,0.00408735,0.00
 188602,-0.02331605,0.23560168,-0.00044535,0.00048207,-0.00012603,0.000
 01064,0.00018923,-0.00015733,-0.00004416,-0.00005086,-0.00000280,0.000
 00212,0.00000684,-0.00001492,0.00022995,0.00013505,0.00000111,-0.00008
 047,-0.00002332,-0.00004433,-0.00001561,-0.00001083,-0.00003614,-0.000
 22123,0.00080681,0.00079542,0.00019741,-0.00021556,0.00041078,0.000027
 86,0.00003182,0.00004562,0.01288640,-0.11890560,-0.12983165,0.00332731
 ,-0.02286738,-0.01662772,-0.02019615,0.12607097,0.14131158,0.01004153,
 -0.00438362,0.00482144,-0.00056768,-0.00478313,0.00146361,0.00040107,-
 0.00238839,0.00062831,-0.00022393,-0.00393463,0.00224772,-0.03378733,0
 .02350130,-0.00512254,0.00457903,0.00047186,0.00293687,-0.00410491,-0.
 00262920,-0.00238347,0.00071889,-0.00024290,0.00027795,0.00023697,0.00
 046305,-0.00000302,0.00090433,0.00030320,0.00024555,-0.09273294,-0.027
 07891,0.01657088,0.00468304,0.01177470,-0.00531018,-0.00010024,0.00271
 634,-0.00121638,0.53942352,0.02239575,-0.03717589,0.00287442,-0.002124
 02,-0.00364408,0.00197597,0.00175964,0.00070288,0.00051962,0.00098039,
 0.00454640,-0.00296799,0.00238544,0.01247689,-0.00202155,-0.00378423,-
 0.00033209,-0.00232177,-0.00410534,0.00021337,-0.00204661,-0.00019311,
 -0.00016017,0.00101418,-0.00054731,-0.00058166,-0.00006832,0.00023608,
 -0.00054419,0.00036045,-0.02705802,-0.12710475,0.03290837,-0.00376925,
 -0.00495812,0.00108499,-0.01059201,-0.01950128,0.01545976,0.04547185,0
 .46694915,-0.00771411,0.01905324,-0.00889411,0.00025741,0.00131462,-0.
 00033748,-0.00012058,-0.00172463,0.00055999,-0.00180744,0.00287721,0.0
 0130406,-0.02070233,0.01124936,-0.00985086,-0.00275180,0.00228973,0.00
 131916,-0.00250416,-0.00114265,-0.00059429,-0.00003077,-0.00027965,0.0
 0109756,-0.00005874,-0.00027610,-0.00017068,-0.00015571,0.00015619,-0.
 00058935,0.01627740,0.03383557,-0.09792691,0.01172240,0.02176003,-0.01
 143742,-0.00531695,-0.01436256,0.00735192,0.03662141,0.03888406,0.5348
 7451,0.00028521,-0.00204654,0.00052578,0.00034459,0.00005316,0.0004893
 9,0.00074766,0.00086574,-0.00006574,0.00009860,0.00016300,-0.00023128,
 -0.00099997,0.00497438,-0.00029012,0.00006448,-0.00005527,-0.00030084,
 -0.00123246,-0.00038669,-0.00089226,0.00068512,0.00035122,0.00009135,-
 0.00004197,-0.00011083,0.00002974,-0.00000413,-0.00002726,0.00006180,-
 0.00694306,-0.00476969,-0.00551159,0.00183083,0.00053209,0.00020401,-0
 .00077126,-0.00064950,0.00087909,-0.19003596,-0.07344238,-0.09795647,0
 .21368731,0.00223066,0.00132663,0.00132169,0.00011709,0.00042629,-0.00
 001800,-0.00028556,-0.00008645,-0.00027216,-0.00025591,-0.00040040,-0.
 00020849,0.00333595,-0.00407298,0.00118082,0.00009368,0.00001494,0.000
 21990,0.00123956,0.00049021,0.00075185,-0.00010145,-0.00024964,-0.0000
 4598,0.00007370,0.00008112,0.00001761,-0.00005037,0.00005766,-0.000014
 51,-0.01700309,-0.01016951,-0.00962660,-0.00023066,0.00113295,0.000161
 42,-0.00138356,-0.00198972,0.00129786,-0.08089792,-0.08867543,-0.05870
 418,0.07801186,0.09972966,-0.00071031,-0.00086101,0.00006741,0.0004308
 2,0.00013043,0.00007929,0.00006450,0.00066357,0.00021348,-0.00009044,-
 0.00019292,-0.00033609,-0.00051281,0.00170681,0.00058712,0.00050184,0.
 00003066,0.00054663,-0.00050987,-0.00004959,0.00020495,0.00007818,0.00
 006963,-0.00029621,0.00003616,0.00005039,-0.00000208,-0.00005312,-0.00
 005536,0.00006079,0.01364683,0.00775868,0.00711759,0.00066337,0.000062
 67,0.00198521,0.00075937,0.00150266,0.00005556,-0.10241559,-0.05475226
 ,-0.12019116,0.11138794,0.05411531,0.12866712,-0.00074039,-0.00272575,
 0.00113645,0.00012417,0.00004913,-0.00034325,0.00004919,0.00031788,-0.
 00031140,0.00075448,0.00042558,-0.00139251,0.00307721,0.00163194,0.004
 96515,0.00096216,-0.00101213,-0.00192171,0.00027820,-0.00023545,-0.000
 59896,-0.00010859,0.00018480,-0.00000873,-0.00017346,-0.00015970,-0.00
 003004,0.00000991,-0.00002090,-0.00002467,-0.00320150,0.00201352,0.012
 62658,-0.00080430,-0.00095343,0.00082335,0.00139644,0.00035129,-0.0004
 4083,-0.07314862,0.01551373,0.06113303,0.00928893,-0.00735822,-0.02127
 771,0.08207023,0.00264726,0.00339427,-0.00429918,-0.00026895,0.0001000
 0,0.00067994,-0.00015589,-0.00014171,-0.00003036,-0.00105684,0.0006207
 8,0.00177478,-0.00347721,-0.00061864,-0.00166247,0.00022663,0.00073553
 ,0.00149023,-0.00014889,0.00011346,0.00031231,0.00015454,0.00008759,0.
 00012524,0.00007278,0.00009865,-0.00004502,-0.00003324,0.00004178,-0.0
 0008410,-0.01000761,0.00335705,0.02194168,-0.00100093,-0.00166533,0.00
 206783,-0.00028729,0.00148248,0.00071069,0.01743118,-0.06162377,-0.053
 74139,0.00335168,-0.00287857,-0.01216588,-0.02758981,0.07897140,-0.000
 59734,0.00147067,0.00215893,0.00004000,-0.00022865,0.00033444,-0.00017
 722,0.00001804,-0.00044377,-0.00016170,-0.00228784,0.00060242,-0.00125
 970,0.00096224,0.00310753,0.00253127,-0.00024340,0.00088101,0.00016450
 ,-0.00002223,0.00023439,-0.00027297,-0.00029824,-0.00036538,0.00011589
 ,0.00021602,0.00008303,0.00006723,0.00004797,0.00010319,0.00371802,-0.
 00300576,-0.01225815,0.00136651,0.00173704,-0.00047308,0.00002813,0.00
 070007,0.00173815,0.05995959,-0.05045236,-0.22725280,0.00517771,-0.005
 50643,-0.01689942,-0.07531158,0.06060104,0.24387601,-0.11382417,-0.033
 59326,0.01665534,0.01060473,0.01847101,-0.01160707,-0.01467614,-0.0251
 9952,0.01349493,-0.00819194,-0.01441613,0.01195914,-0.14389182,-0.0283
 4479,-0.07827073,-0.00108252,-0.00555656,-0.01173663,-0.02418499,-0.00
 765583,-0.01751444,-0.01390890,-0.01115303,-0.00218842,-0.00080918,-0.
 00023682,-0.00009419,-0.00030084,-0.00117904,0.00032489,0.01312967,-0.
 00651703,-0.00205971,-0.00015861,-0.00158607,0.00100195,-0.00104231,-0
 .00259519,0.00113171,-0.14650595,0.04158075,0.00549199,-0.02637940,0.0
 2324107,-0.00315041,-0.01932091,0.02100167,0.00466686,0.49097587,-0.05
 010727,-0.16695809,0.07311147,-0.01163205,-0.02586504,0.01325820,-0.00
 673835,-0.01355893,0.00565562,-0.00665233,-0.00293957,0.01312206,-0.02
 051464,-0.10617494,-0.01489411,-0.01265702,-0.00522030,-0.01261541,0.0
 2036433,0.00896185,0.01564816,-0.02332713,-0.01420414,-0.01385039,-0.0
 0211213,-0.00262813,0.00159015,-0.00158517,-0.00195350,0.00028679,0.01
 493098,-0.02774941,0.00567447,-0.00020371,-0.00222683,0.00071370,-0.00
 056628,-0.00239188,0.00189602,0.05033733,-0.14397672,-0.00738129,-0.00
 555624,0.00777869,0.00038812,0.02076079,-0.02007792,-0.00480732,0.0347
 5976,0.51768467,0.00627551,0.03464968,-0.09044402,0.00015412,0.0059653
 5,-0.00346421,-0.00558374,-0.01416597,0.00951056,0.01683906,0.03120428
 ,-0.01877211,-0.03579919,-0.00543481,-0.10506530,-0.03226589,-0.014774
 28,-0.02759420,-0.00685680,-0.00039659,-0.00440593,0.01076340,0.001458
 49,0.01020694,0.00123367,0.00226186,-0.00043190,0.00112555,0.00167432,
 -0.00086801,-0.00918244,0.01196491,-0.00328635,0.00081490,0.00159987,-
 0.00073691,-0.00009961,0.00158206,-0.00043503,-0.02655401,0.02179057,-
 0.06464939,-0.01429652,0.01462286,-0.00102836,0.02058174,-0.01974674,0
 .00550182,0.07274791,-0.07790567,0.29443000,-0.00074259,0.00056559,-0.
 00033129,0.00016537,0.00031769,-0.00008484,-0.00004801,-0.00012669,0.0
 0002296,0.00008044,-0.00004625,-0.00005823,0.00997311,0.00048922,0.012
 02226,-0.00142304,-0.00203589,0.00106158,-0.00067735,-0.00167245,0.000
 88057,-0.10213538,0.01100632,-0.04126988,-0.00068739,0.00052004,-0.000
 61423,-0.01481864,0.00772742,-0.02885827,-0.17050646,0.01561297,0.0212
 0923,-0.01659394,0.00318347,0.00468342,-0.00615732,0.00064536,0.001981
 19,-0.01492659,-0.00853393,0.00759474,-0.00001450,0.00013552,0.0005726
 4,-0.00026250,0.00014430,-0.00041454,-0.00097977,0.00089970,0.00017806
 ,0.45308621,-0.00003561,-0.00024517,0.00058094,0.00012254,0.00013484,0
 .00002535,0.00000721,0.00030144,-0.00007799,0.00020257,-0.00008178,-0.
 00056588,0.01135003,-0.01148252,0.02480635,-0.00054567,-0.00165477,0.0
 0101834,-0.00151442,-0.00221243,0.00152643,0.01086239,-0.08386148,0.01
 957695,-0.01315468,0.00771116,-0.02194233,0.00413440,-0.00239553,0.007
 15091,0.01538977,-0.08134692,-0.00326304,0.00470046,-0.00119270,-0.001
 86379,0.02801575,-0.00303510,-0.00559959,-0.02830158,0.00346702,0.0060
 9114,-0.00134188,-0.00279520,0.00176043,-0.00121743,-0.00214638,0.0012
 6275,0.00051941,0.00277252,0.00125332,0.03606417,0.59051409,-0.0007091
 7,-0.00081928,0.00009926,-0.00000496,-0.00000209,0.00005173,-0.0000954
 1,-0.00019321,0.00009852,0.00009816,0.00001362,-0.00015214,-0.00144612
 ,0.01073816,-0.01528903,0.00015567,0.00081107,-0.00015076,0.00010895,-
 0.00026475,-0.00044583,-0.04091947,0.01900668,-0.14865968,-0.01142442,
 0.00689714,-0.02164180,0.00374545,-0.00314462,0.00715902,0.02062805,-0
 .00354786,-0.08280316,-0.02922518,0.00359659,0.00773150,0.02139976,-0.
 00254126,-0.00542561,0.01546476,-0.00058504,-0.00533887,0.00051497,0.0
 0047876,-0.00052592,0.00057212,0.00176925,-0.00081969,-0.00006097,0.00
 036761,-0.00077306,-0.03352833,0.01755093,0.51807811,0.00021950,0.0000
 2796,0.00008318,0.00004316,-0.00010977,0.00001570,0.00003291,0.0000944
 2,0.00002696,-0.00003351,-0.00000073,-0.00000984,-0.00190418,0.0001122
 2,-0.00294787,0.00023827,0.00046267,-0.00020791,0.00024691,0.00047530,
 -0.00023777,0.00683145,0.01531646,-0.00669856,0.00071904,-0.00026363,0
 .00071266,0.00027631,-0.00001587,0.00076211,-0.01356665,-0.02797226,0.
 01258392,0.00058594,-0.00004780,-0.00079396,0.00161103,0.00026886,0.00
 022078,-0.00553896,0.00288667,-0.00002016,-0.00046114,-0.00090290,0.00
 057658,-0.00036947,-0.00081038,0.00050452,0.00027125,0.00034907,-0.000
 18858,-0.08390001,-0.08303171,0.03571379,0.09375213,0.00002429,0.00044
 578,0.00006796,0.00003503,-0.00000055,0.00000854,-0.00005815,-0.000029
 76,-0.00003569,-0.00010601,-0.00017899,0.00015799,0.00080049,0.0008822
 0,0.00029848,-0.00008140,-0.00020331,0.00012422,-0.00009803,-0.0002099
 3,0.00015065,-0.00292410,-0.00642965,0.00157303,0.00008295,0.00113908,
 0.00019082,0.00043151,-0.00025812,0.00004807,0.00347423,0.00501173,-0.
 00324721,-0.00074313,0.00004496,-0.00000045,-0.00040166,0.00106119,0.0
 0021885,0.00205676,0.00005914,-0.00037341,0.00004887,0.00017394,-0.000
 08810,0.00002961,0.00015455,-0.00009080,-0.00039103,-0.00011007,0.0007
 8116,-0.08385828,-0.23239857,0.07824822,0.09038744,0.25069026,0.000080
 87,0.00005941,0.00009666,-0.00001924,-0.00005556,-0.00002868,0.0000570
 2,0.00001035,0.00001079,-0.00007601,-0.00008722,0.00008468,-0.00447560
 ,0.00020790,-0.00355955,0.00043700,0.00061700,-0.00041486,0.00047000,0
 .00075985,-0.00051367,0.01068299,0.02404766,-0.01225452,0.00087552,-0.
 00047618,0.00081351,-0.00022485,-0.00024066,0.00079129,0.00350291,0.00
 503528,-0.00329781,0.00003715,-0.00028920,0.00017858,-0.00014568,0.000
 13141,-0.00000059,0.00141855,-0.00061271,0.00089829,0.00010668,0.00018
 411,-0.00018948,0.00004561,0.00010561,-0.00016498,-0.00065377,-0.00094
 257,0.00102628,0.03519426,0.07632312,-0.08015397,-0.03819997,-0.086231
 55,0.08772601,0.00012675,-0.00017013,-0.00003107,-0.00000434,-0.000046
 47,0.00002181,0.00002949,0.00000635,0.00002794,-0.00001462,0.00007741,
 -0.00007797,0.00019069,-0.00011257,0.00063431,-0.00006759,0.00001725,-
 0.00004711,-0.00005266,0.00004870,0.00000216,0.00023595,-0.01283800,-0
 .01356830,-0.00105787,0.00139579,-0.00359848,0.00066556,-0.00060593,0.
 00043680,-0.00650964,0.02540724,0.02293906,0.00173105,0.00000199,-0.00
 050051,-0.00657410,0.00054630,0.00176572,0.00068473,0.00093931,0.00004
 082,-0.00014890,-0.00000945,0.00000203,0.00011883,-0.00019301,-0.00014
 519,0.00027593,-0.00074966,0.00011284,-0.04943163,0.01777428,0.0190123
 3,0.00094603,-0.00870940,-0.00911344,0.05885634,0.00006596,0.00033645,
 -0.00004230,0.00000475,0.00000423,-0.00000477,-0.00001441,-0.00000732,
 -0.00001073,-0.00005412,-0.00007050,0.00012511,-0.00050887,0.00035091,
 -0.00000959,0.00005441,-0.00006453,-0.00009517,0.00011238,0.00006205,-
 0.00002959,-0.00085166,0.00705403,0.00664350,0.00068533,0.00063596,0.0
 0228723,-0.00065078,0.00084130,-0.00056662,0.00172670,-0.00347190,-0.0
 0288347,0.00040872,0.00031370,0.00026471,0.00107373,0.00116215,0.00036
 716,0.00011271,-0.00013669,0.00047471,0.00003428,0.00010583,-0.0000742
 4,-0.00000546,-0.00000521,-0.00007280,-0.00114937,-0.00116227,0.001615
 33,0.01896171,-0.18005252,-0.12837991,0.00277399,-0.01984388,-0.018546
 05,-0.02277999,0.19394821,0.00011733,0.00050758,0.00020511,0.00005621,
 0.00000856,-0.00002299,0.00001269,0.00004691,-0.00004528,-0.00016064,-
 0.00018125,0.00019124,-0.00044206,-0.00133929,-0.00016573,0.00017158,0
 .00015884,0.00030207,-0.00000465,0.00010215,-0.00016892,0.00059898,-0.
 01944684,-0.02118771,-0.00291857,0.00214083,-0.00399804,0.00001086,0.0
 0009739,0.00151437,0.00142142,-0.00402940,-0.00391618,0.00015289,0.000
 44354,0.00097648,0.00097077,0.00008727,0.00099200,0.00034855,-0.001043
 77,-0.00017217,0.00007635,0.00004418,-0.00011646,-0.00022263,0.0001965
 5,0.00005633,-0.00013839,0.00068439,0.00127920,0.01975868,-0.12561434,
 -0.17103862,-0.00189559,0.00819922,0.00895201,-0.01791377,0.13893748,0
 .18636327\\0.00001009,0.00001289,-0.00001539,0.00000147,0.00000402,0.0
 0000139,-0.00000010,0.00000444,0.00000072,-0.00000292,-0.00000097,0.00
 000619,-0.00000748,0.00001434,-0.00001055,0.00000104,0.00000317,0.0000
 0918,0.00000180,-0.00000109,0.00000015,-0.00000853,-0.00002791,0.00002
 246,-0.00000356,0.00000720,-0.00000150,-0.00000090,-0.00000319,0.00000
 596,-0.00002228,-0.00002419,0.00001655,-0.00000491,-0.00000211,0.00000
 424,0.00000621,0.00000456,0.00000270,0.00001778,0.00000753,0.00000030,
 -0.00000163,-0.00000016,-0.00000133,-0.00000553,0.00000494,0.00000636,
 0.00000261,-0.00001155,-0.00001334,0.00000780,-0.00001929,-0.00003029,
 0.00000656,0.00001603,-0.00000519,0.00000246,0.00001133,0.00000139\\\@


 The cat could very well be man's best friend
 but would never stoop to admitting it.
                               -- Doug Larson
 Job cpu time:       0 days  0 hours 24 minutes 35.3 seconds.
 File lengths (MBytes):  RWF=    111 Int=      0 D2E=      0 Chk=      5 Scr=      1
 Normal termination of Gaussian 09 at Tue Nov  2 15:48:20 2021.
