 Entering Gaussian System, Link 0=g09
 Initial command:
 /cm/shared/apps/gaussian/g09revD.01/g09/l1.exe "//home/sweav003/CHB/CHActivation_Mkhalid/OtherCharges/G09-Table5_1.com.o9447121.tmp/Gau-29585.inp" -scrdir="//home/sweav003/CHB/CHActivation_Mkhalid/OtherCharges/G09-Table5_1.com.o9447121.tmp/"
 Entering Link 1 = /cm/shared/apps/gaussian/g09revD.01/g09/l1.exe PID=     29586.
  
 Copyright (c) 1988,1990,1992,1993,1995,1998,2003,2009,2013,
            Gaussian, Inc.  All Rights Reserved.
  
 This is part of the Gaussian(R) 09 program.  It is based on
 the Gaussian(R) 03 system (copyright 2003, Gaussian, Inc.),
 the Gaussian(R) 98 system (copyright 1998, Gaussian, Inc.),
 the Gaussian(R) 94 system (copyright 1995, Gaussian, Inc.),
 the Gaussian 92(TM) system (copyright 1992, Gaussian, Inc.),
 the Gaussian 90(TM) system (copyright 1990, Gaussian, Inc.),
 the Gaussian 88(TM) system (copyright 1988, Gaussian, Inc.),
 the Gaussian 86(TM) system (copyright 1986, Carnegie Mellon
 University), and the Gaussian 82(TM) system (copyright 1983,
 Carnegie Mellon University). Gaussian is a federally registered
 trademark of Gaussian, Inc.
  
 This software contains proprietary and confidential information,
 including trade secrets, belonging to Gaussian, Inc.
  
 This software is provided under written license and may be
 used, copied, transmitted, or stored only in accord with that
 written license.
  
 The following legend is applicable only to US Government
 contracts under FAR:
  
                    RESTRICTED RIGHTS LEGEND
  
 Use, reproduction and disclosure by the US Government is
 subject to restrictions as set forth in subparagraphs (a)
 and (c) of the Commercial Computer Software - Restricted
 Rights clause in FAR 52.227-19.
  
 Gaussian, Inc.
 340 Quinnipiac St., Bldg. 40, Wallingford CT 06492
  
  
 ---------------------------------------------------------------
 Warning -- This program may not be used in any manner that
 competes with the business of Gaussian, Inc. or will provide
 assistance to any competitor of Gaussian, Inc.  The licensee
 of this program is prohibited from giving any competitor of
 Gaussian, Inc. access to this program.  By using this program,
 the user acknowledges that Gaussian, Inc. is engaged in the
 business of creating and licensing software in the field of
 computational chemistry and represents and warrants to the
 licensee that it is not a competitor of Gaussian, Inc. and that
 it will not use this program in any manner prohibited above.
 ---------------------------------------------------------------
  

 Cite this work as:
 Gaussian 09, Revision D.01,
 M. J. Frisch, G. W. Trucks, H. B. Schlegel, G. E. Scuseria, 
 M. A. Robb, J. R. Cheeseman, G. Scalmani, V. Barone, B. Mennucci, 
 G. A. Petersson, H. Nakatsuji, M. Caricato, X. Li, H. P. Hratchian, 
 A. F. Izmaylov, J. Bloino, G. Zheng, J. L. Sonnenberg, M. Hada, 
 M. Ehara, K. Toyota, R. Fukuda, J. Hasegawa, M. Ishida, T. Nakajima, 
 Y. Honda, O. Kitao, H. Nakai, T. Vreven, J. A. Montgomery, Jr., 
 J. E. Peralta, F. Ogliaro, M. Bearpark, J. J. Heyd, E. Brothers, 
 K. N. Kudin, V. N. Staroverov, T. Keith, R. Kobayashi, J. Normand, 
 K. Raghavachari, A. Rendell, J. C. Burant, S. S. Iyengar, J. Tomasi, 
 M. Cossi, N. Rega, J. M. Millam, M. Klene, J. E. Knox, J. B. Cross, 
 V. Bakken, C. Adamo, J. Jaramillo, R. Gomperts, R. E. Stratmann, 
 O. Yazyev, A. J. Austin, R. Cammi, C. Pomelli, J. W. Ochterski, 
 R. L. Martin, K. Morokuma, V. G. Zakrzewski, G. A. Voth, 
 P. Salvador, J. J. Dannenberg, S. Dapprich, A. D. Daniels, 
 O. Farkas, J. B. Foresman, J. V. Ortiz, J. Cioslowski, 
 and D. J. Fox, Gaussian, Inc., Wallingford CT, 2013.
 
 ******************************************
 Gaussian 09:  ES64L-G09RevD.01 24-Apr-2013
                23-Jul-2021 
 ******************************************
 %mem=100MW
 %nprocshared=20
 Will use up to   20 processors via shared memory.
 ---------------------------------------------------------------------
 # b3lyp/6-311+g(d,p) geom=connectivity pop=(hirshfeld,chelpg,mbs,npa)
 ---------------------------------------------------------------------
 1/38=1,57=2/1;
 2/12=2,17=6,18=5,40=1/2;
 3/5=4,6=6,7=111,11=2,16=1,25=1,30=1,74=-5/1,2,3;
 4//1;
 5/5=2,38=5/2;
 6/7=2,8=2,9=2,10=2,15=8,20=3,27=100,28=1,40=-1,79=1/1,2,7;
 99/5=1,9=1/99;
 --------
 Table5_1
 --------
 Symbolic Z-matrix:
 Charge =  0 Multiplicity = 1
 6                     0.00014   0.01141   1.24123 
 6                     0.00014   1.27146   0.71386 
 6                     0.00014   1.27146  -0.71386 
 6                     0.00014   0.01141  -1.24123 
 16                   -0.00004  -1.19791   0. 
 1                    -0.00079  -0.28293   2.27928 
 1                    -0.00048   2.16898   1.31814 
 1                    -0.00048   2.16898  -1.31814 
 1                    -0.00079  -0.28293  -2.27928 
 
                          Input orientation:                          
 ---------------------------------------------------------------------
 Center     Atomic      Atomic             Coordinates (Angstroms)
 Number     Number       Type             X           Y           Z
 ---------------------------------------------------------------------
      1          6           0        0.000135    0.011414    1.241225
      2          6           0        0.000135    1.271461    0.713860
      3          6           0        0.000135    1.271461   -0.713860
      4          6           0        0.000135    0.011414   -1.241225
      5         16           0       -0.000043   -1.197912    0.000000
      6          1           0       -0.000792   -0.282930    2.279281
      7          1           0       -0.000481    2.168981    1.318144
      8          1           0       -0.000481    2.168981   -1.318144
      9          1           0       -0.000792   -0.282930   -2.279281
 ---------------------------------------------------------------------
                    Distance matrix (angstroms):
                    1          2          3          4          5
     1  C    0.000000
     2  C    1.365955   0.000000
     3  C    2.325957   1.427720   0.000000
     4  C    2.482450   2.325957   1.365955   0.000000
     5  S    1.732948   2.570486   2.570486   1.732948   0.000000
     6  H    1.078981   2.206054   3.372688   3.532790   2.456077
     7  H    2.158938   1.081990   2.221392   3.347457   3.615726
     8  H    3.347457   2.221392   1.081990   2.158938   3.615726
     9  H    3.532790   3.372688   2.206054   1.078981   2.456077
                    6          7          8          9
     6  H    0.000000
     7  H    2.633563   0.000000
     8  H    4.353543   2.636288   0.000000
     9  H    4.558562   4.353543   2.633563   0.000000
 Stoichiometry    C4H4S
 Framework group  CS[SG(S),X(C4H4)]
 Deg. of freedom    11
 Full point group                 CS      NOp   2
 Largest Abelian subgroup         CS      NOp   2
 Largest concise Abelian subgroup CS      NOp   2
                         Standard orientation:                         
 ---------------------------------------------------------------------
 Center     Atomic      Atomic             Coordinates (Angstroms)
 Number     Number       Type             X           Y           Z
 ---------------------------------------------------------------------
      1          6           0       -0.000135   -0.011414    1.241225
      2          6           0       -0.000135   -1.271461    0.713860
      3          6           0       -0.000135   -1.271461   -0.713860
      4          6           0       -0.000135   -0.011414   -1.241225
      5         16           0        0.000043    1.197912    0.000000
      6          1           0        0.000792    0.282930    2.279281
      7          1           0        0.000481   -2.168981    1.318144
      8          1           0        0.000481   -2.168981   -1.318144
      9          1           0        0.000792    0.282930   -2.279281
 ---------------------------------------------------------------------
 Rotational constants (GHZ):      7.9991101      5.3671393      3.2119960
 Standard basis: 6-311+G(d,p) (5D, 7F)
 There are    81 symmetry adapted cartesian basis functions of A'  symmetry.
 There are    66 symmetry adapted cartesian basis functions of A"  symmetry.
 There are    78 symmetry adapted basis functions of A'  symmetry.
 There are    64 symmetry adapted basis functions of A"  symmetry.
   142 basis functions,   226 primitive gaussians,   147 cartesian basis functions
    22 alpha electrons       22 beta electrons
       nuclear repulsion energy       201.9967237939 Hartrees.
 NAtoms=    9 NActive=    9 NUniq=    5 SFac= 3.24D+00 NAtFMM=   60 NAOKFM=F Big=F
 Integral buffers will be    131072 words long.
 Raffenetti 2 integral format.
 Two-electron integral symmetry is turned on.
 One-electron integrals computed using PRISM.
 NBasis=   142 RedAO= T EigKep=  1.52D-05  NBF=    78    64
 NBsUse=   142 1.00D-06 EigRej= -1.00D+00 NBFU=    78    64
 ExpMin= 4.05D-02 ExpMax= 9.34D+04 ExpMxC= 3.17D+03 IAcc=2 IRadAn=         4 AccDes= 0.00D+00
 Harris functional with IExCor=  402 and IRadAn=       4 diagonalized for initial guess.
 HarFok:  IExCor=  402 AccDes= 0.00D+00 IRadAn=         4 IDoV= 1 UseB2=F ITyADJ=14
 ICtDFT=  3500011 ScaDFX=  1.000000  1.000000  1.000000  1.000000
 FoFCou: FMM=F IPFlag=           0 FMFlag=      100000 FMFlg1=           0
         NFxFlg=           0 DoJE=T BraDBF=F KetDBF=T FulRan=T
         wScrn=  0.000000 ICntrl=     500 IOpCl=  0 I1Cent=   200000004 NGrid=           0
         NMat0=    1 NMatS0=      1 NMatT0=    0 NMatD0=    1 NMtDS0=    0 NMtDT0=    0
 Petite list used in FoFCou.
 Initial guess orbital symmetries:
       Occupied  (A') (A') (A") (A") (A') (A') (A") (A') (A') (A')
                 (A") (A') (A') (A") (A') (A") (A') (A") (A') (A')
                 (A") (A')
       Virtual   (A') (A") (A") (A') (A") (A') (A') (A") (A') (A')
                 (A') (A') (A") (A') (A") (A') (A") (A') (A") (A')
                 (A") (A') (A") (A") (A') (A') (A') (A") (A") (A")
                 (A') (A') (A") (A') (A") (A') (A") (A') (A') (A")
                 (A") (A') (A") (A') (A") (A') (A') (A") (A') (A")
                 (A') (A") (A') (A") (A") (A') (A') (A") (A') (A')
                 (A') (A") (A") (A') (A") (A') (A') (A") (A') (A")
                 (A") (A') (A') (A") (A') (A') (A") (A') (A") (A")
                 (A') (A") (A') (A') (A") (A') (A") (A") (A') (A")
                 (A') (A") (A') (A') (A") (A") (A') (A") (A") (A')
                 (A') (A") (A') (A") (A") (A') (A") (A') (A') (A")
                 (A") (A') (A') (A") (A') (A') (A") (A') (A") (A')
 The electronic state of the initial guess is 1-A'.
 Keep R1 ints in memory in symmetry-blocked form, NReq=77439083.
 Requested convergence on RMS density matrix=1.00D-08 within 128 cycles.
 Requested convergence on MAX density matrix=1.00D-06.
 Requested convergence on             energy=1.00D-06.
 No special actions if energy rises.
 SCF Done:  E(RB3LYP) =  -553.073154250     A.U. after   11 cycles
            NFock= 11  Conv=0.32D-08     -V/T= 2.0023

 **********************************************************************

            Population analysis using the SCF density.

 **********************************************************************

 Orbital symmetries:
       Occupied  (A') (A") (A') (A') (A") (A') (A") (A') (A') (A')
                 (A') (A") (A') (A") (A') (A") (A') (A") (A') (A')
                 (A') (A")
       Virtual   (A') (A') (A") (A') (A") (A") (A') (A') (A') (A")
                 (A') (A") (A') (A") (A') (A') (A') (A") (A") (A")
                 (A') (A') (A') (A") (A") (A") (A') (A") (A') (A")
                 (A') (A') (A') (A") (A") (A') (A") (A') (A') (A")
                 (A") (A') (A") (A') (A') (A") (A') (A') (A") (A")
                 (A') (A") (A') (A") (A") (A') (A") (A') (A') (A')
                 (A") (A') (A") (A') (A") (A') (A') (A") (A') (A")
                 (A") (A') (A') (A") (A') (A') (A') (A") (A") (A')
                 (A") (A') (A") (A') (A") (A') (A") (A") (A') (A")
                 (A') (A") (A') (A") (A') (A') (A") (A") (A") (A')
                 (A') (A") (A') (A") (A") (A') (A") (A') (A') (A")
                 (A") (A') (A') (A") (A') (A') (A") (A') (A") (A')
 The electronic state is 1-A'.
 Alpha  occ. eigenvalues --  -88.88039 -10.20250 -10.20249 -10.18156 -10.18113
 Alpha  occ. eigenvalues --   -7.96658  -5.92938  -5.92566  -5.92280  -0.88553
 Alpha  occ. eigenvalues --   -0.74029  -0.73075  -0.57120  -0.55869  -0.52184
 Alpha  occ. eigenvalues --   -0.42138  -0.40144  -0.39356  -0.38521  -0.35052
 Alpha  occ. eigenvalues --   -0.25945  -0.24584
 Alpha virt. eigenvalues --   -0.02568   0.00662   0.00697   0.02797   0.03197
 Alpha virt. eigenvalues --    0.04015   0.04082   0.05252   0.06248   0.06477
 Alpha virt. eigenvalues --    0.08583   0.08965   0.09930   0.10149   0.12022
 Alpha virt. eigenvalues --    0.13891   0.13965   0.14082   0.15309   0.15993
 Alpha virt. eigenvalues --    0.16703   0.17060   0.19931   0.20092   0.20806
 Alpha virt. eigenvalues --    0.22063   0.22394   0.23573   0.27022   0.31123
 Alpha virt. eigenvalues --    0.32737   0.36642   0.38615   0.39933   0.43608
 Alpha virt. eigenvalues --    0.47726   0.51111   0.53277   0.54098   0.55039
 Alpha virt. eigenvalues --    0.59902   0.60412   0.60724   0.61697   0.69233
 Alpha virt. eigenvalues --    0.71478   0.71685   0.73665   0.74412   0.74743
 Alpha virt. eigenvalues --    0.77973   0.79910   0.80295   0.82208   0.83897
 Alpha virt. eigenvalues --    0.88276   0.95980   0.98786   0.99220   1.00384
 Alpha virt. eigenvalues --    1.04403   1.07032   1.10324   1.27913   1.34852
 Alpha virt. eigenvalues --    1.35936   1.52248   1.53886   1.54364   1.56900
 Alpha virt. eigenvalues --    1.58091   1.65771   1.67677   1.69008   1.72397
 Alpha virt. eigenvalues --    1.73522   1.79736   1.79872   1.87235   1.92343
 Alpha virt. eigenvalues --    1.93140   1.95946   1.96586   2.05355   2.08511
 Alpha virt. eigenvalues --    2.11197   2.12689   2.25635   2.34659   2.36925
 Alpha virt. eigenvalues --    2.43477   2.48481   2.60976   2.68026   2.69332
 Alpha virt. eigenvalues --    2.71455   2.73270   2.74757   2.75625   2.79366
 Alpha virt. eigenvalues --    2.85486   2.97219   3.08384   3.25199   3.28612
 Alpha virt. eigenvalues --    3.31539   3.47887   3.49391   4.01045   4.03110
 Alpha virt. eigenvalues --    4.31750   7.90647  17.27515  17.42384  17.45956
 Alpha virt. eigenvalues --   23.60311  23.82474  24.13150  24.16116 189.05053
          Condensed to atoms (all electrons):
               1          2          3          4          5          6
     1  C    5.182662   0.552158  -0.072083  -0.157293   0.228949   0.394688
     2  C    0.552158   4.788057   0.582493  -0.072083  -0.002071  -0.007427
     3  C   -0.072083   0.582493   4.788057   0.552158  -0.002071  -0.005088
     4  C   -0.157293  -0.072083   0.552158   5.182662   0.228949   0.007954
     5  S    0.228949  -0.002071  -0.002071   0.228949  15.564928  -0.031476
     6  H    0.394688  -0.007427  -0.005088   0.007954  -0.031476   0.476042
     7  H   -0.010516   0.386769  -0.033966   0.001113   0.007667  -0.005072
     8  H    0.001113  -0.033966   0.386769  -0.010516   0.007667  -0.000140
     9  H    0.007954  -0.005088  -0.007427   0.394688  -0.031476  -0.000173
               7          8          9
     1  C   -0.010516   0.001113   0.007954
     2  C    0.386769  -0.033966  -0.005088
     3  C   -0.033966   0.386769  -0.007427
     4  C    0.001113  -0.010516   0.394688
     5  S    0.007667   0.007667  -0.031476
     6  H   -0.005072  -0.000140  -0.000173
     7  H    0.527014  -0.004184  -0.000140
     8  H   -0.004184   0.527014  -0.005072
     9  H   -0.000140  -0.005072   0.476042
 Mulliken charges:
               1
     1  C   -0.127633
     2  C   -0.188843
     3  C   -0.188843
     4  C   -0.127633
     5  S    0.028934
     6  H    0.170693
     7  H    0.131316
     8  H    0.131316
     9  H    0.170693
 Sum of Mulliken charges =   0.00000
 Mulliken charges with hydrogens summed into heavy atoms:
               1
     1  C    0.043060
     2  C   -0.057526
     3  C   -0.057526
     4  C    0.043060
     5  S    0.028934
 Electronic spatial extent (au):  <R**2>=            403.0110
 Charge=              0.0000 electrons
 Dipole moment (field-independent basis, Debye):
    X=              0.0028    Y=             -0.5147    Z=              0.0000  Tot=              0.5147
 Quadrupole moment (field-independent basis, Debye-Ang):
   XX=            -40.8782   YY=            -35.0692   ZZ=            -31.9164
   XY=             -0.0015   XZ=              0.0000   YZ=              0.0000
 Traceless Quadrupole moment (field-independent basis, Debye-Ang):
   XX=             -4.9236   YY=              0.8854   ZZ=              4.0382
   XY=             -0.0015   XZ=              0.0000   YZ=              0.0000
 Octapole moment (field-independent basis, Debye-Ang**2):
  XXX=              0.0047  YYY=             -5.4097  ZZZ=              0.0000  XYY=              0.0083
  XXY=              2.2185  XXZ=              0.0000  XZZ=              0.0156  YZZ=              2.2023
  YYZ=              0.0000  XYZ=              0.0000
 Hexadecapole moment (field-independent basis, Debye-Ang**3):
 XXXX=            -53.5302 YYYY=           -282.8351 ZZZZ=           -200.5428 XXXY=             -0.0060
 XXXZ=              0.0000 YYYX=             -0.0157 YYYZ=              0.0000 ZZZX=              0.0000
 ZZZY=              0.0000 XXYY=            -63.6665 XXZZ=            -53.5842 YYZZ=            -78.6847
 XXYZ=              0.0000 YYXZ=              0.0000 ZZXY=             -0.0032
 N-N= 2.019967237939D+02 E-N=-1.709995003464D+03  KE= 5.518059712717D+02
 Symmetry A'   KE= 4.384687363076D+02
 Symmetry A"   KE= 1.133372349641D+02
 There are a total of       73388 grid points.
 ElSum from          density=       44.0000112494
 ElSum from atomic densities=       43.9999001077

 Hirshfeld populations at iteration   1 (CX, CA, CB, DipXYZ):
               1          2          3          4          5          6
     1  C    0.000001   3.040336   3.040336   0.000020   0.053267   0.059636
     2  C    0.000001   3.034690   3.034690   0.000014  -0.113114   0.018679
     3  C    0.000001   3.034690   3.034690   0.000014  -0.113114  -0.018679
     4  C    0.000001   3.040336   3.040336   0.000020   0.053267  -0.059636
     5  S    0.000003   7.960759   7.960759   0.000083  -0.024817   0.000000
     6  H    0.000003   0.471301   0.471301   0.000183   0.041491   0.175694
     7  H    0.000003   0.473297   0.473297   0.000124  -0.139597   0.091095
     8  H    0.000003   0.473297   0.473297   0.000124  -0.139597  -0.091095
     9  H    0.000003   0.471301   0.471301   0.000183   0.041491  -0.175694
       Tot   0.000019  22.000006  22.000006   0.000768  -0.340723   0.000000

 Dip from Atomic Chgs              0.000352   0.138121   0.000000
         Total Dipole              0.001120  -0.202602   0.000000

 Hirshfeld charges, spin densities, dipoles, and CM5 charges using IRadAn=      4:
              Q-H        S-H        Dx         Dy         Dz        Q-CM5   
     1  C   -0.080671   0.000000   0.000020   0.053267   0.059636  -0.147159
     2  C   -0.069379   0.000000   0.000014  -0.113114   0.018679  -0.125935
     3  C   -0.069379   0.000000   0.000014  -0.113114  -0.018679  -0.125935
     4  C   -0.080671   0.000000   0.000020   0.053267  -0.059636  -0.147159
     5  S    0.078481   0.000000   0.000083  -0.024817   0.000000   0.100623
     6  H    0.057399   0.000000   0.000183   0.041491   0.175694   0.113923
     7  H    0.053405   0.000000   0.000124  -0.139597   0.091095   0.108854
     8  H    0.053405   0.000000   0.000124  -0.139597  -0.091095   0.108854
     9  H    0.057399   0.000000   0.000183   0.041491  -0.175694   0.113923
       Tot  -0.000011   0.000000   0.000768  -0.340723   0.000000  -0.000011
 Hirshfeld charges with hydrogens summed into heavy atoms:
              Q-H       Q-CM5   
     1  C   -0.023273  -0.033236
     2  C   -0.015974  -0.017081
     3  C   -0.015974  -0.017081
     4  C   -0.023273  -0.033236
     5  S    0.078481   0.100623
 
 EQQ= 0.000000000000E+00 EQD= 0.000000000000E+00 EDD= 0.714485775997E-02
 EQQ+QD+DD= 0.714485775997E-02
 
          MBS Condensed to atoms (all electrons):
               1          2          3          4          5          6
     1  C    4.963348   0.541848  -0.047529  -0.033390   0.365583   0.386053
     2  C    0.541848   4.850703   0.471571  -0.047529  -0.041720  -0.018921
     3  C   -0.047529   0.471571   4.850703   0.541848  -0.041720   0.001616
     4  C   -0.033390  -0.047529   0.541848   4.963348   0.365583   0.000910
     5  S    0.365583  -0.041720  -0.041720   0.365583  15.333769  -0.019801
     6  H    0.386053  -0.018921   0.001616   0.000910  -0.019801   0.516467
     7  H   -0.022187   0.387780  -0.021352   0.001617   0.001370  -0.002219
     8  H    0.001617  -0.021352   0.387780  -0.022187   0.001370  -0.000031
     9  H    0.000910   0.001616  -0.018921   0.386053  -0.019801  -0.000016
               7          8          9
     1  C   -0.022187   0.001617   0.000910
     2  C    0.387780  -0.021352   0.001616
     3  C   -0.021352   0.387780  -0.018921
     4  C    0.001617  -0.022187   0.386053
     5  S    0.001370   0.001370  -0.019801
     6  H   -0.002219  -0.000031  -0.000016
     7  H    0.540084  -0.001686  -0.000031
     8  H   -0.001686   0.540084  -0.002219
     9  H   -0.000031  -0.002219   0.516467
 MBS Mulliken charges:
               1
     1  C   -0.156253
     2  C   -0.123997
     3  C   -0.123997
     4  C   -0.156253
     5  S    0.055366
     6  H    0.135942
     7  H    0.116625
     8  H    0.116625
     9  H    0.135942
 Sum of MBS Mulliken charges =   0.00000
 MBS Mulliken charges with hydrogens summed into heavy atoms:
               1
     1  C   -0.020311
     2  C   -0.007372
     3  C   -0.007372
     4  C   -0.020311
     5  S    0.055366
 Breneman (CHELPG) radii used.
 Generate Potential Derived Charges using the Breneman model, NDens= 1.
 Grid spacing= 0.300 Box extension= 2.800
 NStep X,Y,Z=   20     31     35   Total possible points=       21700
 Number of Points to Fit=    7818

 **********************************************************************

            Electrostatic Properties Using The SCF Density

 **********************************************************************

       Atomic Center    1 is at  -0.000135 -0.011414  1.241225
       Atomic Center    2 is at  -0.000135 -1.271461  0.713860
       Atomic Center    3 is at  -0.000135 -1.271461 -0.713860
       Atomic Center    4 is at  -0.000135 -0.011414 -1.241225
       Atomic Center    5 is at   0.000043  1.197912  0.000000
       Atomic Center    6 is at   0.000792  0.282930  2.279281
       Atomic Center    7 is at   0.000481 -2.168981  1.318144
       Atomic Center    8 is at   0.000481 -2.168981 -1.318144
       Atomic Center    9 is at   0.000792  0.282930 -2.279281
    7818 points will be used for fitting atomic charges
 Fitting point charges to electrostatic potential
 Charges from ESP fit, RMS=   0.00499 RRMS=   0.51299:
 ESP charges:
               1
     1  C   -0.196665
     2  C   -0.064439
     3  C   -0.064439
     4  C   -0.196665
     5  S    0.024505
     6  H    0.161353
     7  H    0.087497
     8  H    0.087497
     9  H    0.161353
 Sum of ESP charges =   0.00000
 ESP charges with hydrogens summed into heavy atoms:
               1
     1  C   -0.035312
     2  C    0.023059
     3  C    0.023059
     4  C   -0.035312
     5  S    0.024505
 Charge=   0.00000 Dipole=     0.0020    -0.4349     0.0000 Tot=     0.4349
 -----------------------------------------------------------------

              Electrostatic Properties (Atomic Units)

 -----------------------------------------------------------------
    Center     Electric         -------- Electric Field --------
               Potential          X             Y             Z
 -----------------------------------------------------------------
    1 Atom    -14.749132
    2 Atom    -14.769752
    3 Atom    -14.769752
    4 Atom    -14.749132
    5 Atom    -59.213997
    6 Atom     -1.079788
    7 Atom     -1.095715
    8 Atom     -1.095715
    9 Atom     -1.079788
 -----------------------------------------------------------------
 ******************************Gaussian NBO Version 3.1******************************
             N A T U R A L   A T O M I C   O R B I T A L   A N D
          N A T U R A L   B O N D   O R B I T A L   A N A L Y S I S
 ******************************Gaussian NBO Version 3.1******************************
       /RESON  / : Allow strongly delocalized NBO set

 Analyzing the SCF density

 Job title: Table5_1                                                        

 Storage needed:     61270 in NPA ( 104857123 available)


 NATURAL POPULATIONS:  Natural atomic orbital occupancies 
                                                          
   NAO  Atom  No  lang   Type(AO)    Occupancy      Energy
 ----------------------------------------------------------
     1    C    1  S      Cor( 1S)     1.99912     -10.07578
     2    C    1  S      Val( 2S)     1.04557      -0.26995
     3    C    1  S      Ryd( 3S)     0.00148       0.57669
     4    C    1  S      Ryd( 4S)     0.00064       0.60934
     5    C    1  S      Ryd( 5S)     0.00001      23.37676
     6    C    1  px     Val( 2p)     1.13759      -0.14946
     7    C    1  px     Ryd( 3p)     0.00303       0.42667
     8    C    1  px     Ryd( 4p)     0.00037       0.47034
     9    C    1  px     Ryd( 5p)     0.00001       2.54306
    10    C    1  py     Val( 2p)     1.04653      -0.11680
    11    C    1  py     Ryd( 3p)     0.00552       0.49879
    12    C    1  py     Ryd( 4p)     0.00036       0.58055
    13    C    1  py     Ryd( 5p)     0.00028       2.90223
    14    C    1  pz     Val( 2p)     1.14553      -0.10608
    15    C    1  pz     Ryd( 4p)     0.00417       0.81832
    16    C    1  pz     Ryd( 3p)     0.00068       0.72831
    17    C    1  pz     Ryd( 5p)     0.00007       2.76106
    18    C    1  dxy    Ryd( 3d)     0.00072       1.56723
    19    C    1  dxz    Ryd( 3d)     0.00083       1.52214
    20    C    1  dyz    Ryd( 3d)     0.00188       2.22617
    21    C    1  dx2y2  Ryd( 3d)     0.00085       2.00971
    22    C    1  dz2    Ryd( 3d)     0.00091       2.14278

    23    C    2  S      Cor( 1S)     1.99910     -10.03382
    24    C    2  S      Val( 2S)     0.96045      -0.17222
    25    C    2  S      Ryd( 3S)     0.00215       0.58960
    26    C    2  S      Ryd( 4S)     0.00016       0.92740
    27    C    2  S      Ryd( 5S)     0.00001      23.00478
    28    C    2  px     Val( 2p)     1.03893      -0.11427
    29    C    2  px     Ryd( 4p)     0.00152       0.52026
    30    C    2  px     Ryd( 3p)     0.00035       0.27297
    31    C    2  px     Ryd( 5p)     0.00002       2.67840
    32    C    2  py     Val( 2p)     1.15550      -0.07441
    33    C    2  py     Ryd( 4p)     0.00546       0.90620
    34    C    2  py     Ryd( 3p)     0.00042       0.31871
    35    C    2  py     Ryd( 5p)     0.00011       3.11250
    36    C    2  pz     Val( 2p)     1.08574      -0.05844
    37    C    2  pz     Ryd( 4p)     0.00486       0.77928
    38    C    2  pz     Ryd( 3p)     0.00054       0.32006
    39    C    2  pz     Ryd( 5p)     0.00013       3.08708
    40    C    2  dxy    Ryd( 3d)     0.00057       1.64623
    41    C    2  dxz    Ryd( 3d)     0.00053       1.62565
    42    C    2  dyz    Ryd( 3d)     0.00078       2.45854
    43    C    2  dx2y2  Ryd( 3d)     0.00048       2.17187
    44    C    2  dz2    Ryd( 3d)     0.00061       2.39817

    45    C    3  S      Cor( 1S)     1.99910     -10.03382
    46    C    3  S      Val( 2S)     0.96045      -0.17222
    47    C    3  S      Ryd( 3S)     0.00215       0.58960
    48    C    3  S      Ryd( 4S)     0.00016       0.92740
    49    C    3  S      Ryd( 5S)     0.00001      23.00478
    50    C    3  px     Val( 2p)     1.03893      -0.11427
    51    C    3  px     Ryd( 4p)     0.00152       0.52026
    52    C    3  px     Ryd( 3p)     0.00035       0.27297
    53    C    3  px     Ryd( 5p)     0.00002       2.67840
    54    C    3  py     Val( 2p)     1.15550      -0.07441
    55    C    3  py     Ryd( 4p)     0.00546       0.90620
    56    C    3  py     Ryd( 3p)     0.00042       0.31871
    57    C    3  py     Ryd( 5p)     0.00011       3.11250
    58    C    3  pz     Val( 2p)     1.08574      -0.05844
    59    C    3  pz     Ryd( 4p)     0.00486       0.77928
    60    C    3  pz     Ryd( 3p)     0.00054       0.32006
    61    C    3  pz     Ryd( 5p)     0.00013       3.08708
    62    C    3  dxy    Ryd( 3d)     0.00057       1.64623
    63    C    3  dxz    Ryd( 3d)     0.00053       1.62565
    64    C    3  dyz    Ryd( 3d)     0.00078       2.45854
    65    C    3  dx2y2  Ryd( 3d)     0.00048       2.17187
    66    C    3  dz2    Ryd( 3d)     0.00061       2.39817

    67    C    4  S      Cor( 1S)     1.99912     -10.07578
    68    C    4  S      Val( 2S)     1.04557      -0.26995
    69    C    4  S      Ryd( 3S)     0.00148       0.57669
    70    C    4  S      Ryd( 4S)     0.00064       0.60934
    71    C    4  S      Ryd( 5S)     0.00001      23.37676
    72    C    4  px     Val( 2p)     1.13759      -0.14946
    73    C    4  px     Ryd( 3p)     0.00303       0.42667
    74    C    4  px     Ryd( 4p)     0.00037       0.47034
    75    C    4  px     Ryd( 5p)     0.00001       2.54306
    76    C    4  py     Val( 2p)     1.04653      -0.11680
    77    C    4  py     Ryd( 3p)     0.00552       0.49879
    78    C    4  py     Ryd( 4p)     0.00036       0.58055
    79    C    4  py     Ryd( 5p)     0.00028       2.90223
    80    C    4  pz     Val( 2p)     1.14553      -0.10608
    81    C    4  pz     Ryd( 4p)     0.00417       0.81832
    82    C    4  pz     Ryd( 3p)     0.00068       0.72831
    83    C    4  pz     Ryd( 5p)     0.00007       2.76106
    84    C    4  dxy    Ryd( 3d)     0.00072       1.56723
    85    C    4  dxz    Ryd( 3d)     0.00083       1.52214
    86    C    4  dyz    Ryd( 3d)     0.00188       2.22617
    87    C    4  dx2y2  Ryd( 3d)     0.00085       2.00971
    88    C    4  dz2    Ryd( 3d)     0.00091       2.14278

    89    S    5  S      Cor( 1S)     2.00000     -87.72845
    90    S    5  S      Cor( 2S)     1.99926      -8.83874
    91    S    5  S      Val( 3S)     1.62569      -0.73088
    92    S    5  S      Ryd( 5S)     0.00830       0.67231
    93    S    5  S      Ryd( 4S)     0.00034       0.60669
    94    S    5  S      Ryd( 6S)     0.00000      14.35328
    95    S    5  S      Ryd( 7S)     0.00000     182.03277
    96    S    5  px     Cor( 2p)     1.99995      -5.91725
    97    S    5  px     Val( 3p)     1.61558      -0.24780
    98    S    5  px     Ryd( 4p)     0.00606       0.34743
    99    S    5  px     Ryd( 5p)     0.00006       0.58629
   100    S    5  px     Ryd( 6p)     0.00007       1.73483
   101    S    5  px     Ryd( 7p)     0.00000      16.67480
   102    S    5  py     Cor( 2p)     1.99986      -5.91789
   103    S    5  py     Val( 3p)     1.37247      -0.21267
   104    S    5  py     Ryd( 4p)     0.00175       0.40333
   105    S    5  py     Ryd( 5p)     0.00013       0.52159
   106    S    5  py     Ryd( 6p)     0.00024       1.93556
   107    S    5  py     Ryd( 7p)     0.00000      16.55899
   108    S    5  pz     Cor( 2p)     1.99987      -5.92093
   109    S    5  pz     Val( 3p)     0.92755      -0.17602
   110    S    5  pz     Ryd( 4p)     0.00672       0.46229
   111    S    5  pz     Ryd( 5p)     0.00045       0.57474
   112    S    5  pz     Ryd( 6p)     0.00015       1.87379
   113    S    5  pz     Ryd( 7p)     0.00000      16.63574
   114    S    5  dxy    Ryd( 3d)     0.00302       0.85052
   115    S    5  dxz    Ryd( 3d)     0.00555       0.84212
   116    S    5  dyz    Ryd( 3d)     0.00895       1.36569
   117    S    5  dx2y2  Ryd( 3d)     0.00279       1.17290
   118    S    5  dz2    Ryd( 3d)     0.00251       1.02405

   119    H    6  S      Val( 1S)     0.77005       0.04394
   120    H    6  S      Ryd( 3S)     0.00037       2.17669
   121    H    6  S      Ryd( 2S)     0.00032       0.49522
   122    H    6  px     Ryd( 2p)     0.00016       1.56379
   123    H    6  py     Ryd( 2p)     0.00009       1.89881
   124    H    6  pz     Ryd( 2p)     0.00045       2.60189

   125    H    7  S      Val( 1S)     0.77883       0.04724
   126    H    7  S      Ryd( 2S)     0.00047       0.53359
   127    H    7  S      Ryd( 3S)     0.00022       2.12680
   128    H    7  px     Ryd( 2p)     0.00024       1.58464
   129    H    7  py     Ryd( 2p)     0.00036       2.44536
   130    H    7  pz     Ryd( 2p)     0.00025       2.14839

   131    H    8  S      Val( 1S)     0.77883       0.04724
   132    H    8  S      Ryd( 2S)     0.00047       0.53359
   133    H    8  S      Ryd( 3S)     0.00022       2.12680
   134    H    8  px     Ryd( 2p)     0.00024       1.58464
   135    H    8  py     Ryd( 2p)     0.00036       2.44536
   136    H    8  pz     Ryd( 2p)     0.00025       2.14839

   137    H    9  S      Val( 1S)     0.77005       0.04394
   138    H    9  S      Ryd( 3S)     0.00037       2.17669
   139    H    9  S      Ryd( 2S)     0.00032       0.49522
   140    H    9  px     Ryd( 2p)     0.00016       1.56379
   141    H    9  py     Ryd( 2p)     0.00009       1.89881
   142    H    9  pz     Ryd( 2p)     0.00045       2.60189

 WARNING:  Population inversion found on atom  C    1
           Population inversion found on atom  C    2
           Population inversion found on atom  C    3
           Population inversion found on atom  C    4
           Population inversion found on atom  S    5
           Population inversion found on atom  H    6
           Population inversion found on atom  H    9


 Summary of Natural Population Analysis:                  
                                                          
                                       Natural Population 
                Natural  -----------------------------------------------
    Atom  No    Charge         Core      Valence    Rydberg      Total
 -----------------------------------------------------------------------
      C    1   -0.39614      1.99912     4.37521    0.02181     6.39614
      C    2   -0.25840      1.99910     4.24061    0.01869     6.25840
      C    3   -0.25840      1.99910     4.24061    0.01869     6.25840
      C    4   -0.39614      1.99912     4.37521    0.02181     6.39614
      S    5    0.41269      9.99895     5.54129    0.04708    15.58731
      H    6    0.22856      0.00000     0.77005    0.00139     0.77144
      H    7    0.21964      0.00000     0.77883    0.00153     0.78036
      H    8    0.21964      0.00000     0.77883    0.00153     0.78036
      H    9    0.22856      0.00000     0.77005    0.00139     0.77144
 =======================================================================
   * Total *    0.00000     17.99538    25.87071    0.13391    44.00000

                                 Natural Population      
 --------------------------------------------------------
   Core                      17.99538 ( 99.9744% of  18)
   Valence                   25.87071 ( 99.5027% of  26)
   Natural Minimal Basis     43.86609 ( 99.6957% of  44)
   Natural Rydberg Basis      0.13391 (  0.3043% of  44)
 --------------------------------------------------------

    Atom  No          Natural Electron Configuration
 ----------------------------------------------------------------------------
      C    1      [core]2S( 1.05)2p( 3.33)3p( 0.01)3d( 0.01)
      C    2      [core]2S( 0.96)2p( 3.28)4p( 0.01)
      C    3      [core]2S( 0.96)2p( 3.28)4p( 0.01)
      C    4      [core]2S( 1.05)2p( 3.33)3p( 0.01)3d( 0.01)
      S    5      [core]3S( 1.63)3p( 3.92)3d( 0.02)4p( 0.01)5S( 0.01)
      H    6            1S( 0.77)
      H    7            1S( 0.78)
      H    8            1S( 0.78)
      H    9            1S( 0.77)


 NBO analysis skipped by request.
 1\1\GINC-COREV2-22-035\SP\RB3LYP\6-311+G(d,p)\C4H4S1\ROOT\23-Jul-2021\
 0\\# b3lyp/6-311+g(d,p) geom=connectivity pop=(hirshfeld,chelpg,mbs,np
 a)\\Table5_1\\0,1\C,0,0.000135,0.011414,1.241225\C,0,0.000135,1.271461
 ,0.71386\C,0,0.000135,1.271461,-0.71386\C,0,0.000135,0.011414,-1.24122
 5\S,0,-0.000043,-1.197912,0.\H,0,-0.000792,-0.28293,2.279281\H,0,-0.00
 0481,2.168981,1.318144\H,0,-0.000481,2.168981,-1.318144\H,0,-0.000792,
 -0.28293,-2.279281\\Version=ES64L-G09RevD.01\State=1-A'\HF=-553.073154
 3\RMSD=3.159e-09\Dipole=-0.0011196,0.2024838,0.\Quadrupole=-3.6606,0.6
 582851,3.0023148,-0.001144,0.,0.\PG=CS [SG(S1),X(C4H4)]\\@


 IT MATTERS NOT HOW DEEP YOU PLOW,
 BUT HOW LONG YOU STAY IN THE FURROW.
 Job cpu time:       0 days  0 hours  1 minutes 16.3 seconds.
 File lengths (MBytes):  RWF=     65 Int=      0 D2E=      0 Chk=      2 Scr=      1
 Normal termination of Gaussian 09 at Fri Jul 23 17:33:56 2021.
