 Entering Gaussian System, Link 0=g09
 Initial command:
 /cm/shared/apps/gaussian/g09revD.01/g09/l1.exe "//home/sweav003/CHB/CHActivation_Mkhalid/OtherCharges/G09-Table4_3.com.o9641316.tmp/Gau-119026.inp" -scrdir="//home/sweav003/CHB/CHActivation_Mkhalid/OtherCharges/G09-Table4_3.com.o9641316.tmp/"
 Entering Link 1 = /cm/shared/apps/gaussian/g09revD.01/g09/l1.exe PID=    119027.
  
 Copyright (c) 1988,1990,1992,1993,1995,1998,2003,2009,2013,
            Gaussian, Inc.  All Rights Reserved.
  
 This is part of the Gaussian(R) 09 program.  It is based on
 the Gaussian(R) 03 system (copyright 2003, Gaussian, Inc.),
 the Gaussian(R) 98 system (copyright 1998, Gaussian, Inc.),
 the Gaussian(R) 94 system (copyright 1995, Gaussian, Inc.),
 the Gaussian 92(TM) system (copyright 1992, Gaussian, Inc.),
 the Gaussian 90(TM) system (copyright 1990, Gaussian, Inc.),
 the Gaussian 88(TM) system (copyright 1988, Gaussian, Inc.),
 the Gaussian 86(TM) system (copyright 1986, Carnegie Mellon
 University), and the Gaussian 82(TM) system (copyright 1983,
 Carnegie Mellon University). Gaussian is a federally registered
 trademark of Gaussian, Inc.
  
 This software contains proprietary and confidential information,
 including trade secrets, belonging to Gaussian, Inc.
  
 This software is provided under written license and may be
 used, copied, transmitted, or stored only in accord with that
 written license.
  
 The following legend is applicable only to US Government
 contracts under FAR:
  
                    RESTRICTED RIGHTS LEGEND
  
 Use, reproduction and disclosure by the US Government is
 subject to restrictions as set forth in subparagraphs (a)
 and (c) of the Commercial Computer Software - Restricted
 Rights clause in FAR 52.227-19.
  
 Gaussian, Inc.
 340 Quinnipiac St., Bldg. 40, Wallingford CT 06492
  
  
 ---------------------------------------------------------------
 Warning -- This program may not be used in any manner that
 competes with the business of Gaussian, Inc. or will provide
 assistance to any competitor of Gaussian, Inc.  The licensee
 of this program is prohibited from giving any competitor of
 Gaussian, Inc. access to this program.  By using this program,
 the user acknowledges that Gaussian, Inc. is engaged in the
 business of creating and licensing software in the field of
 computational chemistry and represents and warrants to the
 licensee that it is not a competitor of Gaussian, Inc. and that
 it will not use this program in any manner prohibited above.
 ---------------------------------------------------------------
  

 Cite this work as:
 Gaussian 09, Revision D.01,
 M. J. Frisch, G. W. Trucks, H. B. Schlegel, G. E. Scuseria, 
 M. A. Robb, J. R. Cheeseman, G. Scalmani, V. Barone, B. Mennucci, 
 G. A. Petersson, H. Nakatsuji, M. Caricato, X. Li, H. P. Hratchian, 
 A. F. Izmaylov, J. Bloino, G. Zheng, J. L. Sonnenberg, M. Hada, 
 M. Ehara, K. Toyota, R. Fukuda, J. Hasegawa, M. Ishida, T. Nakajima, 
 Y. Honda, O. Kitao, H. Nakai, T. Vreven, J. A. Montgomery, Jr., 
 J. E. Peralta, F. Ogliaro, M. Bearpark, J. J. Heyd, E. Brothers, 
 K. N. Kudin, V. N. Staroverov, T. Keith, R. Kobayashi, J. Normand, 
 K. Raghavachari, A. Rendell, J. C. Burant, S. S. Iyengar, J. Tomasi, 
 M. Cossi, N. Rega, J. M. Millam, M. Klene, J. E. Knox, J. B. Cross, 
 V. Bakken, C. Adamo, J. Jaramillo, R. Gomperts, R. E. Stratmann, 
 O. Yazyev, A. J. Austin, R. Cammi, C. Pomelli, J. W. Ochterski, 
 R. L. Martin, K. Morokuma, V. G. Zakrzewski, G. A. Voth, 
 P. Salvador, J. J. Dannenberg, S. Dapprich, A. D. Daniels, 
 O. Farkas, J. B. Foresman, J. V. Ortiz, J. Cioslowski, 
 and D. J. Fox, Gaussian, Inc., Wallingford CT, 2013.
 
 ******************************************
 Gaussian 09:  ES64L-G09RevD.01 24-Apr-2013
                17-Nov-2021 
 ******************************************
 %nprocshared=15
 Will use up to   15 processors via shared memory.
 %chk=Table4_3.chk
 ----------------------------------------------------------------------
 # opt freq b3lyp/6-311+g(d,p) geom=connectivity pop=(hirshfeld,chelpg,
 mbs,npa)
 ----------------------------------------------------------------------
 1/14=-1,18=20,19=15,26=3,38=1,57=2/1,3;
 2/9=110,12=2,17=6,18=5,40=1/2;
 3/5=4,6=6,7=111,11=2,16=1,25=1,30=1,71=1,74=-5/1,2,3;
 4//1;
 5/5=2,38=5/2;
 6/7=2,8=2,9=2,10=2,15=8,20=3,27=100,28=1,40=-1,79=1/1,2,7;
 7//1,2,3,16;
 1/14=-1,18=20,19=15,26=3/3(2);
 2/9=110/2;
 99//99;
 2/9=110/2;
 3/5=4,6=6,7=111,11=2,16=1,25=1,30=1,71=1,74=-5/1,2,3;
 4/5=5,16=3,69=1/1;
 5/5=2,38=5/2;
 7//1,2,3,16;
 1/14=-1,18=20,19=15,26=3/3(-5);
 2/9=110/2;
 6/7=2,8=2,9=2,10=2,15=8,19=2,20=3,27=100,28=1,40=-1,79=1/1,2,7;
 99/9=1/99;
 --------
 Table4_3
 --------
 Symbolic Z-matrix:
 Charge =  0 Multiplicity = 1
 C                    -0.3781   -2.5231    0.00139 
 C                     1.02306  -2.54752  -0.00702 
 C                     1.74466  -1.34645  -0.03257 
 C                     1.06509  -0.12096  -0.0497 
 C                    -0.33607  -0.09654  -0.04128 
 C                    -1.05767  -1.29761  -0.01574 
 H                     1.54192  -3.48321   0.00606 
 H                     2.81448  -1.3651   -0.039 
 H                    -0.85493   0.83915  -0.05436 
 H                    -2.12748  -1.27896  -0.00931 
 C                     1.85806   1.19889  -0.07778 
 O                     1.24784   2.29933  -0.09316 
 O                     3.28782   1.17397  -0.08637 
 C                    -1.17107  -3.84295   0.02947 
 F                    -2.35168  -3.67214  -0.60257 
 F                    -1.39475  -4.20638   1.31024 
 F                    -0.46191  -4.80735  -0.59466 
 C                     3.78888   2.34468   0.56423 
 H                     4.84275   2.24326   0.71904 
 H                     3.59912   3.20165  -0.04773 
 H                     3.29969   2.46512   1.50821 
 

 GradGradGradGradGradGradGradGradGradGradGradGradGradGradGradGradGradGrad
 Berny optimization.
 Initialization pass.
                           ----------------------------
                           !    Initial Parameters    !
                           ! (Angstroms and Degrees)  !
 --------------------------                            --------------------------
 ! Name  Definition              Value          Derivative Info.                !
 --------------------------------------------------------------------------------
 ! R1    R(1,2)                  1.4014         estimate D2E/DX2                !
 ! R2    R(1,6)                  1.4014         estimate D2E/DX2                !
 ! R3    R(1,14)                 1.54           estimate D2E/DX2                !
 ! R4    R(2,3)                  1.4014         estimate D2E/DX2                !
 ! R5    R(2,7)                  1.07           estimate D2E/DX2                !
 ! R6    R(3,4)                  1.4014         estimate D2E/DX2                !
 ! R7    R(3,8)                  1.07           estimate D2E/DX2                !
 ! R8    R(4,5)                  1.4014         estimate D2E/DX2                !
 ! R9    R(4,11)                 1.54           estimate D2E/DX2                !
 ! R10   R(5,6)                  1.4014         estimate D2E/DX2                !
 ! R11   R(5,9)                  1.07           estimate D2E/DX2                !
 ! R12   R(6,10)                 1.07           estimate D2E/DX2                !
 ! R13   R(11,12)                1.2584         estimate D2E/DX2                !
 ! R14   R(11,13)                1.43           estimate D2E/DX2                !
 ! R15   R(13,18)                1.43           estimate D2E/DX2                !
 ! R16   R(14,15)                1.35           estimate D2E/DX2                !
 ! R17   R(14,16)                1.35           estimate D2E/DX2                !
 ! R18   R(14,17)                1.35           estimate D2E/DX2                !
 ! R19   R(18,19)                1.07           estimate D2E/DX2                !
 ! R20   R(18,20)                1.07           estimate D2E/DX2                !
 ! R21   R(18,21)                1.07           estimate D2E/DX2                !
 ! A1    A(2,1,6)              120.0            estimate D2E/DX2                !
 ! A2    A(2,1,14)             120.0            estimate D2E/DX2                !
 ! A3    A(6,1,14)             120.0            estimate D2E/DX2                !
 ! A4    A(1,2,3)              120.0            estimate D2E/DX2                !
 ! A5    A(1,2,7)              120.0            estimate D2E/DX2                !
 ! A6    A(3,2,7)              120.0            estimate D2E/DX2                !
 ! A7    A(2,3,4)              120.0            estimate D2E/DX2                !
 ! A8    A(2,3,8)              120.0            estimate D2E/DX2                !
 ! A9    A(4,3,8)              120.0            estimate D2E/DX2                !
 ! A10   A(3,4,5)              120.0            estimate D2E/DX2                !
 ! A11   A(3,4,11)             120.0            estimate D2E/DX2                !
 ! A12   A(5,4,11)             120.0            estimate D2E/DX2                !
 ! A13   A(4,5,6)              120.0            estimate D2E/DX2                !
 ! A14   A(4,5,9)              120.0            estimate D2E/DX2                !
 ! A15   A(6,5,9)              120.0            estimate D2E/DX2                !
 ! A16   A(1,6,5)              120.0            estimate D2E/DX2                !
 ! A17   A(1,6,10)             120.0            estimate D2E/DX2                !
 ! A18   A(5,6,10)             120.0            estimate D2E/DX2                !
 ! A19   A(4,11,12)            120.0            estimate D2E/DX2                !
 ! A20   A(4,11,13)            120.0            estimate D2E/DX2                !
 ! A21   A(12,11,13)           120.0            estimate D2E/DX2                !
 ! A22   A(11,13,18)           109.4712         estimate D2E/DX2                !
 ! A23   A(1,14,15)            109.4712         estimate D2E/DX2                !
 ! A24   A(1,14,16)            109.4712         estimate D2E/DX2                !
 ! A25   A(1,14,17)            109.4712         estimate D2E/DX2                !
 ! A26   A(15,14,16)           109.4712         estimate D2E/DX2                !
 ! A27   A(15,14,17)           109.4712         estimate D2E/DX2                !
 ! A28   A(16,14,17)           109.4712         estimate D2E/DX2                !
 ! A29   A(13,18,19)           109.4712         estimate D2E/DX2                !
 ! A30   A(13,18,20)           109.4712         estimate D2E/DX2                !
 ! A31   A(13,18,21)           109.4712         estimate D2E/DX2                !
 ! A32   A(19,18,20)           109.4713         estimate D2E/DX2                !
 ! A33   A(19,18,21)           109.4712         estimate D2E/DX2                !
 ! A34   A(20,18,21)           109.4712         estimate D2E/DX2                !
 ! D1    D(6,1,2,3)             -0.0001         estimate D2E/DX2                !
 ! D2    D(6,1,2,7)            179.9998         estimate D2E/DX2                !
 ! D3    D(14,1,2,3)           179.9999         estimate D2E/DX2                !
 ! D4    D(14,1,2,7)            -0.0002         estimate D2E/DX2                !
 ! D5    D(2,1,6,5)              0.0001         estimate D2E/DX2                !
 ! D6    D(2,1,6,10)          -179.9999         estimate D2E/DX2                !
 ! D7    D(14,1,6,5)          -179.9999         estimate D2E/DX2                !
 ! D8    D(14,1,6,10)            0.0001         estimate D2E/DX2                !
 ! D9    D(2,1,14,15)         -150.0            estimate D2E/DX2                !
 ! D10   D(2,1,14,16)           90.0            estimate D2E/DX2                !
 ! D11   D(2,1,14,17)          -30.0            estimate D2E/DX2                !
 ! D12   D(6,1,14,15)           30.0            estimate D2E/DX2                !
 ! D13   D(6,1,14,16)          -90.0            estimate D2E/DX2                !
 ! D14   D(6,1,14,17)          150.0            estimate D2E/DX2                !
 ! D15   D(1,2,3,4)              0.0001         estimate D2E/DX2                !
 ! D16   D(1,2,3,8)            179.9999         estimate D2E/DX2                !
 ! D17   D(7,2,3,4)           -179.9999         estimate D2E/DX2                !
 ! D18   D(7,2,3,8)              0.0            estimate D2E/DX2                !
 ! D19   D(2,3,4,5)              0.0            estimate D2E/DX2                !
 ! D20   D(2,3,4,11)           180.0            estimate D2E/DX2                !
 ! D21   D(8,3,4,5)           -179.9998         estimate D2E/DX2                !
 ! D22   D(8,3,4,11)             0.0001         estimate D2E/DX2                !
 ! D23   D(3,4,5,6)              0.0            estimate D2E/DX2                !
 ! D24   D(3,4,5,9)            179.9998         estimate D2E/DX2                !
 ! D25   D(11,4,5,6)          -180.0            estimate D2E/DX2                !
 ! D26   D(11,4,5,9)            -0.0001         estimate D2E/DX2                !
 ! D27   D(3,4,11,12)         -180.0            estimate D2E/DX2                !
 ! D28   D(3,4,11,13)            0.0            estimate D2E/DX2                !
 ! D29   D(5,4,11,12)            0.0            estimate D2E/DX2                !
 ! D30   D(5,4,11,13)          180.0            estimate D2E/DX2                !
 ! D31   D(4,5,6,1)              0.0            estimate D2E/DX2                !
 ! D32   D(4,5,6,10)          -180.0            estimate D2E/DX2                !
 ! D33   D(9,5,6,1)           -179.9999         estimate D2E/DX2                !
 ! D34   D(9,5,6,10)             0.0001         estimate D2E/DX2                !
 ! D35   D(4,11,13,18)        -150.0            estimate D2E/DX2                !
 ! D36   D(12,11,13,18)         30.0            estimate D2E/DX2                !
 ! D37   D(11,13,18,19)        169.6527         estimate D2E/DX2                !
 ! D38   D(11,13,18,20)        -70.3473         estimate D2E/DX2                !
 ! D39   D(11,13,18,21)         49.6527         estimate D2E/DX2                !
 --------------------------------------------------------------------------------
 Trust Radius=3.00D-01 FncErr=1.00D-07 GrdErr=1.00D-06
 Number of steps in this run=    104 maximum allowed number of steps=    126.
 GradGradGradGradGradGradGradGradGradGradGradGradGradGradGradGradGradGrad

                          Input orientation:                          
 ---------------------------------------------------------------------
 Center     Atomic      Atomic             Coordinates (Angstroms)
 Number     Number       Type             X           Y           Z
 ---------------------------------------------------------------------
      1          6           0       -0.378104   -2.523096    0.001393
      2          6           0        1.023058   -2.547517   -0.007024
      3          6           0        1.744657   -1.346450   -0.032573
      4          6           0        1.065095   -0.120961   -0.049703
      5          6           0       -0.336067   -0.096539   -0.041284
      6          6           0       -1.057667   -1.297607   -0.015736
      7          1           0        1.541919   -3.483205    0.006057
      8          1           0        2.814476   -1.365096   -0.038998
      9          1           0       -0.854928    0.839149   -0.054360
     10          1           0       -2.127485   -1.278961   -0.009308
     11          6           0        1.858061    1.198894   -0.077777
     12          8           0        1.247842    2.299333   -0.093159
     13          8           0        3.287818    1.173974   -0.086367
     14          6           0       -1.171071   -3.842951    0.029466
     15          9           0       -2.351685   -3.672140   -0.602574
     16          9           0       -1.394749   -4.206381    1.310241
     17          9           0       -0.461911   -4.807345   -0.594661
     18          6           0        3.788880    2.344682    0.564233
     19          1           0        4.842753    2.243259    0.719035
     20          1           0        3.599118    3.201649   -0.047730
     21          1           0        3.299687    2.465122    1.508206
 ---------------------------------------------------------------------
                    Distance matrix (angstroms):
                    1          2          3          4          5
     1  C    0.000000
     2  C    1.401400   0.000000
     3  C    2.427296   1.401400   0.000000
     4  C    2.802800   2.427296   1.401400   0.000000
     5  C    2.427296   2.802800   2.427296   1.401400   0.000000
     6  C    1.401400   2.427296   2.802800   2.427296   1.401400
     7  H    2.146700   1.070000   2.146700   3.396345   3.872800
     8  H    3.396345   2.146700   1.070000   2.146700   3.396345
     9  H    3.396345   3.872800   3.396345   2.146700   1.070000
    10  H    2.146700   3.396345   3.872800   3.396345   2.146700
    11  C    4.342800   3.838989   2.548270   1.540000   2.548270
    12  O    5.090036   4.852825   3.679977   2.427572   2.872571
    13  O    5.207208   4.357170   2.955804   2.572683   3.840414
    14  C    1.540000   2.548270   3.838989   4.342800   3.838989
    15  F    2.362224   3.606708   4.744866   4.958924   4.142787
    16  F    2.362224   3.214469   4.454013   4.958925   4.454013
    17  F    2.362224   2.767178   4.142787   4.958924   4.744866
    18  C    6.432403   5.648869   4.261394   3.724958   4.831293
    19  H    7.105667   6.169990   4.800950   4.522300   5.733491
    20  H    6.970898   6.300052   4.911665   4.178638   5.134566
    21  H    6.378005   5.710124   4.395475   3.756103   4.709749
                    6          7          8          9         10
     6  C    0.000000
     7  H    3.396345   0.000000
     8  H    3.872800   2.471400   0.000000
     9  H    2.146700   4.942800   4.280590   0.000000
    10  H    1.070000   4.280590   4.942800   2.471400   0.000000
    11  C    3.838989   4.693509   2.736837   2.736837   4.693509
    12  O    4.273095   5.790861   3.985638   2.560329   4.919761
    13  O    4.999694   4.974538   2.583249   4.156378   5.945446
    14  C    2.548270   2.736837   4.693509   4.693509   2.736837
    15  F    2.767178   3.945412   5.685885   4.784616   2.475791
    16  F    3.214469   3.293615   5.254610   5.254609   3.293616
    17  F    3.606708   2.475791   4.784616   5.685885   3.945412
    18  C    6.090291   6.270938   3.882757   4.920796   6.961544
    19  H    6.920446   6.648025   4.208177   5.918888   7.843515
    20  H    6.475336   6.994443   4.633670   5.041823   7.271267
    21  H    5.955423   6.381912   4.159308   4.727180   6.765737
                   11         12         13         14         15
    11  C    0.000000
    12  O    1.258400   0.000000
    13  O    1.430000   2.329803   0.000000
    14  C    5.882800   6.602562   6.713020   0.000000
    15  F    6.459439   6.991037   7.453542   1.350000   0.000000
    16  F    6.459440   7.160806   7.268093   1.350000   2.204541
    17  F    6.459439   7.326639   7.077783   1.350000   2.204541
    18  C    2.335180   2.625089   1.430000   7.948200   8.675836
    19  H    3.260981   3.685945   2.051796   8.583911   9.407366
    20  H    2.653905   2.518876   2.051796   8.508057   9.108726
    21  H    2.489370   2.608050   2.051796   7.871857   8.605776
                   16         17         18         19         20
    16  F    0.000000
    17  F    2.204541   0.000000
    18  C    8.387071   8.400223   0.000000
    19  H    8.991875   8.920554   1.070000   0.000000
    20  H    9.036687   8.996393   1.070000   1.747303   0.000000
    21  H    8.160017   8.453429   1.070000   1.747303   1.747303
                   21
    21  H    0.000000
 Stoichiometry    C9H7F3O2
 Framework group  C1[X(C9H7F3O2)]
 Deg. of freedom    57
 Full point group                 C1      NOp   1
 Largest Abelian subgroup         C1      NOp   1
 Largest concise Abelian subgroup C1      NOp   1
                         Standard orientation:                         
 ---------------------------------------------------------------------
 Center     Atomic      Atomic             Coordinates (Angstroms)
 Number     Number       Type             X           Y           Z
 ---------------------------------------------------------------------
      1          6           0       -1.515178    0.003545   -0.007079
      2          6           0       -0.736816   -1.158217   -0.098638
      3          6           0        0.660605   -1.063529   -0.145218
      4          6           0        1.279665    0.192920   -0.100237
      5          6           0        0.501302    1.354682   -0.008676
      6          6           0       -0.896119    1.259994    0.037903
      7          1           0       -1.209481   -2.117544   -0.132980
      8          1           0        1.254902   -1.950561   -0.215125
      9          1           0        0.973968    2.314008    0.025671
     10          1           0       -1.490416    2.147025    0.107812
     11          6           0        2.815293    0.296971   -0.151423
     12          8           0        3.371182    1.425211   -0.111031
     13          8           0        3.609540   -0.888500   -0.244852
     14          6           0       -3.050806   -0.100506    0.044105
     15          9           0       -3.595362    1.001543   -0.513969
     16          9           0       -3.452547   -0.199529    1.329134
     17          9           0       -3.450678   -1.194747   -0.637980
     18          6           0        4.869150   -0.670069    0.395905
     19          1           0        5.389419   -1.600679    0.486377
     20          1           0        5.453360    0.009832   -0.188334
     21          1           0        4.707178   -0.255918    1.369118
 ---------------------------------------------------------------------
 Rotational constants (GHZ):      2.0788693      0.2825749      0.2622779
 Standard basis: 6-311+G(d,p) (5D, 7F)
 There are   364 symmetry adapted cartesian basis functions of A   symmetry.
 There are   350 symmetry adapted basis functions of A   symmetry.
   350 basis functions,   560 primitive gaussians,   364 cartesian basis functions
    52 alpha electrons       52 beta electrons
       nuclear repulsion energy       873.2797460904 Hartrees.
 NAtoms=   21 NActive=   21 NUniq=   21 SFac= 1.00D+00 NAtFMM=   60 NAOKFM=F Big=F
 Integral buffers will be    131072 words long.
 Raffenetti 2 integral format.
 Two-electron integral symmetry is turned on.
 One-electron integrals computed using PRISM.
 PrsmSu:  requested number of processors reduced to:   9 ShMem   1 Linda.
 NBasis=   350 RedAO= T EigKep=  2.17D-06  NBF=   350
 NBsUse=   349 1.00D-06 EigRej=  9.93D-07 NBFU=   349
 ExpMin= 4.38D-02 ExpMax= 1.14D+04 ExpMxC= 1.72D+03 IAcc=2 IRadAn=         4 AccDes= 0.00D+00
 Harris functional with IExCor=  402 and IRadAn=       4 diagonalized for initial guess.
 HarFok:  IExCor=  402 AccDes= 0.00D+00 IRadAn=         4 IDoV= 1 UseB2=F ITyADJ=14
 ICtDFT=  3500011 ScaDFX=  1.000000  1.000000  1.000000  1.000000
 FoFCou: FMM=F IPFlag=           0 FMFlag=      100000 FMFlg1=           0
         NFxFlg=           0 DoJE=T BraDBF=F KetDBF=T FulRan=T
         wScrn=  0.000000 ICntrl=     500 IOpCl=  0 I1Cent=   200000004 NGrid=           0
         NMat0=    1 NMatS0=      1 NMatT0=    0 NMatD0=    1 NMtDS0=    0 NMtDT0=    0
 Petite list used in FoFCou.
 Requested convergence on RMS density matrix=1.00D-08 within 128 cycles.
 Requested convergence on MAX density matrix=1.00D-06.
 Requested convergence on             energy=1.00D-06.
 No special actions if energy rises.
 SCF Done:  E(RB3LYP) =  -797.382608706     A.U. after   15 cycles
            NFock= 15  Conv=0.44D-08     -V/T= 2.0039

 **********************************************************************

            Population analysis using the SCF density.

 **********************************************************************

 Orbital symmetries:
       Occupied  (A) (A) (A) (A) (A) (A) (A) (A) (A) (A) (A) (A)
                 (A) (A) (A) (A) (A) (A) (A) (A) (A) (A) (A) (A)
                 (A) (A) (A) (A) (A) (A) (A) (A) (A) (A) (A) (A)
                 (A) (A) (A) (A) (A) (A) (A) (A) (A) (A) (A) (A)
                 (A) (A) (A) (A)
       Virtual   (A) (A) (A) (A) (A) (A) (A) (A) (A) (A) (A) (A)
                 (A) (A) (A) (A) (A) (A) (A) (A) (A) (A) (A) (A)
                 (A) (A) (A) (A) (A) (A) (A) (A) (A) (A) (A) (A)
                 (A) (A) (A) (A) (A) (A) (A) (A) (A) (A) (A) (A)
                 (A) (A) (A) (A) (A) (A) (A) (A) (A) (A) (A) (A)
                 (A) (A) (A) (A) (A) (A) (A) (A) (A) (A) (A) (A)
                 (A) (A) (A) (A) (A) (A) (A) (A) (A) (A) (A) (A)
                 (A) (A) (A) (A) (A) (A) (A) (A) (A) (A) (A) (A)
                 (A) (A) (A) (A) (A) (A) (A) (A) (A) (A) (A) (A)
                 (A) (A) (A) (A) (A) (A) (A) (A) (A) (A) (A) (A)
                 (A) (A) (A) (A) (A) (A) (A) (A) (A) (A) (A) (A)
                 (A) (A) (A) (A) (A) (A) (A) (A) (A) (A) (A) (A)
                 (A) (A) (A) (A) (A) (A) (A) (A) (A) (A) (A) (A)
                 (A) (A) (A) (A) (A) (A) (A) (A) (A) (A) (A) (A)
                 (A) (A) (A) (A) (A) (A) (A) (A) (A) (A) (A) (A)
                 (A) (A) (A) (A) (A) (A) (A) (A) (A) (A) (A) (A)
                 (A) (A) (A) (A) (A) (A) (A) (A) (A) (A) (A) (A)
                 (A) (A) (A) (A) (A) (A) (A) (A) (A) (A) (A) (A)
                 (A) (A) (A) (A) (A) (A) (A) (A) (A) (A) (A) (A)
                 (A) (A) (A) (A) (A) (A) (A) (A) (A) (A) (A) (A)
                 (A) (A) (A) (A) (A) (A) (A) (A) (A) (A) (A) (A)
                 (A) (A) (A) (A) (A) (A) (A) (A) (A) (A) (A) (A)
                 (A) (A) (A) (A) (A) (A) (A) (A) (A) (A) (A) (A)
                 (A) (A) (A) (A) (A) (A) (A) (A) (A) (A) (A) (A)
                 (A) (A) (A) (A) (A) (A) (A) (A) (A)
 The electronic state is 1-A.
 Alpha  occ. eigenvalues --  -24.73221 -24.73217 -24.73050 -19.18249 -19.13525
 Alpha  occ. eigenvalues --  -10.44935 -10.33525 -10.23047 -10.23016 -10.22532
 Alpha  occ. eigenvalues --  -10.21374 -10.21352 -10.21272 -10.21255  -1.33437
 Alpha  occ. eigenvalues --   -1.25202  -1.25024  -1.09957  -1.02057  -0.89895
 Alpha  occ. eigenvalues --   -0.81632  -0.78542  -0.74356  -0.72009  -0.66196
 Alpha  occ. eigenvalues --   -0.65230  -0.61616  -0.61190  -0.59684  -0.59035
 Alpha  occ. eigenvalues --   -0.54530  -0.50351  -0.49604  -0.49219  -0.48999
 Alpha  occ. eigenvalues --   -0.48436  -0.47485  -0.46970  -0.46464  -0.46107
 Alpha  occ. eigenvalues --   -0.44687  -0.43604  -0.43012  -0.41713  -0.39012
 Alpha  occ. eigenvalues --   -0.38641  -0.38442  -0.37318  -0.31681  -0.29913
 Alpha  occ. eigenvalues --   -0.29443  -0.28992
 Alpha virt. eigenvalues --   -0.09010  -0.04816  -0.00590  -0.00135   0.01077
 Alpha virt. eigenvalues --    0.01795   0.02357   0.03595   0.03691   0.03992
 Alpha virt. eigenvalues --    0.04810   0.05386   0.06074   0.07046   0.07522
 Alpha virt. eigenvalues --    0.08077   0.09069   0.09734   0.10072   0.10494
 Alpha virt. eigenvalues --    0.11461   0.11851   0.12295   0.13053   0.13175
 Alpha virt. eigenvalues --    0.13562   0.13745   0.14412   0.14959   0.15438
 Alpha virt. eigenvalues --    0.16130   0.16702   0.16870   0.17665   0.18437
 Alpha virt. eigenvalues --    0.18655   0.19137   0.19515   0.19867   0.20258
 Alpha virt. eigenvalues --    0.20692   0.20932   0.21299   0.22055   0.22617
 Alpha virt. eigenvalues --    0.22652   0.23933   0.24296   0.24802   0.25392
 Alpha virt. eigenvalues --    0.25529   0.26672   0.27170   0.27490   0.28344
 Alpha virt. eigenvalues --    0.29097   0.29750   0.30526   0.31288   0.32764
 Alpha virt. eigenvalues --    0.33340   0.33831   0.34194   0.34686   0.35087
 Alpha virt. eigenvalues --    0.35527   0.36217   0.36469   0.38332   0.38774
 Alpha virt. eigenvalues --    0.39518   0.40835   0.41588   0.43283   0.43530
 Alpha virt. eigenvalues --    0.44766   0.45355   0.46333   0.46439   0.48189
 Alpha virt. eigenvalues --    0.49632   0.50834   0.53001   0.53351   0.53994
 Alpha virt. eigenvalues --    0.54933   0.55427   0.56865   0.58149   0.59715
 Alpha virt. eigenvalues --    0.60839   0.61689   0.62062   0.63559   0.64195
 Alpha virt. eigenvalues --    0.64430   0.65019   0.65834   0.68107   0.68959
 Alpha virt. eigenvalues --    0.69285   0.69854   0.70393   0.71544   0.72577
 Alpha virt. eigenvalues --    0.75192   0.77559   0.79603   0.82344   0.84222
 Alpha virt. eigenvalues --    0.85815   0.86539   0.87750   0.88709   0.90005
 Alpha virt. eigenvalues --    0.91229   0.92694   0.96224   0.97949   0.98483
 Alpha virt. eigenvalues --    0.99846   1.00947   1.02478   1.03602   1.04912
 Alpha virt. eigenvalues --    1.06871   1.07894   1.10301   1.10674   1.11876
 Alpha virt. eigenvalues --    1.14495   1.17746   1.20121   1.23020   1.25447
 Alpha virt. eigenvalues --    1.30817   1.31042   1.32718   1.34350   1.37819
 Alpha virt. eigenvalues --    1.38184   1.38776   1.40651   1.41417   1.42261
 Alpha virt. eigenvalues --    1.44973   1.45151   1.46483   1.47495   1.47749
 Alpha virt. eigenvalues --    1.48375   1.49336   1.49840   1.50484   1.50826
 Alpha virt. eigenvalues --    1.53340   1.54095   1.54461   1.56831   1.59638
 Alpha virt. eigenvalues --    1.62795   1.62981   1.65189   1.66780   1.67402
 Alpha virt. eigenvalues --    1.68197   1.70058   1.71571   1.72926   1.75493
 Alpha virt. eigenvalues --    1.76751   1.78279   1.79325   1.81078   1.81560
 Alpha virt. eigenvalues --    1.86918   1.88388   1.89160   1.91755   1.92627
 Alpha virt. eigenvalues --    1.94781   1.95880   1.97106   1.97675   2.00139
 Alpha virt. eigenvalues --    2.04246   2.06249   2.07803   2.11365   2.11835
 Alpha virt. eigenvalues --    2.15446   2.16131   2.17920   2.18763   2.25488
 Alpha virt. eigenvalues --    2.30876   2.37381   2.38170   2.40397   2.43611
 Alpha virt. eigenvalues --    2.46150   2.50628   2.53745   2.55760   2.60449
 Alpha virt. eigenvalues --    2.61475   2.62702   2.65026   2.66197   2.68438
 Alpha virt. eigenvalues --    2.70969   2.71398   2.71862   2.72830   2.74906
 Alpha virt. eigenvalues --    2.76868   2.77565   2.80792   2.83351   2.87127
 Alpha virt. eigenvalues --    2.88491   2.89334   2.90701   2.91733   2.92773
 Alpha virt. eigenvalues --    2.96569   2.97124   3.02778   3.05875   3.07597
 Alpha virt. eigenvalues --    3.10159   3.14467   3.17495   3.23678   3.28812
 Alpha virt. eigenvalues --    3.31915   3.35695   3.44091   3.45702   3.51506
 Alpha virt. eigenvalues --    3.52125   3.59847   3.67609   3.69861   3.73267
 Alpha virt. eigenvalues --    3.74073   3.75151   3.75644   3.76161   3.77894
 Alpha virt. eigenvalues --    3.83084   3.83975   3.91709   3.92044   3.92288
 Alpha virt. eigenvalues --    3.98455   4.01051   4.08509   4.09063   4.14924
 Alpha virt. eigenvalues --    4.16621   4.16884   4.19529   4.26034   4.65187
 Alpha virt. eigenvalues --    4.80859   4.89557   4.92565   5.00358   5.03359
 Alpha virt. eigenvalues --    5.18231   5.32325   5.56788   5.76750   6.30478
 Alpha virt. eigenvalues --    6.32526   6.34420   6.36299   6.37435   6.38669
 Alpha virt. eigenvalues --    6.43118   6.72748   6.74746  23.47012  23.57852
 Alpha virt. eigenvalues --   23.67997  23.89353  23.92807  23.95336  24.00979
 Alpha virt. eigenvalues --   24.05683  24.13558  49.86980  49.95956  66.73398
 Alpha virt. eigenvalues --   66.74037  66.79927
          Condensed to atoms (all electrons):
               1          2          3          4          5          6
     1  C   15.144209  -1.760161  -0.589588   0.311071  -1.248347  -0.073197
     2  C   -1.760161  20.195731  -7.745430   0.004872  -5.727856   0.174601
     3  C   -0.589588  -7.745430  20.542552  -0.333746  -0.231429  -4.962857
     4  C    0.311071   0.004872  -0.333746  16.478942   0.209588  -1.078674
     5  C   -1.248347  -5.727856  -0.231429   0.209588  17.600682  -3.727211
     6  C   -0.073197   0.174601  -4.962857  -1.078674  -3.727211  14.987181
     7  H   -0.053558   0.347244   0.049093   0.010526  -0.005036  -0.026664
     8  H    0.010425   0.025523   0.337993  -0.026647  -0.020970   0.002534
     9  H    0.020707  -0.009422  -0.007555  -0.078631   0.369915  -0.009116
    10  H   -0.066966  -0.018258  -0.006235   0.021093  -0.011479   0.396956
    11  C   -1.110892  -0.803206   0.893833  -8.731865  -0.404704   0.540478
    12  O   -0.002406   0.082020  -0.039216  -0.086618  -0.066719   0.106193
    13  O   -0.011424   0.079375   0.030922  -0.539011  -0.010741   0.037889
    14  C   -4.237300   1.748885  -1.546706  -0.679077  -0.610890   0.044831
    15  F   -0.074495  -0.036361   0.035634   0.020521   0.140846  -0.032564
    16  F    0.397073  -0.154834   0.000854   0.009789  -0.020557  -0.134212
    17  F   -0.028880  -0.114150   0.130344   0.019026   0.028185   0.023300
    18  C   -0.019507  -0.037331  -0.010837  -0.368229  -0.018791  -0.002087
    19  H   -0.000066   0.001216  -0.004110   0.011599   0.003472   0.000727
    20  H   -0.000475  -0.000885   0.006188  -0.051837  -0.008468  -0.002952
    21  H    0.002093   0.000780  -0.004907   0.112143  -0.000787  -0.000605
               7          8          9         10         11         12
     1  C   -0.053558   0.010425   0.020707  -0.066966  -1.110892  -0.002406
     2  C    0.347244   0.025523  -0.009422  -0.018258  -0.803206   0.082020
     3  C    0.049093   0.337993  -0.007555  -0.006235   0.893833  -0.039216
     4  C    0.010526  -0.026647  -0.078631   0.021093  -8.731865  -0.086618
     5  C   -0.005036  -0.020970   0.369915  -0.011479  -0.404704  -0.066719
     6  C   -0.026664   0.002534  -0.009116   0.396956   0.540478   0.106193
     7  H    0.506537  -0.007138   0.000057  -0.000220   0.014229  -0.000015
     8  H   -0.007138   0.495157  -0.000134   0.000048   0.014763   0.000001
     9  H    0.000057  -0.000134   0.487561  -0.006652   0.060523   0.004431
    10  H   -0.000220   0.000048  -0.006652   0.503254   0.006709   0.000054
    11  C    0.014229   0.014763   0.060523   0.006709  15.454821   0.357688
    12  O   -0.000015   0.000001   0.004431   0.000054   0.357688   8.088801
    13  O    0.000257   0.001951   0.000712   0.000024   0.385749  -0.133749
    14  C    0.012152   0.009756   0.005116   0.027144  -0.639753   0.001995
    15  F    0.000563   0.000015   0.000038   0.004487   0.005122   0.000001
    16  F   -0.000023   0.000046   0.000031  -0.000088  -0.000375  -0.000002
    17  F    0.004896   0.000027   0.000017   0.000496   0.003448  -0.000002
    18  C    0.000138  -0.001567   0.000798   0.000020   0.194231  -0.060973
    19  H    0.000000   0.000051   0.000000   0.000000   0.018875   0.004189
    20  H    0.000000  -0.000065  -0.000005   0.000000   0.038078  -0.005418
    21  H   -0.000001   0.000127  -0.000024   0.000000  -0.110429   0.000659
              13         14         15         16         17         18
     1  C   -0.011424  -4.237300  -0.074495   0.397073  -0.028880  -0.019507
     2  C    0.079375   1.748885  -0.036361  -0.154834  -0.114150  -0.037331
     3  C    0.030922  -1.546706   0.035634   0.000854   0.130344  -0.010837
     4  C   -0.539011  -0.679077   0.020521   0.009789   0.019026  -0.368229
     5  C   -0.010741  -0.610890   0.140846  -0.020557   0.028185  -0.018791
     6  C    0.037889   0.044831  -0.032564  -0.134212   0.023300  -0.002087
     7  H    0.000257   0.012152   0.000563  -0.000023   0.004896   0.000138
     8  H    0.001951   0.009756   0.000015   0.000046   0.000027  -0.001567
     9  H    0.000712   0.005116   0.000038   0.000031   0.000017   0.000798
    10  H    0.000024   0.027144   0.004487  -0.000088   0.000496   0.000020
    11  C    0.385749  -0.639753   0.005122  -0.000375   0.003448   0.194231
    12  O   -0.133749   0.001995   0.000001  -0.000002  -0.000002  -0.060973
    13  O    8.238833  -0.001778  -0.000001  -0.000003   0.000003   0.192796
    14  C   -0.001778  10.519008   0.087988   0.082874   0.088812  -0.002247
    15  F   -0.000001   0.087988   9.013846  -0.043017  -0.022478   0.000012
    16  F   -0.000003   0.082874  -0.043017   8.950673  -0.043472  -0.000013
    17  F    0.000003   0.088812  -0.022478  -0.043472   9.010253   0.000008
    18  C    0.192796  -0.002247   0.000012  -0.000013   0.000008   5.078081
    19  H   -0.055014   0.000002   0.000000   0.000000   0.000000   0.394098
    20  H   -0.034287  -0.000031   0.000000   0.000000   0.000000   0.443896
    21  H   -0.038461   0.000120   0.000000   0.000000   0.000000   0.412026
              19         20         21
     1  C   -0.000066  -0.000475   0.002093
     2  C    0.001216  -0.000885   0.000780
     3  C   -0.004110   0.006188  -0.004907
     4  C    0.011599  -0.051837   0.112143
     5  C    0.003472  -0.008468  -0.000787
     6  C    0.000727  -0.002952  -0.000605
     7  H    0.000000   0.000000  -0.000001
     8  H    0.000051  -0.000065   0.000127
     9  H    0.000000  -0.000005  -0.000024
    10  H    0.000000   0.000000   0.000000
    11  C    0.018875   0.038078  -0.110429
    12  O    0.004189  -0.005418   0.000659
    13  O   -0.055014  -0.034287  -0.038461
    14  C    0.000002  -0.000031   0.000120
    15  F    0.000000   0.000000   0.000000
    16  F    0.000000   0.000000   0.000000
    17  F    0.000000   0.000000   0.000000
    18  C    0.394098   0.443896   0.412026
    19  H    0.532835  -0.028976  -0.028211
    20  H   -0.028976   0.518212  -0.037256
    21  H   -0.028211  -0.037256   0.546632
 Mulliken charges:
               1
     1  C   -0.608316
     2  C   -0.252356
     3  C   -0.544796
     4  C    0.765165
     5  C   -0.238704
     6  C   -0.264553
     7  H    0.146961
     8  H    0.158104
     9  H    0.161631
    10  H    0.149612
    11  C   -0.187322
    12  O   -0.250916
    13  O   -0.144042
    14  C    1.089098
    15  F   -0.100157
    16  F   -0.044744
    17  F   -0.099833
    18  C   -0.194524
    19  H    0.149315
    20  H    0.164279
    21  H    0.146099
 Sum of Mulliken charges =   0.00000
 Mulliken charges with hydrogens summed into heavy atoms:
               1
     1  C   -0.608316
     2  C   -0.105395
     3  C   -0.386692
     4  C    0.765165
     5  C   -0.077073
     6  C   -0.114941
    11  C   -0.187322
    12  O   -0.250916
    13  O   -0.144042
    14  C    1.089098
    15  F   -0.100157
    16  F   -0.044744
    17  F   -0.099833
    18  C    0.265169
 Electronic spatial extent (au):  <R**2>=           3840.4400
 Charge=              0.0000 electrons
 Dipole moment (field-independent basis, Debye):
    X=              1.2373    Y=             -1.3286    Z=              0.7378  Tot=              1.9597
 Quadrupole moment (field-independent basis, Debye-Ang):
   XX=            -82.1308   YY=            -77.5463   ZZ=            -81.6945
   XY=             -7.6795   XZ=              3.7121   YZ=             -0.1353
 Traceless Quadrupole moment (field-independent basis, Debye-Ang):
   XX=             -1.6736   YY=              2.9109   ZZ=             -1.2373
   XY=             -7.6795   XZ=              3.7121   YZ=             -0.1353
 Octapole moment (field-independent basis, Debye-Ang**2):
  XXX=             32.9291  YYY=             -5.8151  ZZZ=              0.0802  XYY=            -27.1939
  XXY=            -31.1484  XXZ=             16.1916  XZZ=             -7.5047  YZZ=             -0.0936
  YYZ=              2.3258  XYZ=             -3.2443
 Hexadecapole moment (field-independent basis, Debye-Ang**3):
 XXXX=          -3602.7699 YYYY=           -499.0124 ZZZZ=           -172.1978 XXXY=           -139.5979
 XXXZ=             64.3319 YYYX=            -18.9065 YYYZ=              2.1583 ZZZX=              2.9113
 ZZZY=             -0.3602 XXYY=           -776.7746 XXZZ=           -677.4058 YYZZ=           -123.2466
 XXYZ=            -12.9683 YYXZ=             -1.5919 ZZXY=              3.4741
 N-N= 8.732797460904D+02 E-N=-3.621855606542D+03  KE= 7.943089888476D+02
 There are a total of      174638 grid points.
 ElSum from          density=      103.9998281731
 ElSum from atomic densities=      103.9999976323

 Hirshfeld populations at iteration   1 (CX, CA, CB, DipXYZ):
               1          2          3          4          5          6
     1  C    0.000000   3.009523   3.009523  -0.052236  -0.002771   0.006899
     2  C    0.000000   3.017974   3.017974  -0.008737  -0.062003  -0.002041
     3  C    0.000000   3.013110   3.013110   0.023807  -0.058946  -0.007633
     4  C    0.000000   3.000419   3.000419   0.061269   0.010871  -0.004444
     5  C    0.000000   3.009566   3.009566   0.019193   0.059413   0.000605
     6  C    0.000000   3.017004   3.017004  -0.017349   0.061504   0.005110
     7  H    0.000001   0.472864   0.472864  -0.051560  -0.157762  -0.003229
     8  H    0.000001   0.472001   0.472001   0.065497  -0.147536  -0.011885
     9  H    0.000001   0.470599   0.470599   0.043379   0.157430   0.006645
    10  H    0.000001   0.472184   0.472184  -0.072045   0.149767   0.014175
    11  C    0.000000   2.887036   2.887036   0.031573  -0.090281  -0.002629
    12  O    0.000003   4.134748   4.134748  -0.040825  -0.093293  -0.000347
    13  O    0.000001   4.073179   4.073179   0.069773   0.119699   0.067869
    14  C    0.000000   2.882389   2.882389  -0.072681  -0.004598   0.001851
    15  F    0.000007   4.541998   4.541998   0.065102  -0.071815   0.043658
    16  F    0.000009   4.546113   4.546113   0.040000   0.008222  -0.096822
    17  F    0.000006   4.542163   4.542163   0.055397   0.074647   0.051886
    18  C    0.000000   3.007472   3.007472  -0.033705  -0.037208  -0.023993
    19  H    0.000000   0.473700   0.473700   0.090534  -0.132630   0.019281
    20  H    0.000001   0.477979   0.477979   0.107798   0.079983  -0.079045
    21  H    0.000000   0.477893   0.477893  -0.005042   0.046622   0.148141
       Tot   0.000034  51.999914  51.999914   0.319140  -0.090687   0.134052

 Dip from Atomic Chgs              0.167949  -0.432279   0.156678
         Total Dipole              0.487090  -0.522966   0.290730

 Hirshfeld charges, spin densities, dipoles, and CM5 charges using IRadAn=      4:
              Q-H        S-H        Dx         Dy         Dz        Q-CM5   
     1  C   -0.019046   0.000000  -0.052236  -0.002771   0.006899  -0.030844
     2  C   -0.035949   0.000000  -0.008737  -0.062003  -0.002041  -0.090635
     3  C   -0.026220   0.000000   0.023807  -0.058946  -0.007633  -0.079612
     4  C   -0.000839   0.000000   0.061269   0.010871  -0.004444  -0.005207
     5  C   -0.019132   0.000000   0.019193   0.059413   0.000605  -0.072425
     6  C   -0.034009   0.000000  -0.017349   0.061504   0.005110  -0.088693
     7  H    0.054272   0.000000  -0.051560  -0.157762  -0.003229   0.110973
     8  H    0.055999   0.000000   0.065497  -0.147536  -0.011885   0.117528
     9  H    0.058802   0.000000   0.043379   0.157430   0.006645   0.120430
    10  H    0.055632   0.000000  -0.072045   0.149767   0.014175   0.112334
    11  C    0.225928   0.000000   0.031573  -0.090281  -0.002629   0.275172
    12  O   -0.269497   0.000000  -0.040825  -0.093293  -0.000347  -0.315358
    13  O   -0.146357   0.000000   0.069773   0.119699   0.067869  -0.227299
    14  C    0.235222   0.000000  -0.072681  -0.004598   0.001851   0.178684
    15  F   -0.083995   0.000000   0.065102  -0.071815   0.043658  -0.062053
    16  F   -0.092227   0.000000   0.040000   0.008222  -0.096822  -0.071659
    17  F   -0.084327   0.000000   0.055397   0.074647   0.051886  -0.062385
    18  C   -0.014943   0.000000  -0.033705  -0.037208  -0.023993  -0.143298
    19  H    0.052599   0.000000   0.090534  -0.132630   0.019281   0.114451
    20  H    0.044042   0.000000   0.107798   0.079983  -0.079045   0.110019
    21  H    0.044215   0.000000  -0.005042   0.046622   0.148141   0.110050
       Tot   0.000172   0.000000   0.319140  -0.090687   0.134052   0.000172
 Hirshfeld charges with hydrogens summed into heavy atoms:
              Q-H       Q-CM5   
     1  C   -0.019046  -0.030844
     2  C    0.018324   0.020338
     3  C    0.029778   0.037916
     4  C   -0.000839  -0.005207
     5  C    0.039670   0.048005
     6  C    0.021623   0.023641
    11  C    0.225928   0.275172
    12  O   -0.269497  -0.315358
    13  O   -0.146357  -0.227299
    14  C    0.235222   0.178684
    15  F   -0.083995  -0.062053
    16  F   -0.092227  -0.071659
    17  F   -0.084327  -0.062385
    18  C    0.125913   0.191222
 
 EQQ= 0.000000000000E+00 EQD= 0.000000000000E+00 EDD= 0.331677279078E-02
 EQQ+QD+DD= 0.331677279078E-02
 
          MBS Condensed to atoms (all electrons):
               1          2          3          4          5          6
     1  C    4.831497   0.498351  -0.028595  -0.011567  -0.028428   0.496488
     2  C    0.498351   4.823913   0.503308  -0.028943  -0.011265  -0.030228
     3  C   -0.028595   0.503308   4.822858   0.491957  -0.031134  -0.011184
     4  C   -0.011567  -0.028943   0.491957   4.804016   0.497320  -0.028624
     5  C   -0.028428  -0.011265  -0.031134   0.497320   4.808319   0.505246
     6  C    0.496488  -0.030228  -0.011184  -0.028624   0.505246   4.821928
     7  H   -0.026169   0.391032  -0.024463   0.001423   0.000046   0.001444
     8  H    0.001412  -0.024431   0.390673  -0.025449   0.001416   0.000053
     9  H    0.001397   0.000044   0.001476  -0.025610   0.388609  -0.024017
    10  H   -0.026175   0.001437   0.000050   0.001412  -0.024428   0.391377
    11  C    0.000010   0.000778  -0.024599   0.376643  -0.023278   0.000761
    12  O    0.000000  -0.000001   0.000279  -0.025648  -0.002327   0.000009
    13  O    0.000000   0.000002  -0.000905  -0.019515   0.000151  -0.000001
    14  C    0.360983  -0.023863   0.000784   0.000012   0.000786  -0.023903
    15  F   -0.020607   0.000176  -0.000001   0.000000   0.000005  -0.001387
    16  F   -0.020532  -0.000108  -0.000002   0.000000  -0.000002  -0.000104
    17  F   -0.020612  -0.001397   0.000005   0.000000  -0.000001   0.000176
    18  C    0.000000   0.000000   0.000016   0.001067  -0.000010   0.000000
    19  H    0.000000   0.000000   0.000000  -0.000018   0.000000   0.000000
    20  H    0.000000   0.000000  -0.000002  -0.000008   0.000001   0.000000
    21  H    0.000000   0.000000   0.000002   0.000129  -0.000001   0.000000
               7          8          9         10         11         12
     1  C   -0.026169   0.001412   0.001397  -0.026175   0.000010   0.000000
     2  C    0.391032  -0.024431   0.000044   0.001437   0.000778  -0.000001
     3  C   -0.024463   0.390673   0.001476   0.000050  -0.024599   0.000279
     4  C    0.001423  -0.025449  -0.025610   0.001412   0.376643  -0.025648
     5  C    0.000046   0.001416   0.388609  -0.024428  -0.023278  -0.002327
     6  C    0.001444   0.000053  -0.024017   0.391377   0.000761   0.000009
     7  H    0.528447  -0.003702   0.000002  -0.000043  -0.000015   0.000000
     8  H   -0.003702   0.519896  -0.000041   0.000002  -0.003877   0.000020
     9  H    0.000002  -0.000041   0.512768  -0.003708  -0.003261   0.002677
    10  H   -0.000043   0.000002  -0.003708   0.526285  -0.000014   0.000000
    11  C   -0.000015  -0.003877  -0.003261  -0.000014   4.580054   0.432662
    12  O    0.000000   0.000020   0.002677   0.000000   0.432662   8.054940
    13  O    0.000000   0.002124   0.000017   0.000000   0.270309  -0.019301
    14  C   -0.003529  -0.000015  -0.000015  -0.003525   0.000000   0.000000
    15  F    0.000012   0.000000   0.000000   0.001393   0.000000   0.000000
    16  F    0.000076   0.000000   0.000000   0.000076   0.000000   0.000000
    17  F    0.001386   0.000000   0.000000   0.000012   0.000000   0.000000
    18  C    0.000000  -0.000070  -0.000001   0.000000  -0.033862  -0.003506
    19  H    0.000000  -0.000001   0.000000   0.000000   0.002463   0.000099
    20  H    0.000000   0.000003   0.000000   0.000000  -0.003234   0.001575
    21  H    0.000000   0.000000  -0.000001   0.000000  -0.006997   0.001162
              13         14         15         16         17         18
     1  C    0.000000   0.360983  -0.020607  -0.020532  -0.020612   0.000000
     2  C    0.000002  -0.023863   0.000176  -0.000108  -0.001397   0.000000
     3  C   -0.000905   0.000784  -0.000001  -0.000002   0.000005   0.000016
     4  C   -0.019515   0.000012   0.000000   0.000000   0.000000   0.001067
     5  C    0.000151   0.000786   0.000005  -0.000002  -0.000001  -0.000010
     6  C   -0.000001  -0.023903  -0.001387  -0.000104   0.000176   0.000000
     7  H    0.000000  -0.003529   0.000012   0.000076   0.001386   0.000000
     8  H    0.002124  -0.000015   0.000000   0.000000   0.000000  -0.000070
     9  H    0.000017  -0.000015   0.000000   0.000000   0.000000  -0.000001
    10  H    0.000000  -0.003525   0.001393   0.000076   0.000012   0.000000
    11  C    0.270309   0.000000   0.000000   0.000000   0.000000  -0.033862
    12  O   -0.019301   0.000000   0.000000   0.000000   0.000000  -0.003506
    13  O    7.935305   0.000000   0.000000   0.000000   0.000000   0.259352
    14  C    0.000000   4.331320   0.224744   0.221312   0.224711   0.000000
    15  F    0.000000   0.224744   9.071642  -0.010671  -0.010445   0.000000
    16  F    0.000000   0.221312  -0.010671   9.074538  -0.010671   0.000000
    17  F    0.000000   0.224711  -0.010445  -0.010671   9.071910   0.000000
    18  C    0.259352   0.000000   0.000000   0.000000   0.000000   4.731246
    19  H   -0.017406   0.000000   0.000000   0.000000   0.000000   0.380352
    20  H   -0.018501   0.000000   0.000000   0.000000   0.000000   0.377253
    21  H   -0.017483   0.000000   0.000000   0.000000   0.000000   0.378207
              19         20         21
     1  C    0.000000   0.000000   0.000000
     2  C    0.000000   0.000000   0.000000
     3  C    0.000000  -0.000002   0.000002
     4  C   -0.000018  -0.000008   0.000129
     5  C    0.000000   0.000001  -0.000001
     6  C    0.000000   0.000000   0.000000
     7  H    0.000000   0.000000   0.000000
     8  H   -0.000001   0.000003   0.000000
     9  H    0.000000   0.000000  -0.000001
    10  H    0.000000   0.000000   0.000000
    11  C    0.002463  -0.003234  -0.006997
    12  O    0.000099   0.001575   0.001162
    13  O   -0.017406  -0.018501  -0.017483
    14  C    0.000000   0.000000   0.000000
    15  F    0.000000   0.000000   0.000000
    16  F    0.000000   0.000000   0.000000
    17  F    0.000000   0.000000   0.000000
    18  C    0.380352   0.377253   0.378207
    19  H    0.560750  -0.024395  -0.023347
    20  H   -0.024395   0.562873  -0.025445
    21  H   -0.023347  -0.025445   0.577240
 MBS Mulliken charges:
               1
     1  C   -0.007452
     2  C   -0.098804
     3  C   -0.090523
     4  C   -0.008598
     5  C   -0.081027
     6  C   -0.098035
     7  H    0.134051
     8  H    0.141988
     9  H    0.149662
    10  H    0.135848
    11  C    0.435457
    12  O   -0.442640
    13  O   -0.374149
    14  C    0.690196
    15  F   -0.254860
    16  F   -0.253914
    17  F   -0.255075
    18  C   -0.090043
    19  H    0.121503
    20  H    0.129881
    21  H    0.116533
 Sum of MBS Mulliken charges =   0.00000
 MBS Mulliken charges with hydrogens summed into heavy atoms:
               1
     1  C   -0.007452
     2  C    0.035247
     3  C    0.051465
     4  C   -0.008598
     5  C    0.068635
     6  C    0.037813
    11  C    0.435457
    12  O   -0.442640
    13  O   -0.374149
    14  C    0.690196
    15  F   -0.254860
    16  F   -0.253914
    17  F   -0.255075
    18  C    0.277874
 Breneman (CHELPG) radii used.
 Generate Potential Derived Charges using the Breneman model, NDens= 1.
 Grid spacing= 0.300 Box extension= 2.800
 NStep X,Y,Z=   50     35     26   Total possible points=       45500
 Number of Points to Fit=   14167

 **********************************************************************

            Electrostatic Properties Using The SCF Density

 **********************************************************************

       Atomic Center    1 is at  -1.515178  0.003545 -0.007079
       Atomic Center    2 is at  -0.736816 -1.158217 -0.098638
       Atomic Center    3 is at   0.660605 -1.063529 -0.145218
       Atomic Center    4 is at   1.279665  0.192920 -0.100237
       Atomic Center    5 is at   0.501302  1.354682 -0.008676
       Atomic Center    6 is at  -0.896119  1.259994  0.037903
       Atomic Center    7 is at  -1.209481 -2.117544 -0.132980
       Atomic Center    8 is at   1.254902 -1.950561 -0.215125
       Atomic Center    9 is at   0.973968  2.314008  0.025671
       Atomic Center   10 is at  -1.490416  2.147025  0.107812
       Atomic Center   11 is at   2.815293  0.296971 -0.151423
       Atomic Center   12 is at   3.371182  1.425211 -0.111031
       Atomic Center   13 is at   3.609540 -0.888500 -0.244852
       Atomic Center   14 is at  -3.050806 -0.100506  0.044105
       Atomic Center   15 is at  -3.595362  1.001543 -0.513969
       Atomic Center   16 is at  -3.452547 -0.199529  1.329134
       Atomic Center   17 is at  -3.450678 -1.194747 -0.637980
       Atomic Center   18 is at   4.869150 -0.670069  0.395905
       Atomic Center   19 is at   5.389419 -1.600679  0.486377
       Atomic Center   20 is at   5.453360  0.009832 -0.188334
       Atomic Center   21 is at   4.707178 -0.255918  1.369118
   14167 points will be used for fitting atomic charges
 Fitting point charges to electrostatic potential
 Charges from ESP fit, RMS=   0.00385 RRMS=   0.31789:
 ESP charges:
               1
     1  C   -0.078478
     2  C   -0.080941
     3  C   -0.050338
     4  C   -0.059533
     5  C   -0.041478
     6  C   -0.080264
     7  H    0.114733
     8  H    0.076371
     9  H    0.093219
    10  H    0.111230
    11  C    0.633156
    12  O   -0.493073
    13  O   -0.404272
    14  C    0.733929
    15  F   -0.240167
    16  F   -0.248295
    17  F   -0.242993
    18  C    0.156355
    19  H    0.044822
    20  H    0.038328
    21  H    0.017688
 Sum of ESP charges =   0.00000
 ESP charges with hydrogens summed into heavy atoms:
               1
     1  C   -0.078478
     2  C    0.033793
     3  C    0.026033
     4  C   -0.059533
     5  C    0.051741
     6  C    0.030966
    11  C    0.633156
    12  O   -0.493073
    13  O   -0.404272
    14  C    0.733929
    15  F   -0.240167
    16  F   -0.248295
    17  F   -0.242993
    18  C    0.257194
 Charge=   0.00000 Dipole=     1.3386    -1.2960     0.6783 Tot=     1.9828
 -----------------------------------------------------------------

              Electrostatic Properties (Atomic Units)

 -----------------------------------------------------------------
    Center     Electric         -------- Electric Field --------
               Potential          X             Y             Z
 -----------------------------------------------------------------
    1 Atom    -14.720718
    2 Atom    -14.737914
    3 Atom    -14.738978
    4 Atom    -14.719892
    5 Atom    -14.739080
    6 Atom    -14.737628
    7 Atom     -1.077557
    8 Atom     -1.080094
    9 Atom     -1.083683
   10 Atom     -1.077412
   11 Atom    -14.613739
   12 Atom    -22.365569
   13 Atom    -22.314202
   14 Atom    -14.491469
   15 Atom    -26.551377
   16 Atom    -26.553301
   17 Atom    -26.551326
   18 Atom    -14.721438
   19 Atom     -1.098110
   20 Atom     -1.109863
   21 Atom     -1.102030
 -----------------------------------------------------------------
 ******************************Gaussian NBO Version 3.1******************************
             N A T U R A L   A T O M I C   O R B I T A L   A N D
          N A T U R A L   B O N D   O R B I T A L   A N A L Y S I S
 ******************************Gaussian NBO Version 3.1******************************
       /RESON  / : Allow strongly delocalized NBO set

 Analyzing the SCF density

 Job title: Table4_3                                                        

 Storage needed:    369194 in NPA (  33552017 available)


 NATURAL POPULATIONS:  Natural atomic orbital occupancies 
                                                          
   NAO  Atom  No  lang   Type(AO)    Occupancy      Energy
 ----------------------------------------------------------
     1    C    1  S      Cor( 1S)     1.99891     -10.09121
     2    C    1  S      Val( 2S)     0.92170      -0.20335
     3    C    1  S      Ryd( 3S)     0.00122       0.74895
     4    C    1  S      Ryd( 4S)     0.00012       1.37755
     5    C    1  S      Ryd( 5S)     0.00001      22.62634
     6    C    1  px     Val( 2p)     1.03891      -0.12499
     7    C    1  px     Ryd( 4p)     0.00582       1.09477
     8    C    1  px     Ryd( 3p)     0.00020       0.67175
     9    C    1  px     Ryd( 5p)     0.00015       3.22437
    10    C    1  py     Val( 2p)     1.10233      -0.10203
    11    C    1  py     Ryd( 4p)     0.00442       0.98840
    12    C    1  py     Ryd( 3p)     0.00054       0.59221
    13    C    1  py     Ryd( 5p)     0.00017       3.25489
    14    C    1  pz     Val( 2p)     1.02769      -0.15030
    15    C    1  pz     Ryd( 4p)     0.00199       0.55972
    16    C    1  pz     Ryd( 3p)     0.00034       0.48222
    17    C    1  pz     Ryd( 5p)     0.00002       2.64943
    18    C    1  dxy    Ryd( 3d)     0.00064       2.54101
    19    C    1  dxz    Ryd( 3d)     0.00047       1.64765
    20    C    1  dyz    Ryd( 3d)     0.00065       1.64107
    21    C    1  dx2y2  Ryd( 3d)     0.00106       2.44479
    22    C    1  dz2    Ryd( 3d)     0.00055       2.03395

    23    C    2  S      Cor( 1S)     1.99910     -10.06550
    24    C    2  S      Val( 2S)     0.94814      -0.19296
    25    C    2  S      Ryd( 3S)     0.00146       0.76629
    26    C    2  S      Ryd( 4S)     0.00009       1.13733
    27    C    2  S      Ryd( 5S)     0.00001      22.67878
    28    C    2  px     Val( 2p)     1.08610      -0.08247
    29    C    2  px     Ryd( 4p)     0.00437       0.88685
    30    C    2  px     Ryd( 3p)     0.00042       0.47626
    31    C    2  px     Ryd( 5p)     0.00016       3.14912
    32    C    2  py     Val( 2p)     1.15601      -0.08766
    33    C    2  py     Ryd( 4p)     0.00604       0.93758
    34    C    2  py     Ryd( 3p)     0.00031       0.33776
    35    C    2  py     Ryd( 5p)     0.00009       3.14704
    36    C    2  pz     Val( 2p)     0.97766      -0.14035
    37    C    2  pz     Ryd( 4p)     0.00097       0.50361
    38    C    2  pz     Ryd( 3p)     0.00034       0.30267
    39    C    2  pz     Ryd( 5p)     0.00001       2.70450
    40    C    2  dxy    Ryd( 3d)     0.00077       2.49895
    41    C    2  dxz    Ryd( 3d)     0.00049       1.63339
    42    C    2  dyz    Ryd( 3d)     0.00043       1.61477
    43    C    2  dx2y2  Ryd( 3d)     0.00063       2.53138
    44    C    2  dz2    Ryd( 3d)     0.00042       2.02641

    45    C    3  S      Cor( 1S)     1.99911     -10.06422
    46    C    3  S      Val( 2S)     0.94844      -0.19018
    47    C    3  S      Ryd( 4S)     0.00115       0.89060
    48    C    3  S      Ryd( 3S)     0.00013       0.75693
    49    C    3  S      Ryd( 5S)     0.00001      22.94757
    50    C    3  px     Val( 2p)     1.09502      -0.07942
    51    C    3  px     Ryd( 4p)     0.00408       0.95187
    52    C    3  px     Ryd( 3p)     0.00046       0.63920
    53    C    3  px     Ryd( 5p)     0.00014       3.13445
    54    C    3  py     Val( 2p)     1.14503      -0.08189
    55    C    3  py     Ryd( 4p)     0.00562       0.91881
    56    C    3  py     Ryd( 3p)     0.00031       0.32428
    57    C    3  py     Ryd( 5p)     0.00011       3.18549
    58    C    3  pz     Val( 2p)     0.95273      -0.13791
    59    C    3  pz     Ryd( 4p)     0.00100       0.51731
    60    C    3  pz     Ryd( 3p)     0.00028       0.34708
    61    C    3  pz     Ryd( 5p)     0.00001       2.67222
    62    C    3  dxy    Ryd( 3d)     0.00082       2.48816
    63    C    3  dxz    Ryd( 3d)     0.00049       1.62547
    64    C    3  dyz    Ryd( 3d)     0.00041       1.61898
    65    C    3  dx2y2  Ryd( 3d)     0.00062       2.56793
    66    C    3  dz2    Ryd( 3d)     0.00041       2.03107

    67    C    4  S      Cor( 1S)     1.99889     -10.08890
    68    C    4  S      Val( 2S)     0.92013      -0.19224
    69    C    4  S      Ryd( 3S)     0.00151       0.70815
    70    C    4  S      Ryd( 4S)     0.00011       1.29204
    71    C    4  S      Ryd( 5S)     0.00001      22.71332
    72    C    4  px     Val( 2p)     1.06255      -0.11245
    73    C    4  px     Ryd( 4p)     0.00641       1.14285
    74    C    4  px     Ryd( 3p)     0.00018       1.07256
    75    C    4  px     Ryd( 5p)     0.00010       2.85358
    76    C    4  py     Val( 2p)     1.10152      -0.09689
    77    C    4  py     Ryd( 4p)     0.00562       1.11670
    78    C    4  py     Ryd( 3p)     0.00024       0.98242
    79    C    4  py     Ryd( 5p)     0.00010       2.82685
    80    C    4  pz     Val( 2p)     1.03831      -0.14476
    81    C    4  pz     Ryd( 3p)     0.00065       0.56457
    82    C    4  pz     Ryd( 4p)     0.00013       0.86665
    83    C    4  pz     Ryd( 5p)     0.00001       2.21832
    84    C    4  dxy    Ryd( 3d)     0.00067       2.56195
    85    C    4  dxz    Ryd( 3d)     0.00036       1.58732
    86    C    4  dyz    Ryd( 3d)     0.00059       1.64015
    87    C    4  dx2y2  Ryd( 3d)     0.00104       2.45888
    88    C    4  dz2    Ryd( 3d)     0.00042       2.04382

    89    C    5  S      Cor( 1S)     1.99909     -10.06413
    90    C    5  S      Val( 2S)     0.94968      -0.18901
    91    C    5  S      Ryd( 3S)     0.00148       0.80120
    92    C    5  S      Ryd( 4S)     0.00010       0.91786
    93    C    5  S      Ryd( 5S)     0.00001      22.86865
    94    C    5  px     Val( 2p)     1.07687      -0.07533
    95    C    5  px     Ryd( 4p)     0.00420       0.90246
    96    C    5  px     Ryd( 3p)     0.00051       0.53686
    97    C    5  px     Ryd( 5p)     0.00017       3.14311
    98    C    5  py     Val( 2p)     1.16248      -0.08294
    99    C    5  py     Ryd( 4p)     0.00612       0.94732
   100    C    5  py     Ryd( 3p)     0.00038       0.32464
   101    C    5  py     Ryd( 5p)     0.00009       3.19133
   102    C    5  pz     Val( 2p)     0.94437      -0.13559
   103    C    5  pz     Ryd( 4p)     0.00085       0.50482
   104    C    5  pz     Ryd( 3p)     0.00037       0.31472
   105    C    5  pz     Ryd( 5p)     0.00001       2.68184
   106    C    5  dxy    Ryd( 3d)     0.00081       2.51031
   107    C    5  dxz    Ryd( 3d)     0.00050       1.63406
   108    C    5  dyz    Ryd( 3d)     0.00042       1.61312
   109    C    5  dx2y2  Ryd( 3d)     0.00065       2.53663
   110    C    5  dz2    Ryd( 3d)     0.00041       2.03211

   111    C    6  S      Cor( 1S)     1.99909     -10.06585
   112    C    6  S      Val( 2S)     0.94851      -0.19311
   113    C    6  S      Ryd( 3S)     0.00142       0.76569
   114    C    6  S      Ryd( 4S)     0.00010       1.43343
   115    C    6  S      Ryd( 5S)     0.00001      22.38622
   116    C    6  px     Val( 2p)     1.10038      -0.08334
   117    C    6  px     Ryd( 4p)     0.00478       0.92448
   118    C    6  px     Ryd( 3p)     0.00044       0.47107
   119    C    6  px     Ryd( 5p)     0.00015       3.14747
   120    C    6  py     Val( 2p)     1.14067      -0.08649
   121    C    6  py     Ryd( 4p)     0.00545       0.90597
   122    C    6  py     Ryd( 3p)     0.00034       0.33812
   123    C    6  py     Ryd( 5p)     0.00010       3.15589
   124    C    6  pz     Val( 2p)     0.97763      -0.14029
   125    C    6  pz     Ryd( 4p)     0.00098       0.50596
   126    C    6  pz     Ryd( 3p)     0.00034       0.30558
   127    C    6  pz     Ryd( 5p)     0.00002       2.69674
   128    C    6  dxy    Ryd( 3d)     0.00079       2.47731
   129    C    6  dxz    Ryd( 3d)     0.00049       1.62664
   130    C    6  dyz    Ryd( 3d)     0.00045       1.62146
   131    C    6  dx2y2  Ryd( 3d)     0.00061       2.55227
   132    C    6  dz2    Ryd( 3d)     0.00042       2.02397

   133    H    7  S      Val( 1S)     0.77359       0.03594
   134    H    7  S      Ryd( 2S)     0.00068       0.77600
   135    H    7  S      Ryd( 3S)     0.00018       1.86670
   136    H    7  px     Ryd( 2p)     0.00022       2.14297
   137    H    7  py     Ryd( 2p)     0.00039       2.57848
   138    H    7  pz     Ryd( 2p)     0.00018       1.59536

   139    H    8  S      Val( 1S)     0.76882       0.04355
   140    H    8  S      Ryd( 3S)     0.00073       1.46644
   141    H    8  S      Ryd( 2S)     0.00016       1.24727
   142    H    8  px     Ryd( 2p)     0.00021       2.24489
   143    H    8  py     Ryd( 2p)     0.00033       2.50218
   144    H    8  pz     Ryd( 2p)     0.00016       1.59852

   145    H    9  S      Val( 1S)     0.76168       0.04960
   146    H    9  S      Ryd( 2S)     0.00068       0.95821
   147    H    9  S      Ryd( 3S)     0.00018       1.74660
   148    H    9  px     Ryd( 2p)     0.00020       2.16568
   149    H    9  py     Ryd( 2p)     0.00037       2.59472
   150    H    9  pz     Ryd( 2p)     0.00015       1.60130

   151    H   10  S      Val( 1S)     0.77226       0.03686
   152    H   10  S      Ryd( 2S)     0.00066       0.79572
   153    H   10  S      Ryd( 3S)     0.00018       1.84670
   154    H   10  px     Ryd( 2p)     0.00024       2.22268
   155    H   10  py     Ryd( 2p)     0.00036       2.49214
   156    H   10  pz     Ryd( 2p)     0.00018       1.59764

   157    C   11  S      Cor( 1S)     1.99933     -10.23096
   158    C   11  S      Val( 2S)     0.82325      -0.22263
   159    C   11  S      Ryd( 4S)     0.00320       0.85611
   160    C   11  S      Ryd( 3S)     0.00017       0.70568
   161    C   11  S      Ryd( 5S)     0.00004      22.89273
   162    C   11  px     Val( 2p)     0.88332      -0.07474
   163    C   11  px     Ryd( 4p)     0.00637       1.16965
   164    C   11  px     Ryd( 3p)     0.00050       0.44424
   165    C   11  px     Ryd( 5p)     0.00013       2.53482
   166    C   11  py     Val( 2p)     0.68971      -0.04906
   167    C   11  py     Ryd( 4p)     0.01874       0.98495
   168    C   11  py     Ryd( 3p)     0.00025       0.43287
   169    C   11  py     Ryd( 5p)     0.00013       2.75829
   170    C   11  pz     Val( 2p)     0.75408      -0.15635
   171    C   11  pz     Ryd( 4p)     0.00115       0.66593
   172    C   11  pz     Ryd( 3p)     0.00049       0.36271
   173    C   11  pz     Ryd( 5p)     0.00009       2.51345
   174    C   11  dxy    Ryd( 3d)     0.00386       2.33951
   175    C   11  dxz    Ryd( 3d)     0.00148       1.53889
   176    C   11  dyz    Ryd( 3d)     0.00389       1.56371
   177    C   11  dx2y2  Ryd( 3d)     0.00410       2.31840
   178    C   11  dz2    Ryd( 3d)     0.00074       1.89955

   179    O   12  S      Cor( 1S)     1.99978     -18.88540
   180    O   12  S      Val( 2S)     1.73083      -0.92571
   181    O   12  S      Ryd( 3S)     0.00129       1.25687
   182    O   12  S      Ryd( 4S)     0.00012       1.36276
   183    O   12  S      Ryd( 5S)     0.00000      49.72207
   184    O   12  px     Val( 2p)     1.80378      -0.29078
   185    O   12  px     Ryd( 3p)     0.00216       0.70725
   186    O   12  px     Ryd( 4p)     0.00018       0.96174
   187    O   12  px     Ryd( 5p)     0.00003       5.10058
   188    O   12  py     Val( 2p)     1.60662      -0.31062
   189    O   12  py     Ryd( 3p)     0.00088       0.60985
   190    O   12  py     Ryd( 4p)     0.00019       0.95020
   191    O   12  py     Ryd( 5p)     0.00010       5.18846
   192    O   12  pz     Val( 2p)     1.44159      -0.27122
   193    O   12  pz     Ryd( 3p)     0.00090       0.54391
   194    O   12  pz     Ryd( 4p)     0.00005       0.89197
   195    O   12  pz     Ryd( 5p)     0.00002       4.94030
   196    O   12  dxy    Ryd( 3d)     0.00134       3.40091
   197    O   12  dxz    Ryd( 3d)     0.00030       2.87753
   198    O   12  dyz    Ryd( 3d)     0.00121       3.00984
   199    O   12  dx2y2  Ryd( 3d)     0.00138       3.28130
   200    O   12  dz2    Ryd( 3d)     0.00041       3.07010

   201    O   13  S      Cor( 1S)     1.99977     -18.99132
   202    O   13  S      Val( 2S)     1.65355      -0.91643
   203    O   13  S      Ryd( 3S)     0.00192       0.89726
   204    O   13  S      Ryd( 4S)     0.00019       1.34175
   205    O   13  S      Ryd( 5S)     0.00000      49.66307
   206    O   13  px     Val( 2p)     1.46931      -0.32846
   207    O   13  px     Ryd( 3p)     0.00163       0.89428
   208    O   13  px     Ryd( 4p)     0.00058       0.92120
   209    O   13  px     Ryd( 5p)     0.00001       5.10784
   210    O   13  py     Val( 2p)     1.67255      -0.34907
   211    O   13  py     Ryd( 3p)     0.00221       0.57859
   212    O   13  py     Ryd( 4p)     0.00090       0.85697
   213    O   13  py     Ryd( 5p)     0.00012       5.00998
   214    O   13  pz     Val( 2p)     1.75895      -0.33734
   215    O   13  pz     Ryd( 3p)     0.00244       0.53883
   216    O   13  pz     Ryd( 4p)     0.00039       0.78136
   217    O   13  pz     Ryd( 5p)     0.00001       4.93479
   218    O   13  dxy    Ryd( 3d)     0.00099       3.29789
   219    O   13  dxz    Ryd( 3d)     0.00046       3.16604
   220    O   13  dyz    Ryd( 3d)     0.00083       2.93359
   221    O   13  dx2y2  Ryd( 3d)     0.00077       3.20618
   222    O   13  dz2    Ryd( 3d)     0.00063       3.06409

   223    C   14  S      Cor( 1S)     1.99917     -10.36200
   224    C   14  S      Val( 2S)     0.78267      -0.28613
   225    C   14  S      Ryd( 4S)     0.00368       1.06245
   226    C   14  S      Ryd( 3S)     0.00052       0.59786
   227    C   14  S      Ryd( 5S)     0.00002      22.74503
   228    C   14  px     Val( 2p)     0.90166      -0.17405
   229    C   14  px     Ryd( 4p)     0.00813       1.18616
   230    C   14  px     Ryd( 3p)     0.00071       0.43284
   231    C   14  px     Ryd( 5p)     0.00019       1.78467
   232    C   14  py     Val( 2p)     0.59003      -0.14538
   233    C   14  py     Ryd( 4p)     0.01258       1.18427
   234    C   14  py     Ryd( 3p)     0.00081       0.49682
   235    C   14  py     Ryd( 5p)     0.00010       2.13987
   236    C   14  pz     Val( 2p)     0.59862      -0.13945
   237    C   14  pz     Ryd( 4p)     0.01070       1.06442
   238    C   14  pz     Ryd( 3p)     0.00081       0.50064
   239    C   14  pz     Ryd( 5p)     0.00007       2.26033
   240    C   14  dxy    Ryd( 3d)     0.00353       1.88777
   241    C   14  dxz    Ryd( 3d)     0.00391       1.73469
   242    C   14  dyz    Ryd( 3d)     0.00533       1.95269
   243    C   14  dx2y2  Ryd( 3d)     0.00390       2.11481
   244    C   14  dz2    Ryd( 3d)     0.00498       2.02189

   245    F   15  S      Cor( 1S)     1.99992     -24.46923
   246    F   15  S      Val( 2S)     1.85148      -1.32939
   247    F   15  S      Ryd( 3S)     0.00047       1.01902
   248    F   15  S      Ryd( 4S)     0.00028       2.03593
   249    F   15  S      Ryd( 5S)     0.00000      66.57348
   250    F   15  px     Val( 2p)     1.90033      -0.46305
   251    F   15  px     Ryd( 3p)     0.00128       0.49854
   252    F   15  px     Ryd( 4p)     0.00011       1.37280
   253    F   15  px     Ryd( 5p)     0.00001       6.23317
   254    F   15  py     Val( 2p)     1.71407      -0.46982
   255    F   15  py     Ryd( 3p)     0.00072       0.45370
   256    F   15  py     Ryd( 4p)     0.00018       1.39872
   257    F   15  py     Ryd( 5p)     0.00005       6.25817
   258    F   15  pz     Val( 2p)     1.87956      -0.46260
   259    F   15  pz     Ryd( 3p)     0.00064       0.45709
   260    F   15  pz     Ryd( 4p)     0.00007       1.36221
   261    F   15  pz     Ryd( 5p)     0.00002       6.18665
   262    F   15  dxy    Ryd( 3d)     0.00072       3.95639
   263    F   15  dxz    Ryd( 3d)     0.00028       3.81016
   264    F   15  dyz    Ryd( 3d)     0.00075       3.96743
   265    F   15  dx2y2  Ryd( 3d)     0.00063       3.91316
   266    F   15  dz2    Ryd( 3d)     0.00037       3.83798

   267    F   16  S      Cor( 1S)     1.99992     -24.46721
   268    F   16  S      Val( 2S)     1.85290      -1.32803
   269    F   16  S      Ryd( 3S)     0.00044       0.97461
   270    F   16  S      Ryd( 4S)     0.00037       2.09633
   271    F   16  S      Ryd( 5S)     0.00000      66.58004
   272    F   16  px     Val( 2p)     1.92243      -0.45951
   273    F   16  px     Ryd( 3p)     0.00128       0.48014
   274    F   16  px     Ryd( 4p)     0.00006       1.40745
   275    F   16  px     Ryd( 5p)     0.00001       6.16747
   276    F   16  py     Val( 2p)     1.93386      -0.45828
   277    F   16  py     Ryd( 3p)     0.00066       0.49323
   278    F   16  py     Ryd( 4p)     0.00004       1.38975
   279    F   16  py     Ryd( 5p)     0.00000       6.14230
   280    F   16  pz     Val( 2p)     1.63261      -0.47077
   281    F   16  pz     Ryd( 3p)     0.00075       0.43710
   282    F   16  pz     Ryd( 4p)     0.00019       1.44426
   283    F   16  pz     Ryd( 5p)     0.00007       6.21993
   284    F   16  dxy    Ryd( 3d)     0.00008       3.75631
   285    F   16  dxz    Ryd( 3d)     0.00076       3.95029
   286    F   16  dyz    Ryd( 3d)     0.00062       3.86756
   287    F   16  dx2y2  Ryd( 3d)     0.00007       3.77127
   288    F   16  dz2    Ryd( 3d)     0.00126       4.15485

   289    F   17  S      Cor( 1S)     1.99992     -24.46928
   290    F   17  S      Val( 2S)     1.85147      -1.32944
   291    F   17  S      Ryd( 3S)     0.00047       1.01963
   292    F   17  S      Ryd( 4S)     0.00028       2.03688
   293    F   17  S      Ryd( 5S)     0.00000      66.57364
   294    F   17  px     Val( 2p)     1.92534      -0.46221
   295    F   17  px     Ryd( 3p)     0.00129       0.51411
   296    F   17  px     Ryd( 4p)     0.00010       1.36438
   297    F   17  px     Ryd( 5p)     0.00001       6.22920
   298    F   17  py     Val( 2p)     1.71761      -0.46964
   299    F   17  py     Ryd( 3p)     0.00071       0.44708
   300    F   17  py     Ryd( 4p)     0.00017       1.39666
   301    F   17  py     Ryd( 5p)     0.00005       6.25809
   302    F   17  pz     Val( 2p)     1.85122      -0.46384
   303    F   17  pz     Ryd( 3p)     0.00065       0.44608
   304    F   17  pz     Ryd( 4p)     0.00008       1.36687
   305    F   17  pz     Ryd( 5p)     0.00002       6.19809
   306    F   17  dxy    Ryd( 3d)     0.00057       3.89264
   307    F   17  dxz    Ryd( 3d)     0.00027       3.80643
   308    F   17  dyz    Ryd( 3d)     0.00090       4.03370
   309    F   17  dx2y2  Ryd( 3d)     0.00061       3.92085
   310    F   17  dz2    Ryd( 3d)     0.00040       3.83129

   311    C   18  S      Cor( 1S)     1.99918     -10.09555
   312    C   18  S      Val( 2S)     1.07269      -0.27149
   313    C   18  S      Ryd( 4S)     0.00236       0.86892
   314    C   18  S      Ryd( 3S)     0.00011       0.72015
   315    C   18  S      Ryd( 5S)     0.00000      23.23630
   316    C   18  px     Val( 2p)     0.82882      -0.09696
   317    C   18  px     Ryd( 3p)     0.00236       0.61848
   318    C   18  px     Ryd( 4p)     0.00024       1.38893
   319    C   18  px     Ryd( 5p)     0.00008       1.80908
   320    C   18  py     Val( 2p)     1.18965      -0.11423
   321    C   18  py     Ryd( 3p)     0.00299       0.68736
   322    C   18  py     Ryd( 4p)     0.00028       1.44932
   323    C   18  py     Ryd( 5p)     0.00008       1.76476
   324    C   18  pz     Val( 2p)     1.09586      -0.11089
   325    C   18  pz     Ryd( 3p)     0.00121       0.57590
   326    C   18  pz     Ryd( 4p)     0.00038       1.40126
   327    C   18  pz     Ryd( 5p)     0.00004       1.82658
   328    C   18  dxy    Ryd( 3d)     0.00145       2.11879
   329    C   18  dxz    Ryd( 3d)     0.00181       2.00093
   330    C   18  dyz    Ryd( 3d)     0.00075       2.04528
   331    C   18  dx2y2  Ryd( 3d)     0.00151       1.99706
   332    C   18  dz2    Ryd( 3d)     0.00119       2.05777

   333    H   19  S      Val( 1S)     0.81494       0.01216
   334    H   19  S      Ryd( 2S)     0.00042       0.44201
   335    H   19  S      Ryd( 3S)     0.00014       2.19792
   336    H   19  px     Ryd( 2p)     0.00014       1.93915
   337    H   19  py     Ryd( 2p)     0.00036       2.47991
   338    H   19  pz     Ryd( 2p)     0.00014       1.73177

   339    H   20  S      Val( 1S)     0.81082       0.02273
   340    H   20  S      Ryd( 2S)     0.00093       0.64003
   341    H   20  S      Ryd( 3S)     0.00020       2.05486
   342    H   20  px     Ryd( 2p)     0.00013       2.06427
   343    H   20  py     Ryd( 2p)     0.00030       2.16465
   344    H   20  pz     Ryd( 2p)     0.00021       2.02770

   345    H   21  S      Val( 1S)     0.82196       0.00830
   346    H   21  S      Ryd( 2S)     0.00110       0.56393
   347    H   21  S      Ryd( 3S)     0.00016       2.15830
   348    H   21  px     Ryd( 2p)     0.00011       1.71912
   349    H   21  py     Ryd( 2p)     0.00022       1.90641
   350    H   21  pz     Ryd( 2p)     0.00034       2.61181

 WARNING:  1 low occupancy (<1.9990e) core orbital  found on  C    1
           1 low occupancy (<1.9990e) core orbital  found on  C    4

 WARNING:  Population inversion found on atom  C    1
           Population inversion found on atom  C    2
           Population inversion found on atom  C    3
           Population inversion found on atom  C    4
           Population inversion found on atom  C    5
           Population inversion found on atom  C    6
           Population inversion found on atom  H    8
           Population inversion found on atom  C   11
           Population inversion found on atom  C   14
           Population inversion found on atom  C   18


 Summary of Natural Population Analysis:                  
                                                          
                                       Natural Population 
                Natural  -----------------------------------------------
    Atom  No    Charge         Core      Valence    Rydberg      Total
 -----------------------------------------------------------------------
      C    1   -0.10790      1.99891     4.09063    0.01836     6.10790
      C    2   -0.18400      1.99910     4.16790    0.01700     6.18400
      C    3   -0.15638      1.99911     4.14122    0.01605     6.15638
      C    4   -0.13956      1.99889     4.12251    0.01816     6.13956
      C    5   -0.14958      1.99909     4.13340    0.01709     6.14958
      C    6   -0.18316      1.99909     4.16718    0.01688     6.18316
      H    7    0.22477      0.00000     0.77359    0.00164     0.77523
      H    8    0.22958      0.00000     0.76882    0.00160     0.77042
      H    9    0.23674      0.00000     0.76168    0.00158     0.76326
      H   10    0.22613      0.00000     0.77226    0.00161     0.77387
      C   11    0.80497      1.99933     3.15036    0.04534     5.19503
      O   12   -0.59315      1.99978     6.58281    0.01055     8.59315
      O   13   -0.56820      1.99977     6.55435    0.01409     8.56820
      C   14    1.06786      1.99917     2.87298    0.05999     4.93214
      F   15   -0.35194      1.99992     7.34544    0.00658     9.35194
      F   16   -0.34838      1.99992     7.34180    0.00666     9.34838
      F   17   -0.35215      1.99992     7.34564    0.00659     9.35215
      C   18   -0.20305      1.99918     4.18702    0.01685     6.20305
      H   19    0.18387      0.00000     0.81494    0.00119     0.81613
      H   20    0.18741      0.00000     0.81082    0.00177     0.81259
      H   21    0.17611      0.00000     0.82196    0.00193     0.82389
[...]
 0.00141787,0.00019154,0.00009258,-0.00004010,0.00008087,0.00003355,0.0
 0046924,0.00095144,0.00025990,-0.00083796,0.05961192,0.00003166,-0.000
 34386,0.00349042,-0.00022989,-0.00034649,0.00643558,0.00008058,0.00000
 005,-0.00105231,-0.00050197,-0.00057083,0.00750208,-0.00184249,0.00013
 274,0.00374320,-0.02115719,-0.00028811,-0.03922303,0.00000595,-0.00000
 721,0.00044157,0.00005260,0.00003785,-0.00096114,0.00034467,0.00019795
 ,-0.00432621,0.02293918,0.00108380,0.02745693,-0.00227048,0.00404244,0
 .00055357,-0.00019178,0.00767138,-0.00018200,0.02068290,0.00486838,0.0
 0131689,-0.12008450,-0.04423985,-0.00409174,-0.01631351,-0.03063345,-0
 .00236002,-0.00679862,0.00000813,-0.00099638,0.00085545,0.00148287,0.0
 0007938,-0.00196768,0.00296573,0.00026610,-0.00211037,-0.00114800,0.00
 007553,-0.00027167,-0.00106015,-0.00006757,0.63129329,0.00288433,0.000
 69197,0.00086170,0.00450654,-0.00070503,-0.00014315,-0.00708652,-0.028
 29480,-0.00160541,-0.03655616,-0.16032158,-0.00525078,-0.02193418,0.00
 104540,-0.00154771,0.00417428,0.00536804,0.00018355,-0.00039781,0.0000
 5251,-0.00003593,-0.00030497,0.00088728,0.00019637,0.00402325,-0.00046
 161,0.00042841,0.00078009,0.00103351,0.00007322,-0.14640130,0.88654320
 ,-0.00004493,0.00022532,-0.00062128,-0.00023774,0.00017300,0.00804117,
 0.00102701,-0.00095104,0.00056205,-0.00384497,-0.00576904,-0.08064606,
 -0.00218544,-0.00200458,0.00252053,-0.00073854,0.00002383,0.00709087,-
 0.00000395,0.00005979,0.00032879,0.00009411,0.00037546,-0.00376505,0.0
 0027580,0.00005830,-0.00375777,-0.00001262,-0.00006327,0.00026142,0.01
 997063,0.01719379,0.21315805,0.00057421,-0.00137080,-0.00003099,0.0007
 2555,-0.00124525,0.00009276,-0.00218283,-0.00172778,-0.00033730,0.0166
 7301,-0.00148917,-0.00030359,-0.00608634,-0.00244389,-0.00052006,0.002
 15503,0.00102467,0.00026037,-0.00013903,-0.00020266,0.00000001,0.00041
 990,-0.00099898,-0.00005129,0.00206793,-0.00143220,0.00010809,0.000050
 41,0.00019330,0.00000589,-0.22326551,0.23302025,0.00018909,0.27657265,
 0.00035706,-0.00138393,-0.00035701,-0.00051981,-0.00306730,-0.00005349
 ,-0.00877215,-0.00050741,-0.00062809,0.01640961,-0.05936462,-0.0020605
 9,0.00673887,-0.00111961,0.00039481,-0.00022294,-0.00034366,0.00003930
 ,-0.00044416,-0.00074751,-0.00003748,0.00004015,0.00065379,-0.00000595
 ,-0.00167848,-0.00097573,-0.00015610,-0.00024644,-0.00025150,-0.000026
 36,0.22852598,-0.57996000,-0.00549186,-0.29856546,0.65699176,0.0000709
 9,-0.00011874,-0.00007118,0.00010149,-0.00014173,-0.00161249,-0.000627
 03,-0.00018531,0.00238259,0.00041867,-0.00317092,0.02003866,-0.0001159
 9,-0.00020734,0.00025244,0.00016868,0.00005895,-0.00059490,-0.00000488
 ,-0.00002302,-0.00027333,-0.00000665,-0.00006041,0.00055185,0.00008656
 ,-0.00011372,-0.00032754,-0.00001189,0.00000207,0.00005814,0.00000174,
 -0.00520071,-0.07868068,0.00329767,0.00593838,0.03361871,-0.00098314,-
 0.00106065,-0.00042301,-0.00012129,-0.00083239,0.00001822,-0.00482755,
 0.00183940,-0.00021333,-0.03835189,-0.01316436,-0.00346193,0.00304149,
 -0.00427631,-0.00001373,-0.00075606,-0.00125573,-0.00004844,-0.0001162
 0,-0.00038110,-0.00002212,0.00019512,-0.00152106,-0.00009063,0.0014623
 1,0.00102506,0.00011718,-0.00028292,-0.00045547,-0.00002430,-0.2397206
 7,0.01242797,-0.01013511,-0.07352014,0.06251390,-0.00386352,0.47824237
 ,-0.00131338,-0.00025107,-0.00021212,-0.00036721,0.00133927,0.00009622
 ,-0.00123356,-0.00513451,-0.00030955,-0.03914351,0.00201349,-0.0026955
 2,0.00071667,-0.00645287,-0.00022731,-0.00244876,-0.00039133,-0.000150
 08,0.00006599,-0.00004309,0.00000166,-0.00288448,-0.00182519,-0.000245
 19,-0.00052429,-0.00001951,-0.00004360,-0.00031614,-0.00056665,-0.0000
 3481,-0.00853014,-0.12194340,-0.00270706,0.06535132,-0.00916676,0.0024
 9476,0.05101752,0.36935647,-0.00011312,-0.00005931,-0.00004618,0.00000
 348,0.00001760,-0.00046598,-0.00038680,-0.00010083,0.00053284,-0.00444
 293,-0.00108770,0.00926523,0.00014563,-0.00055082,0.00121484,-0.000127
 51,-0.00009224,-0.00026456,-0.00000592,-0.00002605,0.00001724,-0.00011
 157,-0.00016662,0.00022608,0.00005991,0.00005319,0.00011641,-0.0000184
 2,-0.00004340,-0.00014593,-0.01097965,-0.00144037,-0.06628259,-0.00374
 684,0.00232007,0.02933626,0.02654471,0.01450657,0.07868000,-0.11864888
 ,-0.04328346,-0.00178962,-0.01313341,-0.02817118,0.00078969,-0.0064341
 5,0.00011577,-0.00097903,-0.00133256,0.00404548,0.00009920,-0.00088601
 ,0.00757539,-0.00030058,0.01929531,0.00488005,-0.00109232,-0.00192846,
 -0.00045837,-0.00021615,-0.00015202,-0.00096295,-0.00020346,0.00083825
 ,0.00119359,0.00032214,-0.00211374,0.00347153,0.00041243,-0.00345925,-
 0.00415396,-0.00026410,0.00044537,0.00262176,0.00011250,0.00214561,0.0
 0116383,0.00019369,0.51146610,-0.04496399,-0.16942993,-0.00123790,-0.0
 1385922,0.00574996,-0.00197218,0.00438880,0.00277315,-0.00011207,0.004
 04048,0.00325209,0.00033640,0.00299281,-0.00223399,-0.00039448,-0.0096
 5022,-0.02712664,0.00011077,0.00388384,-0.00033255,0.00054744,0.000685
 71,0.00097851,0.00027317,-0.00033587,-0.00004677,-0.00004913,-0.000613
 88,-0.00002280,-0.00001465,-0.00543145,-0.00733751,-0.00050613,0.00074
 705,0.00371044,0.00018335,0.00432631,0.00223780,0.00034626,0.03498334,
 0.55700872,-0.00450735,-0.00569258,-0.06625634,-0.00229137,-0.00166902
 ,0.00076290,-0.00068616,-0.00117077,0.00651988,0.00000599,0.00025036,-
 0.00100921,-0.00120911,-0.00039135,0.00631928,0.00122011,-0.00159229,-
 0.00021313,0.00079502,0.00012960,-0.00222100,-0.00007816,-0.00005628,0
 .00026074,0.00004058,-0.00001031,0.00034797,-0.00026767,0.00083648,-0.
 00186593,-0.00007441,-0.00014451,-0.00077616,-0.00003505,0.00007411,-0
 .00001824,0.00004182,-0.00002247,-0.00006119,0.00839621,0.01063194,0.4
 4360560,-0.03249265,-0.00208034,-0.02339441,0.00140080,-0.00599279,-0.
 00188804,-0.00126991,0.00005509,0.00125478,-0.00079372,-0.00089106,-0.
 00028810,0.00066615,-0.00055687,0.00092535,-0.00256612,0.00245997,0.00
 087608,0.00073904,0.00040167,-0.00033773,-0.00021570,-0.00048399,0.000
 09650,-0.00008659,-0.00018077,-0.00011408,0.00108949,-0.00148592,-0.00
 075776,0.00139510,0.00218534,-0.00000714,-0.00005258,-0.00133905,-0.00
 000769,-0.00096311,-0.00068151,-0.00004624,-0.19007762,-0.01644736,-0.
 07384660,0.26967369,-0.02761803,0.00510413,-0.01407567,0.00104507,-0.0
 0466885,-0.00123517,-0.00177819,-0.00011918,0.00079259,-0.00099438,-0.
 00043927,-0.00016207,-0.00029239,0.00119315,0.00015213,-0.00007809,-0.
 00200059,-0.00125052,-0.00039062,0.00014693,-0.00029103,-0.00016418,-0
 .00037567,0.00006881,0.00006979,0.00003151,-0.00003727,-0.00168327,-0.
 00071173,-0.00035234,0.00087230,0.00135236,0.00008683,-0.00013131,-0.0
 0070343,-0.00003691,-0.00082672,-0.00048956,-0.00005791,-0.00973018,-0
 .07885347,-0.00587740,-0.01937209,0.07884441,-0.01581549,0.00118646,0.
 00016249,-0.00005191,-0.00355529,-0.00004857,-0.00086614,0.00083196,-0
 .00007201,0.00013340,-0.00039322,-0.00011308,-0.00005450,-0.00046442,0
 .00022734,-0.00075308,0.00142446,0.00085918,0.00020215,0.00006460,-0.0
 0008249,-0.00008891,-0.00026653,-0.00005355,-0.00004507,-0.00007763,-0
 .00006686,0.00027986,-0.00061127,-0.00063374,0.00042250,0.00066897,-0.
 00001339,-0.00001837,-0.00045794,0.00002991,-0.00028852,-0.00024084,0.
 00000734,-0.07355226,-0.01063695,-0.11546318,0.13275271,-0.01208756,0.
 16750411,-0.00078678,-0.01529424,0.02215829,0.00069461,-0.00054848,-0.
 00008224,0.00065471,0.00041354,-0.00092031,0.00001402,-0.00138204,0.00
 009520,-0.00042007,-0.00104790,-0.00139625,-0.00275006,0.00076470,0.00
 087432,0.00011953,0.00014348,0.00055170,-0.00007209,-0.00001744,0.0000
 5875,-0.00012199,-0.00018386,-0.00007086,0.00026851,-0.00046878,0.0007
 6533,0.00123120,0.00162919,0.00032110,-0.00013786,-0.00094075,-0.00008
 160,-0.00085748,-0.00046689,-0.00010011,-0.09026750,-0.02396772,0.0468
 7939,0.00959840,0.01246620,-0.03894027,0.09664817,-0.01853507,-0.01101
 687,0.03191262,0.00234259,-0.00258301,0.00141295,-0.00044620,-0.000824
 76,-0.00184298,-0.00149039,-0.00116187,0.00004969,0.00014082,0.0006507
 0,-0.00130427,-0.00166563,0.00059954,0.00009357,-0.00053731,0.00003613
 ,0.00084528,-0.00014576,-0.00022630,-0.00009750,-0.00002368,-0.0001033
 7,0.00004581,0.00015433,-0.00016619,0.00072369,0.00175925,0.00239344,0
 .00045146,-0.00021783,-0.00124351,-0.00011161,-0.00137186,-0.00070552,
 -0.00015025,-0.02390478,-0.09877109,0.05350711,0.00731571,0.00896325,0
 .01665006,0.01902543,0.09122785,0.01116239,0.01232749,-0.01314950,-0.0
 0120868,0.00181803,-0.00012574,0.00049313,0.00063218,0.00110560,0.0005
 2665,0.00066965,-0.00019756,0.00019023,0.00060067,0.00102504,0.0016554
 5,-0.00049562,0.00057628,-0.00003798,-0.00020214,-0.00096069,0.0001343
 8,0.00019703,0.00000444,0.00009022,0.00017126,-0.00005120,-0.00019231,
 0.00000044,-0.00104692,-0.00104374,-0.00136936,-0.00038544,0.00016244,
 0.00078780,0.00014562,0.00081607,0.00046667,0.00015153,0.04595054,0.05
 283370,-0.17889491,-0.02437705,0.02060234,-0.06855563,-0.07314958,-0.0
 6985942,0.30826736,0.00698575,-0.00259343,0.00042469,-0.00410263,-0.00
 106198,-0.00185080,0.00164328,-0.00008448,-0.00014333,0.00030029,-0.00
 037501,0.00003274,0.00013919,-0.00082761,0.00006440,-0.00054480,-0.000
 21126,-0.00000606,0.00135664,-0.00217190,0.00023446,0.00005186,0.00016
 198,0.00002859,-0.00002527,-0.00004049,0.00000280,0.00033264,-0.000619
 34,-0.00005687,-0.00001005,0.00002665,0.00007088,0.00006109,-0.0002272
 1,-0.00003108,0.00012158,-0.00004467,-0.00002413,-0.10532635,0.0600281
 2,0.02562759,-0.05629102,0.04843781,-0.00340387,-0.01398055,0.01734724
 ,0.03897912,0.16927102,0.02723349,-0.03942382,-0.01837074,0.00231708,-
 0.00135014,0.00013955,-0.00021638,0.00041855,0.00072515,-0.00036649,-0
 .00132807,-0.00021959,0.00144797,-0.00182476,0.00126182,-0.00809164,-0
 .00306807,-0.00245409,-0.00194137,-0.00120152,-0.00090903,-0.00012403,
 -0.00010049,-0.00010226,-0.00048699,-0.00053037,0.00007500,0.00012978,
 0.00060423,-0.00027258,0.00203249,0.00218952,0.00008700,-0.00047250,-0
 .00113425,-0.00005498,-0.00161958,-0.00071195,-0.00011849,0.05113297,-
 0.19077278,-0.04878208,0.03683785,-0.00743572,0.00787458,0.00969147,0.
 01267747,-0.01902351,-0.11778137,0.23272287,0.00704710,-0.00904538,0.0
 0501927,0.00101156,0.00007234,0.00057520,-0.00022341,-0.00026807,0.000
 14805,-0.00033011,0.00002675,-0.00003315,0.00106448,-0.00021407,-0.000
 25744,-0.00230607,-0.00147572,0.00066248,-0.00041547,-0.00031364,-0.00
 059810,-0.00003222,-0.00004797,-0.00002628,-0.00013979,-0.00013335,-0.
 00011892,-0.00001795,0.00005811,-0.00007626,0.00032656,0.00033643,-0.0
 0004296,-0.00010832,-0.00016285,0.00003457,-0.00030425,-0.00013051,0.0
 0000122,0.02217693,-0.05025779,-0.09108328,-0.01084008,0.01375830,0.01
 632253,0.04300218,-0.03237611,-0.04784931,-0.05996119,0.08012970,0.117
 33097,0.00049655,0.00037831,0.00010543,0.00033102,-0.00033079,-0.00000
 648,0.00025779,0.00098267,0.00005670,-0.00253191,0.00364587,-0.0003393
 1,-0.00057439,-0.00113289,-0.00009455,-0.00028789,0.00061121,0.0000121
 6,0.00000181,0.00004967,0.00000022,0.00056469,-0.00088719,0.00001618,-
 0.00013553,-0.00006441,-0.00001788,0.00001143,-0.00005873,0.00000327,-
 0.04946228,-0.03779611,-0.00459330,0.00708793,-0.00827957,0.00048509,-
 0.09975623,-0.02432227,-0.00310062,-0.00066097,-0.00127276,-0.00000724
 ,0.00036779,0.00025524,0.00012447,0.00026006,0.00040192,-0.00024433,0.
 00001017,0.00043035,0.00007638,0.57304305,0.00029867,0.00027602,0.0001
 3359,0.00014017,0.00002026,0.00000061,0.00018342,-0.00004612,0.0000047
 1,0.00513494,0.00191916,0.00014711,-0.00029267,0.00095661,-0.00000826,
 0.00033971,0.00033499,0.00004375,0.00000376,0.00006935,0.00000172,-0.0
 0000515,-0.00041393,-0.00000490,-0.00019859,-0.00014487,-0.00002148,0.
 00010601,0.00010909,0.00001379,-0.03146498,0.00843354,-0.00164677,0.01
 224273,-0.00857648,0.00066137,-0.05036518,-0.16998828,-0.00718340,-0.0
 0082103,-0.00139730,-0.00001990,0.00041922,0.00028782,0.00014366,0.000
 30708,0.00044769,-0.00028390,0.00003608,0.00048060,0.00008360,-0.08542
 073,0.47152001,0.00004640,0.00003879,-0.00000132,0.00000659,-0.0000308
 6,0.00015497,0.00004185,0.00007261,-0.00031271,-0.00029356,0.00007779,
 0.00560073,-0.00004727,-0.00002950,0.00024283,0.00001784,0.00004978,-0
 .00028499,-0.00000058,0.00000530,0.00003394,0.00004637,-0.00006337,-0.
 00024067,-0.00002838,-0.00001745,0.00017438,0.00001062,0.00000527,-0.0
 0005841,-0.00431472,-0.00205086,0.00132732,0.00129404,-0.00058433,-0.0
 0609309,-0.00413111,-0.00558938,-0.06507412,-0.00007895,-0.00013536,0.
 00002981,0.00000854,0.00001124,-0.00000684,0.00004920,0.00007234,-0.00
 007427,0.00001103,0.00002886,-0.00000417,-0.00404052,-0.00959698,0.583
 76027,-0.00005668,-0.00007686,-0.00002391,0.00001553,-0.00002555,0.000
 00601,-0.00011341,0.00001012,-0.00000491,-0.00083136,0.00031112,-0.000
 05579,0.00001625,-0.00034202,-0.00000891,-0.00006631,-0.00000486,-0.00
 000169,-0.00000969,-0.00002378,-0.00000187,-0.00005030,-0.00001951,-0.
 00000935,0.00004233,0.00001871,0.00000192,-0.00001849,-0.00003006,-0.0
 0000230,0.00186989,-0.00276592,0.00000069,0.00002622,-0.00011019,-0.00
 004122,-0.02249131,-0.00263433,-0.00145362,0.00012268,0.00025622,-0.00
 000219,-0.00005796,-0.00004946,-0.00001691,-0.00004988,-0.00008036,0.0
 0005023,0.00000590,-0.00009424,-0.00001753,-0.29635662,0.07809836,-0.0
 1139944,0.32547758,-0.00003457,0.00001352,-0.00000943,0.00007497,-0.00
 001422,0.00000561,-0.00010060,0.00009746,0.00000213,-0.00151199,0.0006
 5162,-0.00008150,0.00000125,-0.00047220,-0.00001200,-0.00014693,0.0000
 1464,-0.00001081,-0.00000839,-0.00001439,-0.00000111,0.00000962,-0.000
 07535,-0.00000599,-0.00000735,0.00001376,-0.00000113,-0.00002070,-0.00
 004228,-0.00000237,0.00092998,-0.00821854,-0.00026399,0.00093471,0.003
 16366,0.00015461,-0.04290849,0.00020748,-0.00255628,0.00001993,0.00006
 264,-0.00000127,-0.00000680,-0.00001193,0.00000006,-0.00000978,-0.0000
 1898,0.00001165,0.00000626,-0.00002449,-0.00000484,0.09114135,-0.07251
 016,0.00462255,-0.07763849,0.08284131,-0.00000495,-0.00000488,-0.00000
 580,0.00000689,-0.00000047,-0.00004302,-0.00000894,0.00000571,-0.00002
 233,-0.00012673,0.00003428,0.00024638,0.00000247,-0.00003811,-0.000016
 60,-0.00000800,0.00000170,-0.00002696,-0.00000141,-0.00000210,0.000006
 37,-0.00000735,-0.00000697,0.00007744,0.00000129,0.00000114,0.00001494
 ,-0.00000198,-0.00000343,0.00000065,0.00012589,-0.00049694,0.00020716,
 -0.00000521,0.00008718,0.00064660,-0.00304669,-0.00014322,-0.00026706,
 0.00000353,0.00001830,0.00002976,-0.00000469,-0.00000295,-0.00000645,-
 0.00000165,-0.00000474,-0.00000592,0.00000354,-0.00000887,-0.00000719,
 -0.01087444,0.00384424,-0.05286774,0.01348839,-0.00317778,0.04748159,-
 0.00011471,-0.00001791,-0.00002809,0.00003958,0.00011403,-0.00001020,-
 0.00004453,-0.00006486,0.00008154,-0.00019642,0.00006085,-0.00100152,0
 .00011038,-0.00001945,0.00000125,-0.00002793,-0.00009319,0.00003413,0.
 00000249,-0.00000162,-0.00001028,-0.00004441,0.00006900,0.00001665,-0.
 00002878,-0.00000695,-0.00001232,-0.00000628,-0.00000962,0.00000754,0.
 00438063,-0.00430263,0.00163175,-0.00073116,0.00218620,-0.00000039,-0.
 00260937,-0.01746498,0.01692319,0.00005501,0.00010506,0.00000537,-0.00
 002852,-0.00001591,-0.00000886,-0.00002513,-0.00003931,0.00002732,-0.0
 0000065,-0.00002594,-0.00000329,-0.05992651,0.03116657,-0.04522644,-0.
 00224641,0.01578461,-0.02508804,0.05909788,-0.00011436,-0.00006141,-0.
 00003540,-0.00003667,0.00005387,-0.00005306,-0.00003359,-0.00006946,-0
 .00001541,-0.00045894,-0.00030482,-0.00054833,0.00016863,-0.00005488,-
 0.00008718,-0.00006353,-0.00011106,0.00006035,-0.00000221,-0.00001674,
 0.00000204,-0.00007237,0.00018784,0.00009806,0.00001069,0.00002888,-0.
 00001179,-0.00001577,-0.00001686,0.00000908,0.00695972,-0.00146649,0.0
 0089524,-0.00159882,0.00209167,-0.00000442,-0.00811518,-0.02968098,0.0
 2105385,0.00013854,0.00027595,0.00003374,-0.00007853,-0.00005378,-0.00
 003290,-0.00005464,-0.00008802,0.00004758,-0.00000053,-0.00009561,-0.0
 0002324,0.02642992,-0.12473923,0.11466163,0.00218320,-0.00301104,0.006
 73218,-0.02308693,0.14597969,0.00001023,-0.00003487,-0.00000408,0.0000
 0195,-0.00002897,-0.00000310,-0.00005954,-0.00003998,0.00003193,0.0002
 7394,-0.00009996,-0.00050560,-0.00004965,0.00000313,0.00001192,0.00003
 422,0.00002805,0.00000558,-0.00000342,-0.00000639,-0.00000597,0.000005
 75,-0.00002411,-0.00000149,0.00001583,0.00000892,-0.00000339,0.0000001
 1,0.00000284,0.00000109,-0.00246262,0.00154534,0.00075120,-0.00036604,
 -0.00180622,0.00019041,0.00413319,-0.00182958,0.00884016,-0.00000471,0
 .00000570,-0.00000540,0.00000817,0.00000194,0.00000572,-0.00000283,-0.
 00000488,0.00000858,0.00000394,-0.00000199,0.00000115,-0.03981341,0.11
 979904,-0.23071543,0.00013280,-0.00157156,0.00097272,0.04418475,-0.130
 42671,0.24057424,-0.00011238,-0.00002105,-0.00000269,0.00003349,0.0001
 0474,0.00002667,-0.00004078,-0.00005878,-0.00009243,-0.00028976,-0.000
 03225,0.00100958,0.00010763,-0.00001532,0.00000555,-0.00001857,-0.0000
 9041,-0.00003812,0.00000083,-0.00000307,0.00001107,-0.00004154,0.00006
 599,-0.00001624,-0.00002838,-0.00000730,0.00000772,-0.00000479,-0.0000
 0771,-0.00000877,0.00421792,-0.00395832,-0.00151320,-0.00074386,0.0019
 5264,0.00004857,0.00014890,-0.01593921,-0.01921314,0.00005260,0.000104
 73,-0.00000679,-0.00003498,-0.00002159,-0.00001093,-0.00001979,-0.0000
 2912,0.00001551,0.00000189,-0.00003289,-0.00000551,-0.07273996,0.04009
 162,0.06802849,-0.00522795,0.01349138,0.02554810,0.00234485,-0.0021586
 3,-0.00604265,0.07239462,-0.00011197,-0.00006343,-0.00001889,-0.000045
 68,0.00004577,0.00005175,-0.00003988,-0.00007264,0.00001431,-0.0005058
 1,-0.00035471,0.00049257,0.00015626,-0.00006062,0.00011469,-0.00005083
 ,-0.00010653,-0.00007864,-0.00000200,-0.00001721,-0.00000311,-0.000060
 62,0.00019200,-0.00009214,0.00001037,0.00002863,0.00001409,-0.00001395
 ,-0.00001519,-0.00001255,0.00679069,-0.00128185,-0.00022626,-0.0016173
 5,0.00193441,-0.00006370,-0.00499608,-0.02778384,-0.02466385,0.0001437
 1,0.00027556,-0.00003314,-0.00007777,-0.00006042,-0.00002027,-0.000058
 56,-0.00008659,0.00006743,-0.00000486,-0.00009120,-0.00001167,0.035238
 91,-0.10703879,-0.10154806,0.00301789,-0.00265249,-0.00683427,-0.00433
 702,0.01115249,0.01448025,-0.03343545,0.12605665,-0.00003313,0.0000267
 6,-0.00000136,-0.00000021,0.00004704,0.00001376,0.00004802,0.00002300,
 0.00002361,-0.00028945,0.00010711,-0.00036070,0.00007239,-0.00001250,0
 .00002100,-0.00004110,-0.00004665,-0.00000904,0.00000385,0.00000496,-0
 .00000423,-0.00001546,0.00004827,-0.00000874,-0.00001770,-0.00000670,-
 0.00000405,-0.00000202,-0.00000522,-0.00000120,0.00343407,-0.00220206,
 0.00072282,0.00011270,0.00218662,0.00038569,-0.00560451,-0.00298463,0.
 00421846,0.00002433,0.00002961,-0.00000800,-0.00001252,-0.00000735,-0.
 00000282,-0.00000974,-0.00001281,0.00001264,-0.00000644,-0.00000344,0.
 00000162,0.06225217,-0.10611159,-0.23559049,-0.00064041,0.00290345,0.0
 0358545,0.00847594,-0.01235532,-0.02015022,-0.06775080,0.11837146,0.24
 715582\\-0.00000619,-0.00000102,-0.00000237,0.00000504,0.00000248,-0.0
 0000274,-0.00000048,0.00000006,-0.00000140,-0.00000132,-0.00000134,0.0
 0000166,0.00000260,0.00000310,0.00000190,-0.00000262,-0.00000086,0.000
 00246,-0.00000122,0.00000090,-0.00000400,0.00000055,-0.00000075,-0.000
 00310,0.00000027,-0.00000011,0.00000468,0.00000120,0.00000104,0.000003
 18,0.00001335,-0.00000517,0.00000106,-0.00000877,0.00000598,0.00000227
 ,0.00000112,0.00000573,-0.00000215,0.00000060,-0.00000089,0.00004279,-
 0.00001445,0.00000335,-0.00001101,0.00000796,0.00000596,-0.00002155,0.
 00000419,-0.00000563,-0.00000894,-0.00000310,-0.00001286,0.00000418,-0
 .00000100,0.00000079,-0.00000353,-0.00000033,0.00000124,-0.00000002,0.
 00000259,-0.00000199,-0.00000337\\\@


 WHEN IT COMES TO CASH FLOW, IT SEEMS LIKE THE TIDE IS ALWAYS GOING OUT.
 Job cpu time:       0 days  2 hours 23 minutes 28.0 seconds.
 File lengths (MBytes):  RWF=    284 Int=      0 D2E=      0 Chk=     10 Scr=      1
 Normal termination of Gaussian 09 at Wed Nov 17 15:30:33 2021.
