 Entering Gaussian System, Link 0=g09
 Initial command:
 /cm/shared/apps/gaussian/g09revD.01/g09/l1.exe "//home/sweav003/HartwigDocs/IrCatSilyDir_One/G09-Table2_6_ESP.com.o9626371.tmp/Gau-199232.inp" -scrdir="//home/sweav003/HartwigDocs/IrCatSilyDir_One/G09-Table2_6_ESP.com.o9626371.tmp/"
 Entering Link 1 = /cm/shared/apps/gaussian/g09revD.01/g09/l1.exe PID=    199233.
  
 Copyright (c) 1988,1990,1992,1993,1995,1998,2003,2009,2013,
            Gaussian, Inc.  All Rights Reserved.
  
 This is part of the Gaussian(R) 09 program.  It is based on
 the Gaussian(R) 03 system (copyright 2003, Gaussian, Inc.),
 the Gaussian(R) 98 system (copyright 1998, Gaussian, Inc.),
 the Gaussian(R) 94 system (copyright 1995, Gaussian, Inc.),
 the Gaussian 92(TM) system (copyright 1992, Gaussian, Inc.),
 the Gaussian 90(TM) system (copyright 1990, Gaussian, Inc.),
 the Gaussian 88(TM) system (copyright 1988, Gaussian, Inc.),
 the Gaussian 86(TM) system (copyright 1986, Carnegie Mellon
 University), and the Gaussian 82(TM) system (copyright 1983,
 Carnegie Mellon University). Gaussian is a federally registered
 trademark of Gaussian, Inc.
  
 This software contains proprietary and confidential information,
 including trade secrets, belonging to Gaussian, Inc.
  
 This software is provided under written license and may be
 used, copied, transmitted, or stored only in accord with that
 written license.
  
 The following legend is applicable only to US Government
 contracts under FAR:
  
                    RESTRICTED RIGHTS LEGEND
  
 Use, reproduction and disclosure by the US Government is
 subject to restrictions as set forth in subparagraphs (a)
 and (c) of the Commercial Computer Software - Restricted
 Rights clause in FAR 52.227-19.
  
 Gaussian, Inc.
 340 Quinnipiac St., Bldg. 40, Wallingford CT 06492
  
  
 ---------------------------------------------------------------
 Warning -- This program may not be used in any manner that
 competes with the business of Gaussian, Inc. or will provide
 assistance to any competitor of Gaussian, Inc.  The licensee
 of this program is prohibited from giving any competitor of
 Gaussian, Inc. access to this program.  By using this program,
 the user acknowledges that Gaussian, Inc. is engaged in the
 business of creating and licensing software in the field of
 computational chemistry and represents and warrants to the
 licensee that it is not a competitor of Gaussian, Inc. and that
 it will not use this program in any manner prohibited above.
 ---------------------------------------------------------------
  

 Cite this work as:
 Gaussian 09, Revision D.01,
 M. J. Frisch, G. W. Trucks, H. B. Schlegel, G. E. Scuseria, 
 M. A. Robb, J. R. Cheeseman, G. Scalmani, V. Barone, B. Mennucci, 
 G. A. Petersson, H. Nakatsuji, M. Caricato, X. Li, H. P. Hratchian, 
 A. F. Izmaylov, J. Bloino, G. Zheng, J. L. Sonnenberg, M. Hada, 
 M. Ehara, K. Toyota, R. Fukuda, J. Hasegawa, M. Ishida, T. Nakajima, 
 Y. Honda, O. Kitao, H. Nakai, T. Vreven, J. A. Montgomery, Jr., 
 J. E. Peralta, F. Ogliaro, M. Bearpark, J. J. Heyd, E. Brothers, 
 K. N. Kudin, V. N. Staroverov, T. Keith, R. Kobayashi, J. Normand, 
 K. Raghavachari, A. Rendell, J. C. Burant, S. S. Iyengar, J. Tomasi, 
 M. Cossi, N. Rega, J. M. Millam, M. Klene, J. E. Knox, J. B. Cross, 
 V. Bakken, C. Adamo, J. Jaramillo, R. Gomperts, R. E. Stratmann, 
 O. Yazyev, A. J. Austin, R. Cammi, C. Pomelli, J. W. Ochterski, 
 R. L. Martin, K. Morokuma, V. G. Zakrzewski, G. A. Voth, 
 P. Salvador, J. J. Dannenberg, S. Dapprich, A. D. Daniels, 
 O. Farkas, J. B. Foresman, J. V. Ortiz, J. Cioslowski, 
 and D. J. Fox, Gaussian, Inc., Wallingford CT, 2013.
 
 ******************************************
 Gaussian 09:  ES64L-G09RevD.01 24-Apr-2013
                 9-Nov-2021 
 ******************************************
 %mem=200MW
 %chk=Table2_6.chk
 %nprocshared=20
 Will use up to   20 processors via shared memory.
 ----------------------------------------------------------------------
 # b3lyp/6-311+g(d,p) pop=(chelpg, Dipole,ReadRadii,npa) Density=CHK SC
 F=Direct Geom=(checkpoint,NoDistance,NoAngle)
 ----------------------------------------------------------------------
 Warning!  Basis set taken from checkpoint file.
 1/29=2,38=1/1;
 2/9=11,12=2,40=1/2;
 3/5=7,6=2,7=111,11=2,14=-4,16=1,25=1,30=1,67=1,74=-5,89=1/1,2,3;
 4//1;
 6/7=2,8=2,9=2,10=2,11=2,15=24,20=103,22=10,28=1,40=-1/1,2,7;
 99/5=2/99;
 --------
 Table2_6
 --------
 Structure from the checkpoint file:  "Table2_6.chk"
 Charge =  0 Multiplicity = 1
 Redundant internal coordinates found in file.
 C,0,-3.1047908253,0.0058508114,-0.6192081846
 C,0,-1.7345597261,0.0063231625,-0.6689387198
 C,0,-1.0043249694,1.2018201385,-0.4457902491
 C,0,-1.7252665583,2.4156222675,-0.1625413155
 C,0,-3.1619262465,2.3950256676,-0.1041636321
 C,0,-3.8108252215,1.1959631227,-0.3382928443
 H,0,-3.6521639732,-0.9133533024,-0.7960696861
 C,0,0.4176966306,1.2699051524,-0.4886058809
 C,0,-0.9860872675,3.6100085848,0.0484596319
 H,0,-4.8942118732,1.1510211092,-0.3101801376
 C,0,0.3857400971,3.6226472695,-0.0056019373
 C,0,1.1036635071,2.4388314101,-0.2745199116
 H,0,-1.5154718262,4.5343426264,0.2423982089
 H,0,0.9310374352,4.5455385014,0.155250739
 H,0,2.1848742776,2.4537152454,-0.3152470943
 Si,0,-4.2036378997,3.9267964276,0.3209923064
 H,0,-3.7256663814,5.0812469508,-0.4926377254
 C,0,-4.0353163742,4.3657822951,2.1498614681
 H,0,-2.9970717858,4.5603068946,2.4304504514
 H,0,-4.6204425068,5.2592839172,2.3882772922
 H,0,-4.3999058089,3.5477634682,2.7782543105
 C,0,-6.0155419984,3.6191138314,-0.1025995021
 H,0,-6.5935522779,4.5301628243,0.0793998683
 H,0,-6.1453257654,3.3497288386,-1.1541945486
 H,0,-6.4546979723,2.8262232328,0.5096641473
 H,0,-1.1951736769,-0.9069656119,-0.881273547
 Br,0,1.4566747472,-0.3099966655,-0.8565593376
 Recover connectivity data from disk.
                          Input orientation:                          
 ---------------------------------------------------------------------
 Center     Atomic      Atomic             Coordinates (Angstroms)
 Number     Number       Type             X           Y           Z
 ---------------------------------------------------------------------
      1          6           0       -3.104791    0.005851   -0.619208
      2          6           0       -1.734560    0.006323   -0.668939
      3          6           0       -1.004325    1.201820   -0.445790
      4          6           0       -1.725267    2.415622   -0.162541
      5          6           0       -3.161926    2.395026   -0.104164
      6          6           0       -3.810825    1.195963   -0.338293
      7          1           0       -3.652164   -0.913353   -0.796070
      8          6           0        0.417697    1.269905   -0.488606
      9          6           0       -0.986087    3.610009    0.048460
     10          1           0       -4.894212    1.151021   -0.310180
     11          6           0        0.385740    3.622647   -0.005602
     12          6           0        1.103664    2.438831   -0.274520
     13          1           0       -1.515472    4.534343    0.242398
     14          1           0        0.931037    4.545539    0.155251
     15          1           0        2.184874    2.453715   -0.315247
     16         14           0       -4.203638    3.926796    0.320992
     17          1           0       -3.725666    5.081247   -0.492638
     18          6           0       -4.035316    4.365782    2.149861
     19          1           0       -2.997072    4.560307    2.430450
     20          1           0       -4.620443    5.259284    2.388277
     21          1           0       -4.399906    3.547763    2.778254
     22          6           0       -6.015542    3.619114   -0.102600
     23          1           0       -6.593552    4.530163    0.079400
     24          1           0       -6.145326    3.349729   -1.154195
     25          1           0       -6.454698    2.826223    0.509664
     26          1           0       -1.195174   -0.906966   -0.881274
     27         35           0        1.456675   -0.309997   -0.856559
 ---------------------------------------------------------------------
 Stoichiometry    C12H13BrSi
 Framework group  C1[X(C12H13BrSi)]
 Deg. of freedom    75
 Full point group                 C1      NOp   1
 Largest Abelian subgroup         C1      NOp   1
 Largest concise Abelian subgroup C1      NOp   1
                         Standard orientation:                         
 ---------------------------------------------------------------------
 Center     Atomic      Atomic             Coordinates (Angstroms)
 Number     Number       Type             X           Y           Z
 ---------------------------------------------------------------------
      1          6           0       -0.403901   -2.445611    0.127636
      2          6           0        0.755263   -1.713494    0.108946
      3          6           0        0.716189   -0.303034   -0.037088
      4          6           0       -0.561514    0.348994   -0.162139
      5          6           0       -1.767773   -0.433152   -0.130343
      6          6           0       -1.656560   -1.805051    0.008077
      7          1           0       -0.361041   -3.523771    0.235195
      8          6           0        1.883013    0.513117   -0.069237
      9          6           0       -0.590249    1.760369   -0.319175
     10          1           0       -2.548219   -2.422429    0.026126
     11          6           0        0.564850    2.502011   -0.345745
     12          6           0        1.822037    1.875969   -0.216508
     13          1           0       -1.542715    2.262091   -0.434661
     14          1           0        0.521348    3.577972   -0.469703
     15          1           0        2.729569    2.464913   -0.237199
     16         14           0       -3.503524    0.335055   -0.226608
     17          1           0       -3.540171    1.314987   -1.349816
     18          6           0       -3.927214    1.237906    1.376873
     19          1           0       -3.207353    2.028201    1.604373
     20          1           0       -4.919014    1.695832    1.312090
     21          1           0       -3.932662    0.542514    2.221478
     22          6           0       -4.788347   -1.002054   -0.570797
     23          1           0       -5.772619   -0.540387   -0.694493
     24          1           0       -4.563760   -1.552709   -1.488187
     25          1           0       -4.866208   -1.721870    0.249082
     26          1           0        1.713913   -2.205560    0.203720
     27         35           0        3.630386   -0.280753    0.096329
 ---------------------------------------------------------------------
 Rotational constants (GHZ):      1.1035157      0.2279263      0.1958492
 Basis read from chk: "Table2_6.chk" (5D, 7F)
 There are   436 symmetry adapted cartesian basis functions of A   symmetry.
 There are   420 symmetry adapted basis functions of A   symmetry.
   420 basis functions,   680 primitive gaussians,   436 cartesian basis functions
    67 alpha electrons       67 beta electrons
       nuclear repulsion energy      1226.7691218754 Hartrees.
 NAtoms=   27 NActive=   27 NUniq=   27 SFac= 1.00D+00 NAtFMM=   60 NAOKFM=F Big=F
 Integral buffers will be    131072 words long.
 Raffenetti 2 integral format.
 Two-electron integral symmetry is turned on.
 One-electron integrals computed using PRISM.
 NBasis=   420 RedAO= T EigKep=  1.11D-06  NBF=   420
 NBsUse=   417 1.00D-06 EigRej=  6.25D-07 NBFU=   417
 ExpMin= 3.31D-02 ExpMax= 4.40D+05 ExpMxC= 1.51D+04 IAcc=3 IRadAn=         5 AccDes= 0.00D+00
 Harris functional with IExCor=  402 and IRadAn=       5 diagonalized for initial guess.
 HarFok:  IExCor=  402 AccDes= 0.00D+00 IRadAn=         5 IDoV= 1 UseB2=F ITyADJ=14
 ICtDFT=  3500011 ScaDFX=  1.000000  1.000000  1.000000  1.000000
 FoFCou: FMM=F IPFlag=           0 FMFlag=      100000 FMFlg1=           0
         NFxFlg=           0 DoJE=T BraDBF=F KetDBF=T FulRan=T
         wScrn=  0.000000 ICntrl=     500 IOpCl=  0 I1Cent=   200000004 NGrid=           0
         NMat0=    1 NMatS0=      1 NMatT0=    0 NMatD0=    1 NMtDS0=    0 NMtDT0=    0
 Petite list used in FoFCou.
 Using densities on the checkpoint file.

 **********************************************************************

            Population analysis using the SCF density.

 **********************************************************************

 Orbital symmetries:
       Occupied  (A) (A) (A) (A) (A) (A) (A) (A) (A) (A) (A) (A)
                 (A) (A) (A) (A) (A) (A) (A) (A) (A) (A) (A) (A)
                 (A) (A) (A) (A) (A) (A) (A) (A) (A) (A) (A) (A)
                 (A) (A) (A) (A) (A) (A) (A) (A) (A) (A) (A) (A)
                 (A) (A) (A) (A) (A) (A) (A) (A) (A) (A) (A) (A)
                 (A) (A) (A) (A) (A) (A) (A)
       Virtual   (A) (A) (A) (A) (A) (A) (A) (A) (A) (A) (A) (A)
                 (A) (A) (A) (A) (A) (A) (A) (A) (A) (A) (A) (A)
                 (A) (A) (A) (A) (A) (A) (A) (A) (A) (A) (A) (A)
                 (A) (A) (A) (A) (A) (A) (A) (A) (A) (A) (A) (A)
                 (A) (A) (A) (A) (A) (A) (A) (A) (A) (A) (A) (A)
                 (A) (A) (A) (A) (A) (A) (A) (A) (A) (A) (A) (A)
                 (A) (A) (A) (A) (A) (A) (A) (A) (A) (A) (A) (A)
                 (A) (A) (A) (A) (A) (A) (A) (A) (A) (A) (A) (A)
                 (A) (A) (A) (A) (A) (A) (A) (A) (A) (A) (A) (A)
                 (A) (A) (A) (A) (A) (A) (A) (A) (A) (A) (A) (A)
                 (A) (A) (A) (A) (A) (A) (A) (A) (A) (A) (A) (A)
                 (A) (A) (A) (A) (A) (A) (A) (A) (A) (A) (A) (A)
                 (A) (A) (A) (A) (A) (A) (A) (A) (A) (A) (A) (A)
                 (A) (A) (A) (A) (A) (A) (A) (A) (A) (A) (A) (A)
                 (A) (A) (A) (A) (A) (A) (A) (A) (A) (A) (A) (A)
                 (A) (A) (A) (A) (A) (A) (A) (A) (A) (A) (A) (A)
                 (A) (A) (A) (A) (A) (A) (A) (A) (A) (A) (A) (A)
                 (A) (A) (A) (A) (A) (A) (A) (A) (A) (A) (A) (A)
                 (A) (A) (A) (A) (A) (A) (A) (A) (A) (A) (A) (A)
                 (A) (A) (A) (A) (A) (A) (A) (A) (A) (A) (A) (A)
                 (A) (A) (A) (A) (A) (A) (A) (A) (A) (A) (A) (A)
                 (A) (A) (A) (A) (A) (A) (A) (A) (A) (A) (A) (A)
                 (A) (A) (A) (A) (A) (A) (A) (A) (A) (A) (A) (A)
                 (A) (A) (A) (A) (A) (A) (A) (A) (A) (A) (A) (A)
                 (A) (A) (A) (A) (A) (A) (A) (A) (A) (A) (A) (A)
                 (A) (A) (A) (A) (A) (A) (A) (A) (A) (A) (A) (A)
                 (A) (A) (A) (A) (A) (A) (A) (A) (A) (A) (A) (A)
                 (A) (A) (A) (A) (A) (A) (A) (A) (A) (A) (A) (A)
                 (A) (A) (A) (A) (A) (A) (A) (A) (A) (A) (A) (A)
                 (A) (A)
 The electronic state is 1-A.
 Alpha  occ. eigenvalues -- -482.83180 -66.09311 -62.48469 -56.30501 -56.30119
 Alpha  occ. eigenvalues --  -56.30105 -10.23949 -10.20460 -10.20293 -10.19301
 Alpha  occ. eigenvalues --  -10.19056 -10.18774 -10.18730 -10.18640 -10.18538
 Alpha  occ. eigenvalues --  -10.17854 -10.15697 -10.15449  -8.69440  -6.52570
 Alpha  occ. eigenvalues --   -6.51296  -6.51269  -5.26638  -3.62470  -3.62444
 Alpha  occ. eigenvalues --   -3.62403  -2.63665  -2.63300  -2.63282  -2.62271
 Alpha  occ. eigenvalues --   -2.62269  -0.89533  -0.84339  -0.81538  -0.76432
 Alpha  occ. eigenvalues --   -0.75883  -0.72494  -0.71211  -0.68951  -0.63821
 Alpha  occ. eigenvalues --   -0.63137  -0.59553  -0.52929  -0.52115  -0.51367
 Alpha  occ. eigenvalues --   -0.48895  -0.46205  -0.43896  -0.43101  -0.42593
 Alpha  occ. eigenvalues --   -0.42110  -0.41726  -0.41354  -0.40252  -0.40051
 Alpha  occ. eigenvalues --   -0.39355  -0.36950  -0.35825  -0.35438  -0.32980
 Alpha  occ. eigenvalues --   -0.32127  -0.31884  -0.30965  -0.29435  -0.27784
 Alpha  occ. eigenvalues --   -0.26300  -0.23030
 Alpha virt. eigenvalues --   -0.06509  -0.03432  -0.01838  -0.01034  -0.00341
 Alpha virt. eigenvalues --    0.00366   0.00990   0.01611   0.02434   0.02877
 Alpha virt. eigenvalues --    0.03249   0.04603   0.04826   0.05158   0.05325
 Alpha virt. eigenvalues --    0.05808   0.06222   0.06602   0.07004   0.07523
 Alpha virt. eigenvalues --    0.07720   0.07963   0.08218   0.08650   0.09231
 Alpha virt. eigenvalues --    0.09344   0.09905   0.10360   0.10500   0.10823
 Alpha virt. eigenvalues --    0.11661   0.12202   0.12389   0.13134   0.13321
 Alpha virt. eigenvalues --    0.13966   0.14273   0.14726   0.14977   0.15397
 Alpha virt. eigenvalues --    0.15474   0.16225   0.16744   0.17083   0.17382
 Alpha virt. eigenvalues --    0.17879   0.18130   0.18391   0.18958   0.19229
 Alpha virt. eigenvalues --    0.19403   0.20368   0.20774   0.21412   0.21969
 Alpha virt. eigenvalues --    0.22236   0.22469   0.22783   0.23075   0.23770
 Alpha virt. eigenvalues --    0.24109   0.24445   0.24869   0.25244   0.25727
 Alpha virt. eigenvalues --    0.25921   0.26937   0.27262   0.28452   0.28887
 Alpha virt. eigenvalues --    0.29168   0.29322   0.30198   0.30477   0.30889
 Alpha virt. eigenvalues --    0.31596   0.31848   0.32210   0.32615   0.33648
 Alpha virt. eigenvalues --    0.34558   0.36552   0.36653   0.37051   0.39577
 Alpha virt. eigenvalues --    0.41288   0.41810   0.42724   0.45205   0.46450
 Alpha virt. eigenvalues --    0.46637   0.47769   0.48361   0.49584   0.50770
 Alpha virt. eigenvalues --    0.51825   0.52568   0.53281   0.53592   0.53869
 Alpha virt. eigenvalues --    0.54373   0.54963   0.55611   0.56305   0.57148
 Alpha virt. eigenvalues --    0.57809   0.59590   0.59779   0.60585   0.61192
 Alpha virt. eigenvalues --    0.61289   0.61810   0.62384   0.62757   0.63773
 Alpha virt. eigenvalues --    0.64207   0.64473   0.65417   0.66667   0.67762
 Alpha virt. eigenvalues --    0.68485   0.69138   0.69173   0.69324   0.70186
 Alpha virt. eigenvalues --    0.71335   0.72041   0.73054   0.73866   0.74778
 Alpha virt. eigenvalues --    0.75274   0.75777   0.76858   0.77816   0.78362
 Alpha virt. eigenvalues --    0.78985   0.80046   0.81027   0.82365   0.83275
 Alpha virt. eigenvalues --    0.84819   0.85290   0.85608   0.86218   0.87288
 Alpha virt. eigenvalues --    0.87829   0.88837   0.89764   0.90865   0.91666
 Alpha virt. eigenvalues --    0.93346   0.93696   0.95590   0.97078   0.97264
 Alpha virt. eigenvalues --    0.98662   1.00065   1.01503   1.01996   1.03225
 Alpha virt. eigenvalues --    1.05937   1.07252   1.08318   1.09476   1.10507
 Alpha virt. eigenvalues --    1.10715   1.11440   1.12570   1.13957   1.14694
 Alpha virt. eigenvalues --    1.17365   1.20584   1.20960   1.21573   1.25138
 Alpha virt. eigenvalues --    1.26504   1.33916   1.36459   1.38385   1.40125
 Alpha virt. eigenvalues --    1.43107   1.45117   1.46082   1.46845   1.47891
 Alpha virt. eigenvalues --    1.49483   1.49762   1.50549   1.51517   1.52704
 Alpha virt. eigenvalues --    1.53089   1.56229   1.57248   1.57458   1.58468
 Alpha virt. eigenvalues --    1.59670   1.60994   1.61734   1.62068   1.62913
 Alpha virt. eigenvalues --    1.64883   1.65619   1.66842   1.67328   1.69409
 Alpha virt. eigenvalues --    1.70812   1.71805   1.73618   1.74702   1.75386
 Alpha virt. eigenvalues --    1.77186   1.78701   1.80185   1.80437   1.82226
 Alpha virt. eigenvalues --    1.83619   1.86403   1.86798   1.87954   1.89765
 Alpha virt. eigenvalues --    1.89944   1.91955   1.92837   1.94246   1.94684
 Alpha virt. eigenvalues --    1.96915   1.97365   1.97765   2.01056   2.01953
 Alpha virt. eigenvalues --    2.02732   2.04980   2.05775   2.08066   2.09515
 Alpha virt. eigenvalues --    2.13849   2.14384   2.16789   2.17928   2.18365
 Alpha virt. eigenvalues --    2.18916   2.20158   2.20923   2.23012   2.24410
 Alpha virt. eigenvalues --    2.27162   2.32063   2.34269   2.35735   2.38857
 Alpha virt. eigenvalues --    2.40242   2.43240   2.44286   2.45812   2.47104
 Alpha virt. eigenvalues --    2.48137   2.51159   2.51490   2.52373   2.54040
 Alpha virt. eigenvalues --    2.56593   2.58257   2.59753   2.62307   2.64888
 Alpha virt. eigenvalues --    2.66143   2.67496   2.68484   2.68851   2.70201
 Alpha virt. eigenvalues --    2.71333   2.72360   2.72551   2.75104   2.75999
 Alpha virt. eigenvalues --    2.77187   2.78549   2.78578   2.79839   2.81224
 Alpha virt. eigenvalues --    2.82538   2.83131   2.84264   2.86124   2.87619
 Alpha virt. eigenvalues --    2.89693   2.92070   2.94182   2.99965   3.06367
 Alpha virt. eigenvalues --    3.09213   3.10542   3.15648   3.19306   3.21477
 Alpha virt. eigenvalues --    3.24878   3.29560   3.34284   3.35704   3.37312
 Alpha virt. eigenvalues --    3.39092   3.50852   3.51878   3.54707   3.59853
 Alpha virt. eigenvalues --    3.67551   3.73831   3.74829   3.76624   3.77186
 Alpha virt. eigenvalues --    3.78880   3.92533   4.02843   4.03241   4.11370
 Alpha virt. eigenvalues --    4.14214   4.14459   4.22165   4.23826   4.35742
 Alpha virt. eigenvalues --    4.42063   4.59691   4.81803   4.83067   5.83760
 Alpha virt. eigenvalues --    6.76508   7.56118   7.71574   7.76511  11.49198
 Alpha virt. eigenvalues --   11.53753  11.56529  23.46616  23.75931  23.87480
 Alpha virt. eigenvalues --   23.92658  23.95486  23.95767  23.96091  23.97896
 Alpha virt. eigenvalues --   24.08780  24.09715  24.17446  24.18206  48.02026
 Alpha virt. eigenvalues --  141.29751 289.75901 289.91589 289.987121020.83143
          Condensed to atoms (all electrons):
               1          2          3          4          5          6
     1  C    8.363146  -1.013233   0.406600   1.633873  -1.441513  -1.402372
     2  C   -1.013233  11.883614  -4.627023  -3.613060   1.585858   1.246350
     3  C    0.406600  -4.627023  16.210034   2.918356  -1.483841   0.091032
     4  C    1.633873  -3.613060   2.918356  14.274513  -0.235962  -3.183028
     5  C   -1.441513   1.585858  -1.483841  -0.235962   9.808259  -0.626860
     6  C   -1.402372   1.246350   0.091032  -3.183028  -0.626860  11.932196
     7  H    0.363900   0.001136   0.015525  -0.059174  -0.023351   0.015037
     8  C   -0.656257   1.660684  -4.661994  -4.905506  -0.434231   1.063753
     9  C    0.759473  -0.790774  -1.525913  -0.303601  -0.877455  -2.470982
    10  H   -0.051105  -0.005947  -0.001421   0.004139  -0.056551   0.432924
    11  C    0.031187   0.609521   0.081212  -1.715999   0.089418  -0.500649
    12  C   -0.270350  -1.173684  -1.471042   0.251580  -0.352023  -0.121686
    13  H   -0.006159   0.011040   0.024495  -0.016671   0.061539   0.036368
    14  H   -0.001292   0.004491  -0.000066   0.028588   0.002646  -0.000451
    15  H    0.000318   0.033360   0.000594  -0.013870   0.007486   0.002305
    16  Si   0.140906  -0.113039   0.025806   0.272420   0.028313  -0.183794
    17  H   -0.000301  -0.005561  -0.011001   0.038575  -0.095904  -0.066541
    18  C    0.015645   0.005391  -0.046005  -0.013985  -0.096898  -0.104222
    19  H   -0.000082  -0.000430  -0.003417  -0.007294  -0.020899  -0.003776
    20  H   -0.000939   0.000675   0.003085   0.001926   0.023696   0.027176
    21  H    0.003427  -0.003941  -0.004158   0.015814   0.001641  -0.064058
    22  C   -0.071503  -0.044173   0.007018   0.163098   0.017064  -0.164825
    23  H    0.008328   0.001265   0.001396  -0.007601  -0.039869   0.051268
    24  H   -0.019107   0.002112  -0.004493  -0.006452   0.043046  -0.011157
    25  H   -0.007579  -0.003140  -0.005584   0.006780   0.015060  -0.042593
    26  H    0.094113   0.271523   0.026944   0.056817  -0.025957  -0.012761
    27  Br   0.036434   0.032262   0.239984   0.095393  -0.009700   0.002383
               7          8          9         10         11         12
     1  C    0.363900  -0.656257   0.759473  -0.051105   0.031187  -0.270350
     2  C    0.001136   1.660684  -0.790774  -0.005947   0.609521  -1.173684
     3  C    0.015525  -4.661994  -1.525913  -0.001421   0.081212  -1.471042
     4  C   -0.059174  -4.905506  -0.303601   0.004139  -1.715999   0.251580
     5  C   -0.023351  -0.434231  -0.877455  -0.056551   0.089418  -0.352023
     6  C    0.015037   1.063753  -2.470982   0.432924  -0.500649  -0.121686
     7  H    0.545127   0.036072  -0.005030  -0.007601  -0.001412   0.001907
     8  C    0.036072  14.229668   0.969375   0.007014  -1.500709   0.114145
     9  C   -0.005030   0.969375  10.838315   0.005836  -0.802908  -0.011275
    10  H   -0.007601   0.007014   0.005836   0.555599   0.000566   0.000180
    11  C   -0.001412  -1.500709  -0.802908   0.000566   9.237686   0.562572
    12  C    0.001907   0.114145  -0.011275   0.000180   0.562572   8.203916
    13  H    0.000000  -0.010329   0.285965   0.000002  -0.059516  -0.017243
    14  H    0.000000  -0.014036  -0.087215   0.000000   0.448313  -0.028805
    15  H    0.000000  -0.014557  -0.029184   0.000000   0.010709   0.358007
    16  Si  -0.000889  -0.026526   0.158796  -0.007559  -0.088508   0.012235
    17  H    0.000007  -0.001258   0.033729   0.000499   0.000661   0.002236
    18  C    0.000073  -0.018521   0.113354  -0.001095   0.089682   0.004093
    19  H    0.000000  -0.000523   0.020331  -0.000021   0.008968   0.000368
    20  H    0.000000   0.000567  -0.029862  -0.000004  -0.007977  -0.000821
    21  H    0.000001  -0.000950   0.033375   0.000115   0.004121   0.001332
    22  C    0.000742  -0.003828  -0.070117  -0.003675  -0.045394   0.001770
    23  H   -0.000002   0.000199  -0.003440   0.000537   0.000097  -0.000063
    24  H    0.000006  -0.000729   0.002208  -0.001452   0.000892  -0.000060
    25  H    0.000015  -0.000440   0.011292   0.000543   0.001369  -0.000023
    26  H   -0.008615  -0.076658   0.016113  -0.000409   0.001880  -0.016521
    27  Br  -0.000268  -0.410846   0.051687  -0.000267   0.022128   0.039263
              13         14         15         16         17         18
     1  C   -0.006159  -0.001292   0.000318   0.140906  -0.000301   0.015645
     2  C    0.011040   0.004491   0.033360  -0.113039  -0.005561   0.005391
     3  C    0.024495  -0.000066   0.000594   0.025806  -0.011001  -0.046005
     4  C   -0.016671   0.028588  -0.013870   0.272420   0.038575  -0.013985
     5  C    0.061539   0.002646   0.007486   0.028313  -0.095904  -0.096898
     6  C    0.036368  -0.000451   0.002305  -0.183794  -0.066541  -0.104222
     7  H    0.000000   0.000000   0.000000  -0.000889   0.000007   0.000073
     8  C   -0.010329  -0.014036  -0.014557  -0.026526  -0.001258  -0.018521
     9  C    0.285965  -0.087215  -0.029184   0.158796   0.033729   0.113354
    10  H    0.000002   0.000000   0.000000  -0.007559   0.000499  -0.001095
    11  C   -0.059516   0.448313   0.010709  -0.088508   0.000661   0.089682
    12  C   -0.017243  -0.028805   0.358007   0.012235   0.002236   0.004093
    13  H    0.545598  -0.008165  -0.000327   0.032960   0.000090  -0.005712
    14  H   -0.008165   0.535239  -0.007453  -0.001913   0.000036   0.000259
    15  H   -0.000327  -0.007453   0.520861  -0.000536   0.000000  -0.000003
    16  Si   0.032960  -0.001913  -0.000536  12.056485   0.489674   0.086283
    17  H    0.000090   0.000036   0.000000   0.489674   0.861484  -0.066959
    18  C   -0.005712   0.000259  -0.000003   0.086283  -0.066959   5.905104
    19  H    0.000601   0.000010   0.000000  -0.023651  -0.002132   0.371055
    20  H    0.000231  -0.000001   0.000000  -0.011886  -0.000415   0.364012
    21  H   -0.000285   0.000001   0.000000   0.002983   0.002948   0.373364
    22  C    0.001697  -0.000017  -0.000001   0.261775  -0.028412  -0.136791
    23  H    0.000012   0.000000   0.000000  -0.014388  -0.002385   0.004108
    24  H    0.000015   0.000000   0.000000  -0.041767  -0.002022   0.015503
    25  H   -0.000002   0.000000   0.000000   0.018076   0.002903  -0.016787
    26  H    0.000007  -0.000001   0.000011  -0.000490  -0.000002   0.000013
    27  Br  -0.000519  -0.000768  -0.012292  -0.000374  -0.000019   0.000192
              19         20         21         22         23         24
     1  C   -0.000082  -0.000939   0.003427  -0.071503   0.008328  -0.019107
     2  C   -0.000430   0.000675  -0.003941  -0.044173   0.001265   0.002112
     3  C   -0.003417   0.003085  -0.004158   0.007018   0.001396  -0.004493
     4  C   -0.007294   0.001926   0.015814   0.163098  -0.007601  -0.006452
     5  C   -0.020899   0.023696   0.001641   0.017064  -0.039869   0.043046
     6  C   -0.003776   0.027176  -0.064058  -0.164825   0.051268  -0.011157
     7  H    0.000000   0.000000   0.000001   0.000742  -0.000002   0.000006
     8  C   -0.000523   0.000567  -0.000950  -0.003828   0.000199  -0.000729
     9  C    0.020331  -0.029862   0.033375  -0.070117  -0.003440   0.002208
    10  H   -0.000021  -0.000004   0.000115  -0.003675   0.000537  -0.001452
    11  C    0.008968  -0.007977   0.004121  -0.045394   0.000097   0.000892
    12  C    0.000368  -0.000821   0.001332   0.001770  -0.000063  -0.000060
    13  H    0.000601   0.000231  -0.000285   0.001697   0.000012   0.000015
    14  H    0.000010  -0.000001   0.000001  -0.000017   0.000000   0.000000
    15  H    0.000000   0.000000   0.000000  -0.000001   0.000000   0.000000
    16  Si  -0.023651  -0.011886   0.002983   0.261775  -0.014388  -0.041767
    17  H   -0.002132  -0.000415   0.002948  -0.028412  -0.002385  -0.002022
    18  C    0.371055   0.364012   0.373364  -0.136791   0.004108   0.015503
    19  H    0.513376  -0.018362  -0.019153   0.016441  -0.000113  -0.000147
    20  H   -0.018362   0.516782  -0.022044  -0.014498   0.001143   0.000014
    21  H   -0.019153  -0.022044   0.509932  -0.006269   0.000101  -0.000198
    22  C    0.016441  -0.014498  -0.006269   5.791968   0.360048   0.379206
    23  H   -0.000113   0.001143   0.000101   0.360048   0.508527  -0.013249
    24  H   -0.000147   0.000014  -0.000198   0.379206  -0.013249   0.509681
    25  H   -0.000175   0.000380   0.001852   0.381821  -0.023711  -0.024547
    26  H    0.000000   0.000000  -0.000001   0.000023   0.000000   0.000000
    27  Br   0.000001   0.000002  -0.000021   0.000001   0.000001   0.000005
              25         26         27
     1  C   -0.007579   0.094113   0.036434
     2  C   -0.003140   0.271523   0.032262
     3  C   -0.005584   0.026944   0.239984
     4  C    0.006780   0.056817   0.095393
     5  C    0.015060  -0.025957  -0.009700
     6  C   -0.042593  -0.012761   0.002383
     7  H    0.000015  -0.008615  -0.000268
     8  C   -0.000440  -0.076658  -0.410846
     9  C    0.011292   0.016113   0.051687
    10  H    0.000543  -0.000409  -0.000267
    11  C    0.001369   0.001880   0.022128
    12  C   -0.000023  -0.016521   0.039263
    13  H   -0.000002   0.000007  -0.000519
    14  H    0.000000  -0.000001  -0.000768
    15  H    0.000000   0.000011  -0.012292
    16  Si   0.018076  -0.000490  -0.000374
    17  H    0.002903  -0.000002  -0.000019
    18  C   -0.016787   0.000013   0.000192
    19  H   -0.000175   0.000000   0.000001
    20  H    0.000380   0.000000   0.000002
    21  H    0.001852  -0.000001  -0.000021
    22  C    0.381821   0.000023   0.000001
    23  H   -0.023711   0.000000   0.000001
    24  H   -0.024547   0.000000   0.000005
    25  H    0.519658  -0.000001  -0.000004
    26  H   -0.000001   0.527011   0.000680
    27  Br  -0.000004   0.000680  35.107988
 Mulliken charges:
               1
     1  C   -0.915561
     2  C    0.044721
     3  C   -0.206122
     4  C    0.320329
     5  C    0.136988
     6  C    0.058962
     7  H    0.126794
     8  C    0.656419
     9  C   -0.292092
    10  H    0.129154
    11  C   -0.477910
    12  C   -0.090010
    13  H    0.124307
    14  H    0.130600
    15  H    0.144574
    16  Si   0.928610
    17  H   -0.149931
    18  C   -0.841153
    19  H    0.169024
    20  H    0.167118
    21  H    0.170071
    22  C   -0.793170
    23  H    0.167793
    24  H    0.172690
    25  H    0.164837
    26  H    0.146283
    27  Br  -0.193324
 Sum of Mulliken charges =   0.00000
 Mulliken charges with hydrogens summed into heavy atoms:
               1
     1  C   -0.788767
     2  C    0.191004
     3  C   -0.206122
     4  C    0.320329
     5  C    0.136988
     6  C    0.188116
     8  C    0.656419
     9  C   -0.167785
    11  C   -0.347310
    12  C    0.054564
    16  Si   0.778678
    18  C   -0.334940
    22  C   -0.287850
    27  Br  -0.193324
 APT charges:
               1
     1  C   -0.030705
     2  C   -0.049923
     3  C   -0.127598
     4  C    0.023979
     5  C   -0.356803
     6  C   -0.034503
     7  H    0.022881
     8  C    0.406026
     9  C   -0.066544
    10  H    0.027577
    11  C    0.009810
    12  C   -0.168314
    13  H    0.041060
    14  H    0.027923
    15  H    0.059498
    16  Si   1.400601
    17  H   -0.330772
    18  C   -0.364281
    19  H    0.020575
    20  H   -0.005371
    21  H    0.012592
    22  C   -0.352895
    23  H    0.002538
    24  H    0.019143
    25  H    0.016170
    26  H    0.064445
    27  Br  -0.267107
 Sum of APT charges =   0.00000
 APT charges with hydrogens summed into heavy atoms:
               1
     1  C   -0.007824
     2  C    0.014521
     3  C   -0.127598
     4  C    0.023979
     5  C   -0.356803
     6  C   -0.006926
     8  C    0.406026
     9  C   -0.025484
    11  C    0.037733
    12  C   -0.108816
    16  Si   1.069829
    18  C   -0.336486
    22  C   -0.315045
    27  Br  -0.267107
 Electronic spatial extent (au):  <R**2>=           5154.1576
 Charge=              0.0000 electrons
 Dipole moment (field-independent basis, Debye):
    X=             -1.9120    Y=              0.1449    Z=              0.2695  Tot=              1.9363
 Quadrupole moment (field-independent basis, Debye-Ang):
   XX=           -101.6878   YY=            -95.2804   ZZ=           -109.4782
   XY=              2.2835   XZ=             -1.1336   YZ=             -1.0325
 Traceless Quadrupole moment (field-independent basis, Debye-Ang):
   XX=              0.4610   YY=              6.8684   ZZ=             -7.3294
   XY=              2.2835   XZ=             -1.1336   YZ=             -1.0325
 Octapole moment (field-independent basis, Debye-Ang**2):
  XXX=             95.2876  YYY=             -7.7523  ZZZ=              5.6173  XYY=             46.8599
  XXY=             -4.5337  XXZ=              5.5606  XZZ=             40.9738  YZZ=             -6.3632
  YYZ=              1.3081  XYZ=             -1.5778
 Hexadecapole moment (field-independent basis, Debye-Ang**3):
 XXXX=          -4800.1877 YYYY=          -1185.3038 ZZZZ=           -297.4063 XXXY=            -56.3182
 XXXZ=              0.0598 YYYX=             -5.0651 YYYZ=            -19.1526 ZZZX=              9.8570
 ZZZY=              3.9505 XXYY=          -1013.2231 XXZZ=           -895.8586 YYZZ=           -287.4795
 XXYZ=             -7.0762 YYXZ=             -2.4899 ZZXY=             -0.4606
 N-N= 1.226769121875D+03 E-N=-1.037442750003D+04  KE= 3.323122654401D+03
 Breneman (CHELPG) radii used.
 Read replacement radii for each type of atom:
 Rad(35) =   1.850000000000D+00
 Atom Element Radius
    1     6    1.50
    2     6    1.50
    3     6    1.50
    4     6    1.50
    5     6    1.50
    6     6    1.50
    7     1    1.45
    8     6    1.50
    9     6    1.50
   10     1    1.45
   11     6    1.50
   12     6    1.50
   13     1    1.45
   14     1    1.45
   15     1    1.45
   16    14    2.00
   17     1    1.45
   18     6    1.50
   19     1    1.45
   20     1    1.45
   21     1    1.45
   22     6    1.50
   23     1    1.45
   24     1    1.45
   25     1    1.45
   26     1    1.45
   27    35    1.85
 Generate Potential Derived Charges using the Breneman model, NDens= 1.
 Grid spacing= 0.300 Box extension= 2.800
 NStep X,Y,Z=   52     44     33   Total possible points=       75504
 Number of Points to Fit=   17284

 **********************************************************************

            Electrostatic Properties Using The SCF Density

 **********************************************************************

       Atomic Center    1 is at  -0.403901 -2.445611  0.127636
       Atomic Center    2 is at   0.755263 -1.713494  0.108946
       Atomic Center    3 is at   0.716189 -0.303034 -0.037088
       Atomic Center    4 is at  -0.561514  0.348994 -0.162139
       Atomic Center    5 is at  -1.767773 -0.433152 -0.130343
       Atomic Center    6 is at  -1.656560 -1.805051  0.008077
       Atomic Center    7 is at  -0.361041 -3.523771  0.235195
       Atomic Center    8 is at   1.883013  0.513117 -0.069237
       Atomic Center    9 is at  -0.590249  1.760369 -0.319175
       Atomic Center   10 is at  -2.548219 -2.422429  0.026126
       Atomic Center   11 is at   0.564850  2.502011 -0.345745
       Atomic Center   12 is at   1.822037  1.875969 -0.216508
       Atomic Center   13 is at  -1.542715  2.262091 -0.434661
       Atomic Center   14 is at   0.521348  3.577972 -0.469703
       Atomic Center   15 is at   2.729569  2.464913 -0.237199
       Atomic Center   16 is at  -3.503524  0.335055 -0.226608
       Atomic Center   17 is at  -3.540171  1.314987 -1.349816
       Atomic Center   18 is at  -3.927214  1.237906  1.376873
       Atomic Center   19 is at  -3.207353  2.028201  1.604373
       Atomic Center   20 is at  -4.919014  1.695832  1.312090
       Atomic Center   21 is at  -3.932662  0.542514  2.221478
       Atomic Center   22 is at  -4.788347 -1.002054 -0.570797
       Atomic Center   23 is at  -5.772619 -0.540387 -0.694493
       Atomic Center   24 is at  -4.563760 -1.552709 -1.488187
       Atomic Center   25 is at  -4.866208 -1.721870  0.249082
       Atomic Center   26 is at   1.713913 -2.205560  0.203720
       Atomic Center   27 is at   3.630386 -0.280753  0.096329
   17284 points will be used for fitting atomic charges
 Fitting point charges to electrostatic potential
 The dipole moment will be constrained to the correct value
 Charges from ESP fit, RMS=   0.00494 RRMS=   0.56572:
 ESP charges:
               1
     1  C   -0.112399
     2  C   -0.147688
     3  C    0.161761
     4  C    0.157200
     5  C   -0.303671
     6  C   -0.017529
     7  H    0.099161
     8  C   -0.054308
     9  C   -0.239770
    10  H    0.076853
    11  C   -0.079452
    12  C   -0.030896
    13  H    0.152421
    14  H    0.095846
    15  H    0.072154
    16  Si   0.708780
    17  H   -0.225037
    18  C   -0.328938
    19  H    0.048241
    20  H    0.073519
    21  H    0.047759
    22  C   -0.362410
    23  H    0.077333
    24  H    0.057043
    25  H    0.079067
    26  H    0.088816
    27  Br  -0.093855
 Sum of ESP charges =   0.00000
 ESP charges with hydrogens summed into heavy atoms:
               1
     1  C   -0.013238
     2  C   -0.058871
     3  C    0.161761
     4  C    0.157200
     5  C   -0.303671
     6  C    0.059323
     8  C   -0.054308
     9  C   -0.087349
    11  C    0.016395
    12  C    0.041258
    16  Si   0.483743
    18  C   -0.159419
    22  C   -0.148968
    27  Br  -0.093855
 Charge=   0.00000 Dipole=    -1.9120     0.1449     0.2695 Tot=     1.9363
 -----------------------------------------------------------------

              Electrostatic Properties (Atomic Units)

 -----------------------------------------------------------------
    Center     Electric         -------- Electric Field --------
               Potential          X             Y             Z
 -----------------------------------------------------------------
    1 Atom    -14.766145
    2 Atom    -14.765570
    3 Atom    -14.745783
    4 Atom    -14.747535
    5 Atom    -14.772921
    6 Atom    -14.764026
    7 Atom     -1.100634
    8 Atom    -14.711865
    9 Atom    -14.764341
   10 Atom     -1.102789
   11 Atom    -14.760900
   12 Atom    -14.758708
   13 Atom     -1.096515
   14 Atom     -1.095789
   15 Atom     -1.091926
   16 Atom    -49.292220
   17 Atom     -1.141402
   18 Atom    -14.791796
   19 Atom     -1.110382
   20 Atom     -1.109602
   21 Atom     -1.110189
   22 Atom    -14.789219
   23 Atom     -1.106538
   24 Atom     -1.107948
   25 Atom     -1.106586
   26 Atom     -1.101042
   27 Atom   -175.816682
 -----------------------------------------------------------------
 ******************************Gaussian NBO Version 3.1******************************
             N A T U R A L   A T O M I C   O R B I T A L   A N D
          N A T U R A L   B O N D   O R B I T A L   A N A L Y S I S
 ******************************Gaussian NBO Version 3.1******************************
       /RESON  / : Allow strongly delocalized NBO set

 Analyzing the SCF density

 Job title: Table2_6                                                        

 Storage needed:    531834 in NPA ( 209711285 available)
 Remove ICRem=  163 ICRemI=  164 L=0 PNAO number  163 atom    9 type  51 NPNAO=  420
   due to symmetric orthogonalization 2, value= 0.00D+00.


 NATURAL POPULATIONS:  Natural atomic orbital occupancies 
                                                          
   NAO  Atom  No  lang   Type(AO)    Occupancy      Energy
 ----------------------------------------------------------
     1    C    1  S      Cor( 1S)     1.99914       0.00000
     2    C    1  S      Val( 2S)     0.94813       0.00000
     3    C    1  S      Ryd( 3S)     0.00152       0.00000
     4    C    1  S      Ryd( 4S)     0.00013       0.00000
     5    C    1  S      Ryd( 5S)     0.00001       0.00000
     6    C    1  px     Val( 2p)     1.06234       0.00000
     7    C    1  px     Ryd( 3p)     0.00447       0.00000
     8    C    1  px     Ryd( 4p)     0.00036       0.00000
     9    C    1  px     Ryd( 5p)     0.00017       0.00000
    10    C    1  py     Val( 2p)     1.17250       0.00000
    11    C    1  py     Ryd( 3p)     0.00741       0.00000
    12    C    1  py     Ryd( 4p)     0.00028       0.00000
    13    C    1  py     Ryd( 5p)     0.00005       0.00000
    14    C    1  pz     Val( 2p)     0.99363       0.00000
    15    C    1  pz     Ryd( 3p)     0.00127       0.00000
    16    C    1  pz     Ryd( 4p)     0.00022       0.00000
    17    C    1  pz     Ryd( 5p)     0.00002       0.00000
    18    C    1  dxy    Ryd( 3d)     0.00066       0.00000
    19    C    1  dxz    Ryd( 3d)     0.00049       0.00000
    20    C    1  dyz    Ryd( 3d)     0.00039       0.00000
    21    C    1  dx2y2  Ryd( 3d)     0.00082       0.00000
    22    C    1  dz2    Ryd( 3d)     0.00039       0.00000

    23    C    2  S      Cor( 1S)     1.99907       0.00000
    24    C    2  S      Val( 2S)     0.93868       0.00000
    25    C    2  S      Ryd( 3S)     0.00137       0.00000
    26    C    2  S      Ryd( 4S)     0.00013       0.00000
    27    C    2  S      Ryd( 5S)     0.00002       0.00000
    28    C    2  px     Val( 2p)     1.16889       0.00000
    29    C    2  px     Ryd( 3p)     0.00550       0.00000
    30    C    2  px     Ryd( 4p)     0.00026       0.00000
    31    C    2  px     Ryd( 5p)     0.00008       0.00000
    32    C    2  py     Val( 2p)     1.06695       0.00000
    33    C    2  py     Ryd( 3p)     0.00446       0.00000
    34    C    2  py     Ryd( 4p)     0.00053       0.00000
    35    C    2  py     Ryd( 5p)     0.00013       0.00000
    36    C    2  pz     Val( 2p)     0.97917       0.00000
    37    C    2  pz     Ryd( 3p)     0.00136       0.00000
    38    C    2  pz     Ryd( 4p)     0.00046       0.00000
    39    C    2  pz     Ryd( 5p)     0.00002       0.00000
    40    C    2  dxy    Ryd( 3d)     0.00073       0.00000
    41    C    2  dxz    Ryd( 3d)     0.00048       0.00000
    42    C    2  dyz    Ryd( 3d)     0.00047       0.00000
    43    C    2  dx2y2  Ryd( 3d)     0.00071       0.00000
    44    C    2  dz2    Ryd( 3d)     0.00039       0.00000

    45    C    3  S      Cor( 1S)     1.99882       0.00000
    46    C    3  S      Val( 2S)     0.86648       0.00000
    47    C    3  S      Ryd( 3S)     0.00095       0.00000
    48    C    3  S      Ryd( 4S)     0.00014       0.00000
    49    C    3  S      Ryd( 5S)     0.00002       0.00000
    50    C    3  px     Val( 2p)     1.09215       0.00000
    51    C    3  px     Ryd( 3p)     0.00622       0.00000
    52    C    3  px     Ryd( 4p)     0.00009       0.00000
    53    C    3  px     Ryd( 5p)     0.00011       0.00000
    54    C    3  py     Val( 2p)     1.10655       0.00000
    55    C    3  py     Ryd( 3p)     0.00510       0.00000
    56    C    3  py     Ryd( 4p)     0.00012       0.00000
    57    C    3  py     Ryd( 5p)     0.00011       0.00000
    58    C    3  pz     Val( 2p)     1.01310       0.00000
    59    C    3  pz     Ryd( 3p)     0.00094       0.00000
    60    C    3  pz     Ryd( 4p)     0.00018       0.00000
    61    C    3  pz     Ryd( 5p)     0.00001       0.00000
    62    C    3  dxy    Ryd( 3d)     0.00083       0.00000
    63    C    3  dxz    Ryd( 3d)     0.00053       0.00000
    64    C    3  dyz    Ryd( 3d)     0.00067       0.00000
    65    C    3  dx2y2  Ryd( 3d)     0.00076       0.00000
    66    C    3  dz2    Ryd( 3d)     0.00042       0.00000

    67    C    4  S      Cor( 1S)     1.99899       0.00000
    68    C    4  S      Val( 2S)     0.86274       0.00000
    69    C    4  S      Ryd( 3S)     0.00114       0.00000
    70    C    4  S      Ryd( 4S)     0.00014       0.00000
    71    C    4  S      Ryd( 5S)     0.00001       0.00000
    72    C    4  px     Val( 2p)     1.07745       0.00000
    73    C    4  px     Ryd( 3p)     0.00509       0.00000
    74    C    4  px     Ryd( 4p)     0.00154       0.00000
    75    C    4  px     Ryd( 5p)     0.00018       0.00000
    76    C    4  py     Val( 2p)     1.08916       0.00000
    77    C    4  py     Ryd( 3p)     0.00689       0.00000
    78    C    4  py     Ryd( 4p)     0.00111       0.00000
    79    C    4  py     Ryd( 5p)     0.00014       0.00000
    80    C    4  pz     Val( 2p)     0.98884       0.00000
    81    C    4  pz     Ryd( 3p)     0.00053       0.00000
    82    C    4  pz     Ryd( 4p)     0.00053       0.00000
    83    C    4  pz     Ryd( 5p)     0.00003       0.00000
    84    C    4  dxy    Ryd( 3d)     0.00069       0.00000
    85    C    4  dxz    Ryd( 3d)     0.00055       0.00000
    86    C    4  dyz    Ryd( 3d)     0.00063       0.00000
    87    C    4  dx2y2  Ryd( 3d)     0.00084       0.00000
    88    C    4  dz2    Ryd( 3d)     0.00040       0.00000

    89    C    5  S      Cor( 1S)     1.99900       0.00000
    90    C    5  S      Val( 2S)     1.00695       0.00000
    91    C    5  S      Ryd( 3S)     0.00597       0.00000
    92    C    5  S      Ryd( 4S)     0.00018       0.00000
    93    C    5  S      Ryd( 5S)     0.00001       0.00000
    94    C    5  px     Val( 2p)     1.25507       0.00000
    95    C    5  px     Ryd( 3p)     0.00868       0.00000
    96    C    5  px     Ryd( 4p)     0.00016       0.00000
    97    C    5  px     Ryd( 5p)     0.00009       0.00000
    98    C    5  py     Val( 2p)     1.12075       0.00000
    99    C    5  py     Ryd( 3p)     0.00670       0.00000
   100    C    5  py     Ryd( 4p)     0.00011       0.00000
   101    C    5  py     Ryd( 5p)     0.00015       0.00000
   102    C    5  pz     Val( 2p)     1.01379       0.00000
   103    C    5  pz     Ryd( 3p)     0.00191       0.00000
   104    C    5  pz     Ryd( 4p)     0.00028       0.00000
   105    C    5  pz     Ryd( 5p)     0.00002       0.00000
   106    C    5  dxy    Ryd( 3d)     0.00081       0.00000
   107    C    5  dxz    Ryd( 3d)     0.00031       0.00000
   108    C    5  dyz    Ryd( 3d)     0.00064       0.00000
   109    C    5  dx2y2  Ryd( 3d)     0.00090       0.00000
   110    C    5  dz2    Ryd( 3d)     0.00056       0.00000

   111    C    6  S      Cor( 1S)     1.99911       0.00000
   112    C    6  S      Val( 2S)     0.93948       0.00000
   113    C    6  S      Ryd( 3S)     0.00140       0.00000
   114    C    6  S      Ryd( 4S)     0.00019       0.00000
   115    C    6  S      Ryd( 5S)     0.00001       0.00000
   116    C    6  px     Val( 2p)     1.13365       0.00000
   117    C    6  px     Ryd( 3p)     0.00654       0.00000
   118    C    6  px     Ryd( 4p)     0.00037       0.00000
   119    C    6  px     Ryd( 5p)     0.00008       0.00000
   120    C    6  py     Val( 2p)     1.11300       0.00000
   121    C    6  py     Ryd( 3p)     0.00506       0.00000
   122    C    6  py     Ryd( 4p)     0.00040       0.00000
   123    C    6  py     Ryd( 5p)     0.00011       0.00000
   124    C    6  pz     Val( 2p)     0.98181       0.00000
   125    C    6  pz     Ryd( 3p)     0.00117       0.00000
   126    C    6  pz     Ryd( 4p)     0.00036       0.00000
   127    C    6  pz     Ryd( 5p)     0.00002       0.00000
   128    C    6  dxy    Ryd( 3d)     0.00090       0.00000
   129    C    6  dxz    Ryd( 3d)     0.00038       0.00000
   130    C    6  dyz    Ryd( 3d)     0.00053       0.00000
   131    C    6  dx2y2  Ryd( 3d)     0.00062       0.00000
   132    C    6  dz2    Ryd( 3d)     0.00040       0.00000

   133    H    7  S      Val( 1S)     0.78999       0.00000
   134    H    7  S      Ryd( 2S)     0.00066       0.00000
   135    H    7  S      Ryd( 3S)     0.00018       0.00000
   136    H    7  px     Ryd( 2p)     0.00010       0.00000
   137    H    7  py     Ryd( 2p)     0.00042       0.00000
   138    H    7  pz     Ryd( 2p)     0.00019       0.00000

   139    C    8  S      Cor( 1S)     1.99855       0.00000
   140    C    8  S      Val( 2S)     0.94301       0.00000
   141    C    8  S      Ryd( 3S)     0.00154       0.00000
   142    C    8  S      Ryd( 4S)     0.00021       0.00000
   143    C    8  S      Ryd( 5S)     0.00001       0.00000
   144    C    8  px     Val( 2p)     0.97748       0.00000
   145    C    8  px     Ryd( 3p)     0.00655       0.00000
   146    C    8  px     Ryd( 4p)     0.00027       0.00000
   147    C    8  px     Ryd( 5p)     0.00019       0.00000
   148    C    8  py     Val( 2p)     1.05646       0.00000
   149    C    8  py     Ryd( 3p)     0.00671       0.00000
   150    C    8  py     Ryd( 4p)     0.00019       0.00000
   151    C    8  py     Ryd( 5p)     0.00019       0.00000
   152    C    8  pz     Val( 2p)     1.06885       0.00000
   153    C    8  pz     Ryd( 3p)     0.00135       0.00000
   154    C    8  pz     Ryd( 4p)     0.00044       0.00000
   155    C    8  pz     Ryd( 5p)     0.00001       0.00000
   156    C    8  dxy    Ryd( 3d)     0.00119       0.00000
   157    C    8  dxz    Ryd( 3d)     0.00091       0.00000
   158    C    8  dyz    Ryd( 3d)     0.00081       0.00000
   159    C    8  dx2y2  Ryd( 3d)     0.00120       0.00000
   160    C    8  dz2    Ryd( 3d)     0.00067       0.00000

   161    C    9  S      Cor( 1S)     1.99894       0.00000
   162    C    9  S      Val( 2S)     0.92681       0.00000
   163    C    9  S      Ryd( 3S)     0.00057       0.00000
   164    C    9  S      Ryd( 4S)     0.00003       0.00000
   165    C    9  px     Val( 2p)     1.15798       0.00000
   166    C    9  px     Ryd( 3p)     0.00459       0.00000
   167    C    9  px     Ryd( 4p)     0.00014       0.00000
   168    C    9  px     Ryd( 5p)     0.00008       0.00000
   169    C    9  py     Val( 2p)     1.07734       0.00000
   170    C    9  py     Ryd( 3p)     0.00443       0.00000
   171    C    9  py     Ryd( 4p)     0.00028       0.00000
   172    C    9  py     Ryd( 5p)     0.00012       0.00000
   173    C    9  pz     Val( 2p)     0.99639       0.00000
   174    C    9  pz     Ryd( 3p)     0.00107       0.00000
   175    C    9  pz     Ryd( 4p)     0.00043       0.00000
   176    C    9  pz     Ryd( 5p)     0.00002       0.00000
   177    C    9  dxy    Ryd( 3d)     0.00077       0.00000
   178    C    9  dxz    Ryd( 3d)     0.00047       0.00000
   179    C    9  dyz    Ryd( 3d)     0.00050       0.00000
   180    C    9  dx2y2  Ryd( 3d)     0.00073       0.00000
   181    C    9  dz2    Ryd( 3d)     0.00048       0.00000

   182    H   10  S      Val( 1S)     0.79454       0.00000
   183    H   10  S      Ryd( 2S)     0.00066       0.00000
   184    H   10  S      Ryd( 3S)     0.00018       0.00000
   185    H   10  px     Ryd( 2p)     0.00033       0.00000
   186    H   10  py     Ryd( 2p)     0.00029       0.00000
   187    H   10  pz     Ryd( 2p)     0.00019       0.00000

   188    C   11  S      Cor( 1S)     1.99918       0.00000
   189    C   11  S      Val( 2S)     0.94730       0.00000
   190    C   11  S      Ryd( 3S)     0.00193       0.00000
   191    C   11  S      Ryd( 4S)     0.00012       0.00000
   192    C   11  S      Ryd( 5S)     0.00001       0.00000
   193    C   11  px     Val( 2p)     1.05477       0.00000
   194    C   11  px     Ryd( 3p)     0.00427       0.00000
   195    C   11  px     Ryd( 4p)     0.00039       0.00000
   196    C   11  px     Ryd( 5p)     0.00017       0.00000
   197    C   11  py     Val( 2p)     1.17345       0.00000
   198    C   11  py     Ryd( 3p)     0.00699       0.00000
   199    C   11  py     Ryd( 4p)     0.00028       0.00000
   200    C   11  py     Ryd( 5p)     0.00006       0.00000
   201    C   11  pz     Val( 2p)     0.99995       0.00000
   202    C   11  pz     Ryd( 3p)     0.00132       0.00000
   203    C   11  pz     Ryd( 4p)     0.00029       0.00000
   204    C   11  pz     Ryd( 5p)     0.00002       0.00000
   205    C   11  dxy    Ryd( 3d)     0.00062       0.00000
   206    C   11  dxz    Ryd( 3d)     0.00055       0.00000
   207    C   11  dyz    Ryd( 3d)     0.00040       0.00000
   208    C   11  dx2y2  Ryd( 3d)     0.00077       0.00000
   209    C   11  dz2    Ryd( 3d)     0.00040       0.00000

   210    C   12  S      Cor( 1S)     1.99894       0.00000
   211    C   12  S      Val( 2S)     0.94504       0.00000
   212    C   12  S      Ryd( 3S)     0.00178       0.00000
   213    C   12  S      Ryd( 4S)     0.00021       0.00000
   214    C   12  S      Ryd( 5S)     0.00001       0.00000
   215    C   12  px     Val( 2p)     1.14930       0.00000
   216    C   12  px     Ryd( 3p)     0.00754       0.00000
   217    C   12  px     Ryd( 4p)     0.00028       0.00000
   218    C   12  px     Ryd( 5p)     0.00009       0.00000
   219    C   12  py     Val( 2p)     1.11714       0.00000
   220    C   12  py     Ryd( 3p)     0.00475       0.00000
   221    C   12  py     Ryd( 4p)     0.00032       0.00000
   222    C   12  py     Ryd( 5p)     0.00011       0.00000
   223    C   12  pz     Val( 2p)     0.99699       0.00000
   224    C   12  pz     Ryd( 3p)     0.00139       0.00000
   225    C   12  pz     Ryd( 4p)     0.00039       0.00000
   226    C   12  pz     Ryd( 5p)     0.00002       0.00000
   227    C   12  dxy    Ryd( 3d)     0.00073       0.00000
   228    C   12  dxz    Ryd( 3d)     0.00044       0.00000
   229    C   12  dyz    Ryd( 3d)     0.00057       0.00000
   230    C   12  dx2y2  Ryd( 3d)     0.00082       0.00000
   231    C   12  dz2    Ryd( 3d)     0.00042       0.00000

   232    H   13  S      Val( 1S)     0.78895       0.00000
   233    H   13  S      Ryd( 2S)     0.00079       0.00000
   234    H   13  S      Ryd( 3S)     0.00020       0.00000
   235    H   13  px     Ryd( 2p)     0.00035       0.00000
   236    H   13  py     Ryd( 2p)     0.00028       0.00000
   237    H   13  pz     Ryd( 2p)     0.00023       0.00000

   238    H   14  S      Val( 1S)     0.78684       0.00000
   239    H   14  S      Ryd( 2S)     0.00059       0.00000
   240    H   14  S      Ryd( 3S)     0.00018       0.00000
   241    H   14  px     Ryd( 2p)     0.00011       0.00000
   242    H   14  py     Ryd( 2p)     0.00043       0.00000
   243    H   14  pz     Ryd( 2p)     0.00020       0.00000

   244    H   15  S      Val( 1S)     0.77439       0.00000
   245    H   15  S      Ryd( 2S)     0.00067       0.00000
   246    H   15  S      Ryd( 3S)     0.00020       0.00000
   247    H   15  px     Ryd( 2p)     0.00035       0.00000
   248    H   15  py     Ryd( 2p)     0.00022       0.00000
   249    H   15  pz     Ryd( 2p)     0.00018       0.00000

   250   Si   16  S      Cor( 1S)     2.00000       0.00000
   251   Si   16  S      Cor( 2S)     1.99901       0.00000
   252   Si   16  S      Val( 3S)     0.86926       0.00000
   253   Si   16  S      Ryd( 4S)     0.00164       0.00000
   254   Si   16  S      Ryd( 5S)     0.00037       0.00000
   255   Si   16  S      Ryd( 6S)     0.00002       0.00000
   256   Si   16  S      Ryd( 7S)     0.00000       0.00000
   257   Si   16  px     Cor( 2p)     1.99977       0.00000
   258   Si   16  px     Val( 3p)     0.52143       0.00000
   259   Si   16  px     Ryd( 4p)     0.00124       0.00000
   260   Si   16  px     Ryd( 5p)     0.00036       0.00000
   261   Si   16  px     Ryd( 6p)     0.00016       0.00000
   262   Si   16  px     Ryd( 7p)     0.00001       0.00000
   263   Si   16  py     Cor( 2p)     1.99981       0.00000
   264   Si   16  py     Val( 3p)     0.59963       0.00000
   265   Si   16  py     Ryd( 4p)     0.00157       0.00000
   266   Si   16  py     Ryd( 5p)     0.00029       0.00000
   267   Si   16  py     Ryd( 6p)     0.00012       0.00000
   268   Si   16  py     Ryd( 7p)     0.00000       0.00000
   269   Si   16  pz     Cor( 2p)     1.99983       0.00000
   270   Si   16  pz     Val( 3p)     0.62432       0.00000
   271   Si   16  pz     Ryd( 4p)     0.00102       0.00000
   272   Si   16  pz     Ryd( 5p)     0.00025       0.00000
   273   Si   16  pz     Ryd( 6p)     0.00014       0.00000
   274   Si   16  pz     Ryd( 7p)     0.00000       0.00000
   275   Si   16  dxy    Ryd( 3d)     0.00498       0.00000
   276   Si   16  dxz    Ryd( 3d)     0.00283       0.00000
   277   Si   16  dyz    Ryd( 3d)     0.00729       0.00000
   278   Si   16  dx2y2  Ryd( 3d)     0.00338       0.00000
   279   Si   16  dz2    Ryd( 3d)     0.00489       0.00000

   280    H   17  S      Val( 1S)     1.17701       0.00000
   281    H   17  S      Ryd( 2S)     0.00102       0.00000
   282    H   17  S      Ryd( 3S)     0.00005       0.00000
   283    H   17  px     Ryd( 2p)     0.00011       0.00000
   284    H   17  py     Ryd( 2p)     0.00111       0.00000
   285    H   17  pz     Ryd( 2p)     0.00145       0.00000

   286    C   18  S      Cor( 1S)     1.99935       0.00000
   287    C   18  S      Val( 2S)     1.20480       0.00000
   288    C   18  S      Ryd( 3S)     0.00232       0.00000
   289    C   18  S      Ryd( 4S)     0.00009       0.00000
   290    C   18  S      Ryd( 5S)     0.00000       0.00000
   291    C   18  px     Val( 2p)     1.24639       0.00000
   292    C   18  px     Ryd( 3p)     0.00056       0.00000
   293    C   18  px     Ryd( 4p)     0.00012       0.00000
   294    C   18  px     Ryd( 5p)     0.00002       0.00000
   295    C   18  py     Val( 2p)     1.26985       0.00000
   296    C   18  py     Ryd( 3p)     0.00114       0.00000
   297    C   18  py     Ryd( 4p)     0.00011       0.00000
   298    C   18  py     Ryd( 5p)     0.00002       0.00000
   299    C   18  pz     Val( 2p)     1.33180       0.00000
   300    C   18  pz     Ryd( 3p)     0.00234       0.00000
   301    C   18  pz     Ryd( 4p)     0.00015       0.00000
   302    C   18  pz     Ryd( 5p)     0.00004       0.00000
   303    C   18  dxy    Ryd( 3d)     0.00085       0.00000
   304    C   18  dxz    Ryd( 3d)     0.00016       0.00000
   305    C   18  dyz    Ryd( 3d)     0.00100       0.00000
   306    C   18  dx2y2  Ryd( 3d)     0.00039       0.00000
   307    C   18  dz2    Ryd( 3d)     0.00070       0.00000

   308    H   19  S      Val( 1S)     0.76773       0.00000
   309    H   19  S      Ryd( 2S)     0.00049       0.00000
   310    H   19  S      Ryd( 3S)     0.00010       0.00000
   311    H   19  px     Ryd( 2p)     0.00018       0.00000
   312    H   19  py     Ryd( 2p)     0.00019       0.00000
   313    H   19  pz     Ryd( 2p)     0.00013       0.00000

   314    H   20  S      Val( 1S)     0.77106       0.00000
   315    H   20  S      Ryd( 2S)     0.00035       0.00000
   316    H   20  S      Ryd( 3S)     0.00008       0.00000
   317    H   20  px     Ryd( 2p)     0.00026       0.00000
   318    H   20  py     Ryd( 2p)     0.00012       0.00000
   319    H   20  pz     Ryd( 2p)     0.00012       0.00000

   320    H   21  S      Val( 1S)     0.76884       0.00000
   321    H   21  S      Ryd( 2S)     0.00053       0.00000
   322    H   21  S      Ryd( 3S)     0.00008       0.00000
   323    H   21  px     Ryd( 2p)     0.00008       0.00000
   324    H   21  py     Ryd( 2p)     0.00017       0.00000
   325    H   21  pz     Ryd( 2p)     0.00024       0.00000

   326    C   22  S      Cor( 1S)     1.99936       0.00000
   327    C   22  S      Val( 2S)     1.20313       0.00000
   328    C   22  S      Ryd( 3S)     0.00196       0.00000
   329    C   22  S      Ryd( 4S)     0.00010       0.00000
   330    C   22  S      Ryd( 5S)     0.00000       0.00000
   331    C   22  px     Val( 2p)     1.30692       0.00000
   332    C   22  px     Ryd( 3p)     0.00175       0.00000
   333    C   22  px     Ryd( 4p)     0.00018       0.00000
   334    C   22  px     Ryd( 5p)     0.00002       0.00000
   335    C   22  py     Val( 2p)     1.30243       0.00000
   336    C   22  py     Ryd( 3p)     0.00148       0.00000
   337    C   22  py     Ryd( 4p)     0.00015       0.00000
   338    C   22  py     Ryd( 5p)     0.00004       0.00000
   339    C   22  pz     Val( 2p)     1.24684       0.00000
   340    C   22  pz     Ryd( 3p)     0.00048       0.00000
   341    C   22  pz     Ryd( 4p)     0.00008       0.00000
   342    C   22  pz     Ryd( 5p)     0.00003       0.00000
   343    C   22  dxy    Ryd( 3d)     0.00095       0.00000
   344    C   22  dxz    Ryd( 3d)     0.00015       0.00000
   345    C   22  dyz    Ryd( 3d)     0.00095       0.00000
   346    C   22  dx2y2  Ryd( 3d)     0.00030       0.00000
   347    C   22  dz2    Ryd( 3d)     0.00072       0.00000

   348    H   23  S      Val( 1S)     0.76555       0.00000
   349    H   23  S      Ryd( 2S)     0.00029       0.00000
   350    H   23  S      Ryd( 3S)     0.00009       0.00000
   351    H   23  px     Ryd( 2p)     0.00029       0.00000
   352    H   23  py     Ryd( 2p)     0.00013       0.00000
   353    H   23  pz     Ryd( 2p)     0.00008       0.00000

   354    H   24  S      Val( 1S)     0.76569       0.00000
   355    H   24  S      Ryd( 2S)     0.00043       0.00000
   356    H   24  S      Ryd( 3S)     0.00009       0.00000
   357    H   24  px     Ryd( 2p)     0.00011       0.00000
   358    H   24  py     Ryd( 2p)     0.00015       0.00000
   359    H   24  pz     Ryd( 2p)     0.00024       0.00000

   360    H   25  S      Val( 1S)     0.77191       0.00000
   361    H   25  S      Ryd( 2S)     0.00057       0.00000
   362    H   25  S      Ryd( 3S)     0.00009       0.00000
   363    H   25  px     Ryd( 2p)     0.00012       0.00000
   364    H   25  py     Ryd( 2p)     0.00019       0.00000
   365    H   25  pz     Ryd( 2p)     0.00021       0.00000

   366    H   26  S      Val( 1S)     0.77542       0.00000
   367    H   26  S      Ryd( 2S)     0.00087       0.00000
   368    H   26  S      Ryd( 3S)     0.00015       0.00000
   369    H   26  px     Ryd( 2p)     0.00039       0.00000
   370    H   26  py     Ryd( 2p)     0.00025       0.00000
   371    H   26  pz     Ryd( 2p)     0.00019       0.00000

   372   Br   27  S      Cor( 1S)     2.00000       0.00000
   373   Br   27  S      Cor( 2S)     2.00000       0.00000
   374   Br   27  S      Cor( 3S)     1.99978       0.00000
   375   Br   27  S      Val( 4S)     1.86751       0.00000
   376   Br   27  S      Ryd( 5S)     0.00270       0.00000
   377   Br   27  S      Ryd( 6S)     0.00018       0.00000
   378   Br   27  S      Ryd( 7S)     0.00000       0.00000
   379   Br   27  S      Ryd( 8S)     0.00000       0.00000
   380   Br   27  S      Ryd( 9S)     0.00000       0.00000
   381   Br   27  px     Cor( 2p)     2.00000       0.00000
   382   Br   27  px     Cor( 3p)     1.99988       0.00000
   383   Br   27  px     Val( 4p)     1.28391       0.00000
   384   Br   27  px     Ryd( 5p)     0.00405       0.00000
   385   Br   27  px     Ryd( 6p)     0.00004       0.00000
   386   Br   27  px     Ryd( 7p)     0.00003       0.00000
   387   Br   27  px     Ryd( 8p)     0.00000       0.00000
   388   Br   27  px     Ryd( 9p)     0.00000       0.00000
   389   Br   27  py     Cor( 2p)     2.00000       0.00000
   390   Br   27  py     Cor( 3p)     1.99997       0.00000
   391   Br   27  py     Val( 4p)     1.84243       0.00000
   392   Br   27  py     Ryd( 5p)     0.00209       0.00000
   393   Br   27  py     Ryd( 6p)     0.00010       0.00000
   394   Br   27  py     Ryd( 7p)     0.00001       0.00000
   395   Br   27  py     Ryd( 8p)     0.00000       0.00000
   396   Br   27  py     Ryd( 9p)     0.00000       0.00000
   397   Br   27  pz     Cor( 2p)     2.00000       0.00000
   398   Br   27  pz     Cor( 3p)     1.99999       0.00000
   399   Br   27  pz     Val( 4p)     1.93287       0.00000
   400   Br   27  pz     Ryd( 5p)     0.00166       0.00000
   401   Br   27  pz     Ryd( 6p)     0.00006       0.00000
   402   Br   27  pz     Ryd( 7p)     0.00001       0.00000
   403   Br   27  pz     Ryd( 8p)     0.00000       0.00000
   404   Br   27  pz     Ryd( 9p)     0.00000       0.00000
   405   Br   27  dxy    Cor( 3d)     1.99988       0.00000
   406   Br   27  dxy    Ryd( 4d)     0.00195       0.00000
   407   Br   27  dxy    Ryd( 5d)     0.00001       0.00000
   408   Br   27  dxz    Cor( 3d)     1.99995       0.00000
   409   Br   27  dxz    Ryd( 4d)     0.00180       0.00000
   410   Br   27  dxz    Ryd( 5d)     0.00001       0.00000
   411   Br   27  dyz    Cor( 3d)     1.99999       0.00000
   412   Br   27  dyz    Ryd( 4d)     0.00055       0.00000
   413   Br   27  dyz    Ryd( 5d)     0.00001       0.00000
   414   Br   27  dx2y2  Cor( 3d)     1.99990       0.00000
   415   Br   27  dx2y2  Ryd( 4d)     0.00165       0.00000
   416   Br   27  dx2y2  Ryd( 5d)     0.00001       0.00000
   417   Br   27  dz2    Cor( 3d)     1.99994       0.00000
   418   Br   27  dz2    Ryd( 4d)     0.00108       0.00000
   419   Br   27  dz2    Ryd( 5d)     0.00001       0.00000

 WARNING:  1 low occupancy (<1.9990e) core orbital  found on  C    3
           1 low occupancy (<1.9990e) core orbital  found on  C    4
           1 low occupancy (<1.9990e) core orbital  found on  C    8
           1 low occupancy (<1.9990e) core orbital  found on  C    9
           1 low occupancy (<1.9990e) core orbital  found on  C   12

 WARNING:  Population inversion found on atom  C    3
           Population inversion found on atom  C    4
           Population inversion found on atom  C    5


 Summary of Natural Population Analysis:                  
                                                          
                                       Natural Population 
                Natural  -----------------------------------------------
    Atom  No    Charge         Core      Valence    Rydberg      Total
 -----------------------------------------------------------------------
      C    1   -0.19439      1.99914     4.17659    0.01865     6.19439
      C    2   -0.16986      1.99907     4.15370    0.01709     6.16986
      C    3   -0.09431      1.99882     4.07829    0.01720     6.09431
      C    4   -0.03761      1.99899     4.01819    0.02044     6.03761
      C    5   -0.42304      1.99900     4.39656    0.02747     6.42304
      C    6   -0.18558      1.99911     4.16794    0.01854     6.18558
      H    7    0.20846      0.00000     0.78999    0.00155     0.79154
      C    8   -0.06679      1.99855     4.04580    0.02245     6.06679
      C    9   -0.17218      1.99894     4.15852    0.01472     6.17218
      H   10    0.20381      0.00000     0.79454    0.00165     0.79619
      C   11   -0.19324      1.99918     4.17548    0.01858     6.19324
      C   12   -0.22726      1.99894     4.20847    0.01985     6.22726
      H   13    0.20920      0.00000     0.78895    0.00185     0.79080
      H   14    0.21166      0.00000     0.78684    0.00151     0.78834
      H   15    0.22398      0.00000     0.77439    0.00163     0.77602
     Si   16    1.35637      9.99843     2.61464    0.03056    12.64363
      H   17   -0.18074      0.00000     1.17701    0.00373     1.18074
      C   18   -1.06222      1.99935     5.05285    0.01002     7.06222
      H   19    0.23119      0.00000     0.76773    0.00109     0.76881
      H   20    0.22802      0.00000     0.77106    0.00092     0.77198
      H   21    0.23005      0.00000     0.76884    0.00111     0.76995
      C   22   -1.06802      1.99936     5.05932    0.00934     7.06802
      H   23    0.23358      0.00000     0.76555    0.00087     0.76642
      H   24    0.23330      0.00000     0.76569    0.00101     0.76670
      H   25    0.22692      0.00000     0.77191    0.00117     0.77308
      H   26    0.22274      0.00000     0.77542    0.00184     0.77726
     Br   27    0.05598     27.99929     6.92672    0.01802    34.94402
 =======================================================================
   * Total *    0.00000     61.98617    71.73097    0.28285   134.00000

                                 Natural Population      
 --------------------------------------------------------
   Core                      61.98617 ( 99.9777% of  62)
   Valence                   71.73097 ( 99.6263% of  72)
   Natural Minimal Basis    133.71714 ( 99.7889% of 134)
   Natural Rydberg Basis      0.28285 (  0.2111% of 134)
 --------------------------------------------------------

    Atom  No          Natural Electron Configuration
 ----------------------------------------------------------------------------
      C    1      [core]2S( 0.95)2p( 3.23)3p( 0.01)
      C    2      [core]2S( 0.94)2p( 3.22)3p( 0.01)
      C    3      [core]2S( 0.87)2p( 3.21)3p( 0.01)
      C    4      [core]2S( 0.86)2p( 3.16)3p( 0.01)
      C    5      [core]2S( 1.01)2p( 3.39)3S( 0.01)3p( 0.02)
      C    6      [core]2S( 0.94)2p( 3.23)3p( 0.01)
      H    7            1S( 0.79)
      C    8      [core]2S( 0.94)2p( 3.10)3p( 0.01)
      C    9      [core]2S( 0.93)2p( 3.23)3p( 0.01)
      H   10            1S( 0.79)
      C   11      [core]2S( 0.95)2p( 3.23)3p( 0.01)
      C   12      [core]2S( 0.95)2p( 3.26)3p( 0.01)
      H   13            1S( 0.79)
      H   14            1S( 0.79)
      H   15            1S( 0.77)
     Si   16      [core]3S( 0.87)3p( 1.75)3d( 0.02)
      H   17            1S( 1.18)
      C   18      [core]2S( 1.20)2p( 3.85)
      H   19            1S( 0.77)
      H   20            1S( 0.77)
      H   21            1S( 0.77)
      C   22      [core]2S( 1.20)2p( 3.86)
      H   23            1S( 0.77)
      H   24            1S( 0.77)
      H   25            1S( 0.77)
      H   26            1S( 0.78)
     Br   27      [core]4S( 1.87)4p( 5.06)4d( 0.01)5p( 0.01)


 NBO analysis skipped by request.

 This type of calculation cannot be archived.


 WORK FAITHFULLY FOR EIGHT HOURS A DAY AND DON'T WORRY.
 IN TIME YOU MAY BECOME BOSS AND WORK TWELVE HOURS A DAY
 AND HAVE ALL THE WORRY.
 Job cpu time:       0 days  0 hours  1 minutes 41.5 seconds.
 File lengths (MBytes):  RWF=     46 Int=      0 D2E=      0 Chk=     15 Scr=      1
 Normal termination of Gaussian 09 at Tue Nov  9 17:11:39 2021.
