 Entering Gaussian System, Link 0=g09
 Initial command:
 /cm/shared/apps/gaussian/g09revD.01/g09/l1.exe "//home/sweav003/CHB/validation/thioanisole/G09-Cl_methylthioethercharges.com.o9819626.tmp/Gau-207519.inp" -scrdir="//home/sweav003/CHB/validation/thioanisole/G09-Cl_methylthioethercharges.com.o9819626.tmp/"
 Entering Link 1 = /cm/shared/apps/gaussian/g09revD.01/g09/l1.exe PID=    207520.
  
 Copyright (c) 1988,1990,1992,1993,1995,1998,2003,2009,2013,
            Gaussian, Inc.  All Rights Reserved.
  
 This is part of the Gaussian(R) 09 program.  It is based on
 the Gaussian(R) 03 system (copyright 2003, Gaussian, Inc.),
 the Gaussian(R) 98 system (copyright 1998, Gaussian, Inc.),
 the Gaussian(R) 94 system (copyright 1995, Gaussian, Inc.),
 the Gaussian 92(TM) system (copyright 1992, Gaussian, Inc.),
 the Gaussian 90(TM) system (copyright 1990, Gaussian, Inc.),
 the Gaussian 88(TM) system (copyright 1988, Gaussian, Inc.),
 the Gaussian 86(TM) system (copyright 1986, Carnegie Mellon
 University), and the Gaussian 82(TM) system (copyright 1983,
 Carnegie Mellon University). Gaussian is a federally registered
 trademark of Gaussian, Inc.
  
 This software contains proprietary and confidential information,
 including trade secrets, belonging to Gaussian, Inc.
  
 This software is provided under written license and may be
 used, copied, transmitted, or stored only in accord with that
 written license.
  
 The following legend is applicable only to US Government
 contracts under FAR:
  
                    RESTRICTED RIGHTS LEGEND
  
 Use, reproduction and disclosure by the US Government is
 subject to restrictions as set forth in subparagraphs (a)
 and (c) of the Commercial Computer Software - Restricted
 Rights clause in FAR 52.227-19.
  
 Gaussian, Inc.
 340 Quinnipiac St., Bldg. 40, Wallingford CT 06492
  
  
 ---------------------------------------------------------------
 Warning -- This program may not be used in any manner that
 competes with the business of Gaussian, Inc. or will provide
 assistance to any competitor of Gaussian, Inc.  The licensee
 of this program is prohibited from giving any competitor of
 Gaussian, Inc. access to this program.  By using this program,
 the user acknowledges that Gaussian, Inc. is engaged in the
 business of creating and licensing software in the field of
 computational chemistry and represents and warrants to the
 licensee that it is not a competitor of Gaussian, Inc. and that
 it will not use this program in any manner prohibited above.
 ---------------------------------------------------------------
  

 Cite this work as:
 Gaussian 09, Revision D.01,
 M. J. Frisch, G. W. Trucks, H. B. Schlegel, G. E. Scuseria, 
 M. A. Robb, J. R. Cheeseman, G. Scalmani, V. Barone, B. Mennucci, 
 G. A. Petersson, H. Nakatsuji, M. Caricato, X. Li, H. P. Hratchian, 
 A. F. Izmaylov, J. Bloino, G. Zheng, J. L. Sonnenberg, M. Hada, 
 M. Ehara, K. Toyota, R. Fukuda, J. Hasegawa, M. Ishida, T. Nakajima, 
 Y. Honda, O. Kitao, H. Nakai, T. Vreven, J. A. Montgomery, Jr., 
 J. E. Peralta, F. Ogliaro, M. Bearpark, J. J. Heyd, E. Brothers, 
 K. N. Kudin, V. N. Staroverov, T. Keith, R. Kobayashi, J. Normand, 
 K. Raghavachari, A. Rendell, J. C. Burant, S. S. Iyengar, J. Tomasi, 
 M. Cossi, N. Rega, J. M. Millam, M. Klene, J. E. Knox, J. B. Cross, 
 V. Bakken, C. Adamo, J. Jaramillo, R. Gomperts, R. E. Stratmann, 
 O. Yazyev, A. J. Austin, R. Cammi, C. Pomelli, J. W. Ochterski, 
 R. L. Martin, K. Morokuma, V. G. Zakrzewski, G. A. Voth, 
 P. Salvador, J. J. Dannenberg, S. Dapprich, A. D. Daniels, 
 O. Farkas, J. B. Foresman, J. V. Ortiz, J. Cioslowski, 
 and D. J. Fox, Gaussian, Inc., Wallingford CT, 2013.
 
 ******************************************
 Gaussian 09:  ES64L-G09RevD.01 24-Apr-2013
                20-Dec-2022 
 ******************************************
 %nprocshared=20
 Will use up to   20 processors via shared memory.
 %mem=4GB
 %chk=Cl_methylthioethercharges.chk
 ----------------------------------------------------------------------
 # opt freq=noraman b3lyp/6-311+g(d,p) pop=(npa,hirshfeld,chelpg,mbs) g
 eom=connectivity
 ----------------------------------------------------------------------
 1/14=-1,18=20,19=15,26=3,38=1,57=2/1,3;
 2/9=110,12=2,17=6,18=5,40=1/2;
 3/5=4,6=6,7=111,11=2,16=1,25=1,30=1,71=1,74=-5/1,2,3;
 4//1;
 5/5=2,38=5/2;
 6/7=2,8=2,9=2,10=2,15=8,20=3,27=100,28=1,40=-1,79=1/1,2,7;
 7//1,2,3,16;
 1/14=-1,18=20,19=15,26=3/3(2);
 2/9=110/2;
 99//99;
 2/9=110/2;
 3/5=4,6=6,7=111,11=2,16=1,25=1,30=1,71=1,74=-5/1,2,3;
 4/5=5,16=3,69=1/1;
 5/5=2,38=5/2;
 7//1,2,3,16;
 1/14=-1,18=20,19=15,26=3/3(-5);
 2/9=110/2;
 6/7=2,8=2,9=2,10=2,15=8,19=2,20=3,27=100,28=1,40=-1,79=1/1,2,7;
 99/9=1/99;
 -------------------
 Title Card Required
 -------------------
 Symbolic Z-matrix:
 Charge =  0 Multiplicity = 1
 C                     1.70161   1.37544   0.00001 
 C                     0.33414   1.09589   0.00001 
 C                    -0.1099   -0.23004  -0.00002 
 C                     0.83592  -1.2666   -0.00001 
 C                     2.19505  -0.97744   0. 
 C                     2.63811   0.34651  -0.00001 
 H                     2.02951   2.40927   0.00004 
 H                    -0.37026   1.91705   0.00001 
 H                     0.50253  -2.29881   0.00001 
 H                     2.91187  -1.79114  -0.00002 
 S                    -1.82425  -0.72      0.00002 
 C                    -2.72499   0.86157  -0.00002 
 H                    -2.51119   1.44571  -0.89604 
 H                    -3.78123   0.59073  -0.00008 
 H                    -2.51133   1.44568   0.89606 
 Cl                    4.36043   0.70872  0. 
 

 GradGradGradGradGradGradGradGradGradGradGradGradGradGradGradGradGradGrad
 Berny optimization.
 Initialization pass.
                           ----------------------------
                           !    Initial Parameters    !
                           ! (Angstroms and Degrees)  !
 --------------------------                            --------------------------
 ! Name  Definition              Value          Derivative Info.                !
 --------------------------------------------------------------------------------
 ! R1    R(1,2)                  1.3958         estimate D2E/DX2                !
 ! R2    R(1,6)                  1.3913         estimate D2E/DX2                !
 ! R3    R(1,7)                  1.0846         estimate D2E/DX2                !
 ! R4    R(2,3)                  1.3983         estimate D2E/DX2                !
 ! R5    R(2,8)                  1.0819         estimate D2E/DX2                !
 ! R6    R(3,4)                  1.4032         estimate D2E/DX2                !
 ! R7    R(3,11)                 1.783          estimate D2E/DX2                !
 ! R8    R(4,5)                  1.3895         estimate D2E/DX2                !
 ! R9    R(4,9)                  1.0847         estimate D2E/DX2                !
 ! R10   R(5,6)                  1.3961         estimate D2E/DX2                !
 ! R11   R(5,10)                 1.0844         estimate D2E/DX2                !
 ! R12   R(6,16)                 1.76           estimate D2E/DX2                !
 ! R13   R(11,12)                1.8201         estimate D2E/DX2                !
 ! R14   R(12,13)                1.0908         estimate D2E/DX2                !
 ! R15   R(12,14)                1.0904         estimate D2E/DX2                !
 ! R16   R(12,15)                1.0908         estimate D2E/DX2                !
 ! A1    A(2,1,6)              120.7535         estimate D2E/DX2                !
 ! A2    A(2,1,7)              119.1514         estimate D2E/DX2                !
 ! A3    A(6,1,7)              120.095          estimate D2E/DX2                !
 ! A4    A(1,2,3)              120.0691         estimate D2E/DX2                !
 ! A5    A(1,2,8)              119.0693         estimate D2E/DX2                !
 ! A6    A(3,2,8)              120.8616         estimate D2E/DX2                !
 ! A7    A(2,3,4)              119.1056         estimate D2E/DX2                !
 ! A8    A(2,3,11)             124.4653         estimate D2E/DX2                !
 ! A9    A(4,3,11)             116.4291         estimate D2E/DX2                !
 ! A10   A(3,4,5)              120.3679         estimate D2E/DX2                !
 ! A11   A(3,4,9)              119.721          estimate D2E/DX2                !
 ! A12   A(5,4,9)              119.9111         estimate D2E/DX2                !
 ! A13   A(4,5,6)              120.5141         estimate D2E/DX2                !
 ! A14   A(4,5,10)             119.367          estimate D2E/DX2                !
 ! A15   A(6,5,10)             120.1189         estimate D2E/DX2                !
 ! A16   A(1,6,5)              119.1897         estimate D2E/DX2                !
 ! A17   A(1,6,16)             120.4309         estimate D2E/DX2                !
 ! A18   A(5,6,16)             120.3794         estimate D2E/DX2                !
 ! A19   A(3,11,12)            103.7124         estimate D2E/DX2                !
 ! A20   A(11,12,13)           111.6148         estimate D2E/DX2                !
 ! A21   A(11,12,14)           105.2808         estimate D2E/DX2                !
 ! A22   A(11,12,15)           111.6152         estimate D2E/DX2                !
 ! A23   A(13,12,14)           108.8344         estimate D2E/DX2                !
 ! A24   A(13,12,15)           110.4664         estimate D2E/DX2                !
 ! A25   A(14,12,15)           108.8321         estimate D2E/DX2                !
 ! D1    D(6,1,2,3)             -0.0001         estimate D2E/DX2                !
 ! D2    D(6,1,2,8)           -179.9993         estimate D2E/DX2                !
 ! D3    D(7,1,2,3)           -179.9998         estimate D2E/DX2                !
 ! D4    D(7,1,2,8)              0.0011         estimate D2E/DX2                !
 ! D5    D(2,1,6,5)             -0.0016         estimate D2E/DX2                !
 ! D6    D(2,1,6,16)          -180.0            estimate D2E/DX2                !
 ! D7    D(7,1,6,5)            179.998          estimate D2E/DX2                !
 ! D8    D(7,1,6,16)            -0.0003         estimate D2E/DX2                !
 ! D9    D(1,2,3,4)              0.0015         estimate D2E/DX2                !
 ! D10   D(1,2,3,11)           179.9984         estimate D2E/DX2                !
 ! D11   D(8,2,3,4)           -179.9994         estimate D2E/DX2                !
 ! D12   D(8,2,3,11)            -0.0025         estimate D2E/DX2                !
 ! D13   D(2,3,4,5)             -0.0011         estimate D2E/DX2                !
 ! D14   D(2,3,4,9)            179.9979         estimate D2E/DX2                !
 ! D15   D(11,3,4,5)          -179.9982         estimate D2E/DX2                !
 ! D16   D(11,3,4,9)             0.0007         estimate D2E/DX2                !
 ! D17   D(2,3,11,12)            0.0034         estimate D2E/DX2                !
 ! D18   D(4,3,11,12)         -179.9996         estimate D2E/DX2                !
 ! D19   D(3,4,5,6)             -0.0006         estimate D2E/DX2                !
 ! D20   D(3,4,5,10)          -179.998          estimate D2E/DX2                !
 ! D21   D(9,4,5,6)           -179.9996         estimate D2E/DX2                !
 ! D22   D(9,4,5,10)             0.003          estimate D2E/DX2                !
 ! D23   D(4,5,6,1)              0.002          estimate D2E/DX2                !
 ! D24   D(4,5,6,16)          -179.9997         estimate D2E/DX2                !
 ! D25   D(10,5,6,1)           179.9994         estimate D2E/DX2                !
 ! D26   D(10,5,6,16)           -0.0023         estimate D2E/DX2                !
 ! D27   D(3,11,12,13)          62.0759         estimate D2E/DX2                !
 ! D28   D(3,11,12,14)         179.9955         estimate D2E/DX2                !
 ! D29   D(3,11,12,15)         -62.0874         estimate D2E/DX2                !
 --------------------------------------------------------------------------------
 Trust Radius=3.00D-01 FncErr=1.00D-07 GrdErr=1.00D-06
 Number of steps in this run=     80 maximum allowed number of steps=    100.
 GradGradGradGradGradGradGradGradGradGradGradGradGradGradGradGradGradGrad

                          Input orientation:                          
 ---------------------------------------------------------------------
 Center     Atomic      Atomic             Coordinates (Angstroms)
 Number     Number       Type             X           Y           Z
 ---------------------------------------------------------------------
      1          6           0        1.701612    1.375440    0.000011
      2          6           0        0.334140    1.095888    0.000007
      3          6           0       -0.109903   -0.230036   -0.000019
      4          6           0        0.835919   -1.266604   -0.000009
      5          6           0        2.195047   -0.977437    0.000003
      6          6           0        2.638109    0.346506   -0.000008
      7          1           0        2.029515    2.409267    0.000035
      8          1           0       -0.370257    1.917053    0.000010
      9          1           0        0.502526   -2.298809    0.000006
     10          1           0        2.911867   -1.791136   -0.000022
     11         16           0       -1.824254   -0.719998    0.000015
     12          6           0       -2.724988    0.861568   -0.000019
     13          1           0       -2.511187    1.445709   -0.896039
     14          1           0       -3.781230    0.590732   -0.000081
     15          1           0       -2.511326    1.445678    0.896058
     16         17           0        4.360434    0.708716   -0.000002
 ---------------------------------------------------------------------
                    Distance matrix (angstroms):
                    1          2          3          4          5
     1  C    0.000000
     2  C    1.395754   0.000000
     3  C    2.420566   1.398302   0.000000
     4  C    2.780256   2.415192   1.403229   0.000000
     5  C    2.404061   2.785974   2.423098   1.389549   0.000000
     6  C    1.391306   2.422777   2.807841   2.418680   1.396112
     7  H    1.084582   2.144589   3.397503   3.864803   3.390747
     8  H    2.141491   1.081891   2.162817   3.404487   3.867668
     9  H    3.864960   3.398871   2.157520   1.084711   2.147243
    10  H    3.389974   3.870347   3.401195   2.141190   1.084406
    11  S    4.101535   2.820657   1.782992   2.715750   4.027537
    12  C    4.456327   3.068089   2.833773   4.148394   5.252493
    13  H    4.307612   3.003524   3.062211   4.400299   5.368721
    14  H    5.538711   4.146258   3.761955   4.976722   6.178595
    15  H    4.307747   3.003654   3.062320   4.400393   5.368831
    16  Cl   2.741142   4.044867   4.567841   4.040309   2.744451
                    6          7          8          9         10
     6  C    0.000000
     7  H    2.150667   0.000000
     8  H    3.393653   2.449731   0.000000
     9  H    3.399766   4.949513   4.305258   0.000000
    10  H    2.155100   4.292078   4.952071   2.462246   0.000000
    11  S    4.588040   4.964256   3.011336   2.811859   4.855737
    12  C    5.387773   5.000067   2.580466   4.517171   6.229845
    13  H    5.341008   4.727512   2.368259   4.889456   6.378834
    14  H    6.423983   6.088664   3.659763   5.167205   7.104283
    15  H    5.341142   4.727642   2.368390   4.889519   6.378946
    16  Cl   1.760000   2.885318   4.882573   4.891693   2.889222
                   11         12         13         14         15
    11  S    0.000000
    12  C    1.820075   0.000000
    13  H    2.442351   1.090772   0.000000
    14  H    2.355370   1.090412   1.773904   0.000000
    15  H    2.442358   1.090775   1.792097   1.773881   0.000000
    16  Cl   6.347566   7.087071   6.968875   8.142519   6.969012
                   16
    16  Cl   0.000000
 Stoichiometry    C7H7ClS
 Framework group  C1[X(C7H7ClS)]
 Deg. of freedom    42
 Full point group                 C1      NOp   1
 Largest Abelian subgroup         C1      NOp   1
 Largest concise Abelian subgroup C1      NOp   1
                         Standard orientation:                         
 ---------------------------------------------------------------------
 Center     Atomic      Atomic             Coordinates (Angstroms)
 Number     Number       Type             X           Y           Z
 ---------------------------------------------------------------------
      1          6           0       -0.957555   -1.148749    0.000011
      2          6           0        0.430453   -1.001910    0.000007
      3          6           0        0.999867    0.275202   -0.000019
      4          6           0        0.158042    1.397869   -0.000009
      5          6           0       -1.222585    1.240658    0.000003
      6          6           0       -1.790833   -0.034576   -0.000008
      7          1           0       -1.383295   -2.146278    0.000035
      8          1           0        1.052672   -1.886970    0.000010
      9          1           0        0.589091    2.393256    0.000006
     10          1           0       -1.857888    2.119480   -0.000022
     11         16           0        2.753371    0.598140    0.000015
     12          6           0        3.497940   -1.062669   -0.000019
     13          1           0        3.228991   -1.623560   -0.896039
     14          1           0        4.575322   -0.894596   -0.000081
     15          1           0        3.229132   -1.623542    0.896058
     16         17           0       -3.539996   -0.229587   -0.000001
 ---------------------------------------------------------------------
 Rotational constants (GHZ):      4.0952403      0.5268354      0.4681851
 Standard basis: 6-311+G(d,p) (5D, 7F)
 There are   265 symmetry adapted cartesian basis functions of A   symmetry.
 There are   256 symmetry adapted basis functions of A   symmetry.
   256 basis functions,   411 primitive gaussians,   265 cartesian basis functions
    41 alpha electrons       41 beta electrons
       nuclear repulsion energy       542.7009707101 Hartrees.
 NAtoms=   16 NActive=   16 NUniq=   16 SFac= 1.00D+00 NAtFMM=   60 NAOKFM=F Big=F
 Integral buffers will be    131072 words long.
 Raffenetti 2 integral format.
 Two-electron integral symmetry is turned on.
 One-electron integrals computed using PRISM.
 NBasis=   256 RedAO= T EigKep=  1.90D-06  NBF=   256
 NBsUse=   256 1.00D-06 EigRej= -1.00D+00 NBFU=   256
 ExpMin= 4.05D-02 ExpMax= 1.06D+05 ExpMxC= 3.62D+03 IAcc=2 IRadAn=         4 AccDes= 0.00D+00
 Harris functional with IExCor=  402 and IRadAn=       4 diagonalized for initial guess.
 HarFok:  IExCor=  402 AccDes= 0.00D+00 IRadAn=         4 IDoV= 1 UseB2=F ITyADJ=14
 ICtDFT=  3500011 ScaDFX=  1.000000  1.000000  1.000000  1.000000
 FoFCou: FMM=F IPFlag=           0 FMFlag=      100000 FMFlg1=           0
         NFxFlg=           0 DoJE=T BraDBF=F KetDBF=T FulRan=T
         wScrn=  0.000000 ICntrl=     500 IOpCl=  0 I1Cent=   200000004 NGrid=           0
         NMat0=    1 NMatS0=      1 NMatT0=    0 NMatD0=    1 NMtDS0=    0 NMtDT0=    0
 Petite list used in FoFCou.
 Requested convergence on RMS density matrix=1.00D-08 within 128 cycles.
 Requested convergence on MAX density matrix=1.00D-06.
 Requested convergence on             energy=1.00D-06.
 No special actions if energy rises.
 SCF Done:  E(RB3LYP) =  -1129.47054301     A.U. after   15 cycles
            NFock= 15  Conv=0.23D-08     -V/T= 2.0026

 **********************************************************************

            Population analysis using the SCF density.

 **********************************************************************

 Orbital symmetries:
       Occupied  (A) (A) (A) (A) (A) (A) (A) (A) (A) (A) (A) (A)
                 (A) (A) (A) (A) (A) (A) (A) (A) (A) (A) (A) (A)
                 (A) (A) (A) (A) (A) (A) (A) (A) (A) (A) (A) (A)
                 (A) (A) (A) (A) (A)
       Virtual   (A) (A) (A) (A) (A) (A) (A) (A) (A) (A) (A) (A)
                 (A) (A) (A) (A) (A) (A) (A) (A) (A) (A) (A) (A)
                 (A) (A) (A) (A) (A) (A) (A) (A) (A) (A) (A) (A)
                 (A) (A) (A) (A) (A) (A) (A) (A) (A) (A) (A) (A)
                 (A) (A) (A) (A) (A) (A) (A) (A) (A) (A) (A) (A)
                 (A) (A) (A) (A) (A) (A) (A) (A) (A) (A) (A) (A)
                 (A) (A) (A) (A) (A) (A) (A) (A) (A) (A) (A) (A)
                 (A) (A) (A) (A) (A) (A) (A) (A) (A) (A) (A) (A)
                 (A) (A) (A) (A) (A) (A) (A) (A) (A) (A) (A) (A)
                 (A) (A) (A) (A) (A) (A) (A) (A) (A) (A) (A) (A)
                 (A) (A) (A) (A) (A) (A) (A) (A) (A) (A) (A) (A)
                 (A) (A) (A) (A) (A) (A) (A) (A) (A) (A) (A) (A)
                 (A) (A) (A) (A) (A) (A) (A) (A) (A) (A) (A) (A)
                 (A) (A) (A) (A) (A) (A) (A) (A) (A) (A) (A) (A)
                 (A) (A) (A) (A) (A) (A) (A) (A) (A) (A) (A) (A)
                 (A) (A) (A) (A) (A) (A) (A) (A) (A) (A) (A) (A)
                 (A) (A) (A) (A) (A) (A) (A) (A) (A) (A) (A) (A)
                 (A) (A) (A) (A) (A) (A) (A) (A) (A) (A) (A)
 The electronic state is 1-A.
 Alpha  occ. eigenvalues -- -101.55708 -88.86354 -10.24230 -10.22398 -10.21239
 Alpha  occ. eigenvalues --  -10.19723 -10.19674 -10.19571 -10.19485  -9.47147
 Alpha  occ. eigenvalues --   -7.94954  -7.23611  -7.22627  -7.22602  -5.91366
 Alpha  occ. eigenvalues --   -5.90954  -5.90331  -0.90100  -0.85731  -0.80496
 Alpha  occ. eigenvalues --   -0.77119  -0.74138  -0.66408  -0.63264  -0.59571
 Alpha  occ. eigenvalues --   -0.52290  -0.49017  -0.47308  -0.45859  -0.44938
 Alpha  occ. eigenvalues --   -0.44304  -0.41691  -0.40703  -0.38627  -0.37158
 Alpha  occ. eigenvalues --   -0.35194  -0.33532  -0.32019  -0.28771  -0.27648
 Alpha  occ. eigenvalues --   -0.22183
 Alpha virt. eigenvalues --   -0.03361  -0.02865  -0.01149  -0.00076   0.01230
 Alpha virt. eigenvalues --    0.01528   0.02949   0.03617   0.04021   0.04311
 Alpha virt. eigenvalues --    0.04648   0.06284   0.06692   0.07224   0.07233
 Alpha virt. eigenvalues --    0.07675   0.08938   0.09245   0.09598   0.10603
 Alpha virt. eigenvalues --    0.11025   0.11940   0.12284   0.13087   0.13254
 Alpha virt. eigenvalues --    0.13831   0.14430   0.14657   0.15644   0.15778
 Alpha virt. eigenvalues --    0.16588   0.17807   0.17844   0.17987   0.19967
 Alpha virt. eigenvalues --    0.20137   0.20203   0.21060   0.21429   0.22082
 Alpha virt. eigenvalues --    0.22596   0.22745   0.24507   0.24619   0.25101
 Alpha virt. eigenvalues --    0.26511   0.28097   0.28517   0.28935   0.29249
 Alpha virt. eigenvalues --    0.30657   0.32347   0.32525   0.33742   0.35799
 Alpha virt. eigenvalues --    0.36964   0.38489   0.42548   0.44642   0.45836
 Alpha virt. eigenvalues --    0.46336   0.48093   0.49455   0.51110   0.51593
 Alpha virt. eigenvalues --    0.52957   0.53585   0.56582   0.57304   0.58264
 Alpha virt. eigenvalues --    0.58837   0.59463   0.60548   0.60646   0.61915
 Alpha virt. eigenvalues --    0.65278   0.65767   0.66510   0.67328   0.68294
 Alpha virt. eigenvalues --    0.70772   0.71383   0.75015   0.77090   0.77437
 Alpha virt. eigenvalues --    0.78137   0.78304   0.81709   0.83187   0.84186
 Alpha virt. eigenvalues --    0.84609   0.85649   0.85837   0.86292   0.87081
 Alpha virt. eigenvalues --    0.88180   0.88844   0.91996   0.93856   0.96093
 Alpha virt. eigenvalues --    0.97311   0.99052   0.99479   1.02458   1.04677
 Alpha virt. eigenvalues --    1.06359   1.06449   1.08991   1.10919   1.11987
 Alpha virt. eigenvalues --    1.14737   1.19345   1.21681   1.25805   1.28844
 Alpha virt. eigenvalues --    1.29989   1.39911   1.42314   1.46953   1.49037
 Alpha virt. eigenvalues --    1.50872   1.52288   1.55116   1.56628   1.58378
 Alpha virt. eigenvalues --    1.60029   1.61550   1.64315   1.65791   1.67620
 Alpha virt. eigenvalues --    1.69358   1.70506   1.72889   1.75503   1.76001
 Alpha virt. eigenvalues --    1.79303   1.87970   1.89337   1.91069   1.91275
 Alpha virt. eigenvalues --    1.92474   1.92753   1.94997   1.97514   1.99019
 Alpha virt. eigenvalues --    2.03336   2.05943   2.06182   2.07952   2.09665
 Alpha virt. eigenvalues --    2.15986   2.19779   2.20497   2.25824   2.29218
 Alpha virt. eigenvalues --    2.31750   2.35341   2.37746   2.39652   2.43219
 Alpha virt. eigenvalues --    2.44323   2.47157   2.51081   2.53399   2.53639
 Alpha virt. eigenvalues --    2.60307   2.62629   2.63969   2.65981   2.69976
 Alpha virt. eigenvalues --    2.71428   2.72375   2.73165   2.75648   2.77570
 Alpha virt. eigenvalues --    2.78325   2.78805   2.86555   2.87733   2.92290
 Alpha virt. eigenvalues --    2.94485   3.06260   3.06439   3.14201   3.21223
 Alpha virt. eigenvalues --    3.24055   3.31983   3.40306   3.46864   3.57622
 Alpha virt. eigenvalues --    3.69781   3.72119   3.73153   3.85507   3.97153
 Alpha virt. eigenvalues --    4.11541   4.13677   4.82023   7.96100   9.77461
 Alpha virt. eigenvalues --   17.30943  17.49384  17.52159  23.48530  23.87321
 Alpha virt. eigenvalues --   23.89258  23.93529  24.01163  24.07970  24.15500
 Alpha virt. eigenvalues --   25.82562  26.12078  26.60723 189.13256 215.76495
          Condensed to atoms (all electrons):
               1          2          3          4          5          6
     1  C   15.755215  -0.555436  -0.468255  -1.749403  -5.542532  -1.038472
     2  C   -0.555436   9.211700   1.131434  -0.882542  -1.870855  -1.210290
     3  C   -0.468255   1.131434   9.922284  -1.989857   0.855242  -3.088693
     4  C   -1.749403  -0.882542  -1.989857  10.533283  -0.259114  -0.210678
     5  C   -5.542532  -1.870855   0.855242  -0.259114  14.921191  -1.763083
     6  C   -1.038472  -1.210290  -3.088693  -0.210678  -1.763083  13.328134
     7  H    0.234362  -0.004582  -0.004072  -0.012323   0.054675   0.078555
     8  H    0.055622   0.382437  -0.042442  -0.079646   0.023352   0.000931
     9  H   -0.022757  -0.017065   0.014392   0.361169   0.010170  -0.014218
    10  H    0.028337   0.011253  -0.021836  -0.045661   0.298359   0.073908
    11  S    0.590884  -0.982293  -1.064100   0.655389   0.195110  -0.066488
    12  C   -0.304192   0.099612   0.306115  -0.134896  -0.030478  -0.015507
    13  H   -0.010471   0.004510   0.019862  -0.008104  -0.000434  -0.002050
    14  H    0.014323   0.029599  -0.034735  -0.006323   0.001307   0.000130
    15  H   -0.010467   0.004427   0.019918  -0.008068  -0.000433  -0.002054
    16  Cl   0.149312   0.204550  -0.116747   0.265453   0.037073  -1.107387
               7          8          9         10         11         12
     1  C    0.234362   0.055622  -0.022757   0.028337   0.590884  -0.304192
     2  C   -0.004582   0.382437  -0.017065   0.011253  -0.982293   0.099612
     3  C   -0.004072  -0.042442   0.014392  -0.021836  -1.064100   0.306115
     4  C   -0.012323  -0.079646   0.361169  -0.045661   0.655389  -0.134896
     5  C    0.054675   0.023352   0.010170   0.298359   0.195110  -0.030478
     6  C    0.078555   0.000931  -0.014218   0.073908  -0.066488  -0.015507
     7  H    0.519154  -0.009083   0.000054  -0.000362  -0.000480   0.001674
     8  H   -0.009083   0.547795  -0.000146   0.000057  -0.009092  -0.003943
     9  H    0.000054  -0.000146   0.524876  -0.008286   0.011533   0.000685
    10  H   -0.000362   0.000057  -0.008286   0.516054  -0.000390   0.000061
    11  S   -0.000480  -0.009092   0.011533  -0.000390  17.679283  -0.257940
    12  C    0.001674  -0.003943   0.000685   0.000061  -0.257940   5.535256
    13  H    0.000020  -0.000416   0.000014   0.000000  -0.075630   0.423595
    14  H   -0.000003   0.000453  -0.000008   0.000000   0.007951   0.360172
    15  H    0.000020  -0.000414   0.000014   0.000000  -0.075637   0.423584
    16  Cl  -0.005585   0.001263   0.000462  -0.001360  -0.012281  -0.003030
              13         14         15         16
     1  C   -0.010471   0.014323  -0.010467   0.149312
     2  C    0.004510   0.029599   0.004427   0.204550
     3  C    0.019862  -0.034735   0.019918  -0.116747
     4  C   -0.008104  -0.006323  -0.008068   0.265453
     5  C   -0.000434   0.001307  -0.000433   0.037073
     6  C   -0.002050   0.000130  -0.002054  -1.107387
     7  H    0.000020  -0.000003   0.000020  -0.005585
     8  H   -0.000416   0.000453  -0.000414   0.001263
     9  H    0.000014  -0.000008   0.000014   0.000462
    10  H    0.000000   0.000000   0.000000  -0.001360
    11  S   -0.075630   0.007951  -0.075637  -0.012281
    12  C    0.423595   0.360172   0.423584  -0.003030
    13  H    0.539891  -0.018870  -0.050432  -0.000016
    14  H   -0.018870   0.483013  -0.018875   0.000012
    15  H   -0.050432  -0.018875   0.539893  -0.000016
    16  Cl  -0.000016   0.000012  -0.000016  17.258848
 Mulliken charges:
               1
     1  C   -1.126069
     2  C    0.443540
     3  C    0.561489
     4  C   -0.428681
     5  C   -0.929550
     6  C    1.037260
     7  H    0.147976
     8  H    0.133272
     9  H    0.139111
    10  H    0.149866
    11  S   -0.595820
    12  C   -0.400770
    13  H    0.178529
    14  H    0.181857
    15  H    0.178539
    16  Cl   0.329449
 Sum of Mulliken charges =   0.00000
 Mulliken charges with hydrogens summed into heavy atoms:
               1
     1  C   -0.978093
     2  C    0.576812
     3  C    0.561489
     4  C   -0.289569
     5  C   -0.779683
     6  C    1.037260
    11  S   -0.595820
    12  C    0.138155
    16  Cl   0.329449
 Electronic spatial extent (au):  <R**2>=           2193.2593
 Charge=              0.0000 electrons
 Dipole moment (field-independent basis, Debye):
    X=              2.0548    Y=             -1.1822    Z=              0.0000  Tot=              2.3706
 Quadrupole moment (field-independent basis, Debye-Ang):
   XX=            -68.0970   YY=            -61.7522   ZZ=            -72.0070
   XY=             -6.0196   XZ=              0.0000   YZ=              0.0000
 Traceless Quadrupole moment (field-independent basis, Debye-Ang):
   XX=             -0.8116   YY=              5.5332   ZZ=             -4.7216
   XY=             -6.0196   XZ=              0.0000   YZ=              0.0000
 Octapole moment (field-independent basis, Debye-Ang**2):
  XXX=             32.4981  YYY=              0.7969  ZZZ=              0.0001  XYY=             -4.4740
  XXY=            -15.9679  XXZ=              0.0000  XZZ=             -3.3672  YZZ=             -3.0143
  YYZ=              0.0002  XYZ=              0.0002
 Hexadecapole moment (field-independent basis, Debye-Ang**3):
 XXXX=          -2323.9027 YYYY=           -399.7152 ZZZZ=            -95.5788 XXXY=            -56.7584
 XXXZ=             -0.0002 YYYX=             -2.9815 YYYZ=             -0.0002 ZZZX=              0.0001
 ZZZY=             -0.0001 XXYY=           -473.7784 XXZZ=           -440.9336 YYZZ=            -93.8788
 XXYZ=             -0.0006 YYXZ=              0.0004 ZZXY=             -6.0646
 N-N= 5.427009707101D+02 E-N=-3.754536573615D+03  KE= 1.126530802918D+03
 There are a total of      131000 grid points.
 ElSum from          density=       81.9998638457
 ElSum from atomic densities=       81.9997965671

 Hirshfeld populations at iteration   1 (CX, CA, CB, DipXYZ):
               1          2          3          4          5          6
     1  C    0.000000   3.022329   3.022329  -0.012306  -0.057763   0.000002
     2  C    0.000000   3.026471   3.026471   0.024601  -0.051537   0.000003
     3  C    0.000001   3.009048   3.009048   0.050035   0.000162  -0.000005
     4  C    0.000001   3.023884   3.023884   0.014044   0.059115   0.000000
     5  C    0.000000   3.021473   3.021473  -0.030090   0.052218   0.000004
     6  C    0.000001   2.987253   2.987253  -0.099309  -0.007246  -0.000003
     7  H    0.000003   0.472844   0.472844  -0.048741  -0.155430   0.000004
     8  H    0.000001   0.475783   0.475783   0.075027  -0.137715   0.000001
     9  H    0.000002   0.472787   0.472787   0.051061   0.156129   0.000003
    10  H    0.000003   0.472254   0.472254  -0.081987   0.141611  -0.000005
    11  S    0.000002   8.001210   8.001210  -0.046842  -0.166596   0.000000
    12  C    0.000000   3.047914   3.047914   0.004128  -0.011072  -0.000001
    13  H    0.000002   0.476434   0.476434  -0.028430  -0.090304  -0.129430
    14  H    0.000001   0.472271   0.472271   0.168313   0.014048  -0.000007
    15  H    0.000002   0.476434   0.476434  -0.028408  -0.090300   0.129437
    16  Cl   0.000009   8.541545   8.541545   0.011589   0.002328   0.000000
       Tot   0.000028  40.999932  40.999932   0.022686  -0.342351   0.000003

 Dip from Atomic Chgs              0.786870  -0.122568  -0.000004
         Total Dipole              0.809556  -0.464919  -0.000001

 Hirshfeld charges, spin densities, dipoles, and CM5 charges using IRadAn=      4:
              Q-H        S-H        Dx         Dy         Dz        Q-CM5   
     1  C   -0.044658   0.000000  -0.012306  -0.057763   0.000002  -0.096890
     2  C   -0.052941   0.000000   0.024601  -0.051537   0.000003  -0.107203
     3  C   -0.018096   0.000000   0.050035   0.000162  -0.000005  -0.038078
     4  C   -0.047768   0.000000   0.014044   0.059115   0.000000  -0.101159
     5  C   -0.042945   0.000000  -0.030090   0.052218   0.000004  -0.095124
     6  C    0.025495   0.000000  -0.099309  -0.007246  -0.000003   0.018468
     7  H    0.054312   0.000000  -0.048741  -0.155430   0.000004   0.109038
     8  H    0.048434   0.000000   0.075027  -0.137715   0.000001   0.104594
     9  H    0.054426   0.000000   0.051061   0.156129   0.000003   0.108389
    10  H    0.055492   0.000000  -0.081987   0.141611  -0.000005   0.110233
    11  S   -0.002421   0.000000  -0.046842  -0.166596   0.000000  -0.010180
    12  C   -0.095827   0.000000   0.004128  -0.011072  -0.000001  -0.229088
    13  H    0.047133   0.000000  -0.028430  -0.090304  -0.129430   0.099901
    14  H    0.055459   0.000000   0.168313   0.014048  -0.000007   0.108572
    15  H    0.047131   0.000000  -0.028408  -0.090300   0.129437   0.099899
    16  Cl  -0.083089   0.000000   0.011589   0.002328   0.000000  -0.081235
       Tot   0.000136   0.000000   0.022686  -0.342351   0.000003   0.000136
 Hirshfeld charges with hydrogens summed into heavy atoms:
              Q-H       Q-CM5   
     1  C    0.009654   0.012148
     2  C   -0.004507  -0.002609
     3  C   -0.018096  -0.038078
     4  C    0.006658   0.007229
     5  C    0.012547   0.015109
     6  C    0.025495   0.018468
    11  S   -0.002421  -0.010180
    12  C    0.053895   0.079284
    16  Cl  -0.083089  -0.081235
 
 EQQ= 0.000000000000E+00 EQD= 0.000000000000E+00 EDD= 0.566852993587E-02
 EQQ+QD+DD= 0.566852993587E-02
 
          MBS Condensed to atoms (all electrons):
               1          2          3          4          5          6
     1  C    4.818317   0.502830  -0.028713  -0.011372  -0.034059   0.506944
     2  C    0.502830   4.844171   0.495317  -0.030376  -0.011057  -0.028446
     3  C   -0.028713   0.495317   4.828197   0.490542  -0.028676  -0.011212
     4  C   -0.011372  -0.030376   0.490542   4.832388   0.510557  -0.028503
     5  C   -0.034059  -0.011057  -0.028676   0.510557   4.815387   0.500502
     6  C    0.506944  -0.028446  -0.011212  -0.028503   0.500502   4.731315
     7  H    0.388007  -0.024402   0.001431   0.000062   0.001465  -0.025465
     8  H   -0.025441   0.390470  -0.025962   0.001446   0.000041   0.001388
     9  H    0.000037   0.001494  -0.026787   0.388917  -0.024559   0.001387
    10  H    0.001451   0.000060   0.001450  -0.024360   0.388142  -0.025324
    11  S    0.000535  -0.019426   0.323015  -0.026667   0.000605   0.000021
    12  C    0.000022  -0.003490  -0.009208   0.000300  -0.000003   0.000000
    13  H   -0.000004  -0.000055  -0.001000   0.000005   0.000000   0.000000
    14  H    0.000000   0.000070   0.000561  -0.000006   0.000000   0.000000
    15  H   -0.000004  -0.000055  -0.000999   0.000005   0.000000   0.000000
    16  Cl  -0.028158   0.000636   0.000010   0.000637  -0.027988   0.264233
               7          8          9         10         11         12
     1  C    0.388007  -0.025441   0.000037   0.001451   0.000535   0.000022
     2  C   -0.024402   0.390470   0.001494   0.000060  -0.019426  -0.003490
     3  C    0.001431  -0.025962  -0.026787   0.001450   0.323015  -0.009208
     4  C    0.000062   0.001446   0.388917  -0.024360  -0.026667   0.000300
     5  C    0.001465   0.000041  -0.024559   0.388142   0.000605  -0.000003
     6  C   -0.025465   0.001388   0.001387  -0.025324   0.000021   0.000000
     7  H    0.542125  -0.004216   0.000002  -0.000045  -0.000010   0.000000
     8  H   -0.004216   0.552602  -0.000043   0.000002  -0.002849  -0.000322
     9  H    0.000002  -0.000043   0.547427  -0.004198  -0.001542   0.000003
    10  H   -0.000045   0.000002  -0.004198   0.540089  -0.000012   0.000000
    11  S   -0.000010  -0.002849  -0.001542  -0.000012  15.545870   0.289844
    12  C    0.000000  -0.000322   0.000003   0.000000   0.289844   4.879089
    13  H    0.000002   0.000263   0.000001   0.000000  -0.017546   0.371240
    14  H    0.000000  -0.000019  -0.000001   0.000000  -0.017376   0.372567
    15  H    0.000002   0.000262   0.000001   0.000000  -0.017546   0.371239
    16  Cl  -0.001877  -0.000012  -0.000012  -0.001817   0.000000   0.000000
              13         14         15         16
     1  C   -0.000004   0.000000  -0.000004  -0.028158
     2  C   -0.000055   0.000070  -0.000055   0.000636
     3  C   -0.001000   0.000561  -0.000999   0.000010
     4  C    0.000005  -0.000006   0.000005   0.000637
     5  C    0.000000   0.000000   0.000000  -0.027988
     6  C    0.000000   0.000000   0.000000   0.264233
     7  H    0.000002   0.000000   0.000002  -0.001877
     8  H    0.000263  -0.000019   0.000262  -0.000012
     9  H    0.000001  -0.000001   0.000001  -0.000012
    10  H    0.000000   0.000000   0.000000  -0.001817
    11  S   -0.017546  -0.017376  -0.017546   0.000000
    12  C    0.371240   0.372567   0.371239   0.000000
    13  H    0.574995  -0.020466  -0.024260   0.000000
    14  H   -0.020466   0.559650  -0.020469   0.000000
    15  H   -0.024260  -0.020469   0.575000   0.000000
    16  Cl   0.000000   0.000000   0.000000  17.006158
 MBS Mulliken charges:
               1
     1  C   -0.090392
     2  C   -0.117742
     3  C   -0.007965
     4  C   -0.103577
     5  C   -0.090359
     6  C    0.113160
     7  H    0.122919
     8  H    0.112390
     9  H    0.117873
    10  H    0.124561
    11  S   -0.056916
    12  C   -0.271281
    13  H    0.116825
    14  H    0.125489
    15  H    0.116823
    16  Cl  -0.211809
 Sum of MBS Mulliken charges =   0.00000
 MBS Mulliken charges with hydrogens summed into heavy atoms:
               1
     1  C    0.032527
     2  C   -0.005352
     3  C   -0.007965
     4  C    0.014296
     5  C    0.034202
     6  C    0.113160
    11  S   -0.056916
    12  C    0.087856
    16  Cl  -0.211809
 Breneman (CHELPG) radii used.
 Generate Potential Derived Charges using the Breneman model, NDens= 1.
 Grid spacing= 0.300 Box extension= 2.800
 NStep X,Y,Z=   46     35     26   Total possible points=       41860
 Number of Points to Fit=   11308

 **********************************************************************

            Electrostatic Properties Using The SCF Density

 **********************************************************************

       Atomic Center    1 is at  -0.957555 -1.148749  0.000011
       Atomic Center    2 is at   0.430453 -1.001910  0.000007
       Atomic Center    3 is at   0.999867  0.275202 -0.000019
       Atomic Center    4 is at   0.158042  1.397869 -0.000009
       Atomic Center    5 is at  -1.222585  1.240658  0.000003
       Atomic Center    6 is at  -1.790833 -0.034576 -0.000008
       Atomic Center    7 is at  -1.383295 -2.146278  0.000035
       Atomic Center    8 is at   1.052672 -1.886970  0.000010
       Atomic Center    9 is at   0.589091  2.393256  0.000006
       Atomic Center   10 is at  -1.857888  2.119480 -0.000022
       Atomic Center   11 is at   2.753371  0.598140  0.000015
       Atomic Center   12 is at   3.497940 -1.062669 -0.000019
       Atomic Center   13 is at   3.228991 -1.623560 -0.896039
       Atomic Center   14 is at   4.575322 -0.894596 -0.000081
       Atomic Center   15 is at   3.229132 -1.623542  0.896058
       Atomic Center   16 is at  -3.539996 -0.229587 -0.000001
   11308 points will be used for fitting atomic charges
 Fitting point charges to electrostatic potential
 Charges from ESP fit, RMS=   0.00506 RRMS=   0.43217:
 ESP charges:
               1
     1  C   -0.107357
     2  C   -0.140547
     3  C    0.176450
     4  C   -0.191513
     5  C   -0.055301
     6  C    0.098885
     7  H    0.100037
     8  H    0.133294
     9  H    0.148624
    10  H    0.089925
    11  S   -0.250883
    12  C   -0.012807
    13  H    0.025742
    14  H    0.110230
    15  H    0.025748
    16  Cl  -0.150529
 Sum of ESP charges =   0.00000
 ESP charges with hydrogens summed into heavy atoms:
               1
     1  C   -0.007320
     2  C   -0.007252
     3  C    0.176450
     4  C   -0.042888
     5  C    0.034624
     6  C    0.098885
    11  S   -0.250883
    12  C    0.148913
    16  Cl  -0.150529
 Charge=   0.00000 Dipole=     2.2542    -1.1099     0.0000 Tot=     2.5126
 -----------------------------------------------------------------

              Electrostatic Properties (Atomic Units)

 -----------------------------------------------------------------
    Center     Electric         -------- Electric Field --------
               Potential          X             Y             Z
 -----------------------------------------------------------------
    1 Atom    -14.754295
    2 Atom    -14.754835
    3 Atom    -14.726844
    4 Atom    -14.756074
    5 Atom    -14.754811
    6 Atom    -14.707376
    7 Atom     -1.089868
    8 Atom     -1.087992
    9 Atom     -1.089975
   10 Atom     -1.090582
   11 Atom    -59.230847
   12 Atom    -14.734093
   13 Atom     -1.089418
   14 Atom     -1.081954
   15 Atom     -1.089421
   16 Atom    -64.393640
 -----------------------------------------------------------------
 ******************************Gaussian NBO Version 3.1******************************
             N A T U R A L   A T O M I C   O R B I T A L   A N D
          N A T U R A L   B O N D   O R B I T A L   A N A L Y S I S
 ******************************Gaussian NBO Version 3.1******************************
       /RESON  / : Allow strongly delocalized NBO set

 Analyzing the SCF density

 Job title: Title Card Required                                             

 Storage needed:    197842 in NPA ( 536869472 available)


 NATURAL POPULATIONS:  Natural atomic orbital occupancies 
                                                          
   NAO  Atom  No  lang   Type(AO)    Occupancy      Energy
 ----------------------------------------------------------
     1    C    1  S      Cor( 1S)     1.99897     -10.04623
     2    C    1  S      Val( 2S)     0.94467      -0.17179
     3    C    1  S      Ryd( 3S)     0.00192       0.78663
     4    C    1  S      Ryd( 4S)     0.00036       1.09266
     5    C    1  S      Ryd( 5S)     0.00000      22.68371
     6    C    1  px     Val( 2p)     1.08154      -0.06715
     7    C    1  px     Ryd( 4p)     0.00559       0.81851
     8    C    1  px     Ryd( 3p)     0.00036       0.41117
     9    C    1  px     Ryd( 5p)     0.00015       3.11501
    10    C    1  py     Val( 2p)     1.16938      -0.08419
    11    C    1  py     Ryd( 4p)     0.00587       0.96011
    12    C    1  py     Ryd( 3p)     0.00029       0.30789
    13    C    1  py     Ryd( 5p)     0.00008       3.17519
    14    C    1  pz     Val( 2p)     0.99306      -0.12409
    15    C    1  pz     Ryd( 4p)     0.00094       0.51100
    16    C    1  pz     Ryd( 3p)     0.00046       0.29552
    17    C    1  pz     Ryd( 5p)     0.00001       2.68313
    18    C    1  dxy    Ryd( 3d)     0.00077       2.50603
    19    C    1  dxz    Ryd( 3d)     0.00055       1.64640
    20    C    1  dyz    Ryd( 3d)     0.00045       1.60479
    21    C    1  dx2y2  Ryd( 3d)     0.00068       2.52624
    22    C    1  dz2    Ryd( 3d)     0.00042       2.02140

    23    C    2  S      Cor( 1S)     1.99900     -10.04548
    24    C    2  S      Val( 2S)     0.93685      -0.16946
    25    C    2  S      Ryd( 4S)     0.00181       0.73541
    26    C    2  S      Ryd( 3S)     0.00021       0.69895
    27    C    2  S      Ryd( 5S)     0.00001      23.13248
    28    C    2  px     Val( 2p)     1.10029      -0.07052
    29    C    2  px     Ryd( 4p)     0.00479       0.92798
    30    C    2  px     Ryd( 3p)     0.00056       0.48877
    31    C    2  px     Ryd( 5p)     0.00011       3.17264
    32    C    2  py     Val( 2p)     1.14582      -0.07857
    33    C    2  py     Ryd( 4p)     0.00509       0.93219
    34    C    2  py     Ryd( 3p)     0.00023       0.37821
    35    C    2  py     Ryd( 5p)     0.00011       3.19070
    36    C    2  pz     Val( 2p)     1.03028      -0.12662
    37    C    2  pz     Ryd( 4p)     0.00155       0.51562
    38    C    2  pz     Ryd( 3p)     0.00054       0.30332
    39    C    2  pz     Ryd( 5p)     0.00002       2.70249
    40    C    2  dxy    Ryd( 3d)     0.00077       2.47544
    41    C    2  dxz    Ryd( 3d)     0.00049       1.63034
    42    C    2  dyz    Ryd( 3d)     0.00041       1.61884
    43    C    2  dx2y2  Ryd( 3d)     0.00062       2.57657
    44    C    2  dz2    Ryd( 3d)     0.00042       2.01989

    45    C    3  S      Cor( 1S)     1.99884     -10.08915
    46    C    3  S      Val( 2S)     0.95670      -0.22348
    47    C    3  S      Ryd( 4S)     0.00137       0.80637
    48    C    3  S      Ryd( 3S)     0.00044       0.61374
    49    C    3  S      Ryd( 5S)     0.00001      23.38136
    50    C    3  px     Val( 2p)     1.05397      -0.15389
    51    C    3  px     Ryd( 4p)     0.00717       1.02665
    52    C    3  px     Ryd( 3p)     0.00045       0.78501
    53    C    3  px     Ryd( 5p)     0.00025       3.05454
    54    C    3  py     Val( 2p)     1.09526      -0.08924
    55    C    3  py     Ryd( 4p)     0.00369       0.77957
    56    C    3  py     Ryd( 3p)     0.00027       0.46395
    57    C    3  py     Ryd( 5p)     0.00020       3.31307
    58    C    3  pz     Val( 2p)     1.04807      -0.14274
    59    C    3  pz     Ryd( 4p)     0.00123       0.56320
    60    C    3  pz     Ryd( 3p)     0.00037       0.34950
    61    C    3  pz     Ryd( 5p)     0.00001       2.65345
    62    C    3  dxy    Ryd( 3d)     0.00103       2.44602
    63    C    3  dxz    Ryd( 3d)     0.00114       1.49156
    64    C    3  dyz    Ryd( 3d)     0.00059       1.63252
    65    C    3  dx2y2  Ryd( 3d)     0.00162       2.16741
    66    C    3  dz2    Ryd( 3d)     0.00080       1.97872

    67    C    4  S      Cor( 1S)     1.99903     -10.04478
    68    C    4  S      Val( 2S)     0.93903      -0.17013
    69    C    4  S      Ryd( 4S)     0.00161       0.74786
    70    C    4  S      Ryd( 3S)     0.00022       0.71413
    71    C    4  S      Ryd( 5S)     0.00001      23.08884
    72    C    4  px     Val( 2p)     1.07959      -0.06676
    73    C    4  px     Ryd( 4p)     0.00516       0.84672
    74    C    4  px     Ryd( 3p)     0.00040       0.43481
    75    C    4  px     Ryd( 5p)     0.00013       3.10645
    76    C    4  py     Val( 2p)     1.16225      -0.07996
    77    C    4  py     Ryd( 4p)     0.00627       0.96521
    78    C    4  py     Ryd( 3p)     0.00022       0.31063
    79    C    4  py     Ryd( 5p)     0.00006       3.17114
    80    C    4  pz     Val( 2p)     1.00934      -0.12380
    81    C    4  pz     Ryd( 4p)     0.00093       0.51182
    82    C    4  pz     Ryd( 3p)     0.00065       0.30778
    83    C    4  pz     Ryd( 5p)     0.00001       2.67836
    84    C    4  dxy    Ryd( 3d)     0.00074       2.50032
    85    C    4  dxz    Ryd( 3d)     0.00054       1.64804
    86    C    4  dyz    Ryd( 3d)     0.00040       1.60187
    87    C    4  dx2y2  Ryd( 3d)     0.00065       2.52477
    88    C    4  dz2    Ryd( 3d)     0.00043       2.01220

    89    C    5  S      Cor( 1S)     1.99897     -10.04566
    90    C    5  S      Val( 2S)     0.94560      -0.17167
    91    C    5  S      Ryd( 3S)     0.00184       0.76061
    92    C    5  S      Ryd( 4S)     0.00035       0.97333
    93    C    5  S      Ryd( 5S)     0.00000      22.80309
    94    C    5  px     Val( 2p)     1.10641      -0.06869
    95    C    5  px     Ryd( 4p)     0.00622       0.86973
    96    C    5  px     Ryd( 3p)     0.00041       0.38529
    97    C    5  px     Ryd( 5p)     0.00013       3.12524
    98    C    5  py     Val( 2p)     1.14635      -0.08244
    99    C    5  py     Ryd( 4p)     0.00512       0.91897
   100    C    5  py     Ryd( 3p)     0.00030       0.31876
   101    C    5  py     Ryd( 5p)     0.00010       3.16034
   102    C    5  pz     Val( 2p)     0.99265      -0.12355
   103    C    5  pz     Ryd( 4p)     0.00100       0.51421
   104    C    5  pz     Ryd( 3p)     0.00049       0.29860
   105    C    5  pz     Ryd( 5p)     0.00001       2.67517
   106    C    5  dxy    Ryd( 3d)     0.00076       2.47278
   107    C    5  dxz    Ryd( 3d)     0.00056       1.63562
   108    C    5  dyz    Ryd( 3d)     0.00047       1.61728
   109    C    5  dx2y2  Ryd( 3d)     0.00070       2.56142
   110    C    5  dz2    Ryd( 3d)     0.00042       2.01593

   111    C    6  S      Cor( 1S)     1.99854     -10.11290
   112    C    6  S      Val( 2S)     0.93100      -0.22048
   113    C    6  S      Ryd( 4S)     0.00081       0.81520
   114    C    6  S      Ryd( 3S)     0.00031       0.52670
   115    C    6  S      Ryd( 5S)     0.00001      23.28892
   116    C    6  px     Val( 2p)     0.92485      -0.15900
   117    C    6  px     Ryd( 4p)     0.00696       0.96192
   118    C    6  px     Ryd( 3p)     0.00021       0.48882
   119    C    6  px     Ryd( 5p)     0.00043       2.96262
   120    C    6  py     Val( 2p)     1.09093      -0.08727
   121    C    6  py     Ryd( 4p)     0.00665       0.80260
   122    C    6  py     Ryd( 3p)     0.00032       0.48044
   123    C    6  py     Ryd( 5p)     0.00014       3.16072
   124    C    6  pz     Val( 2p)     1.08865      -0.14981
   125    C    6  pz     Ryd( 4p)     0.00120       0.60221
   126    C    6  pz     Ryd( 3p)     0.00032       0.44349
   127    C    6  pz     Ryd( 5p)     0.00004       2.50047
   128    C    6  dxy    Ryd( 3d)     0.00125       2.44585
   129    C    6  dxz    Ryd( 3d)     0.00142       1.48675
   130    C    6  dyz    Ryd( 3d)     0.00060       1.62988
   131    C    6  dx2y2  Ryd( 3d)     0.00184       2.20068
   132    C    6  dz2    Ryd( 3d)     0.00082       1.98466

   133    H    7  S      Val( 1S)     0.77636       0.03523
   134    H    7  S      Ryd( 2S)     0.00077       0.80380
   135    H    7  S      Ryd( 3S)     0.00019       1.92270
   136    H    7  px     Ryd( 2p)     0.00019       2.09006
   137    H    7  py     Ryd( 2p)     0.00038       2.57075
   138    H    7  pz     Ryd( 2p)     0.00019       1.58674

   139    H    8  S      Val( 1S)     0.78502       0.03206
   140    H    8  S      Ryd( 2S)     0.00102       0.75789
   141    H    8  S      Ryd( 3S)     0.00020       1.93935
   142    H    8  px     Ryd( 2p)     0.00024       2.21965
   143    H    8  py     Ryd( 2p)     0.00038       2.45697
   144    H    8  pz     Ryd( 2p)     0.00025       1.58452

   145    H    9  S      Val( 1S)     0.78023       0.03406
   146    H    9  S      Ryd( 2S)     0.00087       0.86850
   147    H    9  S      Ryd( 3S)     0.00021       1.86326
   148    H    9  px     Ryd( 2p)     0.00019       2.08240
   149    H    9  py     Ryd( 2p)     0.00040       2.57192
   150    H    9  pz     Ryd( 2p)     0.00020       1.58529

   151    H   10  S      Val( 1S)     0.77497       0.03706
   152    H   10  S      Ryd( 2S)     0.00075       0.79568
   153    H   10  S      Ryd( 3S)     0.00019       1.92319
   154    H   10  px     Ryd( 2p)     0.00025       2.21765
   155    H   10  py     Ryd( 2p)     0.00032       2.43137
   156    H   10  pz     Ryd( 2p)     0.00019       1.58740

   157    S   11  S      Cor( 1S)     2.00000     -87.72494
   158    S   11  S      Cor( 2S)     1.99935      -8.83711
   159    S   11  S      Val( 3S)     1.65307      -0.71659
   160    S   11  S      Ryd( 5S)     0.00741       0.86198
   161    S   11  S      Ryd( 4S)     0.00058       0.32749
   162    S   11  S      Ryd( 6S)     0.00000      13.85646
   163    S   11  S      Ryd( 7S)     0.00000     182.69957
   164    S   11  px     Cor( 2p)     1.99987      -5.90488
   165    S   11  px     Val( 3p)     0.96355      -0.16890
   166    S   11  px     Ryd( 5p)     0.00637       0.39912
   167    S   11  px     Ryd( 4p)     0.00041       0.20522
   168    S   11  px     Ryd( 6p)     0.00007       2.59261
   169    S   11  px     Ryd( 7p)     0.00000      16.46534
   170    S   11  py     Cor( 2p)     1.99993      -5.90373
   171    S   11  py     Val( 3p)     1.22766      -0.20159
   172    S   11  py     Ryd( 5p)     0.00263       0.43650
   173    S   11  py     Ryd( 4p)     0.00036       0.21643
   174    S   11  py     Ryd( 6p)     0.00018       2.49611
   175    S   11  py     Ryd( 7p)     0.00000      16.53904
   176    S   11  pz     Cor( 2p)     1.99998      -5.89824
   177    S   11  pz     Val( 3p)     1.84302      -0.24406
   178    S   11  pz     Ryd( 5p)     0.00709       0.34514
   179    S   11  pz     Ryd( 4p)     0.00018       0.18680
   180    S   11  pz     Ryd( 6p)     0.00003       2.25816
   181    S   11  pz     Ryd( 7p)     0.00000      16.63087
   182    S   11  dxy    Ryd( 3d)     0.00388       1.16796
   183    S   11  dxz    Ryd( 3d)     0.00246       0.87243
   184    S   11  dyz    Ryd( 3d)     0.00152       0.87971
   185    S   11  dx2y2  Ryd( 3d)     0.00704       1.25194
   186    S   11  dz2    Ryd( 3d)     0.00277       1.15144

   187    C   12  S      Cor( 1S)     1.99928     -10.08734
   188    C   12  S      Val( 2S)     1.18152      -0.36217
   189    C   12  S      Ryd( 3S)     0.00106       0.39576
   190    C   12  S      Ryd( 4S)     0.00056       0.87486
   191    C   12  S      Ryd( 5S)     0.00000      23.48716
   192    C   12  px     Val( 2p)     1.21005      -0.14946
   193    C   12  px     Ryd( 3p)     0.00179       0.70410
   194    C   12  px     Ryd( 4p)     0.00033       1.32955
   195    C   12  px     Ryd( 5p)     0.00007       1.92848
   196    C   12  py     Val( 2p)     1.07795      -0.17013
   197    C   12  py     Ryd( 3p)     0.00071       0.54193
   198    C   12  py     Ryd( 4p)     0.00041       1.12394
   199    C   12  py     Ryd( 5p)     0.00010       1.96792
   200    C   12  pz     Val( 2p)     1.23669      -0.13833
   201    C   12  pz     Ryd( 3p)     0.00069       0.49012
   202    C   12  pz     Ryd( 4p)     0.00005       1.22419
   203    C   12  pz     Ryd( 5p)     0.00010       2.01087
   204    C   12  dxy    Ryd( 3d)     0.00103       1.73101
   205    C   12  dxz    Ryd( 3d)     0.00044       1.73073
   206    C   12  dyz    Ryd( 3d)     0.00108       2.05107
   207    C   12  dx2y2  Ryd( 3d)     0.00124       1.96877
   208    C   12  dz2    Ryd( 3d)     0.00113       2.00002

   209    H   13  S      Val( 1S)     0.78634       0.00918
   210    H   13  S      Ryd( 2S)     0.00156       0.54080
   211    H   13  S      Ryd( 3S)     0.00014       2.22762
   212    H   13  px     Ryd( 2p)     0.00014       1.75664
   213    H   13  py     Ryd( 2p)     0.00012       1.90892
   214    H   13  pz     Ryd( 2p)     0.00032       2.35277

   215    H   14  S      Val( 1S)     0.76959       0.01259
   216    H   14  S      Ryd( 2S)     0.00062       0.54430
   217    H   14  S      Ryd( 3S)     0.00012       2.17305
   218    H   14  px     Ryd( 2p)     0.00033       2.60866
   219    H   14  py     Ryd( 2p)     0.00012       1.65612
   220    H   14  pz     Ryd( 2p)     0.00006       1.65945

   221    H   15  S      Val( 1S)     0.78634       0.00918
   222    H   15  S      Ryd( 2S)     0.00156       0.54079
   223    H   15  S      Ryd( 3S)     0.00014       2.22763
   224    H   15  px     Ryd( 2p)     0.00014       1.75662
   225    H   15  py     Ryd( 2p)     0.00012       1.90891
   226    H   15  pz     Ryd( 2p)     0.00032       2.35285

   227   Cl   16  S      Cor( 1S)     2.00000    -100.22767
   228   Cl   16  S      Cor( 2S)     1.99972     -10.47819
   229   Cl   16  S      Val( 3S)     1.83740      -1.00438
   230   Cl   16  S      Ryd( 4S)     0.00239       0.70779
   231   Cl   16  S      Ryd( 5S)     0.00008       1.19090
   232   Cl   16  S      Ryd( 6S)     0.00000      17.18953
   233   Cl   16  S      Ryd( 7S)     0.00000     207.81316
   234   Cl   16  px     Cor( 2p)     1.99992      -7.22910
   235   Cl   16  px     Val( 3p)     1.24775      -0.27410
   236   Cl   16  px     Ryd( 4p)     0.00382       0.34930
   237   Cl   16  px     Ryd( 5p)     0.00015       0.51433
   238   Cl   16  px     Ryd( 6p)     0.00002       5.98368
   239   Cl   16  px     Ryd( 7p)     0.00000      22.59980
   240   Cl   16  py     Cor( 2p)     1.99999      -7.22113
   241   Cl   16  py     Val( 3p)     1.96153      -0.32310
   242   Cl   16  py     Ryd( 4p)     0.00204       0.38459
   243   Cl   16  py     Ryd( 5p)     0.00013       0.58813
   244   Cl   16  py     Ryd( 6p)     0.00001       5.16208
   245   Cl   16  py     Ryd( 7p)     0.00000      22.79537
   246   Cl   16  pz     Cor( 2p)     1.99999      -7.22129
   247   Cl   16  pz     Val( 3p)     1.93205      -0.32209
   248   Cl   16  pz     Ryd( 4p)     0.00202       0.37941
   249   Cl   16  pz     Ryd( 5p)     0.00011       0.55688
   250   Cl   16  pz     Ryd( 6p)     0.00000       4.86125
   251   Cl   16  pz     Ryd( 7p)     0.00000      22.84600
   252   Cl   16  dxy    Ryd( 3d)     0.00127       1.12741
   253   Cl   16  dxz    Ryd( 3d)     0.00245       0.93359
   254   Cl   16  dyz    Ryd( 3d)     0.00006       0.86744
   255   Cl   16  dx2y2  Ryd( 3d)     0.00416       1.20855
   256   Cl   16  dz2    Ryd( 3d)     0.00140       0.97740

 WARNING:  1 low occupancy (<1.9990e) core orbital  found on  C    1
           1 low occupancy (<1.9990e) core orbital  found on  C    3
           1 low occupancy (<1.9990e) core orbital  found on  C    5
           1 low occupancy (<1.9990e) core orbital  found on  C    6

 WARNING:  Population inversion found on atom  C    1
           Population inversion found on atom  C    2
           Population inversion found on atom  C    3
           Population inversion found on atom  C    4
           Population inversion found on atom  C    5
           Population inversion found on atom  C    6
           Population inversion found on atom  S   11
           Population inversion found on atom  C   12


 Summary of Natural Population Analysis:                  
                                                          
                                       Natural Population 
                Natural  -----------------------------------------------
    Atom  No    Charge         Core      Valence    Rydberg      Total
 -----------------------------------------------------------------------
      C    1   -0.20653      1.99897     4.18864    0.01891     6.20653
      C    2   -0.22998      1.99900     4.21323    0.01774     6.22998
      C    3   -0.17350      1.99884     4.15399    0.02066     6.17350
      C    4   -0.20768      1.99903     4.19022    0.01843     6.20768
      C    5   -0.20886      1.99897     4.19101    0.01888     6.20886
      C    6   -0.05728      1.99854     4.03542    0.02331     6.05728
      H    7    0.22193      0.00000     0.77636    0.00172     0.77807
      H    8    0.21288      0.00000     0.78502    0.00210     0.78712
      H    9    0.21791      0.00000     0.78023    0.00187     0.78209
      H   10    0.22333      0.00000     0.77497    0.00170     0.77667
      S   11    0.27060      9.99912     5.68730    0.04299    15.72940
      C   12   -0.71629      1.99928     4.70622    0.01080     6.71629
      H   13    0.21139      0.00000     0.78634    0.00227     0.78861
      H   14    0.22915      0.00000     0.76959    0.00126     0.77085
      H   15    0.21139      0.00000     0.78634    0.00227     0.78861
     Cl   16    0.00153      9.99962     6.97874    0.02011    16.99847
 =======================================================================
   * Total *    0.00000     33.99137    47.80361    0.20502    82.00000

                                 Natural Population      
 --------------------------------------------------------
   Core                      33.99137 ( 99.9746% of  34)
   Valence                   47.80361 ( 99.5909% of  48)
   Natural Minimal Basis     81.79498 ( 99.7500% of  82)
   Natural Rydberg Basis      0.20502 (  0.2500% of  82)
 --------------------------------------------------------

    Atom  No          Natural Electron Configuration
 ----------------------------------------------------------------------------
      C    1      [core]2S( 0.94)2p( 3.24)4p( 0.01)
      C    2      [core]2S( 0.94)2p( 3.28)4p( 0.01)
      C    3      [core]2S( 0.96)2p( 3.20)3d( 0.01)4p( 0.01)
      C    4      [core]2S( 0.94)2p( 3.25)4p( 0.01)
      C    5      [core]2S( 0.95)2p( 3.25)4p( 0.01)
      C    6      [core]2S( 0.93)2p( 3.10)3d( 0.01)4p( 0.01)
      H    7            1S( 0.78)
      H    8            1S( 0.79)
      H    9            1S( 0.78)
      H   10            1S( 0.77)
      S   11      [core]3S( 1.65)3p( 4.03)3d( 0.02)5S( 0.01)5p( 0.02)
      C   12      [core]2S( 1.18)2p( 3.52)
      H   13            1S( 0.79)
      H   14            1S( 0.77)
      H   15            1S( 0.79)
     Cl   16      [core]3S( 1.84)3p( 5.14)3d( 0.01)4p( 0.01)


 NBO analysis skipped by request.
 Calling FoFJK, ICntrl=      2127 FMM=F ISym2X=0 I1Cent= 0 IOpClX= 0 NMat=1 NMatS=1 NMatT=0.
 ***** Axes restored to original set *****
 -------------------------------------------------------------------
 Center     Atomic                   Forces (Hartrees/Bohr)
 Number     Number              X              Y              Z
 -------------------------------------------------------------------
      1        6           0.002638515    0.005139790   -0.000000410
      2        6           0.002068616   -0.003776408   -0.000002074
      3        6          -0.002288482   -0.000447737    0.000004316
      4        6           0.000286048    0.004251247    0.000000884
      5        6           0.004340091   -0.003796627   -0.000004550
      6        6          -0.008135919   -0.001461181    0.000002946
      7        1           0.000569086   -0.001006113   -0.000000600
      8        1           0.000992388    0.000320203    0.000000739
      9        1           0.001178931    0.000147834   -0.000000882
     10        1           0.000161845    0.001113953    0.000001553
     11       16           0.000433584    0.000049361   -0.000001364
     12        6           0.000018013    0.000309794    0.000003628
     13        1          -0.000007740   -0.000128295   -0.000076095
     14        1           0.000104507   -0.000013536   -0.000002045
     15        1          -0.000004737   -0.000128495    0.000074258
     16       17          -0.002354744   -0.000573791   -0.000000304
 -------------------------------------------------------------------
 Cartesian Forces:  Max     0.008135919 RMS     0.001981213

 GradGradGradGradGradGradGradGradGradGradGradGradGradGradGradGradGradGrad
 Berny optimization.
 FormGI is forming the generalized inverse of G from B-inverse, IUseBI=4.
 Internal  Forces:  Max     0.005280979 RMS     0.001300318
 Search for a local minimum.
 Step number   1 out of a maximum of   80
 All quantities printed in internal units (Hartrees-Bohrs-Radians)
 Mixed Optimization -- RFO/linear search
 Second derivative matrix not updated -- first step.
 ITU=  0
     Eigenvalues ---    0.00230   0.00595   0.01812   0.02086   0.02127
     Eigenvalues ---    0.02136   0.02155   0.02165   0.02176   0.02181
     Eigenvalues ---    0.02195   0.09465   0.10304   0.16000   0.16000
     Eigenvalues ---    0.16000   0.16000   0.16000   0.16000   0.16000
     Eigenvalues ---    0.22000   0.22971   0.24000   0.24597   0.25000
     Eigenvalues ---    0.25000   0.25000   0.27504   0.29539   0.34723
     Eigenvalues ---    0.34724   0.34765   0.35431   0.35446   0.35467
     Eigenvalues ---    0.35767   0.42030   0.42186   0.45695   0.46102
     Eigenvalues ---    0.46670   0.47134
 RFO step:  Lambda=-4.70931601D-04 EMin= 2.30000000D-03
 Linear search not attempted -- first point.
 Iteration  1 RMS(Cart)=  0.00663532 RMS(Int)=  0.00003040
 Iteration  2 RMS(Cart)=  0.00004539 RMS(Int)=  0.00000816
 Iteration  3 RMS(Cart)=  0.00000000 RMS(Int)=  0.00000816
 Variable       Old X    -DE/DX   Delta X   Delta X   Delta X     New X
                                 (Linear)    (Quad)   (Total)
    R1        2.63759  -0.00140   0.00000  -0.00302  -0.00302   2.63457
    R2        2.62919  -0.00278   0.00000  -0.00594  -0.00593   2.62326
    R3        2.04956  -0.00079   0.00000  -0.00222  -0.00222   2.04735
    R4        2.64241  -0.00003   0.00000  -0.00001  -0.00002   2.64239
    R5        2.04448  -0.00040   0.00000  -0.00112  -0.00112   2.04335
    R6        2.65172  -0.00003   0.00000  -0.00002  -0.00003   2.65169
    R7        3.36937  -0.00055   0.00000  -0.00198  -0.00198   3.36739
    R8        2.62587  -0.00147   0.00000  -0.00309  -0.00309   2.62277
    R9        2.04981  -0.00050   0.00000  -0.00142  -0.00142   2.04839
   R10        2.63827  -0.00260   0.00000  -0.00566  -0.00565   2.63262
   R11        2.04923  -0.00073   0.00000  -0.00205  -0.00205   2.04718
   R12        3.32592  -0.00242   0.00000  -0.00819  -0.00819   3.31773
   R13        3.43944  -0.00002   0.00000  -0.00009  -0.00009   3.43935
   R14        2.06126  -0.00001   0.00000  -0.00002  -0.00002   2.06124
   R15        2.06058  -0.00010   0.00000  -0.00028  -0.00028   2.06030
   R16        2.06127  -0.00001   0.00000  -0.00003  -0.00003   2.06124
    A1        2.10755  -0.00344   0.00000  -0.01531  -0.01530   2.09225
    A2        2.07958   0.00259   0.00000   0.01306   0.01305   2.09263
    A3        2.09605   0.00085   0.00000   0.00225   0.00225   2.09830
    A4        2.09560   0.00139   0.00000   0.00679   0.00678   2.10238
    A5        2.07815  -0.00168   0.00000  -0.00952  -0.00951   2.06864
    A6        2.10943   0.00029   0.00000   0.00273   0.00274   2.11217
    A7        2.07878  -0.00119   0.00000  -0.00422  -0.00425   2.07454
    A8        2.17233   0.00051   0.00000   0.00178   0.00180   2.17413
    A9        2.03207   0.00068   0.00000   0.00244   0.00245   2.03452
   A10        2.10082   0.00133   0.00000   0.00653   0.00652   2.10734
   A11        2.08952   0.00044   0.00000   0.00361   0.00362   2.09314
   A12        2.09284  -0.00177   0.00000  -0.01015  -0.01014   2.08270
   A13        2.10337  -0.00338   0.00000  -0.01503  -0.01502   2.08835
   A14        2.08335   0.00257   0.00000   0.01300   0.01299   2.09634
   A15        2.09647   0.00081   0.00000   0.00203   0.00202   2.09849
   A16        2.08025   0.00528   0.00000   0.02124   0.02127   2.10152
   A17        2.10192  -0.00251   0.00000  -0.01012  -0.01013   2.09178
   A18        2.10102  -0.00277   0.00000  -0.01112  -0.01114   2.08988
   A19        1.81012  -0.00039   0.00000  -0.00157  -0.00157   1.80855
   A20        1.94805  -0.00011   0.00000  -0.00058  -0.00058   1.94747
   A21        1.83750  -0.00005   0.00000  -0.00049  -0.00049   1.83700
   A22        1.94805  -0.00011   0.00000  -0.00058  -0.00058   1.94747
   A23        1.89952   0.00003   0.00000   0.00001   0.00001   1.89952
   A24        1.92800   0.00020   0.00000   0.00153   0.00153   1.92953
   A25        1.89948   0.00003   0.00000   0.00004   0.00004   1.89952
    D1        0.00000   0.00000   0.00000   0.00000   0.00000   0.00000
    D2       -3.14158   0.00000   0.00000  -0.00001  -0.00001  -3.14159
    D3       -3.14159   0.00000   0.00000   0.00000   0.00000  -3.14159
    D4        0.00002   0.00000   0.00000  -0.00001  -0.00001   0.00001
    D5       -0.00003   0.00000   0.00000   0.00004   0.00004   0.00001
    D6       -3.14159   0.00000   0.00000   0.00000   0.00000   3.14159
    D7        3.14156   0.00000   0.00000   0.00004   0.00004  -3.14159
    D8       -0.00001   0.00000   0.00000   0.00000   0.00000  -0.00001
    D9        0.00003   0.00000   0.00000  -0.00003  -0.00003  -0.00001
   D10        3.14156   0.00000   0.00000   0.00003   0.00003  -3.14159
   D11       -3.14158   0.00000   0.00000  -0.00002  -0.00002   3.14159
   D12       -0.00004   0.00000   0.00000   0.00005   0.00005   0.00001
   D13       -0.00002   0.00000   0.00000   0.00002   0.00002   0.00000
   D14        3.14156   0.00000   0.00000   0.00004   0.00004  -3.14159
   D15       -3.14156   0.00000   0.00000  -0.00004  -0.00004   3.14158
   D16        0.00001   0.00000   0.00000  -0.00002  -0.00002  -0.00001
   D17        0.00006   0.00000   0.00000   0.00004   0.00004   0.00010
   D18       -3.14159   0.00000   0.00000   0.00011   0.00011  -3.14148
   D19       -0.00001   0.00000   0.00000   0.00002   0.00002   0.00001
   D20       -3.14156   0.00000   0.00000  -0.00003  -0.00003  -3.14159
   D21       -3.14159   0.00000   0.00000   0.00000   0.00000  -3.14159
   D22        0.00005   0.00000   0.00000  -0.00005  -0.00005   0.00000
   D23        0.00003   0.00000   0.00000  -0.00005  -0.00005  -0.00001
   D24       -3.14159   0.00000   0.00000  -0.00001  -0.00001   3.14159
   D25        3.14158   0.00000   0.00000   0.00000   0.00000   3.14158
   D26       -0.00004   0.00000   0.00000   0.00004   0.00004   0.00000
   D27        1.08343   0.00006   0.00000   0.00079   0.00079   1.08422
   D28        3.14151   0.00000   0.00000   0.00021   0.00021  -3.14146
   D29       -1.08363  -0.00005   0.00000  -0.00034  -0.00034  -1.08397
         Item               Value     Threshold  Converged?
 Maximum Force            0.005281     0.000450     NO 
 RMS     Force            0.001300     0.000300     NO 
 Maximum Displacement     0.035931     0.001800     NO 
 RMS     Displacement     0.006644     0.001200     NO 
 Predicted change in Energy=-2.359425D-04
 GradGradGradGradGradGradGradGradGradGradGradGradGradGradGradGradGradGrad

                          Input orientation:                          
 ---------------------------------------------------------------------
 Center     Atomic      Atomic             Coordinates (Angstroms)
 Number     Number       Type             X           Y           Z
 ---------------------------------------------------------------------
      1          6           0        1.699502    1.380293    0.000062
      2          6           0        0.335013    1.094220    0.000079
      3          6           0       -0.111365   -0.230909    0.000047
      4          6           0        0.837019   -1.265110   -0.000012
      5          6           0        2.195700   -0.981762   -0.000033
      6          6           0        2.623279    0.344122    0.000011
      7          1           0        2.035342    2.410335    0.000094
      8          1           0       -0.365296    1.918092    0.000118
      9          1           0        0.510160   -2.298615   -0.000042
     10          1           0        2.919054   -1.788199   -0.000083
     11         16           0       -1.824693   -0.720639    0.000056
     12          6           0       -2.722968    0.862267   -0.000069
     13          1           0       -2.508481    1.445226   -0.896680
     14          1           0       -3.779349    0.592572    0.000070
     15          1           0       -2.508312    1.445469    0.896344
     16         17           0        4.341420    0.705176   -0.000015
 ---------------------------------------------------------------------
                    Distance matrix (angstroms):
                    1          2          3          4          5
     1  C    0.000000
     2  C    1.394155   0.000000
     3  C    2.423883   1.398291   0.000000
     4  C    2.782451   2.412146   1.403212   0.000000
     5  C    2.413611   2.787805   2.426176   1.387912   0.000000
     6  C    1.388169   2.408071   2.794448   2.404237   1.393124
     7  H    1.083409   2.150181   3.403604   3.865860   3.395886
     8  H    2.133687   1.081295   2.163952   3.402696   3.868832
     9  H    3.866381   3.397353   2.159098   1.083960   2.138959
    10  H    3.395092   3.871125   3.407139   2.146741   1.083320
    11  S    4.102910   2.821000   1.781945   2.716829   4.028864
    12  C    4.452707   3.066766   2.831167   4.147197   5.252975
    13  H    4.302963   3.002140   3.059365   4.397989   5.368759
    14  H    5.535189   4.144831   3.759285   4.976126   6.178976
    15  H    4.302705   3.001861   3.059240   4.397947   5.368676
    16  Cl   2.726814   4.025252   4.550116   4.020306   2.729446
                    6          7          8          9         10
     6  C    0.000000
     7  H    2.148233   0.000000
     8  H    3.377716   2.450585   0.000000
     9  H    3.383687   4.949787   4.306628   0.000000
    10  H    2.152737   4.290529   4.952126   2.462376   0.000000
    11  S    4.573639   4.970198   3.015418   2.818075   4.862389
    12  C    5.371298   5.003801   2.583289   4.521538   6.233570
    13  H    5.324608   4.730958   2.370884   4.892086   6.380993
    14  H    6.407447   6.092199   3.662344   5.172896   7.108916
    15  H    5.324435   4.730647   2.370467   4.892122   6.380949
    16  Cl   1.755668   2.868025   4.860488   4.868400   2.870548
                   11         12         13         14         15
    11  S    0.000000
    12  C    1.820025   0.000000
    13  H    2.441859   1.090759   0.000000
    14  H    2.354826   1.090264   1.773777   0.000000
    15  H    2.441863   1.090761   1.793024   1.773775   0.000000
    16  Cl   6.328815   7.066135   6.947866   8.121550   6.947686
                   16
    16  Cl   0.000000
 Stoichiometry    C7H7ClS
 Framework group  C1[X(C7H7ClS)]
 Deg. of freedom    42
 Full point group                 C1      NOp   1
 Largest Abelian subgroup         C1      NOp   1
 Largest concise Abelian subgroup C1      NOp   1
                         Standard orientation:                         
 ---------------------------------------------------------------------
 Center     Atomic      Atomic             Coordinates (Angstroms)
 Number     Number       Type             X           Y           Z
 ---------------------------------------------------------------------
      1          6           0       -0.960159   -1.154659    0.000051
      2          6           0        0.425446   -1.000489    0.000067
      3          6           0        0.996598    0.275835    0.000035
      4          6           0        0.151547    1.396055   -0.000024
      5          6           0       -1.228015    1.244043   -0.000045
      6          6           0       -1.780527   -0.034834   -0.000001
      7          1           0       -1.393038   -2.147831    0.000082
      8          1           0        1.043691   -1.887604    0.000107
      9          1           0        0.575818    2.393534   -0.000054
     10          1           0       -1.870868    2.116007   -0.000095
     11         16           0        2.748932    0.599342    0.000044
     12          6           0        3.491590   -1.062270   -0.000081
     13          1           0        3.222294   -1.622025   -0.896692
     14          1           0        4.568933   -0.894914    0.000058
     15          1           0        3.222103   -1.622250    0.896333
     16         17           0       -3.525336   -0.229793   -0.000026
 ---------------------------------------------------------------------
 Rotational constants (GHZ):      4.0886111      0.5298191      0.4704538
 Standard basis: 6-311+G(d,p) (5D, 7F)
 There are   265 symmetry adapted cartesian basis functions of A   symmetry.
 There are   256 symmetry adapted basis functions of A   symmetry.
   256 basis functions,   411 primitive gaussians,   265 cartesian basis functions
    41 alpha electrons       41 beta electrons
       nuclear repulsion energy       543.5621069098 Hartrees.
 NAtoms=   16 NActive=   16 NUniq=   16 SFac= 1.00D+00 NAtFMM=   60 NAOKFM=F Big=F
 Integral buffers will be    131072 words long.
 Raffenetti 2 integral format.
 Two-electron integral symmetry is turned on.
 One-electron integrals computed using PRISM.
 NBasis=   256 RedAO= T EigKep=  1.90D-06  NBF=   256
 NBsUse=   256 1.00D-06 EigRej= -1.00D+00 NBFU=   256
 Initial guess from the checkpoint file:  "Cl_methylthioethercharges.chk"
 B after Tr=     0.000000    0.000000    0.000000
         Rot=    1.000000    0.000001    0.000002   -0.000188 Ang=   0.02 deg.
 ExpMin= 4.05D-02 ExpMax= 1.06D+05 ExpMxC= 3.62D+03 IAcc=2 IRadAn=         4 AccDes= 0.00D+00
 Harris functional with IExCor=  402 and IRadAn=       4 diagonalized for initial guess.
 HarFok:  IExCor=  402 AccDes= 0.00D+00 IRadAn=         4 IDoV= 1 UseB2=F ITyADJ=14
 ICtDFT=  3500011 ScaDFX=  1.000000  1.000000  1.000000  1.000000
 FoFCou: FMM=F IPFlag=           0 FMFlag=      100000 FMFlg1=           0
         NFxFlg=           0 DoJE=T BraDBF=F KetDBF=T FulRan=T
         wScrn=  0.000000 ICntrl=     500 IOpCl=  0 I1Cent=   200000004 NGrid=           0
         NMat0=    1 NMatS0=      1 NMatT0=    0 NMatD0=    1 NMtDS0=    0 NMtDT0=    0
 Petite list used in FoFCou.
 Requested convergence on RMS density matrix=1.00D-08 within 128 cycles.
 Requested convergence on MAX density matrix=1.00D-06.
 Requested convergence on             energy=1.00D-06.
 No special actions if energy rises.
 SCF Done:  E(RB3LYP) =  -1129.47079645     A.U. after   12 cycles
            NFock= 12  Conv=0.92D-08     -V/T= 2.0026
 Calling FoFJK, ICntrl=      2127 FMM=F ISym2X=0 I1Cent= 0 IOpClX= 0 NMat=1 NMatS=1 NMatT=0.
 ***** Axes restored to original set *****
 -------------------------------------------------------------------
 Center     Atomic                   Forces (Hartrees/Bohr)
 Number     Number              X              Y              Z
 -------------------------------------------------------------------
      1        6           0.000642126    0.001454661    0.000000627
      2        6          -0.000147662   -0.001204347    0.000000265
      3        6          -0.000554048   -0.000120879   -0.000002399
      4        6          -0.000648125    0.001042766    0.000000585
      5        6           0.001147380   -0.001123667    0.000000879
      6        6          -0.001930344   -0.000349763   -0.000000894
      7        1           0.000158820   -0.000472686   -0.000000214
      8        1          -0.000178995    0.000194688   -0.000000290
      9        1          -0.000051836   -0.000243735   -0.000000383
     10        1          -0.000037452    0.000506061    0.000000145
     11       16           0.000273968    0.000007408    0.000001383
     12        6          -0.000019641    0.000152700    0.000000508
     13        1           0.000011828   -0.000045254    0.000013212
     14        1          -0.000012960   -0.000004599   -0.000000059
     15        1           0.000010109   -0.000046779   -0.000013419
     16       17           0.001336831    0.000253425    0.000000055
 -------------------------------------------------------------------
 Cartesian Forces:  Max     0.001930344 RMS     0.000556228

 GradGradGradGradGradGradGradGradGradGradGradGradGradGradGradGradGradGrad
 Berny optimization.
 Using GEDIIS/GDIIS optimizer.
[...]
 ! D6    D(2,1,6,16)           180.0001         -DE/DX =    0.0                 !
 ! D7    D(7,1,6,5)           -180.0001         -DE/DX =    0.0                 !
 ! D8    D(7,1,6,16)             0.0            -DE/DX =    0.0                 !
 ! D9    D(1,2,3,4)              0.0001         -DE/DX =    0.0                 !
 ! D10   D(1,2,3,11)          -180.0001         -DE/DX =    0.0                 !
 ! D11   D(8,2,3,4)            180.0002         -DE/DX =    0.0                 !
 ! D12   D(8,2,3,11)            -0.0001         -DE/DX =    0.0                 !
 ! D13   D(2,3,4,5)             -0.0001         -DE/DX =    0.0                 !
 ! D14   D(2,3,4,9)            180.0            -DE/DX =    0.0                 !
 ! D15   D(11,3,4,5)           180.0002         -DE/DX =    0.0                 !
 ! D16   D(11,3,4,9)             0.0002         -DE/DX =    0.0                 !
 ! D17   D(2,3,11,12)            0.0011         -DE/DX =    0.0                 !
 ! D18   D(4,3,11,12)          180.0008         -DE/DX =    0.0                 !
 ! D19   D(3,4,5,6)              0.0            -DE/DX =    0.0                 !
 ! D20   D(3,4,5,10)           180.0            -DE/DX =    0.0                 !
 ! D21   D(9,4,5,6)           -180.0001         -DE/DX =    0.0                 !
 ! D22   D(9,4,5,10)             0.0            -DE/DX =    0.0                 !
 ! D23   D(4,5,6,1)              0.0001         -DE/DX =    0.0                 !
 ! D24   D(4,5,6,16)          -180.0            -DE/DX =    0.0                 !
 ! D25   D(10,5,6,1)          -180.0            -DE/DX =    0.0                 !
 ! D26   D(10,5,6,16)           -0.0001         -DE/DX =    0.0                 !
 ! D27   D(3,11,12,13)          62.1138         -DE/DX =    0.0                 !
 ! D28   D(3,11,12,14)        -179.9985         -DE/DX =    0.0                 !
 ! D29   D(3,11,12,15)         -62.1107         -DE/DX =    0.0                 !
 --------------------------------------------------------------------------------
 GradGradGradGradGradGradGradGradGradGradGradGradGradGradGradGradGradGrad

 1\1\GINC-COREV2-25-KNC-005\Freq\RB3LYP\6-311+G(d,p)\C7H7Cl1S1\ROOT\20-
 Dec-2022\0\\#N Geom=AllCheck Guess=TCheck SCRF=Check GenChk RB3LYP/6-3
 11+G(d,p) Freq\\Title Card Required\\0,1\C,1.6993321187,1.3815751261,0
 .0000204021\C,0.3344327362,1.0934646898,0.0000131545\C,-0.1124160629,-
 0.2311820204,-0.0000050722\C,0.8362746888,-1.26468861,-0.0000132975\C,
 2.1960358292,-0.9828425533,-0.0000051946\C,2.621094089,0.3437898244,0.
 0000107343\H,2.0376493795,2.4100447799,0.0000341971\H,-0.3664805247,1.
 9174242547,0.0000225614\H,0.5092599461,-2.2986175793,-0.0000266965\H,2
 .9212350443,-1.7866414089,-0.0000119496\S,-1.8249972597,-0.7208411537,
 -0.0000123405\C,-2.7230255052,0.8624642881,-0.0000240173\H,-2.50804993
 67,1.4451240985,-0.8966219648\H,-3.7794758935,0.5930013572,-0.00000130
 83\H,-2.5080192469,1.4451563743,0.896545653\Cl,4.3431748479,0.70530505
 28,0.0000216289\\Version=ES64L-G09RevD.01\State=1-A\HF=-1129.4708095\R
 MSD=4.526e-09\RMSF=3.439e-06\ZeroPoint=0.119083\Thermal=0.1279542\Dipo
 le=-0.8578308,0.383228,-0.0000061\DipoleDeriv=-0.1486014,-0.0302038,-0
 .0018344,-0.0177366,0.0544561,0.0016813,-0.0042749,-0.0007699,-0.10876
 87,-0.2920319,-0.0560029,0.0004584,-0.1959806,-0.0302592,-0.0001993,-0
 .0011343,-0.0001519,-0.0981448,1.0307002,0.2110024,-0.0017948,0.218617
 4,-0.1424269,0.0006289,0.0005188,0.0002802,-0.05495,-0.3677954,-0.0118
 48,0.0018353,0.0460879,0.096672,-0.0008799,-0.0004288,-0.0001054,-0.09
 93657,-0.1093663,-0.0594118,0.0008006,-0.0321358,0.0367476,0.0013491,0
 .0007698,0.0001247,-0.1076333,1.1447178,0.2409857,0.0011187,0.2296154,
 0.0061989,-0.0033546,0.0047972,0.0008111,-0.0243354,0.0489819,-0.04400
 06,-0.000146,-0.0478877,-0.0218396,0.0001512,0.0003151,0.0000288,0.137
 2576,0.0096255,0.0742111,-0.0001441,0.0706128,0.0027102,0.0000623,0.00
 0047,-0.0000084,0.1238013,0.0460591,-0.0632763,0.0001071,-0.0446718,-0
 .0294466,-0.0001162,-0.0000209,-0.0000122,0.1297236,0.0084479,0.064580
 3,-0.0000069,0.0561982,0.0276761,0.0001412,-0.0000892,-0.0000381,0.138
 3827,-0.550467,-0.0202214,0.0000615,-0.1555911,0.0667314,-0.0000681,0.
 0003484,-0.0001816,-0.0988292,0.0352594,-0.1428668,0.0002214,-0.132136
 8,0.1340986,-0.0002142,0.0012557,0.0003146,0.0703812,0.0632426,-0.0035
 406,0.0413544,0.0921302,-0.0709181,0.0674021,0.0314187,0.0664405,-0.02
 14207,-0.081154,-0.0074247,-0.0000027,-0.0059901,0.0642182,0.0000591,-
 0.000231,-0.0000718,0.1091062,0.0626456,-0.0036545,-0.0413896,0.091948
 4,-0.0708567,-0.0671875,-0.0322811,-0.0665381,-0.0211009,-0.9002642,-0
 .148328,-0.0006389,-0.1730797,-0.123762,0.0005446,-0.0010106,-0.000122
 6,-0.0741038\Polar=173.348123,5.3785205,109.0074021,-0.0778883,0.00753
 41,67.5922398\PG=C01 [X(C7H7Cl1S1)]\NImag=0\\0.65972164,0.02422972,0.7
 3647957,-0.00004804,-0.00009246,0.12765930,-0.31926257,-0.07581965,-0.
 00002587,0.68438530,-0.00770487,-0.13148121,-0.00002181,-0.04376084,0.
 68539312,-0.00000434,-0.00002528,-0.05604131,-0.00000553,0.00000370,0.
 12114971,-0.00404163,-0.03786424,-0.00000818,-0.13256937,-0.07307966,0
 .00000283,0.50992018,-0.08615505,0.00865609,-0.00000475,-0.02380148,-0
 .29292446,-0.00000608,-0.01506405,0.63002361,0.00002360,0.00000877,0.0
 0555957,0.00000196,0.00000315,-0.05675027,0.00001619,0.00000265,0.1166
 2767,-0.05792493,0.02129787,-0.00002801,0.05542508,0.04110427,-0.00001
 049,-0.18980172,0.06521437,-0.00000676,0.67157385,0.01868761,-0.008782
 58,0.00000989,0.00259221,-0.04892818,0.00000402,0.11465277,-0.22757104
 ,0.00000252,0.03812103,0.70733020,-0.00000454,-0.00000610,-0.00306475,
 -0.00000190,-0.00000242,0.00496738,-0.00000046,-0.00000228,-0.06046142
 ,0.00000055,0.00000767,0.12675117,0.05548531,-0.00033986,-0.00008511,-
 0.03613391,-0.02925518,-0.00001988,-0.04865540,0.05824452,0.00001477,-
 0.33470019,-0.07684239,-0.00000902,0.70265143,0.04684912,-0.05168342,0
 .00008399,-0.03396534,-0.03027421,0.00001176,0.01049288,0.05351269,-0.
 00002814,-0.00916092,-0.13401089,0.00000600,-0.04715536,0.69677946,0.0
 0000796,0.00001487,0.00857113,0.00000379,0.00000260,-0.00349875,-0.000
 00038,0.00000304,0.00663748,0.00000510,-0.00000424,-0.05800070,0.00001
 548,-0.00000485,0.12960560,-0.19306530,0.13804109,0.00020082,-0.049242
 76,0.00765587,0.00003512,-0.00175116,0.01657795,-0.00005380,-0.0060887
 6,-0.03377898,0.00001639,-0.12252587,-0.08015950,-0.00003223,0.5109931
 8,0.07232637,-0.24634555,0.00002755,0.06541233,0.05120054,0.00001650,0
 .01744994,-0.07281750,0.00001854,-0.09005712,0.00970305,-0.00000021,-0
 .01446355,-0.30621885,-0.00000880,-0.03373188,0.63816095,0.00004476,0.
 00010995,-0.06297463,0.00002761,0.00002198,0.00740226,0.00000240,0.000
 00475,-0.00646199,0.00003430,-0.00001230,0.00818861,0.00009214,-0.0000
 8855,-0.06345332,-0.00020340,-0.00003757,0.11913889,-0.08311526,-0.084
 19417,0.00000375,-0.00534185,-0.02912296,0.00000101,-0.00501806,-0.000
 72700,-0.00000011,-0.00092550,0.00038894,0.00000038,-0.00276200,0.0033
 2904,-0.00000087,0.00853969,0.02066834,-0.00000540,0.08620102,-0.08155
 862,-0.31384681,0.00000378,0.00032441,-0.00138472,0.00000109,-0.000477
 77,0.00186335,-0.00000346,0.00055865,0.00059726,0.00000117,0.00401625,
 -0.00149885,-0.00000164,-0.01057748,-0.01790600,-0.00000709,0.08879474
 ,0.33104815,-0.00000028,0.00000350,-0.03530923,0.00000179,0.00000072,0
 .00334958,-0.00000169,0.00000106,0.00698842,0.00000366,-0.00000165,-0.
 00108735,0.00000551,-0.00000298,0.00573945,-0.00000984,-0.00000547,0.0
 0299707,0.00000085,0.00000377,0.02446558,-0.01693960,0.02463082,0.0000
 0083,-0.17457389,0.13917477,0.00000180,0.01055308,-0.00747491,0.000001
 39,-0.00000146,-0.00258851,-0.00000045,-0.00036893,-0.00084832,0.00000
 013,-0.00338641,-0.00216057,-0.00000128,0.00102210,-0.00022188,-0.0000
 0017,0.18853580,-0.00610034,0.00783253,-0.00000052,0.13877798,-0.22114
 126,-0.00000225,0.01922983,-0.01734653,-0.00000106,-0.00320831,-0.0046
 5827,0.00000028,-0.00099132,-0.00009903,-0.00000027,-0.00180774,0.0013
 8672,0.00000100,0.00021513,0.00079990,0.00000014,-0.14863803,0.2330336
 6,-0.00000142,0.00000140,0.00291891,0.00000180,-0.00000227,-0.03343998
 ,-0.00000100,0.00000002,0.00173485,0.00000116,-0.00000066,0.00610876,0
 .00000048,0.00000081,-0.00092715,0.00000077,-0.00000243,0.00697049,-0.
 00000008,0.00000022,-0.00424409,-0.00000179,0.00000251,0.02356919,-0.0
 0096958,0.00041269,0.00000013,-0.00285580,0.00303291,-0.00000033,0.010
 15506,0.02083249,-0.00000054,-0.08286506,-0.07866181,-0.00000108,-0.00
 597814,-0.03071750,-0.00000037,-0.00403159,-0.00007088,0.00000032,0.00
 007036,-0.00005242,0.00000010,0.00044506,0.00117826,0.00000010,0.08580
 887,0.00061403,0.00055696,0.00000001,0.00394836,-0.00174160,0.00000018
 ,-0.00884014,-0.01720385,0.00000068,-0.07883969,-0.30998177,-0.0000036
 4,0.00009611,-0.00251198,-0.00000012,-0.00055967,0.00205412,-0.0000003
 5,-0.00005024,-0.00005466,-0.00000013,-0.00055672,-0.00082441,-0.00000
 009,0.08425935,0.32899535,-0.00000106,-0.00000037,-0.00101302,-0.00000
 008,-0.00000031,0.00607486,-0.00000065,-0.00000005,0.00220097,-0.00000
 087,-0.00000366,-0.03527807,-0.00000058,0.00000098,0.00348737,0.000002
 19,-0.00000084,0.00737529,0.,0.00000015,-0.00071178,-0.00000005,0.0000
 0003,0.00005009,0.00000123,0.00000386,0.02401123,0.00011565,-0.0026250
 6,0.00000848,-0.00041895,-0.00080268,0.00000173,-0.00427670,-0.0021657
 9,-0.00000212,-0.01533044,0.02319301,0.00000104,-0.18241127,0.14237327
 ,-0.00000032,0.00798200,-0.00928136,-0.00000897,0.00052602,-0.00046411
 ,-0.00000048,-0.00000795,0.00008026,0.00000001,0.00098976,-0.00015361,
 0.00000010,0.19219245,-0.00324856,-0.00447149,-0.00000496,-0.00099439,
 0.00001601,-0.00000143,-0.00227483,0.00105192,0.00000011,-0.00637839,0
 .00876117,-0.00000042,0.13993136,-0.21491005,-0.00000064,0.02194924,-0
 .01714453,0.00000540,0.00105212,-0.00081448,0.00000041,0.00007027,0.00
 000290,0.00000010,0.00029723,0.00078276,0.00000005,-0.15057008,0.22539
 797,-0.00000385,-0.00000250,0.00538396,-0.00000050,-0.00000103,-0.0008
 6743,-0.00000220,0.00000040,0.00738666,0.00000059,-0.00000039,0.003486
 30,-0.00000146,0.00000320,-0.03566770,0.00000931,-0.00000237,0.0028277
 2,0.00000006,0.00000041,0.00028181,-0.00000011,0.00000003,-0.00069356,
 0.00000014,-0.00000005,-0.00450873,-0.00000084,0.00000173,0.02466757,0
 .00256244,0.00061374,-0.00001069,-0.02320592,-0.01268436,-0.00000296,-
 0.13358738,-0.05261464,0.00000241,-0.03492115,0.00139181,-0.00000180,0
 .00525215,0.00267552,0.00000208,-0.00147472,-0.00261541,0.00001158,-0.
 00041625,0.00003729,0.00000064,-0.00036730,0.00146715,0.00000004,0.000
 47257,0.00006173,-0.00000006,-0.00007863,-0.00004061,-0.00000034,0.258
 46548,0.00316390,-0.00440446,-0.00000159,-0.02987022,-0.00528763,-0.00
 000034,-0.01987388,-0.07619487,0.00000097,0.01848739,0.01291946,-0.000
 00018,0.00249345,-0.00458943,-0.00000008,-0.00111212,0.00074829,0.0000
 0173,-0.00103354,-0.00008903,-0.00000005,0.00011392,-0.00049473,0.,0.0
 0108276,-0.00017838,-0.00000002,0.00100283,0.00030170,-0.00000012,-0.0
 1039777,0.24673733,-0.00002665,0.00000660,0.00473938,0.00000163,-0.000
 00496,0.00336148,-0.00002170,0.00000618,-0.02115865,0.00001725,-0.0000
 0854,0.00288480,-0.00000175,0.00002525,0.00234314,0.00003720,-0.000034
 05,-0.00072213,-0.00000104,0.00000275,0.00019416,-0.00000162,0.0000007
 4,-0.00201424,0.00000127,-0.00000129,-0.00088683,0.00000099,0.00000097
 ,0.00032196,0.00000092,-0.00000181,0.03129174,-0.00027651,0.00107312,0
 .00000383,0.00144325,0.00065293,0.00000015,-0.01649480,0.02442644,-0.0
 0000260,-0.00427676,-0.00461236,0.00000044,-0.00124816,0.00185860,-0.0
 0000071,0.00045998,0.00042418,-0.00000290,0.00013252,-0.00000733,0.,-0
 .00125738,0.00085390,0.00000023,-0.00017431,0.00035472,0.00000011,-0.0
 0047472,-0.00018240,0.00000037,-0.05533332,0.01040356,0.00000239,0.490
 42075,0.00093823,-0.00023607,-0.00000504,-0.00260730,0.00079385,-0.000
 00010,-0.00211207,0.01178047,0.00000214,-0.00275447,-0.00204928,0.,-0.
 00136261,-0.00029382,0.00000070,-0.00007114,0.00122059,0.00000401,-0.0
 0007342,-0.00006662,0.00000011,-0.00141614,-0.00007886,-0.00000015,-0.
 00019110,-0.00005088,-0.00000011,-0.00030608,-0.00005385,-0.00000042,0
 .04504346,-0.13384592,-0.00000216,0.10014522,0.41399387,0.00002613,0.0
 0003042,-0.00020732,0.00000726,0.00000868,-0.00057803,0.00001082,-0.00
 000110,-0.00076373,0.00000263,0.00000026,0.00113043,0.00002858,-0.0000
 3735,0.00151547,-0.00007907,0.00000283,0.00025288,-0.00000123,-0.00000
 337,-0.00010833,0.00000028,-0.00000005,0.00041535,-0.00000052,0.000000
 47,-0.00099858,-0.00000313,0.00000121,-0.00011508,0.00000285,0.0000017
 6,-0.03056036,-0.00000269,0.00000362,0.54368497,-0.00068130,-0.0000437
 8,0.00041455,0.00031721,-0.00011776,-0.00006055,0.00237741,-0.00032929
 ,-0.00100047,-0.00085382,0.00050980,0.00032403,0.00074772,0.00039823,0
 .00022711,0.00006024,-0.00082617,0.00001689,-0.00002728,0.00000777,-0.
 00004249,-0.00105961,-0.00039365,-0.00101704,0.00009417,-0.00012232,-0
 .00013966,0.00002839,0.00001318,-0.00002868,-0.00124200,0.01396796,-0.
 01010724,-0.05536331,-0.03210922,0.04313505,0.05859921,0.00004623,0.00
 022423,0.00007216,0.00051901,-0.00000684,-0.00011191,-0.00183421,0.001
 22715,-0.00069119,0.00030291,-0.00024044,-0.00021895,-0.00026692,0.000
 10381,-0.00025550,0.00001154,0.00014026,0.00008682,0.00005701,0.000018
 95,0.00000171,-0.00016519,0.00043609,-0.00006180,-0.00013392,0.0001355
 2,0.00021621,0.00000852,-0.00001551,0.00003794,0.00124327,-0.02080676,
 0.01466557,-0.03360298,-0.11558683,0.11896883,0.03156650,0.12708221,0.
 00027086,-0.00038775,-0.00013520,-0.00040438,0.00082803,0.00021393,0.0
 0023557,0.00044609,-0.00035974,-0.00016403,-0.00019026,-0.00005911,-0.
 00000387,-0.00010728,-0.00001208,-0.00008282,0.00015197,-0.00003148,-0
 .00002472,0.00000822,0.00002118,-0.00017630,-0.00052355,-0.00012711,0.
 00001016,-0.00004635,0.00001016,-0.00001337,-0.00000853,-0.00000630,-0
 .00154658,-0.00171495,0.00569741,0.04709775,0.11377321,-0.23415953,-0.
 05131926,-0.12447789,0.24716368,-0.00005319,0.00014896,-0.00000104,0.0
 0052836,-0.00008777,0.00000001,0.00006951,0.00330534,-0.00000006,-0.00
 076270,-0.00052273,0.00000021,-0.00016423,0.00020184,0.00000019,0.0001
 0802,0.00008209,0.00000073,0.00001674,-0.00000611,0.00000009,-0.000037
 99,0.00024803,0.,-0.00001739,-0.00004719,-0.00000001,-0.00006461,-0.00
 002655,-0.00000005,-0.01303741,-0.00190914,-0.00000005,-0.30212407,-0.
 07048868,0.00000608,-0.00442856,-0.00151140,-0.00024989,0.32449459,0.0
 0008734,0.00036854,0.00000069,-0.00064738,-0.00123760,-0.00000010,0.00
 178445,-0.00743729,-0.00000064,0.00222692,0.00131460,0.00000008,0.0001
 7693,-0.00063931,-0.00000003,-0.00018239,0.00003118,-0.00000053,0.0000
 4244,0.00000576,0.00000003,-0.00028413,0.00061851,0.00000004,0.0000071
 7,0.00003721,0.00000002,0.00019146,0.00005871,0.00000008,0.02480791,0.
 00594864,0.00000043,-0.06815050,-0.05973938,0.00000087,-0.01612677,-0.
 00357954,-0.00147707,0.07215057,0.06777354,-0.00000612,-0.00000488,0.0
 0024774,-0.00000128,-0.00000181,0.00008581,-0.00000307,0.00000040,-0.0
 0023412,0.00000028,-0.00000036,0.00036124,-0.00000537,0.00000793,0.000
 01037,0.00001630,-0.00000247,-0.00007175,0.00000017,0.00000085,0.00002
 588,-0.00000022,0.00000017,-0.00046682,0.00000015,-0.00000017,0.000004
 68,0.00000065,-0.00000019,-0.00005904,-0.00000112,-0.00000036,-0.00090
 522,0.00000634,0.00000097,-0.04511913,0.02600088,0.00552851,0.00103121
 ,-0.00000611,-0.00000165,0.04407045,-0.00068838,-0.00005803,-0.0004163
 1,0.00031363,-0.00012067,0.00006032,0.00237626,-0.00033002,0.00100109,
 -0.00085770,0.00051114,-0.00032422,0.00073565,0.00041027,-0.00022691,0
 .00008855,-0.00082194,-0.00001503,-0.00002658,0.00000880,0.00004252,-0
 .00105984,-0.00039382,0.00101707,0.00009421,-0.00012231,0.00013962,0.0
 0002959,0.00001250,0.00002858,-0.00124310,0.01396815,0.01010640,-0.055
 36547,-0.03211529,-0.04313920,0.00135698,0.00359154,0.00632496,-0.0044
 2952,-0.01612756,-0.02600026,0.05860255,0.00005632,0.00022017,-0.00006
 776,0.00051785,-0.00000521,0.00011195,-0.00182599,0.00122480,0.0006890
 5,0.00029576,-0.00023705,0.00021893,-0.00026727,0.00009490,0.00025497,
 -0.00000088,0.00015437,-0.00009028,0.00005749,0.00001788,-0.00000176,-
 0.00016454,0.00043583,0.00006194,-0.00013441,0.00013608,-0.00021610,0.
 00000821,-0.00001594,-0.00003754,0.00124295,-0.02080680,-0.01466191,-0
 .03360966,-0.11559425,-0.11897451,0.00359155,0.01081450,0.01375979,-0.
 00151149,-0.00357997,-0.00552770,0.03157317,0.12708997,-0.00027468,0.0
 0036653,-0.00013127,0.00039937,-0.00083112,0.00021312,-0.00023270,-0.0
 0044793,-0.00036190,0.00015517,0.00019362,-0.00005958,-0.00001203,0.00
 011856,-0.00001217,0.00011314,-0.00013859,-0.00003408,0.00002588,-0.00
 000758,0.00002127,0.00017701,0.00052313,-0.00012685,-0.00001039,0.0000
 4669,0.00001028,0.00001474,0.00000743,-0.00000581,0.00154523,0.0017151
 9,0.00570121,-0.04710262,-0.11377678,-0.23415075,-0.00632625,-0.013760
 17,-0.01928003,0.00024993,0.00147784,0.00103279,0.05132472,0.12448065,
 0.24715129,-0.04086681,-0.00950321,-0.00000914,0.00119219,0.00511599,0
 .00000111,0.00074473,0.00006112,0.00000505,0.00231127,-0.00304154,0.00
 000043,-0.02992416,-0.00658184,-0.00000006,-0.14666509,-0.02233437,0.0
 0000626,0.00112432,-0.00038220,-0.00000022,-0.00149570,-0.00051731,-0.
 00000034,-0.00123819,-0.00004241,-0.00000023,0.00119941,0.00038992,-0.
 00000101,-0.00184547,-0.00048725,-0.00000800,-0.00006768,-0.00051938,0
 .00000614,0.00007455,0.00016808,0.00004592,-0.00009754,0.00004352,-0.0
 0000122,0.00007318,0.00017093,-0.00004654,0.21548099,0.01776856,0.0069
 1349,0.00000083,-0.00062554,-0.00299061,-0.00000172,-0.00036303,0.0021
 5547,-0.00000408,0.00278973,-0.00416624,0.00000008,-0.03401418,-0.0037
 6103,0.,-0.02225391,-0.04436765,0.00000105,0.00059607,0.00130993,0.000
 00059,0.00052918,0.00009695,0.00000037,-0.00114080,-0.00015047,0.00000
 016,-0.00048880,0.00105270,0.00000062,-0.00023203,0.00004258,0.0000062
 3,-0.00002745,-0.00019301,-0.00000255,0.00001396,0.00005320,-0.0000336
 9,-0.00002578,0.00005639,0.00000076,0.00001408,0.00005073,0.00003252,0
 .03745996,0.04389758,-0.00000233,-0.00002271,0.00379674,-0.00000567,-0
 .00000313,0.00435765,0.00000423,-0.00000240,-0.00058380,-0.00001052,0.
 00000409,0.00413231,-0.00001789,0.00001068,0.00366185,0.00002992,0.000
 01542,-0.02140382,0.00000133,0.00000076,-0.00262361,0.00000055,-0.0000
 0033,0.00027217,-0.00000037,0.00000031,0.00017207,0.00000149,-0.000001
 25,-0.00243233,-0.00000217,-0.00000016,-0.00028784,-0.00000010,0.,-0.0
 0023828,-0.00007688,-0.00000035,0.00003302,-0.00000004,-0.00000006,-0.
 00001408,0.00007663,0.00000028,0.00003249,0.00000184,-0.00000116,0.011
 12547\\-0.00000996,0.00000480,0.,0.00000436,-0.00000598,0.00000007,-0.
 00000903,-0.00000311,-0.00000009,-0.00000319,0.00000858,0.00000008,-0.
 00000309,-0.00000453,0.00000006,-0.00000075,-0.00000071,-0.00000016,0.
 00000194,-0.00000030,0.,-0.00000243,0.00000230,0.00000013,0.00000212,-
 0.00000211,0.,0.00000294,0.00000333,0.,0.00000669,-0.00000115,-0.00000
 016,0.00000269,0.00000026,0.00000016,-0.00000061,-0.00000105,-0.000000
 10,0.00000057,-0.00000298,-0.00000005,-0.00000027,-0.00000077,0.,0.000
 00802,0.00000340,0.00000005\\\@


 TERENCE, THIS IS STUPID STUFF:
 YOU EAT YOUR VICTUALS FAST ENOUGH;
 THERE CAN'T BE MUCH AMISS, 'TIS CLEAR
 TO SEE THE RATE YOU DRINK YOUR BEER.
 BUT OH, GOOD LORD, THE VERSE YOU MAKE,
 IT GIVES A CHAP THE BELLY-ACHE.
 THE COW, THE OLD COW, SHE IS DEAD;
 IT SLEEPS WELL, THE HORNED HEAD:
 WE POOR LADS, 'TIS OUR TURN NOW
 TO HEAR SUCH TUNES AS KILLED THE COW.
 PRETTY FRIENDSHIP 'TIS TO RHYME
 YOUR FRIENDS TO DEATH BEFORE THEIR TIME.
 MOPING, MELANCHOLY MAD:
 COME PIPE A TUNE TO DANCE TO, LAD.

     -- A. E. HOUSMAN
 Job cpu time:       0 days  0 hours 30 minutes 51.9 seconds.
 File lengths (MBytes):  RWF=    164 Int=      0 D2E=      0 Chk=      6 Scr=      1
 Normal termination of Gaussian 09 at Tue Dec 20 16:55:16 2022.
