 Entering Gaussian System, Link 0=g09
 Initial command:
 /cm/shared/apps/gaussian/g09revD.01/g09/l1.exe "//home/sweav003/CHB/validation/G09-methylchlorosilanes5_Suginome.com.o9822884.tmp/Gau-216179.inp" -scrdir="//home/sweav003/CHB/validation/G09-methylchlorosilanes5_Suginome.com.o9822884.tmp/"
 Entering Link 1 = /cm/shared/apps/gaussian/g09revD.01/g09/l1.exe PID=    216180.
  
 Copyright (c) 1988,1990,1992,1993,1995,1998,2003,2009,2013,
            Gaussian, Inc.  All Rights Reserved.
  
 This is part of the Gaussian(R) 09 program.  It is based on
 the Gaussian(R) 03 system (copyright 2003, Gaussian, Inc.),
 the Gaussian(R) 98 system (copyright 1998, Gaussian, Inc.),
 the Gaussian(R) 94 system (copyright 1995, Gaussian, Inc.),
 the Gaussian 92(TM) system (copyright 1992, Gaussian, Inc.),
 the Gaussian 90(TM) system (copyright 1990, Gaussian, Inc.),
 the Gaussian 88(TM) system (copyright 1988, Gaussian, Inc.),
 the Gaussian 86(TM) system (copyright 1986, Carnegie Mellon
 University), and the Gaussian 82(TM) system (copyright 1983,
 Carnegie Mellon University). Gaussian is a federally registered
 trademark of Gaussian, Inc.
  
 This software contains proprietary and confidential information,
 including trade secrets, belonging to Gaussian, Inc.
  
 This software is provided under written license and may be
 used, copied, transmitted, or stored only in accord with that
 written license.
  
 The following legend is applicable only to US Government
 contracts under FAR:
  
                    RESTRICTED RIGHTS LEGEND
  
 Use, reproduction and disclosure by the US Government is
 subject to restrictions as set forth in subparagraphs (a)
 and (c) of the Commercial Computer Software - Restricted
 Rights clause in FAR 52.227-19.
  
 Gaussian, Inc.
 340 Quinnipiac St., Bldg. 40, Wallingford CT 06492
  
  
 ---------------------------------------------------------------
 Warning -- This program may not be used in any manner that
 competes with the business of Gaussian, Inc. or will provide
 assistance to any competitor of Gaussian, Inc.  The licensee
 of this program is prohibited from giving any competitor of
 Gaussian, Inc. access to this program.  By using this program,
 the user acknowledges that Gaussian, Inc. is engaged in the
 business of creating and licensing software in the field of
 computational chemistry and represents and warrants to the
 licensee that it is not a competitor of Gaussian, Inc. and that
 it will not use this program in any manner prohibited above.
 ---------------------------------------------------------------
  

 Cite this work as:
 Gaussian 09, Revision D.01,
 M. J. Frisch, G. W. Trucks, H. B. Schlegel, G. E. Scuseria, 
 M. A. Robb, J. R. Cheeseman, G. Scalmani, V. Barone, B. Mennucci, 
 G. A. Petersson, H. Nakatsuji, M. Caricato, X. Li, H. P. Hratchian, 
 A. F. Izmaylov, J. Bloino, G. Zheng, J. L. Sonnenberg, M. Hada, 
 M. Ehara, K. Toyota, R. Fukuda, J. Hasegawa, M. Ishida, T. Nakajima, 
 Y. Honda, O. Kitao, H. Nakai, T. Vreven, J. A. Montgomery, Jr., 
 J. E. Peralta, F. Ogliaro, M. Bearpark, J. J. Heyd, E. Brothers, 
 K. N. Kudin, V. N. Staroverov, T. Keith, R. Kobayashi, J. Normand, 
 K. Raghavachari, A. Rendell, J. C. Burant, S. S. Iyengar, J. Tomasi, 
 M. Cossi, N. Rega, J. M. Millam, M. Klene, J. E. Knox, J. B. Cross, 
 V. Bakken, C. Adamo, J. Jaramillo, R. Gomperts, R. E. Stratmann, 
 O. Yazyev, A. J. Austin, R. Cammi, C. Pomelli, J. W. Ochterski, 
 R. L. Martin, K. Morokuma, V. G. Zakrzewski, G. A. Voth, 
 P. Salvador, J. J. Dannenberg, S. Dapprich, A. D. Daniels, 
 O. Farkas, J. B. Foresman, J. V. Ortiz, J. Cioslowski, 
 and D. J. Fox, Gaussian, Inc., Wallingford CT, 2013.
 
 ******************************************
 Gaussian 09:  ES64L-G09RevD.01 24-Apr-2013
                 9-Jan-2023 
 ******************************************
 %nprocshared=20
 Will use up to   20 processors via shared memory.
 %mem=4GB
 %chk=methylchlorosilanes5_Suginome.chk
 ----------------------------------------------------------------------
 # opt freq b3lyp/6-311+g(d,p) geom=connectivity pop=(hirshfeld,chelpg,
 mbs,npa)
 ----------------------------------------------------------------------
 1/14=-1,18=20,19=15,26=3,38=1,57=2/1,3;
 2/9=110,12=2,17=6,18=5,40=1/2;
 3/5=4,6=6,7=111,11=2,16=1,25=1,30=1,71=1,74=-5/1,2,3;
 4//1;
 5/5=2,38=5/2;
 6/7=2,8=2,9=2,10=2,15=8,20=3,27=100,28=1,40=-1,79=1/1,2,7;
 7//1,2,3,16;
 1/14=-1,18=20,19=15,26=3/3(2);
 2/9=110/2;
 99//99;
 2/9=110/2;
 3/5=4,6=6,7=111,11=2,16=1,25=1,30=1,71=1,74=-5/1,2,3;
 4/5=5,16=3,69=1/1;
 5/5=2,38=5/2;
 7//1,2,3,16;
 1/14=-1,18=20,19=15,26=3/3(-5);
 2/9=110/2;
 6/7=2,8=2,9=2,10=2,15=8,19=2,20=3,27=100,28=1,40=-1,79=1/1,2,7;
 99/9=1/99;
 -------------------
 Title Card Required
 -------------------
 Symbolic Z-matrix:
 Charge =  0 Multiplicity = 1
 Si                    3.63856   0.89899  -3.53061 
 Cl                    4.35858   1.91745  -5.2941 
 C                     4.28522   1.81329  -1.94648 
 H                     3.92856   2.8221   -1.94635 
 H                     3.92854   1.30878  -1.0729 
 H                     5.35522   1.81328  -1.94647 
 C                     1.69856   0.89901  -3.53063 
 H                     1.34189   0.39473  -4.40435 
 H                     1.3419    1.90782  -3.5305 
 C                     4.2852   -0.93007  -3.53085 
 H                     5.3552   -0.93008  -3.53084 
 H                     3.92852  -1.43459  -2.65727 
 H                     3.92854  -1.43435  -4.40457 
 C                     1.1852    0.17288  -2.27333 
 H                     1.54187   0.67717  -1.39961 
 H                     1.54186  -0.83593  -2.27346 
 C                    -0.3548    0.1729   -2.27335 
 H                    -0.71146  -0.33138  -3.14707 
 H                    -0.71145   1.18171  -2.27322 
 C                    -0.86815  -0.55322  -1.01604 
 H                    -0.51149  -0.04894  -0.14232 
 H                    -0.51149  -1.56203  -1.01617 
 C                    -2.40815  -0.55321  -1.01606 
 H                    -2.76481  -1.0575   -1.88978 
 H                    -2.76481   0.4556   -1.01593 
 C                    -2.9215   -1.27933   0.24124 
 H                    -2.56484  -0.77505   1.11496 
 H                    -2.56484  -2.28814   0.24112 
 C                    -4.4615   -1.27932   0.24122 
 H                    -4.81816  -1.78361  -0.6325 
 H                    -4.81816  -0.27052   0.24135 
 C                    -4.97486  -2.00544   1.49853 
 H                    -4.6182   -1.50115   2.37225 
 H                    -6.04486  -2.00544   1.49852 
 H                    -4.6182   -3.01425   1.49841 
 

 GradGradGradGradGradGradGradGradGradGradGradGradGradGradGradGradGradGrad
 Berny optimization.
 Initialization pass.
                           ----------------------------
                           !    Initial Parameters    !
                           ! (Angstroms and Degrees)  !
 --------------------------                            --------------------------
 ! Name  Definition              Value          Derivative Info.                !
 --------------------------------------------------------------------------------
 ! R1    R(1,2)                  2.16           estimate D2E/DX2                !
 ! R2    R(1,3)                  1.94           estimate D2E/DX2                !
 ! R3    R(1,7)                  1.94           estimate D2E/DX2                !
 ! R4    R(1,10)                 1.94           estimate D2E/DX2                !
 ! R5    R(3,4)                  1.07           estimate D2E/DX2                !
 ! R6    R(3,5)                  1.07           estimate D2E/DX2                !
 ! R7    R(3,6)                  1.07           estimate D2E/DX2                !
 ! R8    R(7,8)                  1.07           estimate D2E/DX2                !
 ! R9    R(7,9)                  1.07           estimate D2E/DX2                !
 ! R10   R(7,14)                 1.54           estimate D2E/DX2                !
 ! R11   R(10,11)                1.07           estimate D2E/DX2                !
 ! R12   R(10,12)                1.07           estimate D2E/DX2                !
 ! R13   R(10,13)                1.07           estimate D2E/DX2                !
 ! R14   R(14,15)                1.07           estimate D2E/DX2                !
 ! R15   R(14,16)                1.07           estimate D2E/DX2                !
 ! R16   R(14,17)                1.54           estimate D2E/DX2                !
 ! R17   R(17,18)                1.07           estimate D2E/DX2                !
 ! R18   R(17,19)                1.07           estimate D2E/DX2                !
 ! R19   R(17,20)                1.54           estimate D2E/DX2                !
 ! R20   R(20,21)                1.07           estimate D2E/DX2                !
 ! R21   R(20,22)                1.07           estimate D2E/DX2                !
 ! R22   R(20,23)                1.54           estimate D2E/DX2                !
 ! R23   R(23,24)                1.07           estimate D2E/DX2                !
 ! R24   R(23,25)                1.07           estimate D2E/DX2                !
 ! R25   R(23,26)                1.54           estimate D2E/DX2                !
 ! R26   R(26,27)                1.07           estimate D2E/DX2                !
 ! R27   R(26,28)                1.07           estimate D2E/DX2                !
 ! R28   R(26,29)                1.54           estimate D2E/DX2                !
 ! R29   R(29,30)                1.07           estimate D2E/DX2                !
 ! R30   R(29,31)                1.07           estimate D2E/DX2                !
 ! R31   R(29,32)                1.54           estimate D2E/DX2                !
 ! R32   R(32,33)                1.07           estimate D2E/DX2                !
 ! R33   R(32,34)                1.07           estimate D2E/DX2                !
 ! R34   R(32,35)                1.07           estimate D2E/DX2                !
 ! A1    A(2,1,3)              109.4712         estimate D2E/DX2                !
 ! A2    A(2,1,7)              109.4712         estimate D2E/DX2                !
 ! A3    A(2,1,10)             109.4712         estimate D2E/DX2                !
 ! A4    A(3,1,7)              109.4712         estimate D2E/DX2                !
 ! A5    A(3,1,10)             109.4712         estimate D2E/DX2                !
 ! A6    A(7,1,10)             109.4712         estimate D2E/DX2                !
 ! A7    A(1,3,4)              109.4712         estimate D2E/DX2                !
 ! A8    A(1,3,5)              109.4712         estimate D2E/DX2                !
 ! A9    A(1,3,6)              109.4712         estimate D2E/DX2                !
 ! A10   A(4,3,5)              109.4712         estimate D2E/DX2                !
 ! A11   A(4,3,6)              109.4712         estimate D2E/DX2                !
 ! A12   A(5,3,6)              109.4712         estimate D2E/DX2                !
 ! A13   A(1,7,8)              109.4712         estimate D2E/DX2                !
 ! A14   A(1,7,9)              109.4712         estimate D2E/DX2                !
 ! A15   A(1,7,14)             109.4712         estimate D2E/DX2                !
 ! A16   A(8,7,9)              109.4712         estimate D2E/DX2                !
 ! A17   A(8,7,14)             109.4712         estimate D2E/DX2                !
 ! A18   A(9,7,14)             109.4712         estimate D2E/DX2                !
 ! A19   A(1,10,11)            109.4712         estimate D2E/DX2                !
 ! A20   A(1,10,12)            109.4712         estimate D2E/DX2                !
 ! A21   A(1,10,13)            109.4712         estimate D2E/DX2                !
 ! A22   A(11,10,12)           109.4712         estimate D2E/DX2                !
 ! A23   A(11,10,13)           109.4712         estimate D2E/DX2                !
 ! A24   A(12,10,13)           109.4712         estimate D2E/DX2                !
 ! A25   A(7,14,15)            109.4712         estimate D2E/DX2                !
 ! A26   A(7,14,16)            109.4712         estimate D2E/DX2                !
 ! A27   A(7,14,17)            109.4712         estimate D2E/DX2                !
 ! A28   A(15,14,16)           109.4712         estimate D2E/DX2                !
 ! A29   A(15,14,17)           109.4713         estimate D2E/DX2                !
 ! A30   A(16,14,17)           109.4712         estimate D2E/DX2                !
 ! A31   A(14,17,18)           109.4712         estimate D2E/DX2                !
 ! A32   A(14,17,19)           109.4712         estimate D2E/DX2                !
 ! A33   A(14,17,20)           109.4712         estimate D2E/DX2                !
 ! A34   A(18,17,19)           109.4712         estimate D2E/DX2                !
 ! A35   A(18,17,20)           109.4713         estimate D2E/DX2                !
 ! A36   A(19,17,20)           109.4712         estimate D2E/DX2                !
 ! A37   A(17,20,21)           109.4712         estimate D2E/DX2                !
 ! A38   A(17,20,22)           109.4712         estimate D2E/DX2                !
 ! A39   A(17,20,23)           109.4712         estimate D2E/DX2                !
 ! A40   A(21,20,22)           109.4712         estimate D2E/DX2                !
 ! A41   A(21,20,23)           109.4713         estimate D2E/DX2                !
 ! A42   A(22,20,23)           109.4712         estimate D2E/DX2                !
 ! A43   A(20,23,24)           109.4712         estimate D2E/DX2                !
 ! A44   A(20,23,25)           109.4712         estimate D2E/DX2                !
 ! A45   A(20,23,26)           109.4712         estimate D2E/DX2                !
 ! A46   A(24,23,25)           109.4712         estimate D2E/DX2                !
 ! A47   A(24,23,26)           109.4713         estimate D2E/DX2                !
 ! A48   A(25,23,26)           109.4712         estimate D2E/DX2                !
 ! A49   A(23,26,27)           109.4712         estimate D2E/DX2                !
 ! A50   A(23,26,28)           109.4712         estimate D2E/DX2                !
 ! A51   A(23,26,29)           109.4712         estimate D2E/DX2                !
 ! A52   A(27,26,28)           109.4712         estimate D2E/DX2                !
 ! A53   A(27,26,29)           109.4713         estimate D2E/DX2                !
 ! A54   A(28,26,29)           109.4712         estimate D2E/DX2                !
 ! A55   A(26,29,30)           109.4712         estimate D2E/DX2                !
 ! A56   A(26,29,31)           109.4712         estimate D2E/DX2                !
 ! A57   A(26,29,32)           109.4712         estimate D2E/DX2                !
 ! A58   A(30,29,31)           109.4712         estimate D2E/DX2                !
 ! A59   A(30,29,32)           109.4713         estimate D2E/DX2                !
 ! A60   A(31,29,32)           109.4712         estimate D2E/DX2                !
 ! A61   A(29,32,33)           109.4712         estimate D2E/DX2                !
 ! A62   A(29,32,34)           109.4712         estimate D2E/DX2                !
 ! A63   A(29,32,35)           109.4712         estimate D2E/DX2                !
 ! A64   A(33,32,34)           109.4713         estimate D2E/DX2                !
 ! A65   A(33,32,35)           109.4712         estimate D2E/DX2                !
 ! A66   A(34,32,35)           109.4712         estimate D2E/DX2                !
 ! D1    D(2,1,3,4)             60.0            estimate D2E/DX2                !
 ! D2    D(2,1,3,5)            180.0            estimate D2E/DX2                !
 ! D3    D(2,1,3,6)            -60.0            estimate D2E/DX2                !
 ! D4    D(7,1,3,4)            -60.0            estimate D2E/DX2                !
 ! D5    D(7,1,3,5)             60.0            estimate D2E/DX2                !
 ! D6    D(7,1,3,6)            180.0            estimate D2E/DX2                !
 ! D7    D(10,1,3,4)          -180.0            estimate D2E/DX2                !
 ! D8    D(10,1,3,5)           -60.0            estimate D2E/DX2                !
 ! D9    D(10,1,3,6)            60.0            estimate D2E/DX2                !
 ! D10   D(2,1,7,8)             60.0            estimate D2E/DX2                !
 ! D11   D(2,1,7,9)            -60.0            estimate D2E/DX2                !
 ! D12   D(2,1,7,14)          -180.0            estimate D2E/DX2                !
 ! D13   D(3,1,7,8)            180.0            estimate D2E/DX2                !
 ! D14   D(3,1,7,9)             60.0            estimate D2E/DX2                !
 ! D15   D(3,1,7,14)           -60.0            estimate D2E/DX2                !
 ! D16   D(10,1,7,8)           -60.0            estimate D2E/DX2                !
 ! D17   D(10,1,7,9)           180.0            estimate D2E/DX2                !
 ! D18   D(10,1,7,14)           60.0            estimate D2E/DX2                !
 ! D19   D(2,1,10,11)           60.0            estimate D2E/DX2                !
 ! D20   D(2,1,10,12)          180.0            estimate D2E/DX2                !
 ! D21   D(2,1,10,13)          -60.0            estimate D2E/DX2                !
 ! D22   D(3,1,10,11)          -60.0            estimate D2E/DX2                !
 ! D23   D(3,1,10,12)           60.0            estimate D2E/DX2                !
 ! D24   D(3,1,10,13)          180.0            estimate D2E/DX2                !
 ! D25   D(7,1,10,11)         -180.0            estimate D2E/DX2                !
 ! D26   D(7,1,10,12)          -60.0            estimate D2E/DX2                !
 ! D27   D(7,1,10,13)           60.0            estimate D2E/DX2                !
 ! D28   D(1,7,14,15)           60.0001         estimate D2E/DX2                !
 ! D29   D(1,7,14,16)          -59.9999         estimate D2E/DX2                !
 ! D30   D(1,7,14,17)         -179.9999         estimate D2E/DX2                !
 ! D31   D(8,7,14,15)         -179.9999         estimate D2E/DX2                !
 ! D32   D(8,7,14,16)           60.0001         estimate D2E/DX2                !
 ! D33   D(8,7,14,17)          -59.9999         estimate D2E/DX2                !
 ! D34   D(9,7,14,15)          -59.9999         estimate D2E/DX2                !
 ! D35   D(9,7,14,16)         -179.9999         estimate D2E/DX2                !
 ! D36   D(9,7,14,17)           60.0001         estimate D2E/DX2                !
 ! D37   D(7,14,17,18)          60.0            estimate D2E/DX2                !
 ! D38   D(7,14,17,19)         -59.9999         estimate D2E/DX2                !
 ! D39   D(7,14,17,20)        -179.9999         estimate D2E/DX2                !
 ! D40   D(15,14,17,18)       -180.0            estimate D2E/DX2                !
 ! D41   D(15,14,17,19)         60.0            estimate D2E/DX2                !
 ! D42   D(15,14,17,20)        -60.0            estimate D2E/DX2                !
 ! D43   D(16,14,17,18)        -60.0            estimate D2E/DX2                !
 ! D44   D(16,14,17,19)       -179.9999         estimate D2E/DX2                !
 ! D45   D(16,14,17,20)         60.0001         estimate D2E/DX2                !
 ! D46   D(14,17,20,21)         60.0001         estimate D2E/DX2                !
 ! D47   D(14,17,20,22)        -59.9999         estimate D2E/DX2                !
 ! D48   D(14,17,20,23)       -179.9999         estimate D2E/DX2                !
 ! D49   D(18,17,20,21)       -179.9999         estimate D2E/DX2                !
 ! D50   D(18,17,20,22)         60.0001         estimate D2E/DX2                !
 ! D51   D(18,17,20,23)        -59.9999         estimate D2E/DX2                !
 ! D52   D(19,17,20,21)        -59.9999         estimate D2E/DX2                !
 ! D53   D(19,17,20,22)       -179.9999         estimate D2E/DX2                !
 ! D54   D(19,17,20,23)         60.0001         estimate D2E/DX2                !
 ! D55   D(17,20,23,24)         60.0001         estimate D2E/DX2                !
 ! D56   D(17,20,23,25)        -59.9999         estimate D2E/DX2                !
 ! D57   D(17,20,23,26)       -179.9999         estimate D2E/DX2                !
 ! D58   D(21,20,23,24)       -179.9999         estimate D2E/DX2                !
 ! D59   D(21,20,23,25)         60.0001         estimate D2E/DX2                !
 ! D60   D(21,20,23,26)        -59.9999         estimate D2E/DX2                !
 ! D61   D(22,20,23,24)        -59.9999         estimate D2E/DX2                !
 ! D62   D(22,20,23,25)       -179.9999         estimate D2E/DX2                !
 ! D63   D(22,20,23,26)         60.0001         estimate D2E/DX2                !
 ! D64   D(20,23,26,27)         60.0001         estimate D2E/DX2                !
 ! D65   D(20,23,26,28)        -59.9999         estimate D2E/DX2                !
 ! D66   D(20,23,26,29)       -179.9999         estimate D2E/DX2                !
 ! D67   D(24,23,26,27)       -179.9999         estimate D2E/DX2                !
 ! D68   D(24,23,26,28)         60.0001         estimate D2E/DX2                !
 ! D69   D(24,23,26,29)        -59.9999         estimate D2E/DX2                !
 ! D70   D(25,23,26,27)        -59.9999         estimate D2E/DX2                !
 ! D71   D(25,23,26,28)       -179.9999         estimate D2E/DX2                !
 ! D72   D(25,23,26,29)         60.0001         estimate D2E/DX2                !
 ! D73   D(23,26,29,30)         60.0001         estimate D2E/DX2                !
 ! D74   D(23,26,29,31)        -59.9999         estimate D2E/DX2                !
 ! D75   D(23,26,29,32)       -179.9999         estimate D2E/DX2                !
 ! D76   D(27,26,29,30)       -179.9999         estimate D2E/DX2                !
 ! D77   D(27,26,29,31)         60.0001         estimate D2E/DX2                !
 ! D78   D(27,26,29,32)        -59.9999         estimate D2E/DX2                !
 ! D79   D(28,26,29,30)        -59.9999         estimate D2E/DX2                !
 ! D80   D(28,26,29,31)       -179.9999         estimate D2E/DX2                !
 ! D81   D(28,26,29,32)         60.0001         estimate D2E/DX2                !
 ! D82   D(26,29,32,33)         60.0001         estimate D2E/DX2                !
 ! D83   D(26,29,32,34)       -179.9999         estimate D2E/DX2                !
 ! D84   D(26,29,32,35)        -59.9999         estimate D2E/DX2                !
 ! D85   D(30,29,32,33)       -179.9999         estimate D2E/DX2                !
 ! D86   D(30,29,32,34)        -59.9999         estimate D2E/DX2                !
 ! D87   D(30,29,32,35)         60.0001         estimate D2E/DX2                !
 ! D88   D(31,29,32,33)        -59.9999         estimate D2E/DX2                !
 ! D89   D(31,29,32,34)         60.0001         estimate D2E/DX2                !
 ! D90   D(31,29,32,35)       -179.9999         estimate D2E/DX2                !
 --------------------------------------------------------------------------------
 Trust Radius=3.00D-01 FncErr=1.00D-07 GrdErr=1.00D-06
 Number of steps in this run=    200 maximum allowed number of steps=    210.
 GradGradGradGradGradGradGradGradGradGradGradGradGradGradGradGradGradGrad

                          Input orientation:                          
 ---------------------------------------------------------------------
 Center     Atomic      Atomic             Coordinates (Angstroms)
 Number     Number       Type             X           Y           Z
 ---------------------------------------------------------------------
      1         14           0        3.638556    0.898987   -3.530614
      2         17           0        4.358585    1.917448   -5.294104
      3          6           0        4.285218    1.813293   -1.946482
      4          1           0        3.928563    2.822103   -1.946351
      5          1           0        3.928537    1.308777   -1.072902
      6          1           0        5.355218    1.813281   -1.946472
      7          6           0        1.698556    0.899009   -3.530633
      8          1           0        1.341893    0.394726   -4.404355
      9          1           0        1.341901    1.907818   -3.530501
     10          6           0        4.285203   -0.930070   -3.530852
     11          1           0        5.355203   -0.930082   -3.530842
     12          1           0        3.928522   -1.434585   -2.657272
     13          1           0        3.928539   -1.434352   -4.404574
     14          6           0        1.185203    0.172883   -2.273330
     15          1           0        1.541866    0.677166   -1.399608
     16          1           0        1.541859   -0.835926   -2.273460
     17          6           0       -0.354797    0.172899   -2.273346
     18          1           0       -0.711459   -0.331385   -3.147068
     19          1           0       -0.711454    1.181708   -2.273217
     20          6           0       -0.868151   -0.553225   -1.016043
     21          1           0       -0.511490   -0.048939   -0.142321
     22          1           0       -0.511492   -1.562034   -1.016171
     23          6           0       -2.408151   -0.553212   -1.016061
     24          1           0       -2.764811   -1.057499   -1.889782
     25          1           0       -2.764809    0.455596   -1.015934
     26          6           0       -2.921504   -1.279334    0.241244
     27          1           0       -2.564845   -0.775046    1.114965
     28          1           0       -2.564844   -2.288142    0.241119
     29          6           0       -4.461504   -1.279324    0.241225
     30          1           0       -4.818163   -1.783613   -0.632495
     31          1           0       -4.818164   -0.270516    0.241349
     32          6           0       -4.974858   -2.005443    1.498531
     33          1           0       -4.618200   -1.501152    2.372250
     34          1           0       -6.044858   -2.005437    1.498517
     35          1           0       -4.618197   -3.014251    1.498408
 ---------------------------------------------------------------------
                    Distance matrix (angstroms):
                    1          2          3          4          5
     1  Si   0.000000
     2  Cl   2.160000   0.000000
     3  C    1.940000   3.350045   0.000000
     4  H    2.508459   3.494391   1.070000   0.000000
     5  H    2.508459   4.286487   1.070000   1.747303   0.000000
     6  H    2.508459   3.494391   1.070000   1.747303   1.747303
     7  C    1.940000   3.350045   3.168007   3.343825   3.343825
     8  H    2.508459   3.494391   4.088598   4.315646   4.315646
     9  H    2.508459   3.494391   3.343825   3.168007   3.617918
    10  C    1.940000   3.350045   3.168007   4.088598   3.343825
    11  H    2.508459   3.494391   3.343825   4.315646   3.617918
    12  H    2.508459   4.286487   3.343825   4.315646   3.168007
    13  H    2.508459   3.494391   4.088598   4.915309   4.315646
    14  C    2.850778   4.715817   3.522480   3.827702   3.202681
    15  H    2.997750   4.963799   3.019244   3.255150   2.490355
    16  H    2.997749   4.963799   3.827701   4.380014   3.425978
    17  C    4.249094   5.863821   4.932289   5.047017   4.591104
    18  H    4.536911   5.947467   5.568468   5.737247   5.340587
    19  H    4.536912   5.947467   5.047017   4.932290   4.794415
    20  C    5.361194   7.191995   5.746593   5.938583   5.145726
    21  H    5.440770   7.356981   5.452642   5.586723   4.735316
    22  H    5.440767   7.356980   5.938580   6.308722   5.287593
    23  C    6.707796   8.378217   7.160113   7.239622   6.604835
    24  H    6.893713   8.436971   7.612330   7.736650   7.146150
    25  H    6.893715   8.436972   7.239623   7.160116   6.747744
    26  C    7.874414   9.688095   8.141703   8.278331   7.439648
    27  H    7.928806   9.811195   7.936959   8.029662   7.161919
    28  H    7.928804   9.811195   8.278328   8.547746   7.538467
    29  C    9.196890  10.892804   9.531815   9.591684   8.877950
    30  H    9.333356  10.938059   9.876023   9.972163   9.287712
    31  H    9.333358  10.938059   9.591685   9.531818   8.984776
    32  C   10.388403  12.191887  10.592444  10.697818   9.842092
    33  H   10.429693  12.289934  10.435892  10.506569   9.633872
    34  H   11.291428  13.029211  11.539549  11.603507  10.819650
    35  H   10.429691  12.289934  10.697814  10.907634   9.916999
                    6          7          8          9         10
     6  H    0.000000
     7  C    4.088598   0.000000
     8  H    4.915309   1.070000   0.000000
     9  H    4.315646   1.070000   1.747303   0.000000
    10  C    3.343825   3.168007   3.343825   4.088598   0.000000
    11  H    3.168007   4.088598   4.315646   4.915309   1.070000
    12  H    3.617918   3.343825   3.617918   4.315646   1.070000
    13  H    4.315646   3.343825   3.168007   4.315646   1.070000
    14  C    4.492969   1.540000   2.148263   2.148263   3.522480
    15  H    4.016400   2.148263   3.024610   2.468845   3.827703
    16  H    4.654774   2.148263   2.468847   3.024610   3.019243
    17  C    5.949956   2.514809   2.732977   2.732978   4.932287
    18  H    6.545655   2.732977   2.514808   3.062244   5.047013
    19  H    6.108204   2.732977   3.062241   2.514809   5.568467
    20  C    6.722824   3.875581   4.154944   4.154945   5.746593
    21  H    6.414131   4.154944   4.668704   4.329402   5.938585
    22  H    6.832020   4.154944   4.329404   4.668704   5.452640
    23  C    8.169201   5.029618   5.142174   5.142176   7.160110
    24  H    8.612750   5.142175   5.029617   5.324486   7.239616
    25  H    8.285171   5.142174   5.324481   5.029619   7.612329
    26  C    9.102445   6.349582   6.523850   6.523851   8.141703
    27  H    8.876893   6.523850   6.862496   6.636322   8.278333
    28  H    9.183388   6.523850   6.636324   6.862497   7.936956
    29  C   10.522274   7.544428   7.619926   7.619928   9.531811
    30  H   10.870228   7.619927   7.544426   7.744126   9.591677
    31  H   10.612562   7.619926   7.744121   7.544428   9.876022
    32  C   11.539548   8.846626   8.972525   8.972526  10.592443
    33  H   11.362477   8.972525   9.221683   9.054632  10.697819
    34  H   12.506490   9.679288   9.755448   9.755450  11.539546
    35  H   11.603502   8.972526   9.054634   9.221684  10.435889
                   11         12         13         14         15
    11  H    0.000000
    12  H    1.747303   0.000000
    13  H    1.747303   1.747303   0.000000
    14  C    4.492969   3.202681   3.827702   0.000000
    15  H    4.654776   3.425980   4.380016   1.070000   0.000000
    16  H    4.016399   2.490354   3.255150   1.070000   1.747303
    17  C    5.949955   4.591103   5.047014   1.540000   2.148263
    18  H    6.108200   4.794411   4.932286   2.148263   3.024610
    19  H    6.545655   5.340587   5.737246   2.148263   2.468847
    20  C    6.722824   5.145726   5.938582   2.514809   2.732977
    21  H    6.832025   5.287598   6.308726   2.732978   2.514810
    22  H    6.414128   4.735312   5.586721   2.732976   3.062241
    23  C    8.169199   6.604832   7.239618   3.875581   4.154945
    24  H    8.285163   6.747736   7.160107   4.154944   4.668704
    25  H    8.612750   7.146150   7.736646   4.154945   4.329405
    26  C    9.102444   7.439648   8.278330   5.029618   5.142175
    27  H    9.183393   7.538473   8.547750   5.142175   5.029619
    28  H    8.876889   7.161915   8.029660   5.142174   5.324482
    29  C   10.522271   8.877946   9.591679   6.349582   6.523851
    30  H   10.612554   8.984767   9.531808   6.523850   6.862497
    31  H   10.870227   9.287711   9.972158   6.523851   6.636326
    32  C   11.539547   9.842090  10.697816   7.544428   7.619927
    33  H   11.603507   9.917004  10.907637   7.619927   7.544428
    34  H   12.506487  10.819647  11.603502   8.440716   8.553003
    35  H   11.362474   9.633868  10.506568   7.619926   7.744122
                   16         17         18         19         20
    16  H    0.000000
    17  C    2.148263   0.000000
    18  H    2.468845   1.070000   0.000000
    19  H    3.024610   1.070000   1.747303   0.000000
    20  C    2.732978   1.540000   2.148263   2.148263   0.000000
    21  H    3.062245   2.148263   3.024610   2.468845   1.070000
    22  H    2.514809   2.148263   2.468847   3.024610   1.070000
    23  C    4.154944   2.514809   2.732977   2.732978   1.540000
    24  H    4.329401   2.732978   2.514809   3.062245   2.148263
    25  H    4.668704   2.732977   3.062241   2.514809   2.148263
    26  C    5.142175   3.875581   4.154945   4.154945   2.514809
    27  H    5.324486   4.154944   4.668704   4.329401   2.732978
    28  H    5.029618   4.154945   4.329405   4.668704   2.732977
    29  C    6.523850   5.029618   5.142174   5.142176   3.875581
    30  H    6.636321   5.142175   5.029618   5.324486   4.154944
    31  H    6.862496   5.142174   5.324481   5.029619   4.154945
    32  C    7.619927   6.349582   6.523851   6.523851   5.029618
    33  H    7.744126   6.523850   6.862496   6.636322   5.142175
    34  H    8.553002   7.165814   7.268359   7.268361   5.935506
    35  H    7.544427   6.523851   6.636325   6.862497   5.142174
                   21         22         23         24         25
    21  H    0.000000
    22  H    1.747303   0.000000
    23  C    2.148263   2.148263   0.000000
    24  H    3.024610   2.468845   1.070000   0.000000
    25  H    2.468847   3.024610   1.070000   1.747303   0.000000
    26  C    2.732977   2.732978   1.540000   2.148263   2.148263
    27  H    2.514809   3.062245   2.148263   3.024610   2.468845
    28  H    3.062241   2.514809   2.148263   2.468847   3.024610
    29  C    4.154945   4.154944   2.514809   2.732977   2.732978
    30  H    4.668704   4.329401   2.732978   2.514809   3.062245
    31  H    4.329405   4.668704   2.732977   3.062241   2.514809
    32  C    5.142174   5.142175   3.875581   4.154945   4.154944
    33  H    5.029618   5.324486   4.154944   4.668704   4.329401
    34  H    6.094128   6.094128   4.653783   4.810183   4.810184
    35  H    5.324482   5.029618   4.154945   4.329405   4.668704
                   26         27         28         29         30
    26  C    0.000000
    27  H    1.070000   0.000000
    28  H    1.070000   1.747303   0.000000
    29  C    1.540000   2.148263   2.148263   0.000000
    30  H    2.148263   3.024610   2.468845   1.070000   0.000000
    31  H    2.148263   2.468847   3.024610   1.070000   1.747303
    32  C    2.514809   2.732977   2.732978   1.540000   2.148263
    33  H    2.732978   2.514809   3.062245   2.148263   3.024610
    34  H    3.444314   3.710993   3.710992   2.148263   2.468846
    35  H    2.732977   3.062241   2.514809   2.148263   2.468847
                   31         32         33         34         35
    31  H    0.000000
    32  C    2.148263   0.000000
    33  H    2.468845   1.070000   0.000000
    34  H    2.468846   1.070000   1.747303   0.000000
    35  H    3.024610   1.070000   1.747303   1.747303   0.000000
 Stoichiometry    C10H23ClSi
 Framework group  C1[X(C10H23ClSi)]
 Deg. of freedom    99
 Full point group                 C1      NOp   1
 Largest Abelian subgroup         C1      NOp   1
 Largest concise Abelian subgroup C1      NOp   1
                         Standard orientation:                         
 ---------------------------------------------------------------------
 Center     Atomic      Atomic             Coordinates (Angstroms)
 Number     Number       Type             X           Y           Z
 ---------------------------------------------------------------------
      1         14           0        3.208046    0.263211    0.000001
      2         17           0        4.923006   -1.049996   -0.000002
      3          6           0        3.250618    1.382465   -1.584000
      4          1           0        3.227139    0.765149   -2.457653
      5          1           0        2.401078    2.032989   -1.583998
      6          1           0        4.147118    1.966578   -1.583998
      7          6           0        1.582617   -0.795835   -0.000003
      8          1           0        1.559136   -1.413156    0.873647
      9          1           0        1.559137   -1.413151   -0.873656
     10          6           0        3.250616    1.382457    1.584007
     11          1           0        4.147116    1.966570    1.584009
     12          1           0        2.401076    2.032981    1.584008
     13          1           0        3.227136    0.765136    2.457657
     14          6           0        0.359914    0.140433   -0.000001
     15          1           0        0.383394    0.757753   -0.873652
     16          1           0        0.383394    0.757750    0.873651
     17          6           0       -0.930375   -0.700253   -0.000002
     18          1           0       -0.953855   -1.317572    0.873649
     19          1           0       -0.953855   -1.317571   -0.873654
     20          6           0       -2.153078    0.236015   -0.000002
     21          1           0       -2.129599    0.853332   -0.873654
     22          1           0       -2.129598    0.853334    0.873649
     23          6           0       -3.443368   -0.604671    0.000001
     24          1           0       -3.466847   -1.221988    0.873654
     25          1           0       -3.466848   -1.221992   -0.873649
     26          6           0       -4.666070    0.331597   -0.000001
     27          1           0       -4.642591    0.948911   -0.873655
     28          1           0       -4.642590    0.948919    0.873647
     29          6           0       -5.956360   -0.509090    0.000004
     30          1           0       -5.979839   -1.126403    0.873659
     31          1           0       -5.979840   -1.126413   -0.873644
     32          6           0       -7.179062    0.427178   -0.000001
     33          1           0       -7.155583    1.044491   -0.873657
     34          1           0       -8.075562   -0.156935    0.000004
     35          1           0       -7.155582    1.044503    0.873646
 ---------------------------------------------------------------------
 Rotational constants (GHZ):      2.0788713      0.1480006      0.1457187
 Standard basis: 6-311+G(d,p) (5D, 7F)
 There are   430 symmetry adapted cartesian basis functions of A   symmetry.
 There are   418 symmetry adapted basis functions of A   symmetry.
   418 basis functions,   647 primitive gaussians,   430 cartesian basis functions
    57 alpha electrons       57 beta electrons
       nuclear repulsion energy       867.9074562315 Hartrees.
 NAtoms=   35 NActive=   35 NUniq=   35 SFac= 1.00D+00 NAtFMM=   60 NAOKFM=F Big=F
 Integral buffers will be    131072 words long.
 Raffenetti 2 integral format.
 Two-electron integral symmetry is turned on.
 One-electron integrals computed using PRISM.
 NBasis=   418 RedAO= T EigKep=  3.87D-06  NBF=   418
 NBsUse=   418 1.00D-06 EigRej= -1.00D+00 NBFU=   418
 ExpMin= 3.31D-02 ExpMax= 1.06D+05 ExpMxC= 3.62D+03 IAcc=3 IRadAn=         5 AccDes= 0.00D+00
 Harris functional with IExCor=  402 and IRadAn=       5 diagonalized for initial guess.
 HarFok:  IExCor=  402 AccDes= 0.00D+00 IRadAn=         5 IDoV= 1 UseB2=F ITyADJ=14
 ICtDFT=  3500011 ScaDFX=  1.000000  1.000000  1.000000  1.000000
 FoFCou: FMM=F IPFlag=           0 FMFlag=      100000 FMFlg1=           0
         NFxFlg=           0 DoJE=T BraDBF=F KetDBF=T FulRan=T
         wScrn=  0.000000 ICntrl=     500 IOpCl=  0 I1Cent=   200000004 NGrid=           0
         NMat0=    1 NMatS0=      1 NMatT0=    0 NMatD0=    1 NMtDS0=    0 NMtDT0=    0
 Petite list used in FoFCou.
 Requested convergence on RMS density matrix=1.00D-08 within 128 cycles.
 Requested convergence on MAX density matrix=1.00D-06.
 Requested convergence on             energy=1.00D-06.
 No special actions if energy rises.
 SCF Done:  E(RB3LYP) =  -1144.86367888     A.U. after   12 cycles
            NFock= 12  Conv=0.63D-08     -V/T= 2.0028

 **********************************************************************

            Population analysis using the SCF density.

 **********************************************************************

 Orbital symmetries:
       Occupied  (A) (A) (A) (A) (A) (A) (A) (A) (A) (A) (A) (A)
                 (A) (A) (A) (A) (A) (A) (A) (A) (A) (A) (A) (A)
                 (A) (A) (A) (A) (A) (A) (A) (A) (A) (A) (A) (A)
                 (A) (A) (A) (A) (A) (A) (A) (A) (A) (A) (A) (A)
                 (A) (A) (A) (A) (A) (A) (A) (A) (A)
       Virtual   (A) (A) (A) (A) (A) (A) (A) (A) (A) (A) (A) (A)
                 (A) (A) (A) (A) (A) (A) (A) (A) (A) (A) (A) (A)
                 (A) (A) (A) (A) (A) (A) (A) (A) (A) (A) (A) (A)
                 (A) (A) (A) (A) (A) (A) (A) (A) (A) (A) (A) (A)
                 (A) (A) (A) (A) (A) (A) (A) (A) (A) (A) (A) (A)
                 (A) (A) (A) (A) (A) (A) (A) (A) (A) (A) (A) (A)
                 (A) (A) (A) (A) (A) (A) (A) (A) (A) (A) (A) (A)
                 (A) (A) (A) (A) (A) (A) (A) (A) (A) (A) (A) (A)
                 (A) (A) (A) (A) (A) (A) (A) (A) (A) (A) (A) (A)
                 (A) (A) (A) (A) (A) (A) (A) (A) (A) (A) (A) (A)
                 (A) (A) (A) (A) (A) (A) (A) (A) (A) (A) (A) (A)
                 (A) (A) (A) (A) (A) (A) (A) (A) (A) (A) (A) (A)
                 (A) (A) (A) (A) (A) (A) (A) (A) (A) (A) (A) (A)
                 (A) (A) (A) (A) (A) (A) (A) (A) (A) (A) (A) (A)
                 (A) (A) (A) (A) (A) (A) (A) (A) (A) (A) (A) (A)
                 (A) (A) (A) (A) (A) (A) (A) (A) (A) (A) (A) (A)
                 (A) (A) (A) (A) (A) (A) (A) (A) (A) (A) (A) (A)
                 (A) (A) (A) (A) (A) (A) (A) (A) (A) (A) (A) (A)
                 (A) (A) (A) (A) (A) (A) (A) (A) (A) (A) (A) (A)
                 (A) (A) (A) (A) (A) (A) (A) (A) (A) (A) (A) (A)
                 (A) (A) (A) (A) (A) (A) (A) (A) (A) (A) (A) (A)
                 (A) (A) (A) (A) (A) (A) (A) (A) (A) (A) (A) (A)
                 (A) (A) (A) (A) (A) (A) (A) (A) (A) (A) (A) (A)
                 (A) (A) (A) (A) (A) (A) (A) (A) (A) (A) (A) (A)
                 (A) (A) (A) (A) (A) (A) (A) (A) (A) (A) (A) (A)
                 (A) (A) (A) (A) (A) (A) (A) (A) (A) (A) (A) (A)
                 (A) (A) (A) (A) (A) (A) (A) (A) (A) (A) (A) (A)
                 (A) (A) (A) (A) (A) (A) (A) (A) (A) (A) (A) (A)
                 (A) (A) (A) (A) (A) (A) (A) (A) (A) (A) (A) (A)
                 (A) (A) (A) (A) (A) (A) (A) (A) (A) (A) (A) (A)
                 (A)
 The electronic state is 1-A.
 Alpha  occ. eigenvalues -- -101.52631 -66.13288 -10.17013 -10.16154 -10.15927
 Alpha  occ. eigenvalues --  -10.15887 -10.15751 -10.15718 -10.15636 -10.15621
 Alpha  occ. eigenvalues --  -10.15621 -10.14878  -9.44067  -7.20275  -7.19673
 Alpha  occ. eigenvalues --   -7.19670  -5.30016  -3.66122  -3.65712  -3.65683
 Alpha  occ. eigenvalues --   -0.82148  -0.80554  -0.79652  -0.75807  -0.71835
 Alpha  occ. eigenvalues --   -0.70169  -0.69741  -0.64713  -0.60266  -0.59121
 Alpha  occ. eigenvalues --   -0.58483  -0.50196  -0.48440  -0.48130  -0.44933
 Alpha  occ. eigenvalues --   -0.43906  -0.43291  -0.42646  -0.41755  -0.41676
 Alpha  occ. eigenvalues --   -0.41376  -0.40451  -0.40014  -0.37985  -0.37515
 Alpha  occ. eigenvalues --   -0.36564  -0.35257  -0.34870  -0.34503  -0.34276
 Alpha  occ. eigenvalues --   -0.33887  -0.33510  -0.33211  -0.32690  -0.30428
 Alpha  occ. eigenvalues --   -0.29432  -0.27241
 Alpha virt. eigenvalues --   -0.01170   0.00661   0.01062   0.01076   0.01484
 Alpha virt. eigenvalues --    0.02063   0.02622   0.02763   0.03550   0.04476
 Alpha virt. eigenvalues --    0.04490   0.04869   0.05431   0.05441   0.06115
 Alpha virt. eigenvalues --    0.06611   0.06746   0.06986   0.07393   0.07555
 Alpha virt. eigenvalues --    0.08616   0.08743   0.09067   0.09192   0.09613
 Alpha virt. eigenvalues --    0.09828   0.10219   0.10429   0.10509   0.11211
 Alpha virt. eigenvalues --    0.11508   0.11546   0.11857   0.12404   0.13803
 Alpha virt. eigenvalues --    0.14297   0.14299   0.14667   0.15007   0.15398
 Alpha virt. eigenvalues --    0.15797   0.16156   0.16324   0.16584   0.16877
 Alpha virt. eigenvalues --    0.17884   0.18306   0.18832   0.18936   0.19587
 Alpha virt. eigenvalues --    0.20081   0.20597   0.20745   0.21240   0.21592
 Alpha virt. eigenvalues --    0.21649   0.21983   0.22309   0.23176   0.23756
 Alpha virt. eigenvalues --    0.23891   0.24313   0.24426   0.24745   0.25632
 Alpha virt. eigenvalues --    0.25736   0.26209   0.27151   0.27537   0.28489
 Alpha virt. eigenvalues --    0.29560   0.29738   0.30033   0.30370   0.31225
 Alpha virt. eigenvalues --    0.31565   0.32375   0.32544   0.33816   0.33922
 Alpha virt. eigenvalues --    0.35362   0.35797   0.36349   0.36579   0.36764
 Alpha virt. eigenvalues --    0.39853   0.40081   0.40346   0.41093   0.42462
 Alpha virt. eigenvalues --    0.44899   0.45379   0.47010   0.47184   0.49435
 Alpha virt. eigenvalues --    0.49495   0.50657   0.51301   0.52985   0.53183
 Alpha virt. eigenvalues --    0.53767   0.53890   0.54332   0.54760   0.55001
 Alpha virt. eigenvalues --    0.56404   0.57411   0.59049   0.60064   0.60368
 Alpha virt. eigenvalues --    0.61873   0.62250   0.63524   0.63591   0.64419
 Alpha virt. eigenvalues --    0.64692   0.65531   0.65907   0.66247   0.66572
 Alpha virt. eigenvalues --    0.67169   0.67231   0.68607   0.68994   0.69286
 Alpha virt. eigenvalues --    0.69565   0.69699   0.70348   0.71312   0.71560
 Alpha virt. eigenvalues --    0.72331   0.74548   0.74639   0.75528   0.75851
 Alpha virt. eigenvalues --    0.76565   0.77455   0.78018   0.78445   0.78593
 Alpha virt. eigenvalues --    0.79399   0.79889   0.80103   0.80636   0.81893
 Alpha virt. eigenvalues --    0.83086   0.87083   0.87706   0.89467   0.90630
 Alpha virt. eigenvalues --    0.91986   0.92560   0.92997   0.95529   0.95591
 Alpha virt. eigenvalues --    0.96728   0.99220   1.00051   1.01106   1.01840
 Alpha virt. eigenvalues --    1.02496   1.04088   1.05644   1.08189   1.10632
 Alpha virt. eigenvalues --    1.10957   1.14061   1.17177   1.18048   1.23084
 Alpha virt. eigenvalues --    1.24468   1.24609   1.25991   1.26355   1.27070
 Alpha virt. eigenvalues --    1.27333   1.27446   1.28258   1.31792   1.42100
 Alpha virt. eigenvalues --    1.43712   1.44501   1.45803   1.46324   1.46580
 Alpha virt. eigenvalues --    1.47368   1.48922   1.50401   1.51999   1.53342
 Alpha virt. eigenvalues --    1.53867   1.54026   1.55192   1.56268   1.56685
 Alpha virt. eigenvalues --    1.57535   1.58120   1.59247   1.59894   1.60488
 Alpha virt. eigenvalues --    1.61125   1.62281   1.62379   1.63677   1.64637
 Alpha virt. eigenvalues --    1.65672   1.66066   1.66912   1.67167   1.68995
 Alpha virt. eigenvalues --    1.71100   1.72196   1.72401   1.73356   1.74176
 Alpha virt. eigenvalues --    1.74754   1.75069   1.75135   1.75341   1.76640
 Alpha virt. eigenvalues --    1.76736   1.77693   1.79205   1.79743   1.80099
 Alpha virt. eigenvalues --    1.83854   1.84712   1.85094   1.88231   1.90168
 Alpha virt. eigenvalues --    1.92434   1.93386   1.99585   2.01235   2.02924
 Alpha virt. eigenvalues --    2.04039   2.04496   2.06485   2.06751   2.12779
 Alpha virt. eigenvalues --    2.12899   2.15816   2.17898   2.18953   2.19247
 Alpha virt. eigenvalues --    2.20044   2.20565   2.22138   2.24281   2.24356
 Alpha virt. eigenvalues --    2.24873   2.27131   2.29797   2.30830   2.32533
 Alpha virt. eigenvalues --    2.32543   2.34459   2.36682   2.38068   2.38072
 Alpha virt. eigenvalues --    2.40732   2.42724   2.43752   2.44407   2.44460
 Alpha virt. eigenvalues --    2.47288   2.49392   2.50860   2.50915   2.51041
 Alpha virt. eigenvalues --    2.52316   2.53572   2.53962   2.54820   2.54923
 Alpha virt. eigenvalues --    2.56710   2.58231   2.59139   2.59492   2.59923
 Alpha virt. eigenvalues --    2.60874   2.61186   2.61884   2.62294   2.63336
 Alpha virt. eigenvalues --    2.64276   2.65420   2.66619   2.66805   2.67015
 Alpha virt. eigenvalues --    2.68914   2.69101   2.69519   2.70979   2.72235
 Alpha virt. eigenvalues --    2.74419   2.75490   2.75704   2.76791   2.80655
 Alpha virt. eigenvalues --    2.83613   2.83986   2.84078   2.88700   2.90865
 Alpha virt. eigenvalues --    2.91970   2.92477   2.93772   2.94116   2.97758
 Alpha virt. eigenvalues --    2.99824   3.02487   3.03631   3.05957   3.08387
 Alpha virt. eigenvalues --    3.16603   3.20082   3.24859   3.33111   3.39746
 Alpha virt. eigenvalues --    3.43912   3.77594   3.78043   3.81052   3.81784
 Alpha virt. eigenvalues --    3.82016   3.84389   3.86469   3.87251   3.87435
 Alpha virt. eigenvalues --    3.90035   3.91220   3.92519   3.94354   4.11757
 Alpha virt. eigenvalues --    4.13398   4.16604   4.22023   4.27176   4.32002
 Alpha virt. eigenvalues --    4.33107   5.70309   9.78347  11.44876  11.45317
 Alpha virt. eigenvalues --   11.48114  23.90393  23.91072  23.92126  23.93752
 Alpha virt. eigenvalues --   23.95417  23.97004  23.97478  23.99311  24.01285
 Alpha virt. eigenvalues --   24.03711  25.95567  25.98323  26.36235 141.12347
 Alpha virt. eigenvalues --  215.78411
          Condensed to atoms (all electrons):
               1          2          3          4          5          6
     1  Si  12.583544   0.442464   0.041784  -0.023514   0.053460  -0.017531
     2  Cl   0.442464  17.148356  -0.118831   0.000738   0.007061  -0.002957
     3  C    0.041784  -0.118831   5.942822   0.373934   0.318515   0.377955
     4  H   -0.023514   0.000738   0.373934   0.496697  -0.017795  -0.015278
     5  H    0.053460   0.007061   0.318515  -0.017795   0.523646  -0.018995
     6  H   -0.017531  -0.002957   0.377955  -0.015278  -0.018995   0.498336
     7  C    0.106653   0.164733  -0.159372   0.022182  -0.016012   0.006794
     8  H   -0.006910   0.004483   0.009566  -0.000133  -0.000111  -0.000085
     9  H   -0.006910   0.004483  -0.012300   0.000874   0.000527  -0.000158
    10  C    0.041784  -0.118830  -0.123299   0.015059  -0.009543  -0.008105
    11  H   -0.017531  -0.002957  -0.008105  -0.000081   0.000224   0.001129
    12  H    0.053461   0.007061  -0.009543  -0.000053   0.000345   0.000224
    13  H   -0.023514   0.000738   0.015059  -0.000172  -0.000053  -0.000081
    14  C    0.354082  -0.199510   0.046374  -0.022180   0.010091   0.006238
    15  H    0.008670   0.000382   0.002684  -0.000355   0.001117   0.000169
    16  H    0.008670   0.000382  -0.006927   0.000140  -0.000030  -0.000053
    17  C   -0.298982  -0.085415   0.058489  -0.004613  -0.008300  -0.001485
    18  H    0.006208   0.000012  -0.000968   0.000004   0.000005   0.000002
    19  H    0.006208   0.000012  -0.000596   0.000004   0.000021   0.000000
    20  C   -0.175426  -0.023073   0.000167  -0.002654  -0.006586   0.000720
    21  H    0.002170   0.000005  -0.000670   0.000006   0.000004   0.000001
    22  H    0.002170   0.000005   0.000134  -0.000001   0.000007   0.000000
    23  C   -0.046007  -0.002717   0.001610  -0.000128  -0.000693  -0.000007
    24  H    0.000092   0.000001  -0.000012   0.000000   0.000000   0.000000
    25  H    0.000092   0.000001   0.000005   0.000000   0.000000   0.000000
    26  C   -0.018111  -0.000278   0.000034  -0.000025  -0.000216   0.000003
    27  H    0.000015   0.000000   0.000004   0.000000   0.000000   0.000000
    28  H    0.000015   0.000000  -0.000002   0.000000   0.000000   0.000000
    29  C   -0.000761  -0.000003  -0.000019   0.000000  -0.000002   0.000000
    30  H   -0.000003   0.000000   0.000000   0.000000   0.000000   0.000000
    31  H   -0.000003   0.000000   0.000000   0.000000   0.000000   0.000000
    32  C   -0.000171   0.000000   0.000001   0.000000   0.000000   0.000000
    33  H    0.000000   0.000000   0.000000   0.000000   0.000000   0.000000
    34  H    0.000000   0.000000   0.000000   0.000000   0.000000   0.000000
    35  H    0.000000   0.000000   0.000000   0.000000   0.000000   0.000000
               7          8          9         10         11         12
     1  Si   0.106653  -0.006910  -0.006910   0.041784  -0.017531   0.053461
     2  Cl   0.164733   0.004483   0.004483  -0.118830  -0.002957   0.007061
     3  C   -0.159372   0.009566  -0.012300  -0.123299  -0.008105  -0.009543
     4  H    0.022182  -0.000133   0.000874   0.015059  -0.000081  -0.000053
     5  H   -0.016012  -0.000111   0.000527  -0.009543   0.000224   0.000345
     6  H    0.006794  -0.000085  -0.000158  -0.008105   0.001129   0.000224
     7  C   10.191872   0.377079   0.377079  -0.159367   0.006794  -0.016012
     8  H    0.377079   0.504172  -0.019137  -0.012300  -0.000158   0.000527
     9  H    0.377079  -0.019137   0.504172   0.009566  -0.000085  -0.000111
    10  C   -0.159367  -0.012300   0.009566   5.942823   0.377955   0.318515
    11  H    0.006794  -0.000158  -0.000085   0.377955   0.498336  -0.018995
    12  H   -0.016012   0.000527  -0.000111   0.318515  -0.018995   0.523646
    13  H    0.022181   0.000874  -0.000133   0.373934  -0.015278  -0.017795
    14  C   -0.802865  -0.030615  -0.030616   0.046371   0.006238   0.010091
    15  H   -0.112029   0.007765  -0.005401  -0.006927  -0.000053  -0.000030
    16  H   -0.112027  -0.005401   0.007765   0.002684   0.000169   0.001117
    17  C   -0.456760  -0.019548  -0.019547   0.058489  -0.001485  -0.008300
    18  H   -0.024265   0.004051  -0.000538  -0.000596   0.000000   0.000021
    19  H   -0.024262  -0.000538   0.004051  -0.000968   0.000002   0.000005
    20  C   -1.586756   0.001468   0.001468   0.000166   0.000720  -0.006586
    21  H    0.002918  -0.000032   0.000085   0.000134   0.000000   0.000007
    22  H    0.002919   0.000085  -0.000032  -0.000670   0.000001   0.000004
    23  C   -0.603985   0.001702   0.001703   0.001609  -0.000007  -0.000693
    24  H    0.001038  -0.000040   0.000010   0.000005   0.000000   0.000000
    25  H    0.001038   0.000010  -0.000040  -0.000012   0.000000   0.000000
    26  C   -0.195381  -0.000159  -0.000159   0.000034   0.000003  -0.000216
    27  H   -0.000073   0.000000   0.000001  -0.000002   0.000000   0.000000
    28  H   -0.000073   0.000001   0.000000   0.000004   0.000000   0.000000
    29  C   -0.010662   0.000000   0.000000  -0.000019   0.000000  -0.000002
    30  H   -0.000035   0.000000   0.000000   0.000000   0.000000   0.000000
    31  H   -0.000035   0.000000   0.000000   0.000000   0.000000   0.000000
    32  C   -0.002561   0.000000   0.000000   0.000001   0.000000   0.000000
    33  H   -0.000003   0.000000   0.000000   0.000000   0.000000   0.000000
    34  H    0.000002   0.000000   0.000000   0.000000   0.000000   0.000000
    35  H   -0.000003   0.000000   0.000000   0.000000   0.000000   0.000000
              13         14         15         16         17         18
     1  Si  -0.023514   0.354082   0.008670   0.008670  -0.298982   0.006208
     2  Cl   0.000738  -0.199510   0.000382   0.000382  -0.085415   0.000012
     3  C    0.015059   0.046374   0.002684  -0.006927   0.058489  -0.000968
     4  H   -0.000172  -0.022180  -0.000355   0.000140  -0.004613   0.000004
     5  H   -0.000053   0.010091   0.001117  -0.000030  -0.008300   0.000005
     6  H   -0.000081   0.006238   0.000169  -0.000053  -0.001485   0.000002
     7  C    0.022181  -0.802865  -0.112029  -0.112027  -0.456760  -0.024265
     8  H    0.000874  -0.030615   0.007765  -0.005401  -0.019548   0.004051
     9  H   -0.000133  -0.030616  -0.005401   0.007765  -0.019547  -0.000538
    10  C    0.373934   0.046371  -0.006927   0.002684   0.058489  -0.000596
    11  H   -0.015278   0.006238  -0.000053   0.000169  -0.001485   0.000000
    12  H   -0.017795   0.010091  -0.000030   0.001117  -0.008300   0.000021
    13  H    0.496697  -0.022180   0.000140  -0.000355  -0.004613   0.000004
    14  C   -0.022180  10.396616   0.483132   0.483132  -0.798425  -0.082878
    15  H    0.000140   0.483132   0.568814  -0.039042  -0.092030   0.009010
    16  H   -0.000355   0.483132  -0.039042   0.568814  -0.092031  -0.007504
    17  C   -0.004613  -0.798425  -0.092030  -0.092031   7.862520   0.458230
    18  H    0.000004  -0.082878   0.009010  -0.007504   0.458230   0.560028
    19  H    0.000004  -0.082876  -0.007504   0.009010   0.458230  -0.036403
    20  C   -0.002654  -1.209948   0.024608   0.024607   0.314394  -0.053146
    21  H   -0.000001   0.012028   0.003184  -0.000482  -0.080725   0.008446
    22  H    0.000006   0.012030  -0.000482   0.003184  -0.080723  -0.007352
    23  C   -0.000128  -1.280918   0.010546   0.010545  -0.277161   0.009988
    24  H    0.000000   0.009364  -0.000072   0.000068  -0.003182   0.002924
    25  H    0.000000   0.009364   0.000068  -0.000072  -0.003181  -0.000568
    26  C   -0.000025  -1.138446   0.002074   0.002073  -0.567395   0.008765
    27  H    0.000000   0.000905  -0.000038   0.000014   0.003856  -0.000061
    28  H    0.000000   0.000904   0.000014  -0.000038   0.003856   0.000059
    29  C    0.000000  -0.049358   0.000147   0.000147  -0.154110   0.000881
    30  H    0.000000  -0.000590   0.000000   0.000000   0.000534  -0.000036
    31  H    0.000000  -0.000590   0.000000   0.000000   0.000534   0.000010
    32  C    0.000000  -0.029656   0.000007   0.000007  -0.034978   0.000066
    33  H    0.000000  -0.000062   0.000000   0.000000  -0.000681   0.000000
    34  H    0.000000   0.000071   0.000000   0.000000   0.000537   0.000000
    35  H    0.000000  -0.000062   0.000000   0.000000  -0.000681   0.000000
              19         20         21         22         23         24
     1  Si   0.006208  -0.175426   0.002170   0.002170  -0.046007   0.000092
     2  Cl   0.000012  -0.023073   0.000005   0.000005  -0.002717   0.000001
     3  C   -0.000596   0.000167  -0.000670   0.000134   0.001610  -0.000012
     4  H    0.000004  -0.002654   0.000006  -0.000001  -0.000128   0.000000
     5  H    0.000021  -0.006586   0.000004   0.000007  -0.000693   0.000000
     6  H    0.000000   0.000720   0.000001   0.000000  -0.000007   0.000000
     7  C   -0.024262  -1.586756   0.002918   0.002919  -0.603985   0.001038
     8  H   -0.000538   0.001468  -0.000032   0.000085   0.001702  -0.000040
     9  H    0.004051   0.001468   0.000085  -0.000032   0.001703   0.000010
    10  C   -0.000968   0.000166   0.000134  -0.000670   0.001609   0.000005
    11  H    0.000002   0.000720   0.000000   0.000001  -0.000007   0.000000
    12  H    0.000005  -0.006586   0.000007   0.000004  -0.000693   0.000000
    13  H    0.000004  -0.002654  -0.000001   0.000006  -0.000128   0.000000
    14  C   -0.082876  -1.209948   0.012028   0.012030  -1.280918   0.009364
    15  H   -0.007504   0.024608   0.003184  -0.000482   0.010546  -0.000072
    16  H    0.009010   0.024607  -0.000482   0.003184   0.010545   0.000068
    17  C    0.458230   0.314394  -0.080725  -0.080723  -0.277161  -0.003182
    18  H   -0.036403  -0.053146   0.008446  -0.007352   0.009988   0.002924
    19  H    0.560028  -0.053148  -0.007352   0.008446   0.009986  -0.000568
    20  C   -0.053148   8.319581   0.482254   0.482254   0.294395  -0.074216
    21  H   -0.007352   0.482254   0.564213  -0.038932  -0.083822   0.008464
    22  H    0.008446   0.482254  -0.038932   0.564213  -0.083824  -0.007718
    23  C    0.009986   0.294395  -0.083822  -0.083824   7.021834   0.479411
    24  H   -0.000568  -0.074216   0.008464  -0.007718   0.479411   0.562221
    25  H    0.002924  -0.074215  -0.007717   0.008464   0.479411  -0.038101
    26  C    0.008764  -0.426330  -0.009005  -0.009008   0.366947  -0.085672
    27  H    0.000059  -0.008264   0.002945  -0.000577  -0.068057   0.008442
    28  H   -0.000061  -0.008265  -0.000578   0.002945  -0.068057  -0.007828
    29  C    0.000881  -0.098071   0.001374   0.001374   0.149628  -0.001520
    30  H    0.000010  -0.000670  -0.000056   0.000050  -0.005819   0.003272
    31  H   -0.000036  -0.000670   0.000050  -0.000056  -0.005819  -0.000843
    32  C    0.000066  -0.190060  -0.000212  -0.000212  -0.093769   0.002189
    33  H    0.000000  -0.001242  -0.000030   0.000007  -0.005296  -0.000022
    34  H    0.000000   0.005273   0.000001   0.000001   0.012184  -0.000007
    35  H    0.000000  -0.001242   0.000007  -0.000030  -0.005296   0.000004
              25         26         27         28         29         30
     1  Si   0.000092  -0.018111   0.000015   0.000015  -0.000761  -0.000003
     2  Cl   0.000001  -0.000278   0.000000   0.000000  -0.000003   0.000000
     3  C    0.000005   0.000034   0.000004  -0.000002  -0.000019   0.000000
     4  H    0.000000  -0.000025   0.000000   0.000000   0.000000   0.000000
     5  H    0.000000  -0.000216   0.000000   0.000000  -0.000002   0.000000
     6  H    0.000000   0.000003   0.000000   0.000000   0.000000   0.000000
     7  C    0.001038  -0.195381  -0.000073  -0.000073  -0.010662  -0.000035
     8  H    0.000010  -0.000159   0.000000   0.000001   0.000000   0.000000
     9  H   -0.000040  -0.000159   0.000001   0.000000   0.000000   0.000000
    10  C   -0.000012   0.000034  -0.000002   0.000004  -0.000019   0.000000
    11  H    0.000000   0.000003   0.000000   0.000000   0.000000   0.000000
    12  H    0.000000  -0.000216   0.000000   0.000000  -0.000002   0.000000
    13  H    0.000000  -0.000025   0.000000   0.000000   0.000000   0.000000
    14  C    0.009364  -1.138446   0.000905   0.000904  -0.049358  -0.000590
    15  H    0.000068   0.002074  -0.000038   0.000014   0.000147   0.000000
    16  H   -0.000072   0.002073   0.000014  -0.000038   0.000147   0.000000
    17  C   -0.003181  -0.567395   0.003856   0.003856  -0.154110   0.000534
    18  H   -0.000568   0.008765  -0.000061   0.000059   0.000881  -0.000036
    19  H    0.002924   0.008764   0.000059  -0.000061   0.000881   0.000010
    20  C   -0.074215  -0.426330  -0.008264  -0.008265  -0.098071  -0.000670
    21  H   -0.007717  -0.009005   0.002945  -0.000578   0.001374  -0.000056
    22  H    0.008464  -0.009008  -0.000577   0.002945   0.001374   0.000050
    23  C    0.479411   0.366947  -0.068057  -0.068057   0.149628  -0.005819
    24  H   -0.038101  -0.085672   0.008442  -0.007828  -0.001520   0.003272
    25  H    0.562221  -0.085675  -0.007828   0.008442  -0.001520  -0.000843
    26  C   -0.085675   7.393623   0.475129   0.475130   0.153083  -0.040448
    27  H   -0.007828   0.475129   0.566199  -0.039157  -0.079478   0.008624
    28  H    0.008442   0.475130  -0.039157   0.566199  -0.079478  -0.008558
    29  C   -0.001520   0.153083  -0.079478  -0.079478   5.498927   0.430907
    30  H   -0.000843  -0.040448   0.008624  -0.008558   0.430907   0.570251
    31  H    0.003272  -0.040447  -0.008558   0.008624   0.430908  -0.036774
    32  C    0.002189   0.162844   0.003341   0.003341   0.187461  -0.050834
    33  H    0.000004  -0.023787   0.004349  -0.001157  -0.023677   0.008811
    34  H   -0.000007   0.043437   0.000064   0.000064  -0.063829  -0.005022
    35  H   -0.000022  -0.023787  -0.001157   0.004349  -0.023677  -0.008773
              31         32         33         34         35
     1  Si  -0.000003  -0.000171   0.000000   0.000000   0.000000
     2  Cl   0.000000   0.000000   0.000000   0.000000   0.000000
     3  C    0.000000   0.000001   0.000000   0.000000   0.000000
     4  H    0.000000   0.000000   0.000000   0.000000   0.000000
     5  H    0.000000   0.000000   0.000000   0.000000   0.000000
     6  H    0.000000   0.000000   0.000000   0.000000   0.000000
     7  C   -0.000035  -0.002561  -0.000003   0.000002  -0.000003
     8  H    0.000000   0.000000   0.000000   0.000000   0.000000
     9  H    0.000000   0.000000   0.000000   0.000000   0.000000
    10  C    0.000000   0.000001   0.000000   0.000000   0.000000
    11  H    0.000000   0.000000   0.000000   0.000000   0.000000
    12  H    0.000000   0.000000   0.000000   0.000000   0.000000
    13  H    0.000000   0.000000   0.000000   0.000000   0.000000
    14  C   -0.000590  -0.029656  -0.000062   0.000071  -0.000062
    15  H    0.000000   0.000007   0.000000   0.000000   0.000000
    16  H    0.000000   0.000007   0.000000   0.000000   0.000000
    17  C    0.000534  -0.034978  -0.000681   0.000537  -0.000681
    18  H    0.000010   0.000066   0.000000   0.000000   0.000000
    19  H   -0.000036   0.000066   0.000000   0.000000   0.000000
    20  C   -0.000670  -0.190060  -0.001242   0.005273  -0.001242
    21  H    0.000050  -0.000212  -0.000030   0.000001   0.000007
    22  H   -0.000056  -0.000212   0.000007   0.000001  -0.000030
    23  C   -0.005819  -0.093769  -0.005296   0.012184  -0.005296
    24  H   -0.000843   0.002189  -0.000022  -0.000007   0.000004
    25  H    0.003272   0.002189   0.000004  -0.000007  -0.000022
    26  C   -0.040447   0.162844  -0.023787   0.043437  -0.023787
    27  H   -0.008558   0.003341   0.004349   0.000064  -0.001157
    28  H    0.008624   0.003341  -0.001157   0.000064   0.004349
    29  C    0.430908   0.187461  -0.023677  -0.063829  -0.023677
    30  H   -0.036774  -0.050834   0.008811  -0.005022  -0.008773
    31  H    0.570251  -0.050833  -0.008773  -0.005022   0.008811
    32  C   -0.050833   5.451082   0.422392   0.379081   0.422392
    33  H   -0.008773   0.422392   0.560736  -0.026612  -0.034172
    34  H   -0.005022   0.379081  -0.026612   0.552103  -0.026612
    35  H    0.008811   0.422392  -0.034172  -0.026612   0.560736
 Mulliken charges:
               1
     1  Si   0.923832
     2  Cl  -0.226343
     3  C   -0.748494
     4  H    0.177345
     5  H    0.163316
     6  H    0.173166
     7  C   -1.000742
     8  H    0.183384
     9  H    0.183384
    10  C   -0.748494
    11  H    0.173166
    12  H    0.163316
    13  H    0.177345
    14  C   -0.105253
    15  H    0.141431
    16  H    0.141431
    17  C   -0.125318
    18  H    0.145602
    19  H    0.145602
    20  C    0.051147
    21  H    0.141318
    22  H    0.141318
    23  C   -0.219294
    24  H    0.142293
    25  H    0.142293
    26  C   -0.427374
    27  H    0.139305
    28  H    0.139305
    29  C   -0.269530
    30  H    0.136000
    31  H    0.135999
    32  C   -0.583175
    33  H    0.129215
    34  H    0.134292
    35  H    0.129215
 Sum of Mulliken charges =   0.00000
 Mulliken charges with hydrogens summed into heavy atoms:
               1
     1  Si   0.923832
     2  Cl  -0.226343
     3  C   -0.234668
     7  C   -0.633974
    10  C   -0.234668
    14  C    0.177609
    17  C    0.165886
    20  C    0.333784
    23  C    0.065292
    26  C   -0.148765
    29  C    0.002469
    32  C   -0.190453
 Electronic spatial extent (au):  <R**2>=           7371.3076
 Charge=              0.0000 electrons
 Dipole moment (field-independent basis, Debye):
    X=             -2.4744    Y=              1.4109    Z=              0.0000  Tot=              2.8484
 Quadrupole moment (field-independent basis, Debye-Ang):
   XX=           -113.6308   YY=            -96.1554   ZZ=            -92.5943
   XY=              7.9129   XZ=              0.0000   YZ=              0.0000
 Traceless Quadrupole moment (field-independent basis, Debye-Ang):
   XX=            -12.8373   YY=              4.6381   ZZ=              8.1992
   XY=              7.9129   XZ=              0.0000   YZ=              0.0000
 Octapole moment (field-independent basis, Debye-Ang**2):
  XXX=            -56.8633  YYY=             -1.2973  ZZZ=              0.0000  XYY=              4.1288
  XXY=             26.3974  XXZ=              0.0001  XZZ=              0.5807  YZZ=             -4.5823
  YYZ=              0.0000  XYZ=              0.0000
 Hexadecapole moment (field-independent basis, Debye-Ang**3):
 XXXX=         -10023.9181 YYYY=           -576.3444 ZZZZ=           -430.1656 XXXY=            213.0319
 XXXZ=             -0.0001 YYYX=             -8.6792 YYYZ=              0.0001 ZZZX=             -0.0001
 ZZZY=             -0.0001 XXYY=          -1664.5374 XXZZ=          -1597.4688 YYZZ=           -168.1644
 XXYZ=              0.0002 YYXZ=              0.0000 ZZXY=            -15.7568
 N-N= 8.679074562315D+02 E-N=-4.433764497043D+03  KE= 1.141721841296D+03
 There are a total of      292250 grid points.
 ElSum from          density=      114.0001678767
 ElSum from atomic densities=      114.0004087433

 Hirshfeld populations at iteration   1 (CX, CA, CB, DipXYZ):
               1          2          3          4          5          6
     1  Si   0.000000   6.788722   6.788722   0.022478   0.007615   0.000000
     2  Cl   0.000007   8.609988   8.609988   0.008092  -0.010149   0.000000
     3  C    0.000000   3.100571   3.100571  -0.004205   0.065681  -0.084002
     4  H    0.000002   0.479014   0.479014  -0.006117  -0.092883  -0.132538
     5  H    0.000001   0.479208   0.479208  -0.123376   0.099334  -0.000797
     6  H    0.000002   0.478840   0.478840   0.134493   0.090724   0.001195
     7  C    0.000000   3.078581   3.078581  -0.117418  -0.048664   0.000000
     8  H    0.000002   0.480874   0.480874  -0.010788  -0.086470   0.130509
     9  H    0.000002   0.480874   0.480874  -0.010788  -0.086469  -0.130510
    10  C    0.000000   3.100571   3.100571  -0.004205   0.065681   0.084002
    11  H    0.000002   0.478840   0.478840   0.134493   0.090724  -0.001195
    12  H    0.000001   0.479208   0.479208  -0.123376   0.099334   0.000797
    13  H    0.000002   0.479014   0.479014  -0.006117  -0.092884   0.132538
    14  C    0.000000   3.027330   3.027330  -0.008841  -0.011766   0.000000
    15  H    0.000000   0.483329   0.483329  -0.000234   0.075138  -0.121461
    16  H    0.000000   0.483329   0.483329  -0.000234   0.075137   0.121461
    17  C    0.000000   3.028770   3.028770  -0.001388   0.008036   0.000000
    18  H    0.000000   0.483467   0.483467  -0.004164  -0.076465   0.122204
    19  H    0.000000   0.483467   0.483467  -0.004164  -0.076465  -0.122204
    20  C    0.000000   3.029995   3.029995  -0.000966  -0.009274   0.000000
    21  H    0.000000   0.484387   0.484387   0.002407   0.075377  -0.121366
    22  H    0.000000   0.484387   0.484387   0.002408   0.075378   0.121366
    23  C    0.000000   3.029714   3.029714  -0.000005   0.008057   0.000000
    24  H    0.000000   0.484165   0.484165  -0.003111  -0.075843   0.121288
    25  H    0.000000   0.484165   0.484165  -0.003111  -0.075844  -0.121288
    26  C    0.000000   3.029733   3.029733  -0.000701  -0.008814   0.000000
    27  H    0.000000   0.484336   0.484336   0.002441   0.075269  -0.121152
    28  H    0.000000   0.484336   0.484336   0.002441   0.075270   0.121151
    29  C    0.000000   3.029003   3.029003  -0.005032   0.010581   0.000000
    30  H    0.000000   0.484286   0.484286  -0.007456  -0.076841   0.121663
    31  H    0.000000   0.484286   0.484286  -0.007457  -0.076843  -0.121662
    32  C    0.000000   3.051851   3.051851   0.013659  -0.011368   0.000000
    33  H    0.000000   0.483700   0.483700   0.005615   0.079368  -0.121732
    34  H    0.000001   0.484043   0.484043  -0.117056  -0.087773   0.000001
    35  H    0.000000   0.483700   0.483700   0.005615   0.079370   0.121731
       Tot   0.000025  57.000084  57.000084  -0.236169   0.151259   0.000000

 Dip from Atomic Chgs             -0.734929   0.403849   0.000001
         Total Dipole             -0.971098   0.555109   0.000001

 Hirshfeld charges, spin densities, dipoles, and CM5 charges using IRadAn=      4:
              Q-H        S-H        Dx         Dy         Dz        Q-CM5   
     1  Si   0.422556   0.000000   0.022478   0.007615   0.000000   0.306555
     2  Cl  -0.219977   0.000000   0.008092  -0.010149   0.000000  -0.254356
     3  C   -0.201143   0.000000  -0.004205   0.065681  -0.084002  -0.322413
     4  H    0.041971   0.000000  -0.006117  -0.092883  -0.132538   0.098991
     5  H    0.041584   0.000000  -0.123376   0.099334  -0.000797   0.098767
     6  H    0.042319   0.000000   0.134493   0.090724   0.001195   0.099292
     7  C   -0.157162   0.000000  -0.117418  -0.048664   0.000000  -0.236612
     8  H    0.038253   0.000000  -0.010788  -0.086470   0.130509   0.099547
     9  H    0.038253   0.000000  -0.010788  -0.086469  -0.130510   0.099547
    10  C   -0.201143   0.000000  -0.004205   0.065681   0.084002  -0.322413
    11  H    0.042319   0.000000   0.134493   0.090724  -0.001195   0.099292
    12  H    0.041584   0.000000  -0.123376   0.099334   0.000797   0.098767
    13  H    0.041971   0.000000  -0.006117  -0.092884   0.132538   0.098991
    14  C   -0.054661   0.000000  -0.008841  -0.011766   0.000000  -0.168143
    15  H    0.033343   0.000000  -0.000234   0.075138  -0.121461   0.093708
    16  H    0.033343   0.000000  -0.000234   0.075137   0.121461   0.093708
    17  C   -0.057539   0.000000  -0.001388   0.008036   0.000000  -0.175134
    18  H    0.033065   0.000000  -0.004164  -0.076465   0.122204   0.091948
    19  H    0.033065   0.000000  -0.004164  -0.076465  -0.122204   0.091948
    20  C   -0.059990   0.000000  -0.000966  -0.009274   0.000000  -0.177710
    21  H    0.031227   0.000000   0.002407   0.075377  -0.121366   0.090093
    22  H    0.031227   0.000000   0.002408   0.075378   0.121366   0.090093
    23  C   -0.059427   0.000000  -0.000005   0.008057   0.000000  -0.177156
    24  H    0.031671   0.000000  -0.003111  -0.075843   0.121288   0.090532
    25  H    0.031671   0.000000  -0.003111  -0.075844  -0.121288   0.090532
    26  C   -0.059465   0.000000  -0.000701  -0.008814   0.000000  -0.177279
    27  H    0.031327   0.000000   0.002441   0.075269  -0.121152   0.090164
    28  H    0.031327   0.000000   0.002441   0.075270   0.121151   0.090164
    29  C   -0.058007   0.000000  -0.005032   0.010581   0.000000  -0.177524
    30  H    0.031427   0.000000  -0.007456  -0.076841   0.121663   0.089444
    31  H    0.031427   0.000000  -0.007457  -0.076843  -0.121662   0.089444
    32  C   -0.103702   0.000000   0.013659  -0.011368   0.000000  -0.262965
    33  H    0.032601   0.000000   0.005615   0.079368  -0.121732   0.087132
    34  H    0.031914   0.000000  -0.117056  -0.087773   0.000001   0.085747
    35  H    0.032601   0.000000   0.005615   0.079370   0.121731   0.087132
       Tot  -0.000168   0.000000  -0.236169   0.151259   0.000000  -0.000168
 Hirshfeld charges with hydrogens summed into heavy atoms:
              Q-H       Q-CM5   
     1  Si   0.422556   0.306555
     2  Cl  -0.219977  -0.254356
     3  C   -0.075269  -0.025362
     7  C   -0.080656  -0.037519
    10  C   -0.075269  -0.025362
    14  C    0.012025   0.019272
    17  C    0.008592   0.008761
    20  C    0.002464   0.002477
    23  C    0.003914   0.003908
    26  C    0.003189   0.003048
    29  C    0.004848   0.001363
    32  C   -0.006587  -0.002953
 
 EQQ= 0.000000000000E+00 EQD= 0.000000000000E+00 EDD= 0.269797178213E-02
 EQQ+QD+DD= 0.269797178213E-02
 
          MBS Condensed to atoms (all electrons):
               1          2          3          4          5          6
     1  Si  12.170281   0.224897   0.341590  -0.015204  -0.014036  -0.015013
     2  Cl   0.224897  17.184915  -0.005365   0.000017   0.000149   0.000006
     3  C    0.341590  -0.005365   4.993823   0.375605   0.374302   0.375693
     4  H   -0.015204   0.000017   0.375605   0.572528  -0.021353  -0.021133
     5  H   -0.014036   0.000149   0.374302  -0.021353   0.577055  -0.021185
     6  H   -0.015013   0.000006   0.375693  -0.021133  -0.021185   0.571219
     7  C    0.341489  -0.005396  -0.007030  -0.000221  -0.000131   0.000201
     8  H   -0.016626   0.000056   0.000199   0.000001   0.000001  -0.000005
     9  H   -0.016626   0.000056  -0.000192   0.000129   0.000027  -0.000002
    10  C    0.341590  -0.005365  -0.007419   0.000215  -0.000046  -0.000198
    11  H   -0.015013   0.000006  -0.000198  -0.000001   0.000019   0.000108
    12  H   -0.014036   0.000149  -0.000046  -0.000001   0.000014   0.000019
    13  H   -0.015204   0.000017   0.000215  -0.000006  -0.000001  -0.000001
    14  C   -0.013098   0.000052  -0.000638   0.000024  -0.000297   0.000016
    15  H   -0.002737   0.000001  -0.000002   0.000037   0.000700  -0.000013
    16  H   -0.002737   0.000001   0.000029   0.000003   0.000020  -0.000002
    17  C    0.000869   0.000000   0.000001  -0.000001   0.000000   0.000000
    18  H    0.000005   0.000000   0.000000   0.000000   0.000000   0.000000
    19  H    0.000005   0.000000   0.000000   0.000000   0.000000   0.000000
    20  C   -0.000011   0.000000   0.000000   0.000000   0.000000   0.000000
    21  H    0.000000   0.000000   0.000000   0.000000   0.000000   0.000000
    22  H    0.000000   0.000000   0.000000   0.000000   0.000000   0.000000
    23  C    0.000000   0.000000   0.000000   0.000000   0.000000   0.000000
    24  H    0.000000   0.000000   0.000000   0.000000   0.000000   0.000000
    25  H    0.000000   0.000000   0.000000   0.000000   0.000000   0.000000
    26  C    0.000000   0.000000   0.000000   0.000000   0.000000   0.000000
    27  H    0.000000   0.000000   0.000000   0.000000   0.000000   0.000000
    28  H    0.000000   0.000000   0.000000   0.000000   0.000000   0.000000
    29  C    0.000000   0.000000   0.000000   0.000000   0.000000   0.000000
    30  H    0.000000   0.000000   0.000000   0.000000   0.000000   0.000000
    31  H    0.000000   0.000000   0.000000   0.000000   0.000000   0.000000
    32  C    0.000000   0.000000   0.000000   0.000000   0.000000   0.000000
    33  H    0.000000   0.000000   0.000000   0.000000   0.000000   0.000000
    34  H    0.000000   0.000000   0.000000   0.000000   0.000000   0.000000
    35  H    0.000000   0.000000   0.000000   0.000000   0.000000   0.000000
               7          8          9         10         11         12
     1  Si   0.341489  -0.016626  -0.016626   0.341590  -0.015013  -0.014036
     2  Cl  -0.005396   0.000056   0.000056  -0.005365   0.000006   0.000149
     3  C   -0.007030   0.000199  -0.000192  -0.007419  -0.000198  -0.000046
     4  H   -0.000221   0.000001   0.000129   0.000215  -0.000001  -0.000001
     5  H   -0.000131   0.000001   0.000027  -0.000046   0.000019   0.000014
     6  H    0.000201  -0.000005  -0.000002  -0.000198   0.000108   0.000019
     7  C    4.963655   0.374399   0.374399  -0.007030   0.000201  -0.000131
     8  H    0.374399   0.592006  -0.023063  -0.000192  -0.000002   0.000027
     9  H    0.374399  -0.023063   0.592006   0.000199  -0.000005   0.000001
    10  C   -0.007030  -0.000192   0.000199   4.993823   0.375693   0.374302
    11  H    0.000201  -0.000002  -0.000005   0.375693   0.571219  -0.021185
    12  H   -0.000131   0.000027   0.000001   0.374302  -0.021185   0.577055
    13  H   -0.000221   0.000129   0.000001   0.375605  -0.021133  -0.021353
    14  C    0.356144  -0.022991  -0.022991  -0.000638   0.000016  -0.000297
    15  H   -0.024744   0.002412  -0.002539   0.000029  -0.000002   0.000020
    16  H   -0.024744  -0.002539   0.002412  -0.000002  -0.000013   0.000700
    17  C   -0.024524  -0.002908  -0.002908   0.000001   0.000000   0.000000
    18  H   -0.002406   0.001279  -0.000050   0.000000   0.000000   0.000000
    19  H   -0.002406  -0.000050   0.001279   0.000000   0.000000   0.000000
    20  C    0.000886   0.000015   0.000015   0.000000   0.000000   0.000000
    21  H    0.000008   0.000000   0.000003   0.000000   0.000000   0.000000
    22  H    0.000008   0.000003   0.000000   0.000000   0.000000   0.000000
    23  C   -0.000008   0.000000   0.000000   0.000000   0.000000   0.000000
    24  H    0.000000   0.000000   0.000000   0.000000   0.000000   0.000000
    25  H    0.000000   0.000000   0.000000   0.000000   0.000000   0.000000
    26  C    0.000000   0.000000   0.000000   0.000000   0.000000   0.000000
    27  H    0.000000   0.000000   0.000000   0.000000   0.000000   0.000000
    28  H    0.000000   0.000000   0.000000   0.000000   0.000000   0.000000
    29  C    0.000000   0.000000   0.000000   0.000000   0.000000   0.000000
    30  H    0.000000   0.000000   0.000000   0.000000   0.000000   0.000000
[...]
 0000217,-0.00000137,-0.00000073,-0.00000052,-0.00002200,-0.00000163,0.
 00000402,0.00000212,0.00000159,0.00000419,0.00000013,-0.00000039,-0.00
 000127,-0.00000510,0.00000459,0.00000286,-0.00000083,0.00000097,0.0000
 0014,0.00000084,-0.00000323,-0.00000031,0.00000004,0.00000064,0.000001
 59,-0.00000040,-0.00002021,0.00002134,0.00000294,0.00000331,0.00000208
 ,-0.00000201,0.00000206,-0.00000250,-0.00008593,-0.00000013,-0.0000324
 1,-0.00000576,0.00000533,0.00001341,0.00000109,-0.00000417,-0.00000016
 ,0.00008343,0.00010776,0.00042261,0.00018123,0.00002358,-0.00011074,-0
 .00001988,0.00000194,-0.00002574,0.00050032,0.00034904,0.00066966,-0.0
 0016737,-0.00022480,0.00056842,-0.00004053,0.00001863,-0.00000019,-0.0
 0061883,-0.00008452,-0.00074973,0.00019810,0.00059550,0.00089553,-0.00
 036925,0.00033640,0.00014230,-0.06803040,-0.09334398,-0.21661753,0.072
 92894,0.10121712,0.23957438,0.00000831,0.00002326,-0.00000693,-0.00000
 292,-0.00000853,0.00000706,-0.00000241,-0.00000377,-0.00000245,-0.0000
 0038,-0.00000191,0.00000053,0.00000061,0.00000180,0.00000183,-0.000000
 26,-0.00000047,-0.00000029,-0.00000393,-0.00000266,0.00000184,-0.00000
 068,0.00000050,-0.00000019,0.00000051,-0.00000348,0.00000219,-0.000002
 31,-0.00000450,-0.00000080,-0.00000102,0.00000007,0.00000028,0.0000017
 9,-0.00000107,0.00000180,0.00000086,-0.00000007,-0.00000134,0.00001381
 ,0.00000540,-0.00000781,-0.00000331,0.00000261,-0.00000236,0.00000925,
 -0.00000473,-0.00000575,0.00004231,-0.00010463,-0.00000189,-0.00000081
 ,0.00000111,0.00000316,-0.00003183,-0.00005093,0.00005302,-0.00011670,
 -0.00023339,-0.00006253,-0.00001195,0.00003819,-0.00002065,0.00029598,
 -0.00022128,-0.00003677,0.00143877,0.00154974,-0.00095052,0.00000750,-
 0.00010619,0.00005388,-0.00005021,-0.00105315,0.00051224,-0.01434025,0
 .03282856,0.00047499,0.00146510,-0.00032324,-0.00037983,-0.00668572,-0
 .00030696,0.00009284,-0.07381283,0.07665869,-0.00276014,0.00331099,-0.
 01025963,0.00071416,0.08426141,-0.00001743,-0.00002954,0.00001487,0.00
 000657,0.00001361,-0.00001474,0.00000408,0.00000485,0.00000162,0.00000
 011,0.00000190,0.00000027,-0.00000091,-0.00000164,-0.00000297,0.000000
 72,0.00000046,0.00000060,0.00002202,0.00000247,-0.00000488,0.00000032,
 -0.00000231,-0.00000010,-0.00000143,0.00000598,-0.00000009,0.00000305,
 0.00000623,-0.00000022,0.00000132,-0.00000052,-0.00000025,-0.00000170,
 0.00000155,-0.00000245,-0.00000105,-0.00000009,0.00000182,0.00000125,0
 .00001592,-0.00003120,0.00000040,-0.00000207,0.00000222,-0.00000644,0.
 00000455,0.00000131,0.00010431,-0.00004407,0.00001369,0.00000089,-0.00
 000556,-0.00000551,0.00001072,0.00002713,-0.00000105,-0.00005308,0.000
 52070,-0.00017066,-0.00000267,-0.00002752,0.00000182,-0.00022855,-0.00
 006405,0.00005939,-0.00046298,0.00038628,0.00009675,0.00004276,-0.0000
 4927,0.00003142,0.00030616,0.00055631,-0.00045989,0.00049855,-0.000488
 89,0.00003265,0.00047248,0.00067166,0.00032496,-0.00021727,0.00153148,
 0.00047582,0.07708300,-0.26892871,0.00345472,0.00450878,-0.01471160,-0
 .00059370,-0.08416213,0.29388199,0.00001187,0.00000041,0.00000508,-0.0
 0000258,0.00000021,-0.00000109,-0.00000313,-0.00000113,-0.00000227,0.0
 0000028,-0.00000010,0.00000096,0.00000009,0.00000091,0.00000014,-0.000
 00040,-0.00000042,-0.00000052,-0.00000587,-0.00000106,-0.00000162,0.00
 000080,-0.00000140,-0.00000077,0.00000176,0.00000151,0.00000128,-0.000
 00312,0.00000013,-0.00000118,-0.00000045,0.00000073,0.00000031,0.00000
 029,0.00000011,-0.00000002,0.00000030,-0.00000080,0.,0.00000136,0.0000
 1082,0.00000229,-0.00000331,-0.00000130,-0.00000223,-0.00000528,0.0000
 0097,-0.00000138,0.00000885,-0.00002007,-0.00000846,0.00000373,-0.0000
 0519,-0.00000248,0.00000704,0.00001844,0.00000235,0.00007494,0.0000622
 3,-0.00005992,-0.00004441,-0.00000501,-0.00002595,-0.00003348,0.000057
 33,-0.00004869,0.00019870,-0.00084016,0.00023241,-0.00000698,-0.000103
 69,0.00002198,0.00019571,0.00020381,0.00016097,-0.00037427,0.00053681,
 -0.00054666,0.00008003,0.00058104,0.00012248,0.00001977,0.00050667,0.0
 0068812,-0.00252783,0.00268430,-0.04885434,0.00924322,-0.02573278,0.00
 047867,0.00006032,-0.00709753,0.05185273,0.00017639,0.00001845,-0.0000
 3194,-0.00005290,-0.00002805,0.00004857,-0.00004350,-0.00000205,-0.000
 00559,0.00000472,0.00000309,0.00000374,0.00000741,0.00000231,0.0000062
 3,-0.00000817,-0.00000695,-0.00000496,-0.00017808,-0.00000834,0.000014
 45,0.00000768,0.00000299,0.00000251,0.00000768,-0.00000367,-0.00000134
 ,-0.00004350,0.00000587,-0.00000101,-0.00000817,0.00000777,0.00000354,
 0.00000741,-0.00000655,0.00000111,0.00000472,-0.00000478,-0.00000080,0
 .00001447,-0.00013585,0.00023523,0.00000137,-0.00000608,-0.00001338,0.
 00000137,0.00001463,-0.00000142,-0.00077510,0.00014748,-0.00025535,0.0
 0001613,0.00003360,0.00001515,0.00001613,-0.00002991,-0.00002153,0.000
 12075,-0.00111297,0.00192713,0.00005635,-0.00005485,-0.00008131,0.0000
 5635,0.00009784,0.00000687,-0.00622505,0.00101046,-0.00174960,0.000016
 79,0.00023936,0.00028398,0.00001679,-0.00036559,-0.00006540,-0.0163062
 1,-0.01754400,0.03037792,0.00156850,0.00003535,0.00052557,0.00156850,-
 0.00047290,0.00023203,-0.09214927,-0.01736661,0.03007076,0.00390312,0.
 00511604,-0.00756305,0.00390304,0.00399384,-0.00821094,0.55113025,-0.0
 0005283,0.00000006,0.00001255,0.00001463,0.00000814,-0.00001238,0.0000
 1336,-0.00000332,-0.00000224,-0.00000202,-0.00000250,-0.00000117,-0.00
 000253,0.00000187,-0.00000046,0.00000251,0.00000187,0.00000128,0.00004
 212,0.00000588,-0.00000477,-0.00000318,0.00000074,-0.00000157,-0.00000
 162,-0.00000061,0.00000139,0.00001445,-0.00000940,-0.00000163,0.000002
 67,-0.00000231,-0.00000102,-0.00000291,0.00000473,0.00000140,-0.000001
 50,0.00000115,-0.00000116,-0.00000118,0.00003839,-0.00002875,-0.000002
 26,-0.00000179,-0.00000010,0.00000356,-0.00000896,-0.00000124,0.000102
 64,-0.00008797,0.00000565,-0.00000513,0.00000390,-0.00000699,0.0000044
 9,0.00000774,0.00000415,0.00018926,0.00071750,0.00002504,0.00005427,-0
 .00001961,-0.00000650,-0.00010699,-0.00003562,-0.00001515,0.00075285,-
 0.00041474,-0.00016882,-0.00002868,0.00004137,0.00033316,-0.00008153,0
 .00044890,-0.00006692,-0.00275550,-0.00070512,0.00006072,0.00009598,-0
 .00007096,0.00039546,0.00118653,0.00067177,-0.00086764,-0.01840582,-0.
 10237320,0.04124990,0.00612920,0.00711255,-0.01159852,-0.01344480,-0.0
 1464002,0.02732209,-0.01688518,0.53597724,0.00009147,0.00001255,-0.000
 01443,-0.00002533,-0.00001238,0.00002243,-0.00002439,-0.00000514,-0.00
 000717,0.00000290,0.00000095,0.00000250,0.00000482,0.00000305,0.000004
 18,-0.00000453,-0.00000343,-0.00000245,-0.00007294,-0.00000477,0.00001
 138,0.00000370,0.00000061,-0.00000050,0.00000460,-0.00000080,0.0000008
 4,-0.00002376,0.00000127,-0.00000108,-0.00000444,0.00000369,0.00000172
 ,0.00000460,-0.00000210,0.00000132,0.00000320,-0.00000328,-0.00000115,
 0.00000204,-0.00002875,0.00007157,-0.00000281,-0.00000538,-0.00000819,
 0.00000055,0.00000404,-0.00000102,-0.00017772,0.00000565,-0.00009449,-
 0.00000222,0.00000636,0.00000938,0.00000334,-0.00000921,0.00000554,-0.
 00032771,0.00002505,0.00068859,0.00009221,-0.00002439,-0.00002313,-0.0
 0000092,0.00000274,-0.00000712,-0.00130354,-0.00016882,-0.00021991,0.0
 0011068,0.00016823,0.00029528,0.00008015,0.00009801,-0.00011225,0.0047
 7132,0.00006082,-0.00077540,-0.00142527,-0.00043907,0.00094422,-0.0007
 9545,-0.00003309,0.00020148,0.03187017,0.04124990,-0.14997567,0.011985
 80,0.01477078,-0.02371248,0.00068128,0.00095268,-0.00195983,0.02923710
 ,0.03558659,0.49491022,-0.00003604,-0.00001302,0.00001439,0.00001008,0
 .00000842,-0.00001238,0.00000929,0.00000232,0.00000133,-0.00000140,-0.
 00000035,-0.00000046,-0.00000229,-0.00000068,-0.00000240,0.00000206,0.
 00000094,0.00000077,0.00002114,0.00000246,-0.00000342,-0.00000097,-0.0
 0000013,-0.00000091,-0.00000161,0.00000126,-0.00000055,0.00000914,-0.0
 0000021,-0.00000038,0.00000212,-0.00000133,-0.00000066,-0.00000242,0.0
 0000212,-0.00000094,-0.00000141,0.00000091,0.00000053,-0.00000345,0.00
 000593,-0.00001090,-0.00000035,-0.00000104,0.00000191,-0.00000082,-0.0
 0000011,0.00000105,0.00003018,-0.00001497,0.00000959,0.00000218,0.0000
 0102,-0.00000717,-0.00000056,0.00000627,-0.00000109,-0.00001428,0.0000
 1356,-0.00009231,-0.00003271,-0.00001277,-0.00000377,-0.00000242,0.000
 00013,0.00000475,0.00001319,-0.00009531,0.00016490,-0.00009056,-0.0000
 4830,-0.00014521,0.00000619,0.00003791,-0.00001869,0.00126029,0.000952
 66,0.00079344,0.00000560,-0.00030714,-0.00024000,-0.00002184,0.0000215
 7,-0.00001228,0.00314012,0.00637732,0.01097340,-0.00039536,-0.00110938
 ,0.00244745,0.00023191,0.00024385,-0.00079802,-0.07045276,-0.03476383,
 -0.06506494,0.07271608,-0.00001292,-0.00000103,-0.00000688,0.00000305,
 0.00000032,0.00000119,0.00000375,0.00000155,0.00000207,-0.00000052,-0.
 00000040,-0.00000038,-0.00000066,-0.00000032,0.00000022,0.00000068,0.0
 0000036,0.00000014,0.00000933,0.00000136,0.00000058,-0.00000008,-0.000
 00010,0.00000123,-0.00000075,-0.00000065,0.00000016,0.00000356,0.00000
 008,0.00000093,0.00000076,-0.00000046,-0.00000044,-0.00000086,-0.00000
 057,-0.00000032,-0.00000056,0.00000063,0.00000086,-0.00000184,0.000002
 55,-0.00000948,0.00000090,0.00000347,0.00000225,0.00000011,-0.00000182
 ,-0.00000131,0.00003132,0.00000164,0.00000687,0.00000143,-0.00000211,0
 .00000293,-0.00000086,-0.00000226,0.00000231,-0.00000634,-0.00001656,-
 0.00012673,-0.00002240,0.00001540,0.00000545,0.00000103,-0.00000557,-0
 .00000560,0.00022329,0.00004087,0.00018780,-0.00004968,-0.00008457,-0.
 00005249,0.00000513,-0.00003061,0.00002748,0.00067695,0.00042930,-0.00
 011187,0.00007375,0.00011338,-0.00030918,-0.00010287,-0.00006346,-0.00
 011648,0.00505272,0.00753133,0.01448246,-0.00158708,-0.00053124,0.0032
 6574,0.00065442,0.00089904,-0.00045586,-0.03465203,-0.10028626,-0.0980
 5117,0.03980023,0.10603791,-0.00003974,-0.00001310,-0.00000849,0.00000
 986,0.00000552,-0.00000237,0.00001101,0.00000433,0.00000571,-0.0000010
 0,0.00000027,-0.00000162,-0.00000154,-0.00000192,-0.00000090,0.0000017
 4,0.00000141,0.00000111,0.00002276,0.00000273,-0.00000048,-0.00000108,
 0.00000109,0.00000302,-0.00000261,0.00000029,-0.00000159,0.00001039,0.
 00000178,0.00000197,0.00000226,-0.00000159,-0.00000081,-0.00000231,0.0
 0000012,-0.00000101,-0.00000184,0.00000190,0.00000182,-0.00000561,0.00
 000086,-0.00001315,0.00000527,0.00000404,0.00000538,-0.00000042,-0.000
 00102,-0.00000065,0.00001188,-0.00001252,0.00001603,-0.00000508,0.0000
 0276,0.00001049,-0.00000249,0.00000251,-0.00000478,0.00002290,0.000055
 88,0.00001916,0.00006931,0.00002293,0.00001020,0.00000264,-0.00000591,
 -0.00000280,0.00023236,0.00028400,0.00023668,-0.00012940,-0.00004031,0
 .00034939,-0.00003037,-0.00001055,-0.00003557,-0.00156533,-0.00080822,
 0.00079175,0.00113363,0.00038153,0.00048007,0.00006541,0.00001687,0.00
 001754,-0.00790448,-0.01221118,-0.02394884,0.00256446,0.00344179,-0.00
 335758,-0.00041751,0.00029015,0.00100770,-0.06440915,-0.09743860,-0.22
 629200,0.07007624,0.10563844,0.24993443,0.00013877,0.00003146,-0.00005
 448,-0.00003875,-0.00002692,0.00004662,-0.00003508,-0.00000492,-0.0000
 0199,0.00000508,0.00000271,0.00000146,0.00000818,0.00000150,0.00000815
 ,-0.00000766,-0.00000436,-0.00000346,-0.00008826,-0.00000712,0.0000123
 3,0.00000551,0.00000100,0.00000324,0.00000551,-0.00000331,0.00000075,-
 0.00003508,0.00000418,0.00000327,-0.00000766,0.00000517,0.00000205,0.0
 0000818,-0.00000781,0.00000277,0.00000508,-0.00000262,-0.00000162,0.00
 001709,-0.00003377,0.00005848,-0.00000024,-0.00000005,-0.00000532,-0.0
 0000024,0.00000463,-0.00000261,-0.00016612,0.00005691,-0.00009853,0.00
 000495,0.00000737,0.00001137,0.00000495,-0.00001353,-0.00000070,0.0000
 6430,-0.00021463,0.00037164,0.00000192,-0.00000527,-0.00002263,0.00000
 192,0.00002223,-0.00000674,-0.00070285,0.00035792,-0.00061974,-0.00000
 729,0.00002427,0.00010659,-0.00000729,-0.00010446,0.00003225,0.0006923
 2,-0.00181242,0.00313825,0.00033805,0.00009345,-0.00006950,0.00033805,
 0.00001349,-0.00011568,-0.01056262,0.00083070,-0.00143831,0.00047073,0
 .00035518,0.00046944,0.00047072,-0.00058412,-0.00007304,-0.30591132,0.
 00420972,-0.00728746,-0.00901813,0.00031601,-0.00062403,0.33302525,0.0
 0004298,0.00000739,-0.00000873,-0.00001206,-0.00000776,0.00001209,-0.0
 0001118,-0.00000141,-0.00000195,0.00000138,0.00000065,0.00000079,0.000
 00230,0.00000052,0.00000191,-0.00000213,-0.00000152,-0.00000114,-0.000
 03879,-0.00000192,0.00000338,0.00000192,0.00000042,0.00000029,0.000001
 94,-0.00000099,-0.00000032,-0.00001068,0.00000131,0.00000039,-0.000002
 11,0.00000182,0.00000061,0.00000216,-0.00000191,0.00000050,0.00000137,
 -0.00000114,-0.00000044,0.00000430,-0.00002913,0.00004127,-0.00000057,
 -0.00000116,-0.00000326,0.00000056,0.00000342,0.00000027,-0.00012769,0
 .00003718,-0.00004912,0.00000289,0.00000437,0.00000138,0.00000234,-0.0
 0000936,-0.00000173,-0.00001342,-0.00020694,0.00032391,0.00000609,-0.0
 0000662,-0.00001605,0.00000893,0.00001800,0.00000743,-0.00099270,0.000
 62178,-0.00006528,-0.00000847,-0.00000228,0.00005759,0.00005296,-0.000
 01532,-0.00010535,-0.00016182,-0.00140562,0.00290785,0.00041200,0.0000
 1414,0.00007923,-0.00035093,0.00035274,0.00010601,-0.01641009,-0.00059
 778,-0.00146485,0.00059105,0.00047525,-0.00033737,-0.00003881,0.000211
 81,-0.00071189,0.00485197,-0.04693742,-0.00009542,-0.01553618,-0.00029
 339,0.00016044,-0.00389525,0.04732539,-0.00007442,-0.00000873,0.000017
 46,0.00002089,0.00001209,-0.00002171,0.00001878,0.00000195,0.00000221,
 -0.00000237,-0.00000147,-0.00000134,-0.00000382,-0.00000090,-0.0000033
 0,0.00000367,0.00000254,0.00000213,0.00006717,0.00000338,-0.00000583,-
 0.00000335,-0.00000114,-0.00000098,-0.00000334,0.00000110,0.00000044,0
 .00001907,-0.00000352,-0.00000051,0.00000368,-0.00000307,-0.00000122,-
 0.00000390,0.00000331,-0.00000087,-0.00000238,0.00000182,0.00000045,-0
 .00000745,0.00004127,-0.00007675,-0.00000032,0.00000291,0.00000514,0.0
 0000034,-0.00000590,0.00000057,0.00022110,-0.00004912,0.00009386,-0.00
 000437,-0.00000966,-0.00000916,-0.00000469,0.00000931,0.00000458,0.000
 02324,0.00032391,-0.00058073,-0.00001382,0.00002164,0.00002298,-0.0000
 1218,-0.00003026,-0.00000164,0.00171889,-0.00006529,0.00069711,-0.0000
 5626,-0.00011287,0.00001223,-0.00002077,0.00006512,0.00002527,0.000280
 20,0.00290786,-0.00476128,0.00016743,0.00030138,0.00024586,-0.00027319
 ,-0.00011614,-0.00009274,0.02841449,-0.00146497,0.00109259,-0.00029623
 ,-0.00086390,0.00081723,-0.00065998,-0.00018536,0.00108068,-0.00839952
 ,-0.00009542,-0.04682723,-0.02754830,0.00165306,-0.00035468,0.00674274
 ,-0.00206895,0.04971288,-0.00003604,-0.00000596,0.00001847,0.00001008,
 0.00000651,-0.00001348,0.00000914,0.00000043,0.,-0.00000141,-0.0000009
 1,-0.00000053,-0.00000242,-0.00000025,-0.00000230,0.00000212,0.0000012
 4,0.00000082,0.00002114,0.00000173,-0.00000384,-0.00000161,-0.00000015
 ,-0.00000136,-0.00000097,0.00000085,-0.00000035,0.00000929,-0.00000232
 ,-0.00000135,0.00000206,-0.00000113,-0.00000043,-0.00000229,0.00000242
 ,-0.00000061,-0.00000140,0.00000057,0.00000008,-0.00000345,0.00000648,
 -0.00001059,-0.00000082,-0.00000085,0.00000062,-0.00000035,-0.00000114
 ,0.00000186,0.00003018,-0.00000083,0.00001776,-0.00000056,-0.00000219,
 -0.00000598,0.00000218,0.00000570,-0.00000447,-0.00001428,0.00007318,-
 0.00005788,-0.00000242,-0.00000419,0.00000226,-0.00003271,0.00000965,0
 .00000918,0.00001319,-0.00009520,0.00016496,0.00000619,-0.00000276,-0.
 00004218,-0.00009056,0.00014991,-0.00003074,0.00126028,-0.00116336,-0.
 00042862,-0.00002184,-0.00000014,-0.00002481,0.00000559,0.00036137,0.0
 0014609,0.00314004,-0.01269190,-0.00003959,0.00023191,0.00056934,-0.00
 061003,-0.00039536,-0.00156543,0.00218407,-0.07045190,0.07372923,-0.00
 240649,0.00261983,-0.01041895,0.00090184,-0.00901795,0.03162576,-0.000
 31103,0.07271513,0.00004088,-0.00001527,-0.00000488,-0.00001006,0.0000
 0121,0.00000501,-0.00001077,0.00000267,0.00000028,0.00000187,0.0000027
 1,0.00000070,0.00000243,-0.00000099,0.00000036,-0.00000233,-0.00000160
 ,-0.00000092,-0.00002438,0.00000141,0.00000270,0.00000263,-0.00000116,
 0.00000058,0.00000097,0.00000325,-0.00000084,-0.00001141,0.00000745,0.
 00000093,-0.00000185,0.00000159,0.00000070,0.00000167,-0.00000149,-0.0
 0000124,0.00000112,-0.00000137,0.00000082,0.00000577,-0.00001296,0.000
 00981,0.00000031,-0.00000195,-0.00000095,-0.00000502,0.00000763,0.0000
 0164,-0.00002595,0.00000999,-0.00001733,0.00000259,-0.00000206,0.00000
 240,0.00000368,0.00000981,-0.00000411,-0.00001667,-0.00002044,0.000058
 12,-0.00000280,-0.00000847,-0.00000424,-0.00004884,0.00002378,0.000018
 09,-0.00031285,0.00039201,0.00008139,0.00002374,-0.00002701,-0.0000126
 3,0.00013691,0.00020083,-0.00020498,0.00101749,0.00030293,-0.00073531,
 -0.00000524,-0.00004581,0.00000669,-0.00101876,0.00041981,0.00020473,0
 .00432122,-0.01510276,0.00084866,0.00003457,0.00090882,0.00028451,-0.0
 0142803,0.00025193,0.00298990,0.07310533,-0.27944398,0.00593424,0.0044
 2585,-0.01375781,0.00022327,0.00038263,0.00044546,-0.00026599,-0.08058
 672,0.30545183,-0.00000867,0.00000134,0.00000576,0.00000228,0.00000068
 ,-0.00000325,0.00000211,-0.00000057,-0.00000062,-0.00000044,-0.0000003
 5,-0.00000027,-0.00000040,-0.00000009,-0.00000060,0.00000047,0.0000002
 2,0.00000033,0.00000330,0.00000055,-0.00000053,-0.00000065,0.00000045,
 -0.00000108,-0.00000047,-0.00000070,-0.00000033,0.00000225,-0.00000133
 ,-0.00000019,0.00000028,-0.00000057,-0.00000012,-0.00000020,0.00000089
 ,0.00000027,-0.00000004,0.00000017,-0.00000066,-0.00000121,-0.00000053
 ,0.00000236,-0.00000030,-0.00000123,-0.00000052,0.00000186,-0.00000015
 ,0.00000122,-0.00002119,0.00000205,0.00000768,-0.00000050,0.00000219,-
 0.00000498,-0.00000378,-0.00000395,-0.00000143,0.00001694,-0.00012450,
 0.00002303,0.00000043,-0.00000393,0.00000011,0.00005405,0.00000062,0.0
 0000182,-0.00007728,-0.00001481,-0.00011446,-0.00001962,0.00002540,-0.
 00003918,-0.00002164,-0.00021716,0.00006399,-0.00136865,-0.00003894,0.
 00091813,0.00012179,-0.00012666,-0.00000011,0.00050268,-0.00048599,0.0
 0017365,-0.00832674,0.02754240,-0.00131467,-0.00077549,-0.00046151,0.0
 0099792,0.00265630,0.00281385,-0.00414075,-0.00217559,0.00532167,-0.04
 713513,0.00947501,-0.02603395,0.00113485,-0.00058555,0.00122652,-0.001
 09373,0.00054866,-0.00942209,0.05052146\\0.00000477,0.00000033,-0.0000
 0058,0.00000460,0.00000417,-0.00000722,-0.00000819,-0.00000797,0.00000
 287,0.00000278,-0.00000535,0.00000356,0.00000768,0.00000837,-0.0000020
 9,-0.00000517,0.00000138,0.00000303,-0.00001311,-0.00000108,0.00000186
 ,0.00000422,0.00000470,0.00000354,0.00000422,-0.00000541,-0.00000230,-
 0.00000819,0.00000150,0.00000834,-0.00000517,-0.00000331,0.00000032,0.
 00000768,-0.00000237,-0.00000829,0.00000278,-0.00000041,0.00000641,-0.
 00000613,-0.00000267,0.00000463,-0.00000034,-0.00000378,-0.00000460,-0
 .00000034,0.00000587,0.00000097,0.00000602,0.00000143,-0.00000247,0.00
 000180,0.00000378,0.00000486,0.00000180,-0.00000610,-0.00000085,-0.000
 00030,-0.00000219,0.00000380,-0.00000141,-0.00000316,-0.00000534,-0.00
 000141,0.00000620,0.00000007,-0.00000388,0.00000115,-0.00000199,0.0000
 0103,0.00000390,0.00000448,0.00000103,-0.00000583,-0.00000114,0.000004
 62,-0.00000011,0.00000020,-0.00000263,-0.00000338,-0.00000527,-0.00000
 263,0.00000625,0.00000030,-0.00000389,0.00000178,-0.00000308,0.0000028
 9,0.00000430,0.00000361,0.00000289,-0.00000528,-0.00000192,-0.00000097
 ,-0.00000173,0.00000299,-0.00000321,-0.00000409,-0.00000708,0.00000940
 ,0.00000093,-0.00000162,-0.00000321,0.00000818,0.\\\@


 THE ONLY EXISTING THINGS ARE ATOMS AND EMPTY SPACE;
 ALL ELSE IS MERE OPINION. -- DEMOCRITUS OF ABDERA D. 370 B.C.
 EXPERIMENTS ARE THE ONLY MEANS OF KNOWLEDGE AT OUR DISPOSAL
 THE REST IS POETRY, IMAGINATION. -- MAX PLANCK
 Job cpu time:       0 days  2 hours 20 minutes 56.8 seconds.
 File lengths (MBytes):  RWF=    632 Int=      0 D2E=      0 Chk=     15 Scr=      1
 Normal termination of Gaussian 09 at Mon Jan  9 17:41:24 2023.
